       N       E                     dE             d eps       ncg     rms          rms(c)
DAV:   1     0.112483064934E+04    0.11248E+04   -0.35860E+04  8160   0.577E+02
DAV:   2     0.359603573052E-01   -0.11248E+04   -0.10804E+04 11000   0.173E+02
DAV:   3    -0.199911910691E+03   -0.19995E+03   -0.19192E+03 11040   0.823E+01
DAV:   4    -0.208928172378E+03   -0.90163E+01   -0.87044E+01 11840   0.256E+01
DAV:   5    -0.209278102384E+03   -0.34993E+00   -0.34901E+00 11640   0.381E+00    0.275E+01
DAV:   6    -0.237208927601E+03   -0.27931E+02   -0.10806E+02 12800   0.605E+01    0.594E+01
DAV:   7    -0.196634891084E+03    0.40574E+02   -0.17744E+02 13120   0.152E+02    0.204E+01
DAV:   8    -0.190086403638E+03    0.65485E+01   -0.20354E+01 11600   0.134E+01    0.137E+01
DAV:   9    -0.188311780683E+03    0.17746E+01   -0.35061E+00 12120   0.623E+00    0.938E+00
DAV:  10    -0.187124582921E+03    0.11872E+01   -0.17722E+00 13240   0.760E+00    0.336E+00
DAV:  11    -0.187014317617E+03    0.11027E+00   -0.65557E-01 12560   0.248E+00    0.237E+00
DAV:  12    -0.187031098921E+03   -0.16781E-01   -0.47879E-01 12640   0.327E+00    0.347E+00
DAV:  13    -0.186933029680E+03    0.98069E-01   -0.27884E-01 13080   0.313E+00    0.190E+00
DAV:  14    -0.186903503207E+03    0.29526E-01   -0.10540E-01 12880   0.174E+00    0.964E-01
DAV:  15    -0.186898402481E+03    0.51007E-02   -0.41770E-02 12000   0.104E+00    0.974E-01
DAV:  16    -0.186892572721E+03    0.58298E-02   -0.15683E-02 12800   0.671E-01    0.485E-01
DAV:  17    -0.186889917286E+03    0.26554E-02   -0.73373E-03 12800   0.387E-01    0.176E-01
DAV:  18    -0.186889384230E+03    0.53306E-03   -0.19223E-03 11680   0.142E-01    0.167E-01
DAV:  19    -0.186889172508E+03    0.21172E-03   -0.77523E-04 11080   0.134E-01    0.464E-02
DAV:  20    -0.186890056609E+03   -0.88410E-03   -0.82795E-04  9120   0.578E-02    0.442E-02
DAV:  21    -0.186890925713E+03   -0.86910E-03   -0.22749E-04  8200   0.522E-02    0.353E-02
DAV:  22    -0.186891736441E+03   -0.81073E-03   -0.10612E-04  6840   0.297E-02    0.337E-02
DAV:  23    -0.186892893265E+03   -0.11568E-02   -0.13645E-04  7520   0.405E-02    0.168E-02
DAV:  24    -0.186893476251E+03   -0.58299E-03   -0.26656E-05  6720   0.182E-02    0.435E-03
DAV:  25    -0.186893842932E+03   -0.36668E-03   -0.16561E-05  5600   0.888E-03    0.457E-03
DAV:  26    -0.186894080151E+03   -0.23722E-03   -0.90675E-06  6720   0.697E-03    0.151E-03
DAV:  27    -0.186894170714E+03   -0.90564E-04   -0.31922E-06  7240   0.384E-03
   1 F= -.18689417E+03 E0= -.18672339E+03  d E =-.186894E+03
       N       E                     dE             d eps       ncg     rms          rms(c)
DAV:   1    -0.187531786051E+03   -0.63771E+00   -0.27016E+02  8160   0.349E+01    0.466E+00
DAV:   2    -0.189594305774E+03   -0.20625E+01   -0.20364E+01 12280   0.159E+01    0.101E+01
DAV:   3    -0.189330232878E+03    0.26407E+00   -0.43084E+00 12360   0.125E+01    0.629E+00
DAV:   4    -0.188790145193E+03    0.54009E+00   -0.56419E-01 12640   0.425E+00    0.179E+00
DAV:   5    -0.188888459080E+03   -0.98314E-01   -0.43398E-01 12160   0.315E+00    0.486E+00
DAV:   6    -0.188779245484E+03    0.10921E+00   -0.72920E-01 12640   0.430E+00    0.258E+00
DAV:   7    -0.188720379236E+03    0.58866E-01   -0.18616E-01 12080   0.188E+00    0.106E+00
DAV:   8    -0.188710817879E+03    0.95614E-02   -0.62850E-02 12920   0.125E+00    0.123E+00
DAV:   9    -0.188700087829E+03    0.10730E-01   -0.24633E-02 11960   0.900E-01    0.382E-01
DAV:  10    -0.188699192217E+03    0.89561E-03   -0.40400E-03 12120   0.254E-01    0.221E-01
DAV:  11    -0.188698555239E+03    0.63698E-03   -0.24884E-03 12480   0.168E-01    0.101E-01
DAV:  12    -0.188698649019E+03   -0.93780E-04   -0.92687E-04 11840   0.895E-02
   2 F= -.18869865E+03 E0= -.18856047E+03  d E =-.180448E+01
       N       E                     dE             d eps       ncg     rms          rms(c)
DAV:   1    -0.190618896071E+03   -0.19203E+01   -0.30966E+01  9120   0.142E+01    0.443E+00
DAV:   2    -0.190569179993E+03    0.49716E-01   -0.27328E+00 11240   0.942E+00    0.722E+00
DAV:   3    -0.190106889769E+03    0.46229E+00   -0.13086E+00 12320   0.858E+00    0.424E+00
DAV:   4    -0.189894482282E+03    0.21241E+00   -0.70228E-01 12560   0.420E+00    0.250E+00
DAV:   5    -0.189848181620E+03    0.46301E-01   -0.33721E-01 12320   0.270E+00    0.232E+00
DAV:   6    -0.189797478065E+03    0.50704E-01   -0.11693E-01 12720   0.214E+00    0.777E-01
DAV:   7    -0.189790732578E+03    0.67455E-02   -0.14110E-02 11600   0.571E-01    0.204E-01
DAV:   8    -0.189791154376E+03   -0.42180E-03   -0.34231E-03 12200   0.265E-01    0.269E-01
DAV:   9    -0.189790854520E+03    0.29986E-03   -0.18308E-03 10800   0.278E-01    0.170E-01
DAV:  10    -0.189791091554E+03   -0.23703E-03   -0.99143E-04  9880   0.154E-01    0.129E-01
DAV:  11    -0.189790815129E+03    0.27642E-03   -0.46890E-04  9120   0.784E-02    0.217E-02
DAV:  12    -0.189790838619E+03   -0.23490E-04   -0.73508E-05  6800   0.288E-02
   3 F= -.18979084E+03 E0= -.18967431E+03  d E =-.109219E+01
       N       E                     dE             d eps       ncg     rms          rms(c)
DAV:   1    -0.191366504323E+03   -0.15757E+01   -0.74555E+01  8160   0.197E+01    0.457E+00
DAV:   2    -0.191184774769E+03    0.18173E+00   -0.53248E+00 13360   0.763E+00    0.453E+00
DAV:   3    -0.191333677186E+03   -0.14890E+00   -0.15070E+00 12200   0.906E+00    0.671E+00
DAV:   4    -0.190935941753E+03    0.39774E+00   -0.13378E+00 12480   0.759E+00    0.293E+00
DAV:   5    -0.190893107946E+03    0.42834E-01   -0.41227E-01 12280   0.387E+00    0.284E+00
DAV:   6    -0.190807534850E+03    0.85573E-01   -0.19688E-01 12320   0.312E+00    0.120E+00
DAV:   7    -0.190795505133E+03    0.12030E-01   -0.42818E-02 12600   0.111E+00    0.463E-01
DAV:   8    -0.190793136604E+03    0.23685E-02   -0.86360E-03 11440   0.499E-01    0.377E-01
DAV:   9    -0.190792099477E+03    0.10371E-02   -0.30322E-03 11360   0.374E-01    0.168E-01
DAV:  10    -0.190792270665E+03   -0.17119E-03   -0.12670E-03 11400   0.150E-01    0.823E-02
DAV:  11    -0.190792184928E+03    0.85737E-04   -0.46065E-04  9400   0.789E-02
   4 F= -.19079218E+03 E0= -.19069426E+03  d E =-.100135E+01
       N       E                     dE             d eps       ncg     rms          rms(c)
DAV:   1    -0.192267646635E+03   -0.14754E+01   -0.17065E+02  8160   0.291E+01    0.579E+00
DAV:   2    -0.191995729866E+03    0.27192E+00   -0.99887E+00 11040   0.798E+00    0.362E+00
DAV:   3    -0.192051216223E+03   -0.55486E-01   -0.18512E+00 12200   0.785E+00    0.603E+00
DAV:   4    -0.191878128134E+03    0.17309E+00   -0.15319E+00 12000   0.956E+00    0.479E+00
DAV:   5    -0.191611353307E+03    0.26677E+00   -0.65617E-01 12360   0.488E+00    0.173E+00
DAV:   6    -0.191590172319E+03    0.21181E-01   -0.15957E-01 12600   0.285E+00    0.151E+00
DAV:   7    -0.191572281780E+03    0.17891E-01   -0.81088E-02 12400   0.201E+00    0.699E-01
DAV:   8    -0.191565704791E+03    0.65770E-02   -0.13637E-02 12000   0.715E-01    0.383E-01
DAV:   9    -0.191564729204E+03    0.97559E-03   -0.46070E-03 11760   0.473E-01    0.218E-01
DAV:  10    -0.191564702381E+03    0.26824E-04   -0.23148E-03 11520   0.209E-01    0.842E-02
DAV:  11    -0.191564641898E+03    0.60483E-04   -0.56332E-04 10800   0.882E-02
   5 F= -.19156464E+03 E0= -.19147868E+03  d E =-.772457E+00
       N       E                     dE             d eps       ncg     rms          rms(c)
DAV:   1    -0.191683682279E+03   -0.11898E+00   -0.89901E+00  8160   0.638E+00    0.747E-01
DAV:   2    -0.191747034501E+03   -0.63352E-01   -0.35951E-01 12760   0.294E+00    0.204E+00
DAV:   3    -0.191702535174E+03    0.44499E-01   -0.98280E-02 12600   0.237E+00    0.501E-01
DAV:   4    -0.191702387433E+03    0.14774E-03   -0.12693E-02 11600   0.759E-01    0.594E-01
DAV:   5    -0.191699092276E+03    0.32952E-02   -0.86144E-03 11640   0.707E-01    0.280E-01
DAV:   6    -0.191698943414E+03    0.14886E-03   -0.38619E-03 11400   0.324E-01    0.196E-01
DAV:   7    -0.191698422140E+03    0.52127E-03   -0.20400E-03 11520   0.251E-01    0.166E-01
DAV:   8    -0.191698184686E+03    0.23745E-03   -0.69732E-04  9240   0.187E-01    0.532E-02
DAV:   9    -0.191698187479E+03   -0.27925E-05   -0.10788E-04  6160   0.570E-02
   6 F= -.19169819E+03 E0= -.19161382E+03  d E =-.133546E+00
       N       E                     dE             d eps       ncg     rms          rms(c)
DAV:   1    -0.191819517869E+03   -0.12133E+00   -0.97201E+00  8160   0.665E+00    0.705E-01
DAV:   2    -0.191860284633E+03   -0.40767E-01   -0.32111E-01 12680   0.240E+00    0.147E+00
DAV:   3    -0.191838484983E+03    0.21800E-01   -0.64210E-02 12520   0.197E+00    0.570E-01
DAV:   4    -0.191835370071E+03    0.31149E-02   -0.95928E-03 11720   0.660E-01    0.425E-01
DAV:   5    -0.191834568975E+03    0.80110E-03   -0.72408E-03 12200   0.660E-01    0.368E-01
DAV:   6    -0.191833899267E+03    0.66971E-03   -0.48871E-03 11760   0.422E-01    0.195E-01
DAV:   7    -0.191833084359E+03    0.81491E-03   -0.15631E-03 10400   0.159E-01    0.377E-02
DAV:   8    -0.191833133285E+03   -0.48926E-04   -0.20842E-04  7880   0.769E-02
   7 F= -.19183313E+03 E0= -.19175111E+03  d E =-.134946E+00
       N       E                     dE             d eps       ncg     rms          rms(c)
DAV:   1    -0.191991950005E+03   -0.15887E+00   -0.24198E+01  8160   0.106E+01    0.108E+00
DAV:   2    -0.192062478635E+03   -0.70529E-01   -0.82131E-01 12320   0.310E+00    0.142E+00
DAV:   3    -0.192053929723E+03    0.85489E-02   -0.10041E-01 12440   0.260E+00    0.116E+00
DAV:   4    -0.192034151256E+03    0.19778E-01   -0.22663E-02 12520   0.118E+00    0.324E-01
DAV:   5    -0.192037278446E+03   -0.31272E-02   -0.15014E-02 12600   0.679E-01    0.612E-01
DAV:   6    -0.192034817443E+03    0.24610E-02   -0.13012E-02 12520   0.907E-01    0.443E-01
DAV:   7    -0.192032367152E+03    0.24503E-02   -0.38575E-03 11600   0.423E-01    0.648E-02
DAV:   8    -0.192032359787E+03    0.73652E-05   -0.50165E-04  9840   0.719E-02
   8 F= -.19203236E+03 E0= -.19195197E+03  d E =-.199227E+00
       N       E                     dE             d eps       ncg     rms          rms(c)
DAV:   1    -0.192147055410E+03   -0.11469E+00   -0.58332E+01  8160   0.164E+01    0.168E+00
DAV:   2    -0.192306784235E+03   -0.15973E+00   -0.21246E+00 11680   0.422E+00    0.160E+00
DAV:   3    -0.192346188639E+03   -0.39404E-01   -0.22685E-01 12240   0.403E+00    0.242E+00
DAV:   4    -0.192273672613E+03    0.72516E-01   -0.80510E-02 11960   0.261E+00    0.738E-01
DAV:   5    -0.192277226478E+03   -0.35539E-02   -0.32235E-02 12280   0.155E+00    0.994E-01
DAV:   6    -0.192268137585E+03    0.90889E-02   -0.29536E-02 12600   0.125E+00    0.452E-01
DAV:   7    -0.192266241668E+03    0.18959E-02   -0.92446E-03 11840   0.733E-01    0.352E-01
DAV:   8    -0.192264864382E+03    0.13773E-02   -0.24579E-03 11520   0.394E-01    0.939E-02
DAV:   9    -0.192264722482E+03    0.14190E-03   -0.69952E-04 10360   0.985E-02    0.516E-02
DAV:  10    -0.192264676903E+03    0.45578E-04   -0.22215E-04  7960   0.483E-02
   9 F= -.19226468E+03 E0= -.19218999E+03  d E =-.232317E+00
       N       E                     dE             d eps       ncg     rms          rms(c)
DAV:   1    -0.192294414811E+03   -0.29692E-01   -0.16412E+00  8160   0.276E+00    0.408E-01
DAV:   2    -0.192300806949E+03   -0.63921E-02   -0.79268E-02 12240   0.110E+00    0.650E-01
DAV:   3    -0.192298039961E+03    0.27670E-02   -0.14902E-02 12440   0.105E+00    0.442E-01
DAV:   4    -0.192295759913E+03    0.22800E-02   -0.41221E-03 12640   0.526E-01    0.209E-01
DAV:   5    -0.192295891937E+03   -0.13202E-03   -0.26096E-03 11680   0.435E-01    0.257E-01
DAV:   6    -0.192295123153E+03    0.76878E-03   -0.18852E-03 12160   0.323E-01    0.738E-02
DAV:   7    -0.192295085025E+03    0.38128E-04   -0.33868E-04  8600   0.119E-01
  10 F= -.19229509E+03 E0= -.19222138E+03  d E =-.304081E-01
       N       E                     dE             d eps       ncg     rms          rms(c)
DAV:   1    -0.192336565270E+03   -0.41442E-01   -0.13897E+01  8160   0.790E+00    0.859E-01
DAV:   2    -0.192385138207E+03   -0.48573E-01   -0.52436E-01 11880   0.241E+00    0.124E+00
DAV:   3    -0.192379014197E+03    0.61240E-02   -0.66261E-02 12040   0.222E+00    0.105E+00
DAV:   4    -0.192365530119E+03    0.13484E-01   -0.16676E-02 12520   0.109E+00    0.267E-01
DAV:   5    -0.192366171277E+03   -0.64116E-03   -0.65170E-03 12240   0.521E-01    0.362E-01
DAV:   6    -0.192365565670E+03    0.60561E-03   -0.53201E-03 11600   0.632E-01    0.305E-01
DAV:   7    -0.192364376316E+03    0.11894E-02   -0.21030E-03 11600   0.348E-01    0.949E-02
DAV:   8    -0.192364336284E+03    0.40032E-04   -0.41676E-04  8760   0.156E-01
  11 F= -.19236434E+03 E0= -.19229432E+03  d E =-.692513E-01
       N       E                     dE             d eps       ncg     rms          rms(c)
DAV:   1    -0.192376272769E+03   -0.11896E-01   -0.74847E-01  8160   0.187E+00    0.245E-01
DAV:   2    -0.192379214893E+03   -0.29421E-02   -0.30203E-02 12160   0.729E-01    0.439E-01
DAV:   3    -0.192377573830E+03    0.16411E-02   -0.57770E-03 12440   0.656E-01    0.233E-01
DAV:   4    -0.192376943732E+03    0.63010E-03   -0.12519E-03 10920   0.287E-01    0.127E-01
DAV:   5    -0.192376957795E+03   -0.14063E-04   -0.89442E-04 10680   0.258E-01
  12 F= -.19237696E+03 E0= -.19230738E+03  d E =-.126215E-01
       N       E                     dE             d eps       ncg     rms          rms(c)
DAV:   1    -0.192395309873E+03   -0.18366E-01   -0.16772E+00  8160   0.276E+00    0.363E-01
DAV:   2    -0.192402426629E+03   -0.71168E-02   -0.64047E-02 12200   0.110E+00    0.690E-01
DAV:   3    -0.192398064222E+03    0.43624E-02   -0.12417E-02 12520   0.978E-01    0.320E-01
DAV:   4    -0.192396817722E+03    0.12465E-02   -0.23483E-03 12480   0.363E-01    0.161E-01
DAV:   5    -0.192396889518E+03   -0.71796E-04   -0.16708E-03 12040   0.332E-01    0.193E-01
DAV:   6    -0.192396515717E+03    0.37380E-03   -0.11487E-03 10720   0.269E-01    0.719E-02
DAV:   7    -0.192396421529E+03    0.94189E-04   -0.19716E-04  7280   0.923E-02
  13 F= -.19239642E+03 E0= -.19232768E+03  d E =-.194637E-01
       N       E                     dE             d eps       ncg     rms          rms(c)
DAV:   1    -0.192403901124E+03   -0.73854E-02   -0.27267E-01  8160   0.116E+00    0.229E-01
DAV:   2    -0.192404834306E+03   -0.93318E-03   -0.16315E-02 11280   0.619E-01    0.360E-01
DAV:   3    -0.192403677130E+03    0.11572E-02   -0.42584E-03 11600   0.565E-01    0.199E-01
DAV:   4    -0.192403279871E+03    0.39726E-03   -0.13749E-03 10360   0.300E-01    0.151E-01
DAV:   5    -0.192403251329E+03    0.28542E-04   -0.10276E-03 10040   0.278E-01    0.151E-01
DAV:   6    -0.192402968053E+03    0.28328E-03   -0.55091E-04 10040   0.177E-01    0.312E-02
DAV:   7    -0.192402965022E+03    0.30312E-05   -0.78164E-05  6000   0.428E-02
  14 F= -.19240297E+03 E0= -.19233501E+03  d E =-.654349E-02
       N       E                     dE             d eps       ncg     rms          rms(c)
DAV:   1    -0.192413483145E+03   -0.10515E-01   -0.71021E-01  8160   0.180E+00    0.224E-01
DAV:   2    -0.192417393677E+03   -0.39105E-02   -0.29594E-02 12360   0.763E-01    0.485E-01
DAV:   3    -0.192415025086E+03    0.23686E-02   -0.56843E-03 12640   0.656E-01    0.185E-01
DAV:   4    -0.192414615075E+03    0.41001E-03   -0.82857E-04 10400   0.200E-01    0.900E-02
DAV:   5    -0.192414621757E+03   -0.66820E-05   -0.55176E-04 10240   0.173E-01
  15 F= -.19241462E+03 E0= -.19234730E+03  d E =-.116567E-01
       N       E                     dE             d eps       ncg     rms          rms(c)
DAV:   1    -0.192433140316E+03   -0.18525E-01   -0.76378E+00  8160   0.592E+00    0.766E-01
DAV:   2    -0.192468308951E+03   -0.35169E-01   -0.32229E-01 12440   0.238E+00    0.145E+00
DAV:   3    -0.192449406292E+03    0.18903E-01   -0.57372E-02 12400   0.208E+00    0.672E-01
DAV:   4    -0.192443313135E+03    0.60932E-02   -0.10354E-02 12400   0.773E-01    0.334E-01
DAV:   5    -0.192443910383E+03   -0.59725E-03   -0.77407E-03 12440   0.731E-01    0.437E-01
DAV:   6    -0.192441810317E+03    0.21001E-02   -0.59065E-03 11960   0.587E-01    0.147E-01
DAV:   7    -0.192441529438E+03    0.28088E-03   -0.11287E-03 11120   0.218E-01    0.109E-01
DAV:   8    -0.192441418636E+03    0.11080E-03   -0.32555E-04  9800   0.152E-01    0.551E-02
DAV:   9    -0.192441379132E+03    0.39504E-04   -0.74265E-05  6480   0.626E-02
  16 F= -.19244138E+03 E0= -.19237528E+03  d E =-.267574E-01
       N       E                     dE             d eps       ncg     rms          rms(c)
DAV:   1    -0.192446993338E+03   -0.55747E-02   -0.59761E-01  8160   0.164E+00    0.201E-01
DAV:   2    -0.192450064772E+03   -0.30714E-02   -0.27954E-02 10560   0.719E-01    0.374E-01
DAV:   3    -0.192448696321E+03    0.13685E-02   -0.40994E-03 11840   0.543E-01    0.179E-01
DAV:   4    -0.192448357158E+03    0.33916E-03   -0.85738E-04 10200   0.240E-01    0.112E-01
DAV:   5    -0.192448325863E+03    0.31295E-04   -0.52172E-04  9640   0.205E-01
  17 F= -.19244833E+03 E0= -.19238293E+03  d E =-.694673E-02
       N       E                     dE             d eps       ncg     rms          rms(c)
DAV:   1    -0.192452416948E+03   -0.40598E-02   -0.23218E+00  8160   0.323E+00    0.411E-01
DAV:   2    -0.192461668121E+03   -0.92512E-02   -0.11185E-01 11520   0.120E+00    0.558E-01
DAV:   3    -0.192460337771E+03    0.13304E-02   -0.13465E-02 12200   0.100E+00    0.468E-01
DAV:   4    -0.192457580940E+03    0.27568E-02   -0.41056E-03 11880   0.561E-01    0.184E-01
DAV:   5    -0.192457866381E+03   -0.28544E-03   -0.23226E-03 11040   0.408E-01    0.248E-01
DAV:   6    -0.192457131346E+03    0.73503E-03   -0.17711E-03 12560   0.326E-01    0.626E-02
DAV:   7    -0.192457084108E+03    0.47239E-04   -0.20536E-04  6080   0.801E-02
  18 F= -.19245708E+03 E0= -.19239300E+03  d E =-.875824E-02
       N       E                     dE             d eps       ncg     rms          rms(c)
DAV:   1    -0.192457195804E+03   -0.64458E-04   -0.13640E-01  8160   0.815E-01    0.134E-01
DAV:   2    -0.192457602885E+03   -0.40708E-03   -0.57614E-03 10680   0.359E-01    0.226E-01
DAV:   3    -0.192457158105E+03    0.44478E-03   -0.15207E-03 11360   0.340E-01    0.124E-01
DAV:   4    -0.192456954595E+03    0.20351E-03   -0.41730E-04  8720   0.168E-01    0.721E-02
DAV:   5    -0.192456964194E+03   -0.95996E-05   -0.33140E-04  8560   0.156E-01
  19 F= -.19245696E+03 E0= -.19239252E+03  d E =0.119913E-03
       N       E                     dE             d eps       ncg     rms          rms(c)
DAV:   1    -0.192457927388E+03   -0.97279E-03   -0.74584E-02  8160   0.594E-01    0.108E-01
DAV:   2    -0.192458053231E+03   -0.12584E-03   -0.41107E-03 10600   0.228E-01    0.119E-01
DAV:   3    -0.192458041623E+03    0.11608E-04   -0.79096E-04 10880   0.235E-01
  20 F= -.19245804E+03 E0= -.19239353E+03  d E =-.107743E-02
       N       E                     dE             d eps       ncg     rms          rms(c)
DAV:   1    -0.192458906501E+03   -0.85327E-03   -0.57351E-02  8160   0.529E-01    0.773E-02
DAV:   2    -0.192459608353E+03   -0.70185E-03   -0.31125E-03 12480   0.297E-01    0.223E-01
DAV:   3    -0.192459025946E+03    0.58241E-03   -0.86233E-04 10160   0.267E-01    0.481E-02
DAV:   4    -0.192459013454E+03    0.12492E-04   -0.66293E-05  5760   0.535E-02
  21 F= -.19245901E+03 E0= -.19239475E+03  d E =-.971830E-03
       N       E                     dE             d eps       ncg     rms          rms(c)
DAV:   1    -0.192459391944E+03   -0.36600E-03   -0.11550E-02  8160   0.234E-01    0.543E-02
DAV:   2    -0.192459574919E+03   -0.18298E-03   -0.85666E-04 10320   0.198E-01    0.129E-01
DAV:   3    -0.192459367292E+03    0.20763E-03   -0.28966E-04  8880   0.160E-01    0.295E-02
DAV:   4    -0.192459376577E+03   -0.92856E-05   -0.43687E-05  5840   0.569E-02
  22 F= -.19245938E+03 E0= -.19239525E+03  d E =-.363124E-03
       N       E                     dE             d eps       ncg     rms          rms(c)
DAV:   1    -0.192460487140E+03   -0.11198E-02   -0.98709E-02  8160   0.667E-01    0.849E-02
DAV:   2    -0.192460991269E+03   -0.50413E-03   -0.50735E-03 11120   0.274E-01    0.143E-01
DAV:   3    -0.192460825424E+03    0.16585E-03   -0.66466E-04 10920   0.221E-01    0.835E-02
DAV:   4    -0.192460738709E+03    0.86715E-04   -0.11230E-04  5600   0.100E-01
  23 F= -.19246074E+03 E0= -.19239680E+03  d E =-.136213E-02
       N       E                     dE             d eps       ncg     rms          rms(c)
DAV:   1    -0.192461791980E+03   -0.96656E-03   -0.91906E-02  8160   0.645E-01    0.869E-02
DAV:   2    -0.192462205744E+03   -0.41376E-03   -0.44050E-03 11720   0.232E-01    0.123E-01
DAV:   3    -0.192462077872E+03    0.12787E-03   -0.58745E-04 10560   0.212E-01    0.836E-02
DAV:   4    -0.192461993217E+03    0.84655E-04   -0.10636E-04  5720   0.977E-02
  24 F= -.19246199E+03 E0= -.19239825E+03  d E =-.125451E-02
       N       E                     dE             d eps       ncg     rms          rms(c)
DAV:   1    -0.192463030715E+03   -0.95284E-03   -0.46525E-01  8160   0.144E+00    0.179E-01
DAV:   2    -0.192464948572E+03   -0.19179E-02   -0.22049E-02 10840   0.462E-01    0.229E-01
DAV:   3    -0.192464859692E+03    0.88879E-04   -0.25132E-03 12240   0.443E-01    0.226E-01
DAV:   4    -0.192464233333E+03    0.62636E-03   -0.69816E-04 10120   0.235E-01    0.629E-02
DAV:   5    -0.192464362080E+03   -0.12875E-03   -0.39728E-04  9120   0.177E-01    0.117E-01
DAV:   6    -0.192464195742E+03    0.16634E-03   -0.31131E-04  8760   0.143E-01    0.188E-02
DAV:   7    -0.192464197661E+03   -0.19195E-05   -0.48164E-05  6520   0.309E-02
  25 F= -.19246420E+03 E0= -.19240091E+03  d E =-.220444E-02
       N       E                     dE             d eps       ncg     rms          rms(c)
DAV:   1    -0.192464243988E+03   -0.48247E-04   -0.45442E-01  8160   0.142E+00    0.164E-01
DAV:   2    -0.192465943910E+03   -0.16999E-02   -0.22154E-02 10240   0.433E-01    0.141E-01
DAV:   3    -0.192466341096E+03   -0.39719E-03   -0.18276E-03 13120   0.374E-01    0.241E-01
DAV:   4    -0.192465640004E+03    0.70109E-03   -0.75569E-04 10200   0.265E-01    0.544E-02
DAV:   5    -0.192465707690E+03   -0.67686E-04   -0.26772E-04  8600   0.129E-01
  26 F= -.19246571E+03 E0= -.19240284E+03  d E =-.151003E-02
       N       E                     dE             d eps       ncg     rms          rms(c)
DAV:   1    -0.192464941879E+03    0.69812E-03   -0.78000E-02  8160   0.595E-01    0.736E-02
DAV:   2    -0.192465429478E+03   -0.48760E-03   -0.40712E-03 11640   0.234E-01    0.137E-01
DAV:   3    -0.192465199574E+03    0.22990E-03   -0.63645E-04  9960   0.199E-01    0.616E-02
DAV:   4    -0.192465161738E+03    0.37836E-04   -0.10691E-04  5680   0.882E-02
  27 F= -.19246516E+03 E0= -.19240215E+03  d E =0.545952E-03
