<?xml version="1.0" encoding="ISO-8859-1"?>
<modeling>
 <generator>
  <i name="program" type="string">vasp </i>
  <i name="version" type="string">5.4.1  </i>
  <i name="subversion" type="string">05Feb16 (build Jul 05 2020 17:13:04) complex                          parallel </i>
  <i name="platform" type="string">IFC91_ompi </i>
  <i name="date" type="string">2024 04 30 </i>
  <i name="time" type="string">20:39:17 </i>
 </generator>
 <incar>
  <i type="int" name="ISTART">     0</i>
  <i type="string" name="PREC">normal</i>
  <i type="string" name="ALGO"> Normal</i>
  <i type="int" name="ISPIN">     1</i>
  <i type="int" name="ICHARG">     2</i>
  <i type="int" name="IBRION">     1</i>
  <i type="int" name="NSW">   100</i>
  <i type="int" name="ISIF">     3</i>
  <i type="int" name="ISYM">     0</i>
  <i name="SYMPREC">      0.00000001</i>
  <i name="POTIM">      0.50000000</i>
  <i type="logical" name="LREAL"> F  </i>
  <i type="logical" name="LPLANE"> F  </i>
  <i type="int" name="ISMEAR">     0</i>
  <i type="logical" name="LWAVE"> F  </i>
  <i type="logical" name="LCHARG"> F  </i>
  <v type="int" name="KPOINT_BSE">    -1     0     0     0</v>
 </incar>
 <kpoints>
  <generation param="Gamma">
   <v type="int" name="divisions">       8        8        1 </v>
   <v name="usershift">      0.00000000       0.00000000       0.00000000 </v>
   <v name="genvec1">      0.12500000       0.00000000       0.00000000 </v>
   <v name="genvec2">     -0.00000000       0.12500000       0.00000000 </v>
   <v name="genvec3">      0.00000000       0.00000000       1.00000000 </v>
   <v name="shift">      0.00000000       0.00000000       0.00000000 </v>
  </generation>
  <varray name="kpointlist" >
   <v>       0.00000000       0.00000000       0.00000000 </v>
   <v>       0.12500000       0.00000000       0.00000000 </v>
   <v>       0.25000000       0.00000000       0.00000000 </v>
   <v>       0.37500000       0.00000000       0.00000000 </v>
   <v>       0.50000000       0.00000000       0.00000000 </v>
   <v>       0.00000000       0.12500000       0.00000000 </v>
   <v>       0.12500000       0.12500000       0.00000000 </v>
   <v>       0.25000000       0.12500000       0.00000000 </v>
   <v>       0.37500000       0.12500000       0.00000000 </v>
   <v>       0.50000000       0.12500000       0.00000000 </v>
   <v>      -0.37500000       0.12500000       0.00000000 </v>
   <v>      -0.25000000       0.12500000       0.00000000 </v>
   <v>      -0.12500000       0.12500000       0.00000000 </v>
   <v>       0.00000000       0.25000000       0.00000000 </v>
   <v>       0.12500000       0.25000000       0.00000000 </v>
   <v>       0.25000000       0.25000000       0.00000000 </v>
   <v>       0.37500000       0.25000000       0.00000000 </v>
   <v>       0.50000000       0.25000000       0.00000000 </v>
   <v>      -0.37500000       0.25000000       0.00000000 </v>
   <v>      -0.25000000       0.25000000       0.00000000 </v>
   <v>      -0.12500000       0.25000000       0.00000000 </v>
   <v>      -0.00000000       0.37500000       0.00000000 </v>
   <v>       0.12500000       0.37500000       0.00000000 </v>
   <v>       0.25000000       0.37500000       0.00000000 </v>
   <v>       0.37500000       0.37500000       0.00000000 </v>
   <v>       0.50000000       0.37500000       0.00000000 </v>
   <v>      -0.37500000       0.37500000       0.00000000 </v>
   <v>      -0.25000000       0.37500000       0.00000000 </v>
   <v>      -0.12500000       0.37500000       0.00000000 </v>
   <v>       0.00000000       0.50000000       0.00000000 </v>
   <v>       0.12500000       0.50000000       0.00000000 </v>
   <v>       0.25000000       0.50000000       0.00000000 </v>
   <v>       0.37500000       0.50000000       0.00000000 </v>
   <v>       0.50000000       0.50000000       0.00000000 </v>
  </varray>
  <varray name="weights" >
   <v>       0.01562500 </v>
   <v>       0.03125000 </v>
   <v>       0.03125000 </v>
   <v>       0.03125000 </v>
   <v>       0.01562500 </v>
   <v>       0.03125000 </v>
   <v>       0.03125000 </v>
   <v>       0.03125000 </v>
   <v>       0.03125000 </v>
   <v>       0.03125000 </v>
   <v>       0.03125000 </v>
   <v>       0.03125000 </v>
   <v>       0.03125000 </v>
   <v>       0.03125000 </v>
   <v>       0.03125000 </v>
   <v>       0.03125000 </v>
   <v>       0.03125000 </v>
   <v>       0.03125000 </v>
   <v>       0.03125000 </v>
   <v>       0.03125000 </v>
   <v>       0.03125000 </v>
   <v>       0.03125000 </v>
   <v>       0.03125000 </v>
   <v>       0.03125000 </v>
   <v>       0.03125000 </v>
   <v>       0.03125000 </v>
   <v>       0.03125000 </v>
   <v>       0.03125000 </v>
   <v>       0.03125000 </v>
   <v>       0.01562500 </v>
   <v>       0.03125000 </v>
   <v>       0.03125000 </v>
   <v>       0.03125000 </v>
   <v>       0.01562500 </v>
  </varray>
 </kpoints>
 <parameters>
  <separator name="general" >
   <i type="string" name="SYSTEM">unknown system</i>
   <i type="logical" name="LCOMPAT"> F  </i>
  </separator>
  <separator name="electronic" >
   <i type="string" name="PREC">normal</i>
   <i name="ENMAX">    280.00000000</i>
   <i name="ENAUG">    373.43800000</i>
   <i name="EDIFF">      0.00010000</i>
   <i type="int" name="IALGO">    38</i>
   <i type="int" name="IWAVPR">    11</i>
   <i type="int" name="NBANDS">   120</i>
   <i name="NELECT">    159.00000000</i>
   <i type="int" name="TURBO">     0</i>
   <i type="int" name="IRESTART">     0</i>
   <i type="int" name="NREBOOT">     0</i>
   <i type="int" name="NMIN">     0</i>
   <i name="EREF">      0.00000000</i>
   <separator name="electronic smearing" >
    <i type="int" name="ISMEAR">     0</i>
    <i name="SIGMA">      0.20000000</i>
    <i name="KSPACING">      0.50000000</i>
    <i type="logical" name="KGAMMA"> T  </i>
   </separator>
   <separator name="electronic projectors" >
    <i type="logical" name="LREAL"> F  </i>
    <v name="ROPT">      0.00000000      0.00000000      0.00000000      0.00000000</v>
    <i type="int" name="LMAXPAW">  -100</i>
    <i type="int" name="LMAXMIX">     2</i>
    <i type="logical" name="NLSPLINE"> F  </i>
   </separator>
   <separator name="electronic startup" >
    <i type="int" name="ISTART">     0</i>
    <i type="int" name="ICHARG">     2</i>
    <i type="int" name="INIWAV">     1</i>
   </separator>
   <separator name="electronic spin" >
    <i type="int" name="ISPIN">     1</i>
    <i type="logical" name="LNONCOLLINEAR"> F  </i>
    <v name="MAGMOM">      1.00000000      1.00000000      1.00000000      1.00000000      1.00000000      1.00000000      1.00000000      1.00000000      1.00000000      1.00000000      1.00000000      1.00000000      1.00000000      1.00000000      1.00000000      1.00000000      1.00000000      1.00000000      1.00000000      1.00000000
      1.00000000      1.00000000      1.00000000      1.00000000      1.00000000      1.00000000      1.00000000</v>
    <i name="NUPDOWN">     -1.00000000</i>
    <i type="logical" name="LSORBIT"> F  </i>
    <v name="SAXIS">      0.00000000      0.00000000      1.00000000</v>
    <i type="logical" name="LSPIRAL"> F  </i>
    <v name="QSPIRAL">      0.00000000      0.00000000      0.00000000</v>
    <i type="logical" name="LZEROZ"> F  </i>
   </separator>
   <separator name="electronic exchange-correlation" >
    <i type="logical" name="LASPH"> F  </i>
    <i type="logical" name="LMETAGGA"> F  </i>
   </separator>
   <separator name="electronic convergence" >
    <i type="int" name="NELM">    60</i>
    <i type="int" name="NELMDL">    -5</i>
    <i type="int" name="NELMIN">     2</i>
    <i name="ENINI">    280.00000000</i>
    <separator name="electronic convergence detail" >
     <i type="logical" name="LDIAG"> T  </i>
     <i type="logical" name="LSUBROT"> F  </i>
     <i name="WEIMIN">      0.00100000</i>
     <i name="EBREAK">      0.00000021</i>
     <i name="DEPER">      0.30000000</i>
     <i type="int" name="NRMM">     4</i>
     <i name="TIME">      0.40000000</i>
    </separator>
   </separator>
   <separator name="electronic mixer" >
    <i name="AMIX">      0.40000000</i>
    <i name="BMIX">      1.00000000</i>
    <i name="AMIN">      0.10000000</i>
    <i name="AMIX_MAG">      1.60000000</i>
    <i name="BMIX_MAG">      1.00000000</i>
    <separator name="electronic mixer details" >
     <i type="int" name="IMIX">     4</i>
     <i type="logical" name="MIXFIRST"> F  </i>
     <i type="int" name="MAXMIX">   -45</i>
     <i name="WC">    100.00000000</i>
     <i type="int" name="INIMIX">     1</i>
     <i type="int" name="MIXPRE">     1</i>
     <i type="int" name="MREMOVE">     5</i>
    </separator>
   </separator>
   <separator name="electronic dipolcorrection" >
    <i type="logical" name="LDIPOL"> F  </i>
    <i type="logical" name="LMONO"> F  </i>
    <i type="int" name="IDIPOL">     0</i>
    <i name="EPSILON">      1.00000000</i>
    <v name="DIPOL">   -100.00000000   -100.00000000   -100.00000000</v>
    <i name="EFIELD">      0.00000000</i>
   </separator>
  </separator>
  <separator name="grids" >
   <i type="int" name="NGX">    42</i>
   <i type="int" name="NGY">    42</i>
   <i type="int" name="NGZ">   126</i>
   <i type="int" name="NGXF">    84</i>
   <i type="int" name="NGYF">    84</i>
   <i type="int" name="NGZF">   252</i>
   <i type="logical" name="ADDGRID"> F  </i>
  </separator>
  <separator name="ionic" >
   <i type="int" name="NSW">   100</i>
   <i type="int" name="IBRION">     1</i>
   <i type="int" name="ISIF">     3</i>
   <i name="PSTRESS">      0.00000000</i>
   <i name="EDIFFG">      0.00100000</i>
   <i type="int" name="NFREE">     0</i>
   <i name="POTIM">      0.50000000</i>
   <i name="SMASS">     -3.00000000</i>
   <i name="SCALEE">      1.00000000</i>
  </separator>
  <separator name="ionic md" >
   <i name="TEBEG">      0.00010000</i>
   <i name="TEEND">      0.00010000</i>
   <i type="int" name="NBLOCK">     1</i>
   <i type="int" name="KBLOCK">   100</i>
   <i type="int" name="NPACO">   256</i>
   <i name="APACO">     16.00000000</i>
  </separator>
  <separator name="symmetry" >
   <i type="int" name="ISYM">     0</i>
   <i name="SYMPREC">      0.00000001</i>
  </separator>
  <separator name="dos" >
   <i type="logical" name="LORBIT"> F  </i>
   <v name="RWIGS">     -1.00000000     -1.00000000     -1.00000000     -1.00000000</v>
   <i type="int" name="NEDOS">   301</i>
   <i name="EMIN">     10.00000000</i>
   <i name="EMAX">    -10.00000000</i>
   <i name="EFERMI">      0.00000000</i>
  </separator>
  <separator name="writing" >
   <i type="int" name="NWRITE">     2</i>
   <i type="logical" name="LWAVE"> F  </i>
   <i type="logical" name="LCHARG"> F  </i>
   <i type="logical" name="LPARD"> F  </i>
   <i type="logical" name="LVTOT"> F  </i>
   <i type="logical" name="LVHAR"> F  </i>
   <i type="logical" name="LELF"> F  </i>
   <i type="logical" name="LOPTICS"> F  </i>
   <v name="STM">      0.00000000      0.00000000      0.00000000      0.00000000      0.00000000      0.00000000      0.00000000</v>
  </separator>
  <separator name="performance" >
   <i type="int" name="NPAR">    40</i>
   <i type="int" name="NSIM">     4</i>
   <i type="int" name="NBLK">    -1</i>
   <i type="logical" name="LPLANE"> F  </i>
   <i type="logical" name="LSCALAPACK"> T  </i>
   <i type="logical" name="LSCAAWARE"> F  </i>
   <i type="logical" name="LSCALU"> F  </i>
   <i type="logical" name="LASYNC"> F  </i>
   <i type="logical" name="LORBITALREAL"> F  </i>
  </separator>
  <separator name="miscellaneous" >
   <i type="int" name="IDIOT">     3</i>
   <i type="logical" name="LMUSIC"> F  </i>
   <v name="POMASS">     50.94100000     95.94000000    183.85000000     32.06600000</v>
   <v name="DARWINR">      0.00000000      0.00000000      0.00000000      0.00000000</v>
   <v name="DARWINV">      1.00000000      1.00000000      1.00000000      1.00000000</v>
   <i type="logical" name="LCORR"> T  </i>
  </separator>
  <i type="logical" name="GGA_COMPAT"> T  </i>
  <i type="logical" name="LBERRY"> F  </i>
  <i type="int" name="ICORELEVEL">     0</i>
  <i type="logical" name="LDAU"> F  </i>
  <i type="int" name="I_CONSTRAINED_M">     0</i>
  <separator name="electronic exchange-correlation" >
   <i type="string" name="GGA">--</i>
   <i type="int" name="VOSKOWN">     0</i>
   <i type="logical" name="LHFCALC"> F  </i>
   <i type="string" name="PRECFOCK"></i>
   <i type="logical" name="LSYMGRAD"> F  </i>
   <i type="logical" name="LHFONE"> F  </i>
   <i type="logical" name="LRHFCALC"> F  </i>
   <i type="logical" name="LTHOMAS"> F  </i>
   <i type="logical" name="LMODELHF"> F  </i>
   <i name="ENCUT4O">     -1.00000000</i>
   <i type="int" name="EXXOEP">     0</i>
   <i type="int" name="FOURORBIT">     0</i>
   <i name="AEXX">      0.00000000</i>
   <i name="HFALPHA">      0.00000000</i>
   <i name="MCALPHA">      0.00000000</i>
   <i name="ALDAX">      1.00000000</i>
   <i name="AGGAX">      1.00000000</i>
   <i name="ALDAC">      1.00000000</i>
   <i name="AGGAC">      1.00000000</i>
   <i type="int" name="NKREDX">     1</i>
   <i type="int" name="NKREDY">     1</i>
   <i type="int" name="NKREDZ">     1</i>
   <i type="logical" name="SHIFTRED"> F  </i>
   <i type="logical" name="ODDONLY"> F  </i>
   <i type="logical" name="EVENONLY"> F  </i>
   <i type="int" name="LMAXFOCK">     0</i>
   <i type="int" name="NMAXFOCKAE">     0</i>
   <i type="logical" name="LFOCKAEDFT"> F  </i>
   <i name="HFSCREEN">      0.00000000</i>
   <i name="HFSCREENC">      0.00000000</i>
   <i type="int" name="NBANDSGWLOW">     0</i>
  </separator>
  <separator name="vdW DFT" >
   <i type="logical" name="LUSE_VDW"> F  </i>
   <i name="Zab_VDW">     -0.84910000</i>
   <i name="PARAM1">      0.12340000</i>
   <i name="PARAM2">      1.00000000</i>
   <i name="PARAM3">      0.00000000</i>
  </separator>
  <separator name="model GW" >
   <i type="int" name="MODEL_GW">     0</i>
   <i name="MODEL_EPS0">     58.26239943</i>
   <i name="MODEL_ALPHA">      1.00000000</i>
  </separator>
  <separator name="linear response parameters" >
   <i type="logical" name="LEPSILON"> F  </i>
   <i type="logical" name="LRPA"> F  </i>
   <i type="logical" name="LNABLA"> F  </i>
   <i type="logical" name="LVEL"> F  </i>
   <i type="int" name="KINTER">     0</i>
   <i name="CSHIFT">      0.10000000</i>
   <i name="OMEGAMAX">     -1.00000000</i>
   <i name="DEG_THRESHOLD">      0.00200000</i>
  </separator>
  <separator name="orbital magnetization" >
   <i type="logical" name="NUCIND"> F  </i>
   <v name="MAGPOS">      0.00000000      0.00000000      0.00000000</v>
   <i type="logical" name="LNICSALL"> T  </i>
   <i type="logical" name="ORBITALMAG"> F  </i>
   <i type="logical" name="LMAGBLOCH"> F  </i>
   <i type="logical" name="LCHIMAG"> F  </i>
   <i type="logical" name="LGAUGE"> T  </i>
   <i type="int" name="MAGATOM">     0</i>
   <v name="MAGDIPOL">      0.00000000      0.00000000      0.00000000</v>
   <v name="AVECCONST">      0.00000000      0.00000000      0.00000000</v>
  </separator>
  <separator name="response functions" >
   <i type="logical" name="LADDER"> F  </i>
   <i type="logical" name="LFXC"> F  </i>
   <i type="logical" name="LHARTREE"> T  </i>
   <i type="int" name="IBSE">     0</i>
   <v type="int" name="KPOINT">    -1     0     0     0</v>
   <i type="logical" name="LTCTE"> F  </i>
   <i type="logical" name="LTETE"> F  </i>
   <i type="logical" name="LTRIPLET"> F  </i>
   <i type="logical" name="LFXCEPS"> F  </i>
   <i type="logical" name="LFXHEG"> F  </i>
   <i type="int" name="NATURALO">     0</i>
   <i type="logical" name="L2ORDER"> F  </i>
   <i type="logical" name="LUSEW"> F  </i>
   <i name="ENCUTGW">     -2.00000000</i>
   <i name="ENCUTGWSOFT">     -2.00000000</i>
   <i name="ENCUTLF">     -1.00000000</i>
   <i type="int" name="LMAXMP2">    -1</i>
   <i name="SCISSOR">      0.00000000</i>
   <i type="int" name="NOMEGA">     0</i>
   <i type="int" name="NOMEGAR">     0</i>
   <i type="int" name="NBANDSGW">    -1</i>
   <i type="int" name="NBANDSO">    -1</i>
   <i type="int" name="NBANDSV">    -1</i>
   <i type="int" name="NELM">     1</i>
   <i type="int" name="NELMHF">     1</i>
   <i type="int" name="DIM">     3</i>
   <i type="int" name="ANTIRES">     0</i>
   <i name="OMEGAMAX">    -30.00000000</i>
   <i name="OMEGAMIN">    -30.00000000</i>
   <i name="OMEGATL">   -200.00000000</i>
   <i type="int" name="OMEGAGRID">     0</i>
   <i name="CSHIFT">     -0.10000000</i>
   <i type="logical" name="SELFENERGY"> F  </i>
   <i type="logical" name="LSPECTRAL"> F  </i>
   <i type="logical" name="LSPECTRALGW"> F  </i>
   <i type="logical" name="LSINGLES"> F  </i>
   <i type="logical" name="LFERMIGW"> F  </i>
   <i type="logical" name="ODDONLYGW"> F  </i>
   <i type="logical" name="EVENONLYGW"> F  </i>
   <i type="int" name="NKREDLFX">     1</i>
   <i type="int" name="NKREDLFY">     1</i>
   <i type="int" name="NKREDLFZ">     1</i>
   <i type="int" name="MAXMEM">  1800</i>
   <i type="int" name="TELESCOPE">     0</i>
   <i type="int" name="TAUPAR">     1</i>
   <i type="int" name="OMEGAPAR">    -1</i>
   <i name="LAMBDA">      1.00000000</i>
  </separator>
  <separator name="External order field" >
   <i name="OFIELD_KAPPA">      0.00000000</i>
   <v name="OFIELD_K">      0.00000000      0.00000000      0.00000000</v>
   <i name="OFIELD_Q6_NEAR">      0.00000000</i>
   <i name="OFIELD_Q6_FAR">      0.00000000</i>
   <i name="OFIELD_A">      0.00000000</i>
  </separator>
 </parameters>
 <atominfo>
  <atoms>      27 </atoms>
  <types>       4 </types>
  <array name="atoms" >
   <dimension dim="1">ion</dimension>
   <field type="string">element</field>
   <field type="int">atomtype</field>
   <set>
    <rc><c>V </c><c>   1</c></rc>
    <rc><c>V </c><c>   1</c></rc>
    <rc><c>V </c><c>   1</c></rc>
    <rc><c>Mo</c><c>   2</c></rc>
    <rc><c>Mo</c><c>   2</c></rc>
    <rc><c>Mo</c><c>   2</c></rc>
    <rc><c>W </c><c>   3</c></rc>
    <rc><c>W </c><c>   3</c></rc>
    <rc><c>W </c><c>   3</c></rc>
    <rc><c>S </c><c>   4</c></rc>
    <rc><c>S </c><c>   4</c></rc>
    <rc><c>S </c><c>   4</c></rc>
    <rc><c>S </c><c>   4</c></rc>
    <rc><c>S </c><c>   4</c></rc>
    <rc><c>S </c><c>   4</c></rc>
    <rc><c>S </c><c>   4</c></rc>
    <rc><c>S </c><c>   4</c></rc>
    <rc><c>S </c><c>   4</c></rc>
    <rc><c>S </c><c>   4</c></rc>
    <rc><c>S </c><c>   4</c></rc>
    <rc><c>S </c><c>   4</c></rc>
    <rc><c>S </c><c>   4</c></rc>
    <rc><c>S </c><c>   4</c></rc>
    <rc><c>S </c><c>   4</c></rc>
    <rc><c>S </c><c>   4</c></rc>
    <rc><c>S </c><c>   4</c></rc>
    <rc><c>S </c><c>   4</c></rc>
   </set>
  </array>
  <array name="atomtypes" >
   <dimension dim="1">type</dimension>
   <field type="int">atomspertype</field>
   <field type="string">element</field>
   <field>mass</field>
   <field>valence</field>
   <field type="string">pseudopotential</field>
   <set>
    <rc><c>   3</c><c>V </c><c>     50.94100000</c><c>      5.00000000</c><c> PAW_PBE V 08Apr2002                    </c></rc>
    <rc><c>   3</c><c>Mo</c><c>     95.94000000</c><c>      6.00000000</c><c> PAW_PBE Mo 08Apr2002                   </c></rc>
    <rc><c>   3</c><c>W </c><c>    183.85000000</c><c>      6.00000000</c><c> PAW_PBE W 08Apr2002                    </c></rc>
    <rc><c>  18</c><c>S </c><c>     32.06600000</c><c>      6.00000000</c><c>  PAW_PBE S 17Jan2003                   </c></rc>
   </set>
  </array>
 </atominfo>
 <structure name="initialpos" >
  <crystal>
   <varray name="basis" >
    <v>       8.66999996       5.03999989       0.00000000 </v>
    <v>      -8.66999982       5.04000013       0.00000000 </v>
    <v>       0.00000000       0.00000000      30.00000000 </v>
   </varray>
   <i name="volume">   2621.80797419 </i>
   <varray name="rec_basis" >
    <v>       0.05767013       0.09920635       0.00000000 </v>
    <v>      -0.05767013       0.09920635       0.00000000 </v>
    <v>       0.00000000       0.00000000       0.03333333 </v>
   </varray>
  </crystal>
  <varray name="positions" >
   <v>       0.66666669       0.33333334       0.00000000 </v>
   <v>       0.66666669       0.00000000       0.00000000 </v>
   <v>       0.33333334       0.66666669       0.00000000 </v>
   <v>       0.00000000       0.00000000       0.00000000 </v>
   <v>       0.00000000       0.66666669       0.00000000 </v>
   <v>       1.00000000       0.33333334       0.00000000 </v>
   <v>       0.33333334       0.00000000       0.00000000 </v>
   <v>       0.33333334       0.33333334       0.00000000 </v>
   <v>       0.66666669       0.66666669       0.00000000 </v>
   <v>       0.11068511       0.22244981       0.95539999 </v>
   <v>       0.22244981       0.11068511       0.04460000 </v>
   <v>       0.11068511       0.55578315       0.95539999 </v>
   <v>       0.22244981       0.44401845       0.04460000 </v>
   <v>       0.11068511       0.88911647       0.95539999 </v>
   <v>       0.22244981       0.77735180       0.04460000 </v>
   <v>       0.44401845       0.22244981       0.95539999 </v>
   <v>       0.55578315       0.11068511       0.04460000 </v>
   <v>       0.44401845       0.55578315       0.95539999 </v>
   <v>       0.55578315       0.44401845       0.04460000 </v>
   <v>       0.44401845       0.88911647       0.95539999 </v>
   <v>       0.55578315       0.77735180       0.04460000 </v>
   <v>       0.77735180       0.22244981       0.95539999 </v>
   <v>       0.88911647       0.11068511       0.04460000 </v>
   <v>       0.77735180       0.55578315       0.95539999 </v>
   <v>       0.88911647       0.44401845       0.04460000 </v>
   <v>       0.77735180       0.88911647       0.95539999 </v>
   <v>       0.88911647       0.77735180       0.04460000 </v>
  </varray>
 </structure>
 <calculation>
  <scstep>
   <time name="dav">   22.06   22.12</time>
   <time name="total">   22.11   22.17</time>
   <energy>
    <i name="alphaZ">     81.65567618 </i>
    <i name="ewald">  41890.23010370 </i>
    <i name="hartreedc"> -47722.85868297 </i>
    <i name="XCdc">   -242.92976575 </i>
    <i name="pawpsdc">   3467.42045192 </i>
    <i name="pawaedc">  -2871.19716117 </i>
    <i name="eentropy">     -0.52639801 </i>
    <i name="bandstr">   -238.40609882 </i>
    <i name="atom">   6761.44252427 </i>
    <i name="e_fr_energy">   1124.83064934 </i>
    <i name="e_wo_entrp">   1125.35704735 </i>
    <i name="e_0_energy">   1125.09384835 </i>
   </energy>
  </scstep>
  <scstep>
   <time name="dav">   28.13   28.20</time>
   <time name="total">   28.13   28.21</time>
   <energy>
    <i name="e_fr_energy">      0.03596036 </i>
    <i name="e_wo_entrp">      0.20931441 </i>
    <i name="e_0_energy">      0.12263738 </i>
   </energy>
  </scstep>
  <scstep>
   <time name="dav">   28.19   28.26</time>
   <time name="total">   28.19   28.26</time>
   <energy>
    <i name="e_fr_energy">   -199.91191069 </i>
    <i name="e_wo_entrp">   -199.65162681 </i>
    <i name="e_0_energy">   -199.78176875 </i>
   </energy>
  </scstep>
  <scstep>
   <time name="dav">   29.87   29.94</time>
   <time name="total">   29.87   29.95</time>
   <energy>
    <i name="e_fr_energy">   -208.92817238 </i>
    <i name="e_wo_entrp">   -208.62964896 </i>
    <i name="e_0_energy">   -208.77891067 </i>
   </energy>
  </scstep>
  <scstep>
   <time name="dav">   29.41   29.49</time>
   <time name="total">   29.89   29.97</time>
   <energy>
    <i name="e_fr_energy">   -209.27810238 </i>
    <i name="e_wo_entrp">   -208.98294917 </i>
    <i name="e_0_energy">   -209.13052578 </i>
   </energy>
  </scstep>
  <scstep>
   <time name="dav">   31.85   31.92</time>
   <time name="total">   32.35   32.44</time>
   <energy>
    <i name="e_fr_energy">   -237.20892760 </i>
    <i name="e_wo_entrp">   -236.93979228 </i>
    <i name="e_0_energy">   -237.07435994 </i>
   </energy>
  </scstep>
  <scstep>
   <time name="dav">   32.46   32.54</time>
   <time name="total">   32.97   33.05</time>
   <energy>
    <i name="e_fr_energy">   -196.63489108 </i>
    <i name="e_wo_entrp">   -196.30054159 </i>
    <i name="e_0_energy">   -196.46771634 </i>
   </energy>
  </scstep>
  <scstep>
   <time name="dav">   29.28   29.35</time>
   <time name="total">   29.79   29.87</time>
   <energy>
    <i name="e_fr_energy">   -190.08640364 </i>
    <i name="e_wo_entrp">   -189.81701553 </i>
    <i name="e_0_energy">   -189.95170958 </i>
   </energy>
  </scstep>
  <scstep>
   <time name="dav">   30.37   30.45</time>
   <time name="total">   30.90   30.98</time>
   <energy>
    <i name="e_fr_energy">   -188.31178068 </i>
    <i name="e_wo_entrp">   -187.98358812 </i>
    <i name="e_0_energy">   -188.14768440 </i>
   </energy>
  </scstep>
  <scstep>
   <time name="dav">   32.75   32.83</time>
   <time name="total">   33.29   33.37</time>
   <energy>
    <i name="e_fr_energy">   -187.12458292 </i>
    <i name="e_wo_entrp">   -186.78207267 </i>
    <i name="e_0_energy">   -186.95332780 </i>
   </energy>
  </scstep>
  <scstep>
   <time name="dav">   31.33   31.41</time>
   <time name="total">   31.87   31.96</time>
   <energy>
    <i name="e_fr_energy">   -187.01431762 </i>
    <i name="e_wo_entrp">   -186.66536976 </i>
    <i name="e_0_energy">   -186.83984369 </i>
   </energy>
  </scstep>
  <scstep>
   <time name="dav">   31.50   31.58</time>
   <time name="total">   32.04   32.12</time>
   <energy>
    <i name="e_fr_energy">   -187.03109892 </i>
    <i name="e_wo_entrp">   -186.69694254 </i>
    <i name="e_0_energy">   -186.86402073 </i>
   </energy>
  </scstep>
  <scstep>
   <time name="dav">   32.40   32.47</time>
   <time name="total">   32.94   33.02</time>
   <energy>
    <i name="e_fr_energy">   -186.93302968 </i>
    <i name="e_wo_entrp">   -186.59662305 </i>
    <i name="e_0_energy">   -186.76482636 </i>
   </energy>
  </scstep>
  <scstep>
   <time name="dav">   32.01   32.08</time>
   <time name="total">   32.54   32.63</time>
   <energy>
    <i name="e_fr_energy">   -186.90350321 </i>
    <i name="e_wo_entrp">   -186.56220379 </i>
    <i name="e_0_energy">   -186.73285350 </i>
   </energy>
  </scstep>
  <scstep>
   <time name="dav">   30.13   30.21</time>
   <time name="total">   30.67   30.76</time>
   <energy>
    <i name="e_fr_energy">   -186.89840248 </i>
    <i name="e_wo_entrp">   -186.55511037 </i>
    <i name="e_0_energy">   -186.72675642 </i>
   </energy>
  </scstep>
  <scstep>
   <time name="dav">   31.87   31.95</time>
   <time name="total">   32.41   32.49</time>
   <energy>
    <i name="e_fr_energy">   -186.89257272 </i>
    <i name="e_wo_entrp">   -186.54905989 </i>
    <i name="e_0_energy">   -186.72081631 </i>
   </energy>
  </scstep>
  <scstep>
   <time name="dav">   31.75   31.82</time>
   <time name="total">   32.28   32.37</time>
   <energy>
    <i name="e_fr_energy">   -186.88991729 </i>
    <i name="e_wo_entrp">   -186.54838505 </i>
    <i name="e_0_energy">   -186.71915117 </i>
   </energy>
  </scstep>
  <scstep>
   <time name="dav">   29.40   29.47</time>
   <time name="total">   29.94   30.02</time>
   <energy>
    <i name="e_fr_energy">   -186.88938423 </i>
    <i name="e_wo_entrp">   -186.54800787 </i>
    <i name="e_0_energy">   -186.71869605 </i>
   </energy>
  </scstep>
  <scstep>
   <time name="dav">   28.17   28.24</time>
   <time name="total">   28.71   28.79</time>
   <energy>
    <i name="e_fr_energy">   -186.88917251 </i>
    <i name="e_wo_entrp">   -186.54733370 </i>
    <i name="e_0_energy">   -186.71825311 </i>
   </energy>
  </scstep>
  <scstep>
   <time name="dav">   24.00   24.06</time>
   <time name="total">   24.54   24.61</time>
   <energy>
    <i name="e_fr_energy">   -186.89005661 </i>
    <i name="e_wo_entrp">   -186.54854448 </i>
    <i name="e_0_energy">   -186.71930054 </i>
   </energy>
  </scstep>
  <scstep>
   <time name="dav">   22.15   22.21</time>
   <time name="total">   22.69   22.75</time>
   <energy>
    <i name="e_fr_energy">   -186.89092571 </i>
    <i name="e_wo_entrp">   -186.54928679 </i>
    <i name="e_0_energy">   -186.72010625 </i>
   </energy>
  </scstep>
  <scstep>
   <time name="dav">   19.36   19.41</time>
   <time name="total">   19.90   19.96</time>
   <energy>
    <i name="e_fr_energy">   -186.89173644 </i>
    <i name="e_wo_entrp">   -186.55013246 </i>
    <i name="e_0_energy">   -186.72093445 </i>
   </energy>
  </scstep>
  <scstep>
   <time name="dav">   20.78   20.83</time>
   <time name="total">   21.32   21.38</time>
   <energy>
    <i name="e_fr_energy">   -186.89289326 </i>
    <i name="e_wo_entrp">   -186.55140320 </i>
    <i name="e_0_energy">   -186.72214823 </i>
   </energy>
  </scstep>
  <scstep>
   <time name="dav">   19.13   19.18</time>
   <time name="total">   19.67   19.73</time>
   <energy>
    <i name="e_fr_energy">   -186.89347625 </i>
    <i name="e_wo_entrp">   -186.55191975 </i>
    <i name="e_0_energy">   -186.72269800 </i>
   </energy>
  </scstep>
  <scstep>
   <time name="dav">   16.84   16.88</time>
   <time name="total">   17.39   17.43</time>
   <energy>
    <i name="e_fr_energy">   -186.89384293 </i>
    <i name="e_wo_entrp">   -186.55226877 </i>
    <i name="e_0_energy">   -186.72305585 </i>
   </energy>
  </scstep>
  <scstep>
   <time name="dav">   19.15   19.20</time>
   <time name="total">   19.68   19.74</time>
   <energy>
    <i name="e_fr_energy">   -186.89408015 </i>
    <i name="e_wo_entrp">   -186.55252652 </i>
    <i name="e_0_energy">   -186.72330334 </i>
   </energy>
  </scstep>
  <scstep>
   <time name="dav">   20.30   20.35</time>
   <time name="total">   20.34   20.40</time>
   <energy>
    <i name="alphaZ">     81.65567618 </i>
    <i name="ewald">  41890.23010370 </i>
    <i name="hartreedc"> -47833.15525430 </i>
    <i name="XCdc">   -231.59757690 </i>
    <i name="pawpsdc">   4192.17524972 </i>
    <i name="pawaedc">  -3610.20087203 </i>
    <i name="eentropy">     -0.34155708 </i>
    <i name="bandstr">  -1437.10246428 </i>
    <i name="atom">   6761.44252427 </i>
    <i name="e_fr_energy">   -186.89417071 </i>
    <i name="e_wo_entrp">   -186.55261363 </i>
    <i name="e_0_energy">   -186.72339217 </i>
   </energy>
  </scstep>
  <structure>
   <crystal>
    <varray name="basis" >
     <v>       8.66999996       5.03999989       0.00000000 </v>
     <v>      -8.66999982       5.04000013       0.00000000 </v>
     <v>       0.00000000       0.00000000      30.00000000 </v>
    </varray>
    <i name="volume">   2621.80797419 </i>
    <varray name="rec_basis" >
     <v>       0.05767013       0.09920635       0.00000000 </v>
     <v>      -0.05767013       0.09920635       0.00000000 </v>
     <v>       0.00000000       0.00000000       0.03333333 </v>
    </varray>
   </crystal>
   <varray name="positions" >
    <v>       0.66666669       0.33333334       0.00000000 </v>
    <v>       0.66666669       0.00000000       0.00000000 </v>
    <v>       0.33333334       0.66666669       0.00000000 </v>
    <v>       0.00000000       0.00000000       0.00000000 </v>
    <v>       0.00000000       0.66666669       0.00000000 </v>
    <v>       1.00000000       0.33333334       0.00000000 </v>
    <v>       0.33333334       0.00000000       0.00000000 </v>
    <v>       0.33333334       0.33333334       0.00000000 </v>
    <v>       0.66666669       0.66666669       0.00000000 </v>
    <v>       0.11068511       0.22244981       0.95539999 </v>
    <v>       0.22244981       0.11068511       0.04460000 </v>
    <v>       0.11068511       0.55578315       0.95539999 </v>
    <v>       0.22244981       0.44401845       0.04460000 </v>
    <v>       0.11068511       0.88911647       0.95539999 </v>
    <v>       0.22244981       0.77735180       0.04460000 </v>
    <v>       0.44401845       0.22244981       0.95539999 </v>
    <v>       0.55578315       0.11068511       0.04460000 </v>
    <v>       0.44401845       0.55578315       0.95539999 </v>
    <v>       0.55578315       0.44401845       0.04460000 </v>
    <v>       0.44401845       0.88911647       0.95539999 </v>
    <v>       0.55578315       0.77735180       0.04460000 </v>
    <v>       0.77735180       0.22244981       0.95539999 </v>
    <v>       0.88911647       0.11068511       0.04460000 </v>
    <v>       0.77735180       0.55578315       0.95539999 </v>
    <v>       0.88911647       0.44401845       0.04460000 </v>
    <v>       0.77735180       0.88911647       0.95539999 </v>
    <v>       0.88911647       0.77735180       0.04460000 </v>
   </varray>
  </structure>
  <varray name="forces" >
   <v>       0.28411766       0.31918388      -0.09478733 </v>
   <v>       0.14506292       0.31492610       0.01081637 </v>
   <v>      -0.22062139      -0.28665035       0.08270910 </v>
   <v>      -0.00205833       0.01462947       0.02968340 </v>
   <v>       0.01660079      -0.00940990      -0.12144284 </v>
   <v>      -0.03222335      -0.03320486      -0.01047809 </v>
   <v>      -0.11503378      -0.39142490      -0.01363215 </v>
   <v>      -0.28624188      -0.45604454       0.12096445 </v>
   <v>       0.17669794       0.45199650       0.03973239 </v>
   <v>       0.20548203       0.12992045      -2.90446617 </v>
   <v>      -0.07175392       0.14733370       2.94039437 </v>
   <v>       0.50468923       0.68943662      -2.14761634 </v>
   <v>      -0.35375492       0.73550699       2.20004334 </v>
   <v>       0.20564044       0.13680384      -2.90270653 </v>
   <v>       0.69715013       0.16463869       2.13401742 </v>
   <v>       0.49001143       0.60332885      -2.15493385 </v>
   <v>       0.23804958       0.53040461       1.39015349 </v>
   <v>      -0.59094984       0.01020353      -2.07107516 </v>
   <v>       0.58526820      -0.00820125       2.07007845 </v>
   <v>       0.73814084      -0.00035000      -1.44444695 </v>
   <v>      -0.74007553      -0.02053244       1.45753435 </v>
   <v>      -0.34545048      -0.66871256      -1.44278771 </v>
   <v>      -0.51917183      -0.69182776       2.14045823 </v>
   <v>       0.38522769      -0.71264668      -2.20256644 </v>
   <v>      -0.51357962      -0.69228760       2.14554383 </v>
   <v>      -0.65645435      -0.14055294      -2.13175414 </v>
   <v>      -0.22476966      -0.13646745       2.88056449 </v>
  </varray>
  <varray name="stress" >
   <v>       7.26434434       0.11661246      -1.50051229 </v>
   <v>       0.11661241       4.49787625      -0.01529895 </v>
   <v>      -1.50051212      -0.01529905      30.28034123 </v>
  </varray>
  <energy>
   <i name="e_fr_energy">   -186.89417071 </i>
   <i name="e_wo_entrp">   -186.72339217 </i>
   <i name="e_0_energy">     -0.34155708 </i>
  </energy>
  <time name="totalsc">  789.13  791.26</time>
 </calculation>
 <calculation>
  <scstep>
   <time name="dav">   22.00   22.05</time>
   <time name="total">   22.55   22.60</time>
   <energy>
    <i name="alphaZ">     78.91950591 </i>
    <i name="ewald">  39379.58146298 </i>
    <i name="hartreedc"> -45337.18406793 </i>
    <i name="XCdc">   -239.05171627 </i>
    <i name="pawpsdc">   4192.15740940 </i>
    <i name="pawaedc">  -3610.18313721 </i>
    <i name="eentropy">     -0.27766371 </i>
    <i name="bandstr">  -1412.93610351 </i>
    <i name="atom">   6761.44252427 </i>
    <i name="e_fr_energy">   -187.53178605 </i>
    <i name="e_wo_entrp">   -187.25412235 </i>
    <i name="e_0_energy">   -187.39295420 </i>
   </energy>
  </scstep>
  <scstep>
   <time name="dav">   30.72   30.80</time>
   <time name="total">   31.26   31.34</time>
   <energy>
    <i name="e_fr_energy">   -189.59430577 </i>
    <i name="e_wo_entrp">   -189.25806182 </i>
    <i name="e_0_energy">   -189.42618379 </i>
   </energy>
  </scstep>
  <scstep>
   <time name="dav">   30.71   30.78</time>
   <time name="total">   31.27   31.36</time>
   <energy>
    <i name="e_fr_energy">   -189.33023288 </i>
    <i name="e_wo_entrp">   -189.06098785 </i>
    <i name="e_0_energy">   -189.19561037 </i>
   </energy>
  </scstep>
  <scstep>
   <time name="dav">   31.34   31.42</time>
   <time name="total">   31.89   31.98</time>
   <energy>
    <i name="e_fr_energy">   -188.79014519 </i>
    <i name="e_wo_entrp">   -188.51058853 </i>
    <i name="e_0_energy">   -188.65036686 </i>
   </energy>
  </scstep>
  <scstep>
   <time name="dav">   30.32   30.39</time>
   <time name="total">   30.86   30.94</time>
   <energy>
    <i name="e_fr_energy">   -188.88845908 </i>
    <i name="e_wo_entrp">   -188.60195190 </i>
    <i name="e_0_energy">   -188.74520549 </i>
   </energy>
  </scstep>
  <scstep>
   <time name="dav">   31.33   31.40</time>
   <time name="total">   31.87   31.96</time>
   <energy>
    <i name="e_fr_energy">   -188.77924548 </i>
    <i name="e_wo_entrp">   -188.50262447 </i>
    <i name="e_0_energy">   -188.64093497 </i>
   </energy>
  </scstep>
  <scstep>
   <time name="dav">   30.17   30.24</time>
   <time name="total">   30.73   30.81</time>
   <energy>
    <i name="e_fr_energy">   -188.72037924 </i>
    <i name="e_wo_entrp">   -188.44120373 </i>
    <i name="e_0_energy">   -188.58079148 </i>
   </energy>
  </scstep>
  <scstep>
   <time name="dav">   31.93   32.01</time>
   <time name="total">   32.48   32.57</time>
   <energy>
    <i name="e_fr_energy">   -188.71081788 </i>
    <i name="e_wo_entrp">   -188.43289008 </i>
    <i name="e_0_energy">   -188.57185398 </i>
   </energy>
  </scstep>
  <scstep>
   <time name="dav">   29.98   30.05</time>
   <time name="total">   30.53   30.61</time>
   <energy>
    <i name="e_fr_energy">   -188.70008783 </i>
    <i name="e_wo_entrp">   -188.42296025 </i>
    <i name="e_0_energy">   -188.56152404 </i>
   </energy>
  </scstep>
  <scstep>
   <time name="dav">   30.28   30.35</time>
   <time name="total">   30.83   30.91</time>
   <energy>
    <i name="e_fr_energy">   -188.69919222 </i>
    <i name="e_wo_entrp">   -188.42246905 </i>
    <i name="e_0_energy">   -188.56083064 </i>
   </energy>
  </scstep>
  <scstep>
   <time name="dav">   31.05   31.13</time>
   <time name="total">   31.60   31.69</time>
   <energy>
    <i name="e_fr_energy">   -188.69855524 </i>
    <i name="e_wo_entrp">   -188.42212905 </i>
    <i name="e_0_energy">   -188.56034214 </i>
   </energy>
  </scstep>
  <scstep>
   <time name="dav">   29.77   29.84</time>
   <time name="total">   29.80   29.88</time>
   <energy>
    <i name="alphaZ">     78.91950591 </i>
    <i name="ewald">  39379.58146298 </i>
    <i name="hartreedc"> -45348.03766931 </i>
    <i name="XCdc">   -237.96482837 </i>
    <i name="pawpsdc">   3952.28615354 </i>
    <i name="pawaedc">  -3366.82434743 </i>
    <i name="eentropy">     -0.27636629 </i>
    <i name="bandstr">  -1407.82508432 </i>
    <i name="atom">   6761.44252427 </i>
    <i name="e_fr_energy">   -188.69864902 </i>
    <i name="e_wo_entrp">   -188.42228273 </i>
    <i name="e_0_energy">   -188.56046587 </i>
   </energy>
  </scstep>
  <structure>
   <crystal>
    <varray name="basis" >
     <v>       8.85586905       5.10923803       0.00000000 </v>
     <v>      -8.85243203       5.10332604       0.00000000 </v>
     <v>       0.00000000       0.00000000      30.00000000 </v>
    </varray>
    <i name="volume">   2712.70708629 </i>
    <varray name="rec_basis" >
     <v>       0.05643801       0.09789961       0.00000000 </v>
     <v>      -0.05650339       0.09793762       0.00000000 </v>
     <v>       0.00000000       0.00000000       0.03333333 </v>
    </varray>
   </crystal>
   <varray name="positions" >
    <v>       0.66898475       0.33407049      -0.00015243 </v>
    <v>       0.66857750       0.00110364       0.00001739 </v>
    <v>       0.33134764       0.66590859       0.00013300 </v>
    <v>       0.00006429       0.00007574       0.00004773 </v>
    <v>       0.00000115       0.66657546      -0.00019529 </v>
    <v>       0.99975143       0.33326408      -0.00001685 </v>
    <v>       0.33113995      -0.00155331      -0.00002192 </v>
    <v>       0.33035435       0.33194709       0.00019452 </v>
    <v>       0.66932153       0.66833833       0.00006389 </v>
    <v>       0.11187859       0.22249992       0.95072935 </v>
    <v>       0.22295531       0.11158988       0.04932841 </v>
    <v>       0.11538886       0.55767865       0.95194643 </v>
    <v>       0.22498573       0.44852278       0.04813786 </v>
    <v>       0.11191197       0.88919908       0.95073218 </v>
    <v>       0.22517735       0.77620017       0.04803169 </v>
    <v>       0.44826926       0.22397404       0.95193467 </v>
    <v>       0.55898395       0.11256132       0.04683549 </v>
    <v>       0.44242317       0.55747610       0.95206952 </v>
    <v>       0.55737221       0.44235089       0.04792887 </v>
    <v>       0.44607040       0.88706117       0.95307719 </v>
    <v>       0.55362588       0.77931254       0.04694384 </v>
    <v>       0.77319025       0.22021046       0.95307986 </v>
    <v>       0.88436097       0.10881846       0.04804204 </v>
    <v>       0.77501285       0.55130068       0.95185807 </v>
    <v>       0.88437433       0.44213404       0.04805022 </v>
    <v>       0.77485275       0.89027014       0.95197194 </v>
    <v>       0.88783799       0.77732401       0.04923220 </v>
   </varray>
  </structure>
  <varray name="forces" >
   <v>       0.20703265       0.34972347       0.04854172 </v>
   <v>       0.15462455       0.25779945       0.08795378 </v>
   <v>      -0.17339429      -0.28006584      -0.06885684 </v>
   <v>       0.16622348       0.14024839       0.01277236 </v>
   <v>      -0.15227536       0.03364263      -0.03958203 </v>
   <v>       0.13135880       0.07996004       0.00502372 </v>
   <v>      -0.35273433      -0.42066007      -0.09953047 </v>
   <v>      -0.22661746      -0.59667659      -0.06300410 </v>
   <v>       0.26838063       0.49489611       0.08218437 </v>
   <v>       0.05827614       0.10816272      -0.13555898 </v>
   <v>       0.06292772       0.08910675       0.14658366 </v>
   <v>       0.03027100       0.06900722      -0.06351771 </v>
   <v>       0.09322925       0.05807274       0.09890052 </v>
   <v>       0.05717254       0.10834011      -0.17084966 </v>
   <v>      -0.01354423       0.09927116       0.08018317 </v>
   <v>      -0.05453253      -0.06827174       0.23550075 </v>
   <v>      -0.05908398      -0.08725321      -0.24607703 </v>
   <v>       0.09598727       0.00723905       0.27235809 </v>
   <v>      -0.09198812      -0.00847675      -0.23827029 </v>
   <v>      -0.10780203       0.00174198       0.25033421 </v>
   <v>       0.10917180       0.00844961      -0.21654374 </v>
   <v>      -0.00180401      -0.04452634      -0.03892696 </v>
   <v>      -0.04688809      -0.07617851       0.05617478 </v>
   <v>      -0.09665592      -0.04989930      -0.09216619 </v>
   <v>      -0.02619529      -0.06781662       0.02708467 </v>
   <v>       0.01744012      -0.10019055      -0.06856956 </v>
   <v>      -0.04858031      -0.10564592       0.13785777 </v>
  </varray>
  <varray name="stress" >
   <v>     -19.98326188      -0.02719232      -0.01632247 </v>
   <v>      -0.02719231     -19.58011908      -0.11668150 </v>
   <v>      -0.01632253      -0.11668172      -1.81075482 </v>
  </varray>
  <energy>
   <i name="e_fr_energy">   -188.69864902 </i>
   <i name="e_wo_entrp">   -188.56046587 </i>
   <i name="e_0_energy">     -0.27636629 </i>
  </energy>
  <time name="totalsc">  408.02  409.12</time>
 </calculation>
 <calculation>
  <scstep>
   <time name="dav">   23.96   24.01</time>
   <time name="total">   24.49   24.55</time>
   <energy>
    <i name="alphaZ">     82.33554463 </i>
    <i name="ewald">  41298.09107186 </i>
    <i name="hartreedc"> -47296.99979439 </i>
    <i name="XCdc">   -233.85498086 </i>
    <i name="pawpsdc">   3950.55610769 </i>
    <i name="pawaedc">  -3365.07487186 </i>
    <i name="eentropy">     -0.23210531 </i>
    <i name="bandstr">  -1386.88239210 </i>
    <i name="atom">   6761.44252427 </i>
    <i name="e_fr_energy">   -190.61889607 </i>
    <i name="e_wo_entrp">   -190.38679076 </i>
    <i name="e_0_energy">   -190.50284341 </i>
   </energy>
  </scstep>
  <scstep>
   <time name="dav">   28.41   28.47</time>
   <time name="total">   28.93   29.01</time>
   <energy>
    <i name="e_fr_energy">   -190.56917999 </i>
    <i name="e_wo_entrp">   -190.34059557 </i>
    <i name="e_0_energy">   -190.45488778 </i>
   </energy>
  </scstep>
  <scstep>
   <time name="dav">   30.62   30.69</time>
   <time name="total">   31.15   31.23</time>
   <energy>
    <i name="e_fr_energy">   -190.10688977 </i>
    <i name="e_wo_entrp">   -189.85807899 </i>
    <i name="e_0_energy">   -189.98248438 </i>
   </energy>
  </scstep>
  <scstep>
   <time name="dav">   31.13   31.21</time>
   <time name="total">   31.67   31.75</time>
   <energy>
    <i name="e_fr_energy">   -189.89448228 </i>
    <i name="e_wo_entrp">   -189.66606124 </i>
    <i name="e_0_energy">   -189.78027176 </i>
   </energy>
  </scstep>
  <scstep>
   <time name="dav">   30.63   30.70</time>
   <time name="total">   31.16   31.25</time>
   <energy>
    <i name="e_fr_energy">   -189.84818162 </i>
    <i name="e_wo_entrp">   -189.61344199 </i>
    <i name="e_0_energy">   -189.73081180 </i>
   </energy>
  </scstep>
  <scstep>
   <time name="dav">   31.50   31.57</time>
   <time name="total">   32.03   32.12</time>
   <energy>
    <i name="e_fr_energy">   -189.79747806 </i>
    <i name="e_wo_entrp">   -189.56337560 </i>
    <i name="e_0_energy">   -189.68042683 </i>
   </energy>
  </scstep>
  <scstep>
   <time name="dav">   29.14   29.22</time>
   <time name="total">   29.68   29.76</time>
   <energy>
    <i name="e_fr_energy">   -189.79073258 </i>
    <i name="e_wo_entrp">   -189.55800725 </i>
    <i name="e_0_energy">   -189.67436991 </i>
   </energy>
  </scstep>
  <scstep>
   <time name="dav">   30.40   30.47</time>
   <time name="total">   30.93   31.01</time>
   <energy>
    <i name="e_fr_energy">   -189.79115438 </i>
    <i name="e_wo_entrp">   -189.55824335 </i>
    <i name="e_0_energy">   -189.67469886 </i>
   </energy>
  </scstep>
  <scstep>
   <time name="dav">   27.57   27.64</time>
   <time name="total">   28.11   28.19</time>
   <energy>
    <i name="e_fr_energy">   -189.79085452 </i>
    <i name="e_wo_entrp">   -189.55789021 </i>
    <i name="e_0_energy">   -189.67437236 </i>
   </energy>
  </scstep>
  <scstep>
   <time name="dav">   25.56   25.62</time>
   <time name="total">   26.09   26.16</time>
   <energy>
    <i name="e_fr_energy">   -189.79109155 </i>
    <i name="e_wo_entrp">   -189.55811988 </i>
    <i name="e_0_energy">   -189.67460572 </i>
   </energy>
  </scstep>
  <scstep>
   <time name="dav">   24.06   24.12</time>
   <time name="total">   24.60   24.66</time>
   <energy>
    <i name="e_fr_energy">   -189.79081513 </i>
    <i name="e_wo_entrp">   -189.55773164 </i>
    <i name="e_0_energy">   -189.67427339 </i>
   </energy>
  </scstep>
  <scstep>
   <time name="dav">   19.38   19.43</time>
   <time name="total">   19.42   19.47</time>
   <energy>
    <i name="alphaZ">     82.33554463 </i>
    <i name="ewald">  41298.09107186 </i>
    <i name="hartreedc"> -47270.35883185 </i>
    <i name="XCdc">   -235.24587681 </i>
    <i name="pawpsdc">   4038.63313863 </i>
    <i name="pawaedc">  -3454.34132692 </i>
    <i name="eentropy">     -0.23305984 </i>
    <i name="bandstr">  -1410.11402259 </i>
    <i name="atom">   6761.44252427 </i>
    <i name="e_fr_energy">   -189.79083862 </i>
    <i name="e_wo_entrp">   -189.55777878 </i>
    <i name="e_0_energy">   -189.67430870 </i>
   </energy>
  </scstep>
  <structure>
   <crystal>
    <varray name="basis" >
     <v>       8.66817249       5.00296244       0.00000000 </v>
     <v>      -8.66510258       4.99768344       0.00000000 </v>
     <v>       0.00000000       0.00000000      30.00000000 </v>
    </varray>
    <i name="volume">   2600.15894582 </i>
    <varray name="rec_basis" >
     <v>       0.05766205       0.09997584       0.00000000 </v>
     <v>      -0.05772296       0.10001126       0.00000000 </v>
     <v>       0.00000000       0.00000000       0.03333333 </v>
    </varray>
   </crystal>
   <varray name="positions" >
    <v>       0.66976085       0.33445164      -0.00012508 </v>
    <v>       0.66915152       0.00138269       0.00006694 </v>
    <v>       0.33071888       0.66561061       0.00009421 </v>
    <v>       0.00045488       0.00014915       0.00005493 </v>
    <v>      -0.00008843       0.66677656      -0.00021759 </v>
    <v>       1.00000902       0.33327099      -0.00001402 </v>
    <v>       0.33010752      -0.00191274      -0.00007799 </v>
    <v>       0.32915099       0.33117590       0.00015903 </v>
    <v>       0.67039633       0.66890118       0.00011019 </v>
    <v>       0.11211313       0.22262330       0.95065299 </v>
    <v>       0.22316276       0.11167727       0.04941099 </v>
    <v>       0.11553191       0.55776397       0.95191065 </v>
    <v>       0.22517073       0.44852987       0.04819358 </v>
    <v>       0.11214576       0.88932381       0.95063594 </v>
    <v>       0.22532868       0.77637741       0.04807686 </v>
    <v>       0.44810429       0.22391311       0.95206733 </v>
    <v>       0.55878323       0.11247333       0.04669686 </v>
    <v>       0.44252670       0.55739643       0.95222295 </v>
    <v>       0.55727045       0.44242470       0.04779464 </v>
    <v>       0.44597046       0.88716699       0.95321821 </v>
    <v>       0.55374399       0.77922227       0.04682186 </v>
    <v>       0.77311486       0.22013849       0.95305793 </v>
    <v>       0.88419021       0.10873714       0.04807369 </v>
    <v>       0.77483810       0.55131038       0.95180615 </v>
    <v>       0.88423714       0.44204681       0.04806548 </v>
    <v>       0.77470362       0.89008766       0.95193331 </v>
    <v>       0.88761686       0.77719554       0.04930986 </v>
   </varray>
  </structure>
  <varray name="forces" >
   <v>       0.16575360       0.37784218       0.07347293 </v>
   <v>       0.17663580       0.24468946       0.08690800 </v>
   <v>      -0.15571536      -0.30953418      -0.08533040 </v>
   <v>       0.21469626       0.17450364       0.00529457 </v>
   <v>      -0.20741818       0.03288808      -0.00987470 </v>
   <v>       0.18382921       0.12130707       0.01124406 </v>
   <v>      -0.42690596      -0.42246937      -0.08555532 </v>
   <v>      -0.21502764      -0.63496656      -0.08454272 </v>
   <v>       0.30213127       0.48979879       0.06600932 </v>
   <v>       0.00634870       0.02212682      -0.69815695 </v>
   <v>       0.02661701       0.01716739       0.73443563 </v>
   <v>       0.06615394       0.12328917      -0.54604583 </v>
   <v>      -0.03585995       0.11221896       0.61859379 </v>
   <v>       0.00798030       0.02468587      -0.74150376 </v>
   <v>       0.09123170       0.01933274       0.58189523 </v>
   <v>       0.01374511       0.05853675      -0.25019893 </v>
   <v>       0.00659678       0.02728528       0.18572274 </v>
   <v>      -0.02981744       0.02151692      -0.19069461 </v>
   <v>       0.04000068      -0.01833082       0.22812369 </v>
   <v>       0.04860780       0.00775451      -0.19149349 </v>
   <v>      -0.04637679       0.00332930       0.22691276 </v>
   <v>      -0.02928184      -0.09883825      -0.49147053 </v>
   <v>      -0.07998745      -0.12719335       0.53965602 </v>
   <v>       0.02007989      -0.10778238      -0.61229334 </v>
   <v>      -0.05531776      -0.11813756       0.50250752 </v>
   <v>      -0.08973334      -0.02106331      -0.57269736 </v>
   <v>       0.00103367      -0.01995714       0.69908168 </v>
  </varray>
  <varray name="stress" >
   <v>     -10.15762425      -0.02534441      -0.05617383 </v>
   <v>      -0.02534442      -9.89150859      -0.12680816 </v>
   <v>      -0.05617394      -0.12680809       6.47613857 </v>
  </varray>
  <energy>
   <i name="e_fr_energy">   -189.79083862 </i>
   <i name="e_wo_entrp">   -189.67430870 </i>
   <i name="e_0_energy">     -0.23305984 </i>
  </energy>
  <time name="totalsc">  380.94  381.95</time>
 </calculation>
 <calculation>
  <scstep>
   <time name="dav">   22.02   22.07</time>
   <time name="total">   22.54   22.59</time>
   <energy>
    <i name="alphaZ">     85.80249685 </i>
    <i name="ewald">  42825.42169431 </i>
    <i name="hartreedc"> -48842.00540823 </i>
    <i name="XCdc">   -232.96328866 </i>
    <i name="pawpsdc">   4038.75673564 </i>
    <i name="pawaedc">  -3454.46296379 </i>
    <i name="eentropy">     -0.19155198 </i>
    <i name="bandstr">  -1373.16674273 </i>
    <i name="atom">   6761.44252427 </i>
    <i name="e_fr_energy">   -191.36650432 </i>
    <i name="e_wo_entrp">   -191.17495234 </i>
    <i name="e_0_energy">   -191.27072833 </i>
   </energy>
  </scstep>
  <scstep>
   <time name="dav">   32.95   33.03</time>
   <time name="total">   33.47   33.56</time>
   <energy>
    <i name="e_fr_energy">   -191.18477477 </i>
    <i name="e_wo_entrp">   -190.99493487 </i>
    <i name="e_0_energy">   -191.08985482 </i>
   </energy>
  </scstep>
  <scstep>
   <time name="dav">   30.33   30.41</time>
   <time name="total">   30.85   30.93</time>
   <energy>
    <i name="e_fr_energy">   -191.33367719 </i>
    <i name="e_wo_entrp">   -191.10991205 </i>
    <i name="e_0_energy">   -191.22179462 </i>
   </energy>
  </scstep>
  <scstep>
   <time name="dav">   30.94   31.02</time>
   <time name="total">   31.46   31.55</time>
   <energy>
    <i name="e_fr_energy">   -190.93594175 </i>
    <i name="e_wo_entrp">   -190.74474335 </i>
    <i name="e_0_energy">   -190.84034255 </i>
   </energy>
  </scstep>
  <scstep>
   <time name="dav">   30.54   30.62</time>
   <time name="total">   31.07   31.15</time>
   <energy>
    <i name="e_fr_energy">   -190.89310795 </i>
    <i name="e_wo_entrp">   -190.69836808 </i>
    <i name="e_0_energy">   -190.79573801 </i>
   </energy>
  </scstep>
  <scstep>
   <time name="dav">   30.59   30.66</time>
   <time name="total">   31.11   31.19</time>
   <energy>
    <i name="e_fr_energy">   -190.80753485 </i>
    <i name="e_wo_entrp">   -190.60893854 </i>
    <i name="e_0_energy">   -190.70823669 </i>
   </energy>
  </scstep>
  <scstep>
   <time name="dav">   31.25   31.33</time>
   <time name="total">   31.77   31.86</time>
   <energy>
    <i name="e_fr_energy">   -190.79550513 </i>
    <i name="e_wo_entrp">   -190.60107655 </i>
    <i name="e_0_energy">   -190.69829084 </i>
   </energy>
  </scstep>
  <scstep>
   <time name="dav">   28.79   28.86</time>
   <time name="total">   29.31   29.39</time>
   <energy>
    <i name="e_fr_energy">   -190.79313660 </i>
    <i name="e_wo_entrp">   -190.59741807 </i>
    <i name="e_0_energy">   -190.69527734 </i>
   </energy>
  </scstep>
  <scstep>
   <time name="dav">   28.65   28.72</time>
   <time name="total">   29.17   29.24</time>
   <energy>
    <i name="e_fr_energy">   -190.79209948 </i>
    <i name="e_wo_entrp">   -190.59642615 </i>
    <i name="e_0_energy">   -190.69426281 </i>
   </energy>
  </scstep>
  <scstep>
   <time name="dav">   28.71   28.78</time>
   <time name="total">   29.23   29.31</time>
   <energy>
    <i name="e_fr_energy">   -190.79227066 </i>
    <i name="e_wo_entrp">   -190.59632946 </i>
    <i name="e_0_energy">   -190.69430006 </i>
   </energy>
  </scstep>
  <scstep>
   <time name="dav">   24.61   24.67</time>
   <time name="total">   24.65   24.72</time>
   <energy>
    <i name="alphaZ">     85.80249685 </i>
    <i name="ewald">  42825.42169431 </i>
    <i name="hartreedc"> -48813.22660881 </i>
    <i name="XCdc">   -234.28964794 </i>
    <i name="pawpsdc">   4063.59560883 </i>
    <i name="pawaedc">  -3479.47849107 </i>
    <i name="eentropy">     -0.19584839 </i>
    <i name="bandstr">  -1399.86391297 </i>
    <i name="atom">   6761.44252427 </i>
    <i name="e_fr_energy">   -190.79218493 </i>
    <i name="e_wo_entrp">   -190.59633653 </i>
    <i name="e_0_energy">   -190.69426073 </i>
   </energy>
  </scstep>
  <structure>
   <crystal>
    <varray name="basis" >
     <v>       8.48765308       4.90190163       0.00000000 </v>
     <v>      -8.48552615       4.89825231       0.00000000 </v>
     <v>       0.00000000       0.00000000      30.00000000 </v>
    </varray>
    <i name="volume">   2495.09642267 </i>
    <varray name="rec_basis" >
     <v>       0.05889455       0.10202643       0.00000000 </v>
     <v>      -0.05893842       0.10205200       0.00000000 </v>
     <v>       0.00000000       0.00000000       0.03333333 </v>
    </varray>
   </crystal>
   <varray name="positions" >
    <v>       0.67273086       0.33634546       0.00004792 </v>
    <v>       0.67131670       0.00221062       0.00024563 </v>
    <v>       0.32817468       0.66413827      -0.00009610 </v>
    <v>       0.00247489       0.00048102       0.00005951 </v>
    <v>      -0.00071195       0.66780834      -0.00021275 </v>
    <v>       1.00160869       0.33339361       0.00001450 </v>
    <v>       0.32581654      -0.00291105      -0.00024290 </v>
    <v>       0.32432814       0.32786966      -0.00003396 </v>
    <v>       0.67458287       0.67081178       0.00023284 </v>
    <v>       0.11198490       0.22259873       0.94873236 </v>
    <v>       0.22313426       0.11156124       0.05142804 </v>
    <v>       0.11672811       0.55837988       0.95037236 </v>
    <v>       0.22569224       0.44968204       0.04991335 </v>
    <v>       0.11204928       0.88931135       0.94861890 </v>
    <v>       0.22572970       0.77581852       0.04970552 </v>
    <v>       0.44893441       0.22444774       0.95113765 </v>
    <v>       0.55935790       0.11281146       0.04744753 </v>
    <v>       0.44240832       0.55785542       0.95143546 </v>
    <v>       0.55746540       0.44195101       0.04866231 </v>
    <v>       0.44643422       0.88682976       0.95244711 </v>
    <v>       0.55336101       0.77962174       0.04766753 </v>
    <v>       0.77221645       0.21953019       0.95165789 </v>
    <v>       0.88293190       0.10815089       0.04959959 </v>
    <v>       0.77426033       0.55025137       0.95009903 </v>
    <v>       0.88313183       0.44142414       0.04950777 </v>
    <v>       0.77429171       0.89063175       0.95032160 </v>
    <v>       0.88778108       0.77720950       0.05123123 </v>
   </varray>
  </structure>
  <varray name="forces" >
   <v>       0.17769227       0.44849441       0.07390507 </v>
   <v>       0.18296817       0.22146444       0.04917956 </v>
   <v>      -0.17052229      -0.32565750      -0.07935465 </v>
   <v>       0.26257310       0.20553316      -0.01306011 </v>
   <v>      -0.25271273       0.03144661       0.02597139 </v>
   <v>       0.21496258       0.14407005       0.01299555 </v>
   <v>      -0.45236070      -0.42172156      -0.02019650 </v>
   <v>      -0.22302018      -0.72400145      -0.03723683 </v>
   <v>       0.33000100       0.55229774       0.00337491 </v>
   <v>      -0.04231906      -0.08591291      -0.56361690 </v>
   <v>      -0.01868390      -0.03609453       0.58930209 </v>
   <v>      -0.01127250       0.00126291      -0.39027734 </v>
   <v>      -0.02553636       0.01133903       0.47274855 </v>
   <v>      -0.02402564      -0.06088638      -0.59315151 </v>
   <v>      -0.01273659      -0.02122357       0.37976484 </v>
   <v>      -0.00213869      -0.00481105      -0.11015453 </v>
   <v>      -0.03285157      -0.04518017       0.06158745 </v>
   <v>       0.04794043       0.01753976       0.01087913 </v>
   <v>      -0.03486086      -0.03480196       0.03076463 </v>
   <v>      -0.02491867      -0.00009659      -0.08126163 </v>
   <v>      -0.00114968       0.00742374       0.14125374 </v>
   <v>       0.02920895       0.00319497      -0.37923548 </v>
   <v>      -0.00326381      -0.00743275       0.38695342 </v>
   <v>       0.04389278      -0.00321395      -0.48539428 </v>
   <v>       0.02019599       0.00852681       0.35903936 </v>
   <v>       0.00089137       0.04589885      -0.38391772 </v>
   <v>       0.02204658       0.07254187       0.53913779 </v>
  </varray>
  <varray name="stress" >
   <v>      -5.87748356       0.11282428      -0.08956039 </v>
   <v>       0.11282427      -5.76160315       0.05767538 </v>
   <v>      -0.08956061       0.05767539       4.58202918 </v>
  </varray>
  <energy>
   <i name="e_fr_energy">   -190.79218493 </i>
   <i name="e_wo_entrp">   -190.69426073 </i>
   <i name="e_0_energy">     -0.19584839 </i>
  </energy>
  <time name="totalsc">  367.49  368.46</time>
 </calculation>
 <calculation>
  <scstep>
   <time name="dav">   22.02   22.08</time>
   <time name="total">   22.54   22.59</time>
   <energy>
    <i name="alphaZ">     90.23764213 </i>
    <i name="ewald">  44694.17454755 </i>
    <i name="hartreedc"> -50738.19967452 </i>
    <i name="XCdc">   -231.78594411 </i>
    <i name="pawpsdc">   4063.89010979 </i>
    <i name="pawaedc">  -3479.77153892 </i>
    <i name="eentropy">     -0.16409496 </i>
    <i name="bandstr">  -1352.09121786 </i>
    <i name="atom">   6761.44252427 </i>
    <i name="e_fr_energy">   -192.26764663 </i>
    <i name="e_wo_entrp">   -192.10355167 </i>
    <i name="e_0_energy">   -192.18559915 </i>
   </energy>
  </scstep>
  <scstep>
   <time name="dav">   27.93   28.00</time>
   <time name="total">   28.44   28.51</time>
   <energy>
    <i name="e_fr_energy">   -191.99572987 </i>
    <i name="e_wo_entrp">   -191.82019022 </i>
    <i name="e_0_energy">   -191.90796004 </i>
   </energy>
  </scstep>
  <scstep>
   <time name="dav">   30.32   30.39</time>
   <time name="total">   30.84   30.92</time>
   <energy>
    <i name="e_fr_energy">   -192.05121622 </i>
    <i name="e_wo_entrp">   -191.87023942 </i>
    <i name="e_0_energy">   -191.96072782 </i>
   </energy>
  </scstep>
  <scstep>
   <time name="dav">   29.94   30.01</time>
   <time name="total">   30.45   30.53</time>
   <energy>
    <i name="e_fr_energy">   -191.87812813 </i>
    <i name="e_wo_entrp">   -191.69936073 </i>
    <i name="e_0_energy">   -191.78874443 </i>
   </energy>
  </scstep>
  <scstep>
   <time name="dav">   30.73   30.80</time>
   <time name="total">   31.24   31.34</time>
   <energy>
    <i name="e_fr_energy">   -191.61135331 </i>
    <i name="e_wo_entrp">   -191.44342498 </i>
    <i name="e_0_energy">   -191.52738914 </i>
   </energy>
  </scstep>
  <scstep>
   <time name="dav">   31.27   31.35</time>
   <time name="total">   31.78   31.86</time>
   <energy>
    <i name="e_fr_energy">   -191.59017232 </i>
    <i name="e_wo_entrp">   -191.40792913 </i>
    <i name="e_0_energy">   -191.49905072 </i>
   </energy>
  </scstep>
  <scstep>
   <time name="dav">   30.77   30.85</time>
   <time name="total">   31.29   31.37</time>
   <energy>
    <i name="e_fr_energy">   -191.57228178 </i>
    <i name="e_wo_entrp">   -191.40580470 </i>
    <i name="e_0_energy">   -191.48904324 </i>
   </energy>
  </scstep>
  <scstep>
   <time name="dav">   30.03   30.10</time>
   <time name="total">   30.54   30.62</time>
   <energy>
    <i name="e_fr_energy">   -191.56570479 </i>
    <i name="e_wo_entrp">   -191.39449611 </i>
    <i name="e_0_energy">   -191.48010045 </i>
   </energy>
  </scstep>
  <scstep>
   <time name="dav">   29.51   29.58</time>
   <time name="total">   30.02   30.10</time>
   <energy>
    <i name="e_fr_energy">   -191.56472920 </i>
    <i name="e_wo_entrp">   -191.39322181 </i>
    <i name="e_0_energy">   -191.47897551 </i>
   </energy>
  </scstep>
  <scstep>
   <time name="dav">   28.97   29.04</time>
   <time name="total">   29.48   29.56</time>
   <energy>
    <i name="e_fr_energy">   -191.56470238 </i>
    <i name="e_wo_entrp">   -191.39291865 </i>
    <i name="e_0_energy">   -191.47881052 </i>
   </energy>
  </scstep>
  <scstep>
   <time name="dav">   27.54   27.60</time>
   <time name="total">   27.58   27.65</time>
   <energy>
    <i name="alphaZ">     90.23764213 </i>
    <i name="ewald">  44694.17454755 </i>
    <i name="hartreedc"> -50703.25918545 </i>
    <i name="XCdc">   -233.33610216 </i>
    <i name="pawpsdc">   4086.95344865 </i>
    <i name="pawaedc">  -3502.92015784 </i>
    <i name="eentropy">     -0.17193207 </i>
    <i name="bandstr">  -1384.68542697 </i>
    <i name="atom">   6761.44252427 </i>
    <i name="e_fr_energy">   -191.56464190 </i>
    <i name="e_wo_entrp">   -191.39270983 </i>
    <i name="e_0_energy">   -191.47867586 </i>
   </energy>
  </scstep>
  <structure>
   <crystal>
    <varray name="basis" >
     <v>       8.27699828       4.78716799       0.00000000 </v>
     <v>      -8.26837435       4.77226343       0.00000000 </v>
     <v>       0.00000000       0.00000000      30.00000000 </v>
    </varray>
    <i name="volume">   2372.46339653 </i>
    <varray name="rec_basis" >
     <v>       0.06034567       0.10455429       0.00000000 </v>
     <v>      -0.06053414       0.10466334       0.00000000 </v>
     <v>       0.00000000       0.00000000       0.03333333 </v>
    </varray>
   </crystal>
   <varray name="positions" >
    <v>       0.67945914       0.34068921       0.00037199 </v>
    <v>       0.67541203       0.00361878       0.00046415 </v>
    <v>       0.32289065       0.66121096      -0.00043721 </v>
    <v>       0.00699591       0.00116353       0.00000906 </v>
    <v>      -0.00218304       0.67006277      -0.00009716 </v>
    <v>       1.00508262       0.33366577       0.00007242 </v>
    <v>       0.31722517      -0.00481031      -0.00034603 </v>
    <v>       0.31379866       0.32048291      -0.00023198 </v>
    <v>       0.68372090       0.67515596       0.00026417 </v>
    <v>       0.11050163       0.22180422       0.94581237 </v>
    <v>       0.22241189       0.11114208       0.05448313 </v>
    <v>       0.11716513       0.55870593       0.94822319 </v>
    <v>       0.22575025       0.45056584       0.05242842 </v>
    <v>       0.11096570       0.88867726       0.94556374 </v>
    <v>       0.22548665       0.77519920       0.05185648 </v>
    <v>       0.44947156       0.22475254       0.95012814 </v>
    <v>       0.55917096       0.11279567       0.04819763 </v>
    <v>       0.44272930       0.55806799       0.95090550 </v>
    <v>       0.55707897       0.44146989       0.04936197 </v>
    <v>       0.44662272       0.88670057       0.95161479 </v>
    <v>       0.55311457       0.78000901       0.04873112 </v>
    <v>       0.77202979       0.21913169       0.94960710 </v>
    <v>       0.88233284       0.10786054       0.05173459 </v>
    <v>       0.77436344       0.54937383       0.94754257 </v>
    <v>       0.88289764       0.44114620       0.05151665 </v>
    <v>       0.77471836       0.89158687       0.94815863 </v>
    <v>       0.88900100       0.77798552       0.05406447 </v>
   </varray>
  </structure>
  <varray name="forces" >
   <v>       0.26219178       0.54856869      -0.04926858 </v>
   <v>       0.22915668       0.26664365       0.01868454 </v>
   <v>      -0.26276235      -0.36462559       0.00927599 </v>
   <v>       0.09600481       0.01867152      -0.07828060 </v>
   <v>      -0.16279956       0.03760759      -0.01205724 </v>
   <v>       0.12488010       0.01206008      -0.05305985 </v>
   <v>      -0.31395992      -0.35015191       0.04382544 </v>
   <v>      -0.16501374      -0.49538800       0.11672644 </v>
   <v>       0.27350678       0.52115187      -0.06742452 </v>
   <v>      -0.07253579      -0.21333208      -0.29020266 </v>
   <v>      -0.04107515      -0.06090072       0.29832566 </v>
   <v>      -0.10957061      -0.11756276      -0.07639125 </v>
   <v>       0.04261855      -0.07008559       0.14998136 </v>
   <v>      -0.03375086      -0.12063775      -0.25948021 </v>
   <v>      -0.09870513      -0.03645119       0.09387528 </v>
   <v>      -0.08256388      -0.08930505       0.21338658 </v>
   <v>      -0.10745588      -0.11263336      -0.23166951 </v>
   <v>       0.20873478      -0.01043511       0.36138417 </v>
   <v>      -0.16697391      -0.08489324      -0.34961896 </v>
   <v>      -0.16501576      -0.03202185       0.16807298 </v>
   <v>       0.12128615      -0.00951532      -0.14769904 </v>
   <v>       0.04415179       0.09142212      -0.05664849 </v>
   <v>       0.09974941       0.11994390       0.09044156 </v>
   <v>       0.04000700       0.09195920      -0.17445587 </v>
   <v>       0.11663882       0.17303637       0.12234130 </v>
   <v>       0.09461097       0.10467286      -0.11221447 </v>
   <v>       0.02864493       0.18220166       0.27214995 </v>
  </varray>
  <varray name="stress" >
   <v>      -0.03446673       0.26109462       0.09923165 </v>
   <v>       0.26109439       0.10356225       0.46773471 </v>
   <v>       0.09923193       0.46773474      -0.45611856 </v>
  </varray>
  <energy>
   <i name="e_fr_energy">   -191.56464190 </i>
   <i name="e_wo_entrp">   -191.47867586 </i>
   <i name="e_0_energy">     -0.17193207 </i>
  </energy>
  <time name="totalsc">  366.90  367.88</time>
 </calculation>
 <calculation>
  <scstep>
   <time name="dav">   22.00   22.05</time>
   <time name="total">   22.51   22.56</time>
   <energy>
    <i name="alphaZ">     90.20627187 </i>
    <i name="ewald">  44665.08944393 </i>
    <i name="hartreedc"> -50674.40885310 </i>
    <i name="XCdc">   -233.42608654 </i>
    <i name="pawpsdc">   4087.32646906 </i>
    <i name="pawaedc">  -3503.28991433 </i>
    <i name="eentropy">     -0.16570077 </i>
    <i name="bandstr">  -1384.45783668 </i>
    <i name="atom">   6761.44252427 </i>
    <i name="e_fr_energy">   -191.68368228 </i>
    <i name="e_wo_entrp">   -191.51798151 </i>
    <i name="e_0_energy">   -191.60083190 </i>
   </energy>
  </scstep>
  <scstep>
   <time name="dav">   31.62   31.70</time>
   <time name="total">   32.14   32.22</time>
   <energy>
    <i name="e_fr_energy">   -191.74703450 </i>
    <i name="e_wo_entrp">   -191.56192904 </i>
    <i name="e_0_energy">   -191.65448177 </i>
   </energy>
  </scstep>
  <scstep>
   <time name="dav">   31.18   31.25</time>
   <time name="total">   31.68   31.76</time>
   <energy>
    <i name="e_fr_energy">   -191.70253517 </i>
    <i name="e_wo_entrp">   -191.53641173 </i>
    <i name="e_0_energy">   -191.61947345 </i>
   </energy>
  </scstep>
  <scstep>
   <time name="dav">   29.15   29.22</time>
   <time name="total">   29.66   29.74</time>
   <energy>
    <i name="e_fr_energy">   -191.70238743 </i>
    <i name="e_wo_entrp">   -191.53343714 </i>
    <i name="e_0_energy">   -191.61791229 </i>
   </energy>
  </scstep>
  <scstep>
   <time name="dav">   29.23   29.30</time>
   <time name="total">   29.74   29.82</time>
   <energy>
    <i name="e_fr_energy">   -191.69909228 </i>
    <i name="e_wo_entrp">   -191.53023565 </i>
    <i name="e_0_energy">   -191.61466396 </i>
   </energy>
  </scstep>
  <scstep>
   <time name="dav">   28.76   28.83</time>
   <time name="total">   29.27   29.35</time>
   <energy>
    <i name="e_fr_energy">   -191.69894341 </i>
    <i name="e_wo_entrp">   -191.52960022 </i>
    <i name="e_0_energy">   -191.61427182 </i>
   </energy>
  </scstep>
  <scstep>
   <time name="dav">   29.04   29.11</time>
   <time name="total">   29.55   29.63</time>
   <energy>
    <i name="e_fr_energy">   -191.69842214 </i>
    <i name="e_wo_entrp">   -191.52972406 </i>
    <i name="e_0_energy">   -191.61407310 </i>
   </energy>
  </scstep>
  <scstep>
   <time name="dav">   24.34   24.39</time>
   <time name="total">   24.85   24.91</time>
   <energy>
    <i name="e_fr_energy">   -191.69818469 </i>
    <i name="e_wo_entrp">   -191.52917841 </i>
    <i name="e_0_energy">   -191.61368155 </i>
   </energy>
  </scstep>
  <scstep>
   <time name="dav">   18.05   18.10</time>
   <time name="total">   18.09   18.14</time>
   <energy>
    <i name="alphaZ">     90.20627187 </i>
    <i name="ewald">  44665.08944393 </i>
    <i name="hartreedc"> -50675.79830490 </i>
    <i name="XCdc">   -233.38912473 </i>
    <i name="pawpsdc">   4086.21685065 </i>
    <i name="pawaedc">  -3502.14940370 </i>
    <i name="eentropy">     -0.16874389 </i>
    <i name="bandstr">  -1383.14770097 </i>
    <i name="atom">   6761.44252427 </i>
    <i name="e_fr_energy">   -191.69818748 </i>
    <i name="e_wo_entrp">   -191.52944359 </i>
    <i name="e_0_energy">   -191.61381553 </i>
   </energy>
  </scstep>
  <structure>
   <crystal>
    <varray name="basis" >
     <v>       8.28021454       4.79449544       0.00000000 </v>
     <v>      -8.26508202       4.76832051       0.00000000 </v>
     <v>       0.00000000       0.00000000      30.00000000 </v>
    </varray>
    <i name="volume">   2373.28844776 </i>
    <varray name="rec_basis" >
     <v>       0.06027485       0.10447633       0.00000000 </v>
     <v>      -0.06060572       0.10466761       0.00000000 </v>
     <v>       0.00000000       0.00000000       0.03333333 </v>
    </varray>
   </crystal>
   <varray name="positions" >
    <v>       0.68291866       0.34264983       0.00029158 </v>
    <v>       0.67738194       0.00428171       0.00049261 </v>
    <v>       0.32034091       0.66016426      -0.00042044 </v>
    <v>       0.00734017       0.00097527      -0.00011537 </v>
    <v>      -0.00245612       0.67070891      -0.00011706 </v>
    <v>       1.00548283       0.33336319      -0.00001245 </v>
    <v>       0.31461917      -0.00564307      -0.00027555 </v>
    <v>       0.31090684       0.31852418      -0.00004474 </v>
    <v>       0.68706231       0.67694744       0.00015652 </v>
    <v>       0.10923531       0.22095161       0.94536895 </v>
    <v>       0.22199374       0.11095906       0.05493861 </v>
    <v>       0.11625737       0.55843217       0.94811577 </v>
    <v>       0.22552227       0.45008491       0.05265089 </v>
    <v>       0.11027229       0.88817526       0.94517009 </v>
    <v>       0.22502082       0.77530759       0.05199158 </v>
    <v>       0.44878190       0.22454167       0.95047587 </v>
    <v>       0.55829706       0.11254210       0.04782248 </v>
    <v>       0.44327822       0.55740948       0.95148632 </v>
    <v>       0.55617433       0.44153214       0.04879893 </v>
    <v>       0.44598439       0.88701965       0.95188911 </v>
    <v>       0.55341943       0.77960728       0.04848799 </v>
    <v>       0.77261660       0.21946435       0.94953037 </v>
    <v>       0.88322502       0.10817438       0.05186448 </v>
    <v>       0.77493836       0.54972497       0.94728131 </v>
    <v>       0.88410175       0.44167674       0.05169812 </v>
    <v>       0.77551237       0.89182987       0.94799436 </v>
    <v>       0.88998652       0.77880949       0.05447957 </v>
   </varray>
  </structure>
  <varray name="forces" >
   <v>       0.27531938       0.53305966      -0.00567160 </v>
   <v>       0.25936391       0.30608771       0.06443232 </v>
   <v>      -0.29548740      -0.37383619      -0.00377985 </v>
   <v>       0.06512981       0.00294350      -0.03135685 </v>
   <v>      -0.14992054       0.07279115       0.02964210 </v>
   <v>       0.13469288      -0.01492533      -0.03229736 </v>
   <v>      -0.29527602      -0.37997279       0.01799295 </v>
   <v>      -0.20517317      -0.51593958       0.02343291 </v>
   <v>       0.27343478       0.51676846      -0.00346016 </v>
   <v>      -0.04351206      -0.13192876      -0.19517485 </v>
   <v>      -0.03457259      -0.08135368       0.24874718 </v>
   <v>      -0.07553023      -0.08538132      -0.07543799 </v>
   <v>       0.00116704      -0.06312713       0.14150164 </v>
   <v>      -0.02557254      -0.09454480      -0.21850837 </v>
   <v>      -0.05134075      -0.03771952       0.11989202 </v>
   <v>      -0.06390904      -0.04776401       0.25942107 </v>
   <v>      -0.08665997      -0.06628634      -0.28979638 </v>
   <v>       0.15018113       0.01125242       0.39344161 </v>
   <v>      -0.10491973      -0.05719614      -0.37449230 </v>
   <v>      -0.11517799      -0.03129698       0.22310200 </v>
   <v>       0.10182037      -0.01145861      -0.21703560 </v>
   <v>       0.02230946       0.05235940      -0.08366114 </v>
   <v>       0.06231636       0.08153097       0.07279852 </v>
   <v>       0.03963966       0.07876400      -0.19058572 </v>
   <v>       0.08500415       0.13648815       0.08622361 </v>
   <v>       0.04090313       0.06777814      -0.16434546 </v>
   <v>       0.03576996       0.13290762       0.20497573 </v>
  </varray>
  <varray name="stress" >
   <v>       0.00159686       0.07442161       0.10382856 </v>
   <v>       0.07442158       0.11295515       0.26189313 </v>
   <v>       0.10382862       0.26189301      -1.03132877 </v>
  </varray>
  <energy>
   <i name="e_fr_energy">   -191.69818748 </i>
   <i name="e_wo_entrp">   -191.61381553 </i>
   <i name="e_0_energy">     -0.16874389 </i>
  </energy>
  <time name="totalsc">  290.51  291.28</time>
 </calculation>
 <calculation>
  <scstep>
   <time name="dav">   21.99   22.04</time>
   <time name="total">   22.50   22.55</time>
   <energy>
    <i name="alphaZ">     90.15466931 </i>
    <i name="ewald">  44640.10445347 </i>
    <i name="hartreedc"> -50650.13205021 </i>
    <i name="XCdc">   -233.44160062 </i>
    <i name="pawpsdc">   4086.19217874 </i>
    <i name="pawaedc">  -3502.12459934 </i>
    <i name="eentropy">     -0.16260929 </i>
    <i name="bandstr">  -1383.85248420 </i>
    <i name="atom">   6761.44252427 </i>
    <i name="e_fr_energy">   -191.81951787 </i>
    <i name="e_wo_entrp">   -191.65690858 </i>
    <i name="e_0_energy">   -191.73821322 </i>
   </energy>
  </scstep>
  <scstep>
   <time name="dav">   31.36   31.43</time>
   <time name="total">   31.87   31.95</time>
   <energy>
    <i name="e_fr_energy">   -191.86028463 </i>
    <i name="e_wo_entrp">   -191.68599739 </i>
    <i name="e_0_energy">   -191.77314101 </i>
   </energy>
  </scstep>
  <scstep>
   <time name="dav">   31.06   31.14</time>
   <time name="total">   31.57   31.66</time>
   <energy>
    <i name="e_fr_energy">   -191.83848498 </i>
    <i name="e_wo_entrp">   -191.67727700 </i>
    <i name="e_0_energy">   -191.75788099 </i>
   </energy>
  </scstep>
  <scstep>
   <time name="dav">   29.37   29.44</time>
   <time name="total">   29.88   29.96</time>
   <energy>
    <i name="e_fr_energy">   -191.83537007 </i>
    <i name="e_wo_entrp">   -191.67109493 </i>
    <i name="e_0_energy">   -191.75323250 </i>
   </energy>
  </scstep>
  <scstep>
   <time name="dav">   30.45   30.52</time>
   <time name="total">   30.96   31.04</time>
   <energy>
    <i name="e_fr_energy">   -191.83456898 </i>
    <i name="e_wo_entrp">   -191.67053411 </i>
    <i name="e_0_energy">   -191.75255154 </i>
   </energy>
  </scstep>
  <scstep>
   <time name="dav">   29.46   29.53</time>
   <time name="total">   29.96   30.04</time>
   <energy>
    <i name="e_fr_energy">   -191.83389927 </i>
    <i name="e_wo_entrp">   -191.66977494 </i>
    <i name="e_0_energy">   -191.75183710 </i>
   </energy>
  </scstep>
  <scstep>
   <time name="dav">   26.72   26.78</time>
   <time name="total">   27.23   27.30</time>
   <energy>
    <i name="e_fr_energy">   -191.83308436 </i>
    <i name="e_wo_entrp">   -191.66902546 </i>
    <i name="e_0_energy">   -191.75105491 </i>
   </energy>
  </scstep>
  <scstep>
   <time name="dav">   21.56   21.61</time>
   <time name="total">   21.59   21.65</time>
   <energy>
    <i name="alphaZ">     90.15466931 </i>
    <i name="ewald">  44640.10445347 </i>
    <i name="hartreedc"> -50651.07947689 </i>
    <i name="XCdc">   -233.40240373 </i>
    <i name="pawpsdc">   4088.21044865 </i>
    <i name="pawaedc">  -3504.15921339 </i>
    <i name="eentropy">     -0.16405308 </i>
    <i name="bandstr">  -1382.94008190 </i>
    <i name="atom">   6761.44252427 </i>
    <i name="e_fr_energy">   -191.83313329 </i>
    <i name="e_wo_entrp">   -191.66908020 </i>
    <i name="e_0_energy">   -191.75110674 </i>
   </energy>
  </scstep>
  <structure>
   <crystal>
    <varray name="basis" >
     <v>       8.28225904       4.79820979       0.00000000 </v>
     <v>      -8.26526146       4.76880002       0.00000000 </v>
[...]
      <set comment="kpoint 31">
       <r>  -17.5148    1.0000 </r>
       <r>  -17.2990    1.0000 </r>
       <r>  -16.9266    1.0000 </r>
       <r>  -16.6963    1.0000 </r>
       <r>  -16.5020    1.0000 </r>
       <r>  -16.4819    1.0000 </r>
       <r>  -16.3243    1.0000 </r>
       <r>  -16.1908    1.0000 </r>
       <r>  -16.1439    1.0000 </r>
       <r>  -16.0635    1.0000 </r>
       <r>  -15.9034    1.0000 </r>
       <r>  -15.8305    1.0000 </r>
       <r>  -15.7861    1.0000 </r>
       <r>  -15.6244    1.0000 </r>
       <r>  -15.5675    1.0000 </r>
       <r>  -15.4614    1.0000 </r>
       <r>  -15.3544    1.0000 </r>
       <r>  -15.3248    1.0000 </r>
       <r>   -9.7789    1.0000 </r>
       <r>   -9.4485    1.0000 </r>
       <r>   -9.4076    1.0000 </r>
       <r>   -8.9130    1.0000 </r>
       <r>   -8.8360    1.0000 </r>
       <r>   -8.7546    1.0000 </r>
       <r>   -8.6298    1.0000 </r>
       <r>   -8.5728    1.0000 </r>
       <r>   -8.4170    1.0000 </r>
       <r>   -8.3088    1.0000 </r>
       <r>   -8.2502    1.0000 </r>
       <r>   -8.1672    1.0000 </r>
       <r>   -8.1360    1.0000 </r>
       <r>   -8.0679    1.0000 </r>
       <r>   -8.0122    1.0000 </r>
       <r>   -7.8961    1.0000 </r>
       <r>   -7.8436    1.0000 </r>
       <r>   -7.8122    1.0000 </r>
       <r>   -7.5505    1.0000 </r>
       <r>   -7.4414    1.0000 </r>
       <r>   -7.3961    1.0000 </r>
       <r>   -7.3244    1.0000 </r>
       <r>   -7.1406    1.0000 </r>
       <r>   -7.0000    1.0000 </r>
       <r>   -6.9630    1.0000 </r>
       <r>   -6.8727    1.0000 </r>
       <r>   -6.8345    1.0000 </r>
       <r>   -6.7687    1.0000 </r>
       <r>   -6.6766    1.0000 </r>
       <r>   -6.5866    1.0000 </r>
       <r>   -6.5259    1.0000 </r>
       <r>   -6.5008    1.0000 </r>
       <r>   -6.4404    1.0000 </r>
       <r>   -6.3524    1.0000 </r>
       <r>   -6.2897    1.0000 </r>
       <r>   -6.1975    1.0000 </r>
       <r>   -6.1282    1.0000 </r>
       <r>   -6.0517    1.0000 </r>
       <r>   -5.9996    1.0000 </r>
       <r>   -5.9194    1.0000 </r>
       <r>   -5.8429    1.0000 </r>
       <r>   -5.7151    1.0000 </r>
       <r>   -5.6466    1.0000 </r>
       <r>   -5.5305    1.0000 </r>
       <r>   -5.5027    1.0000 </r>
       <r>   -5.4118    1.0000 </r>
       <r>   -5.1936    1.0000 </r>
       <r>   -5.1018    1.0000 </r>
       <r>   -5.0423    1.0000 </r>
       <r>   -4.8614    1.0000 </r>
       <r>   -4.8218    1.0000 </r>
       <r>   -4.6795    1.0000 </r>
       <r>   -4.6563    1.0000 </r>
       <r>   -4.5422    1.0000 </r>
       <r>   -4.3457    1.0000 </r>
       <r>   -4.2678    1.0000 </r>
       <r>   -4.1203    1.0000 </r>
       <r>   -4.0527    1.0000 </r>
       <r>   -3.7939    1.0000 </r>
       <r>   -3.7298    0.9998 </r>
       <r>   -3.6422    0.9986 </r>
       <r>   -3.1009    0.1995 </r>
       <r>   -3.0210    0.0795 </r>
       <r>   -2.8647    0.0060 </r>
       <r>   -2.7072    0.0001 </r>
       <r>   -2.6023    0.0000 </r>
       <r>   -2.5232    0.0000 </r>
       <r>   -2.3672    0.0000 </r>
       <r>   -2.2214    0.0000 </r>
       <r>   -2.1165    0.0000 </r>
       <r>   -2.0326    0.0000 </r>
       <r>   -1.9061    0.0000 </r>
       <r>   -1.7035    0.0000 </r>
       <r>   -1.4849    0.0000 </r>
       <r>   -1.3711    0.0000 </r>
       <r>   -1.2687    0.0000 </r>
       <r>   -1.2492    0.0000 </r>
       <r>   -1.1763    0.0000 </r>
       <r>   -1.0655    0.0000 </r>
       <r>   -0.9791    0.0000 </r>
       <r>   -0.8871    0.0000 </r>
       <r>   -0.8350    0.0000 </r>
       <r>   -0.7945    0.0000 </r>
       <r>   -0.7278    0.0000 </r>
       <r>   -0.6312    0.0000 </r>
       <r>   -0.5981    0.0000 </r>
       <r>   -0.5545    0.0000 </r>
       <r>   -0.4086    0.0000 </r>
       <r>   -0.3566    0.0000 </r>
       <r>   -0.0633    0.0000 </r>
       <r>   -0.0430    0.0000 </r>
       <r>    0.2336    0.0000 </r>
       <r>    0.4275    0.0000 </r>
       <r>    0.5892    0.0000 </r>
       <r>    0.8829    0.0000 </r>
       <r>    0.9285    0.0000 </r>
       <r>    1.0807    0.0000 </r>
       <r>    1.2417    0.0000 </r>
       <r>    1.5933    0.0000 </r>
       <r>    2.1519    0.0000 </r>
       <r>    2.3037    0.0000 </r>
       <r>    2.4129    0.0000 </r>
      </set>
      <set comment="kpoint 32">
       <r>  -17.5455    1.0000 </r>
       <r>  -17.1792    1.0000 </r>
       <r>  -17.0639    1.0000 </r>
       <r>  -16.6983    1.0000 </r>
       <r>  -16.4931    1.0000 </r>
       <r>  -16.3790    1.0000 </r>
       <r>  -16.3183    1.0000 </r>
       <r>  -16.2184    1.0000 </r>
       <r>  -16.1207    1.0000 </r>
       <r>  -16.0850    1.0000 </r>
       <r>  -15.9725    1.0000 </r>
       <r>  -15.8470    1.0000 </r>
       <r>  -15.7844    1.0000 </r>
       <r>  -15.5885    1.0000 </r>
       <r>  -15.5548    1.0000 </r>
       <r>  -15.4623    1.0000 </r>
       <r>  -15.3611    1.0000 </r>
       <r>  -15.3246    1.0000 </r>
       <r>   -9.6766    1.0000 </r>
       <r>   -9.5983    1.0000 </r>
       <r>   -9.4332    1.0000 </r>
       <r>   -8.9307    1.0000 </r>
       <r>   -8.7373    1.0000 </r>
       <r>   -8.6707    1.0000 </r>
       <r>   -8.5392    1.0000 </r>
       <r>   -8.4653    1.0000 </r>
       <r>   -8.4204    1.0000 </r>
       <r>   -8.3884    1.0000 </r>
       <r>   -8.3241    1.0000 </r>
       <r>   -8.2577    1.0000 </r>
       <r>   -8.1763    1.0000 </r>
       <r>   -8.1060    1.0000 </r>
       <r>   -8.0421    1.0000 </r>
       <r>   -7.9284    1.0000 </r>
       <r>   -7.8494    1.0000 </r>
       <r>   -7.7816    1.0000 </r>
       <r>   -7.5542    1.0000 </r>
       <r>   -7.4498    1.0000 </r>
       <r>   -7.3261    1.0000 </r>
       <r>   -7.2760    1.0000 </r>
       <r>   -7.1686    1.0000 </r>
       <r>   -7.0292    1.0000 </r>
       <r>   -6.9520    1.0000 </r>
       <r>   -6.9113    1.0000 </r>
       <r>   -6.8384    1.0000 </r>
       <r>   -6.7533    1.0000 </r>
       <r>   -6.6635    1.0000 </r>
       <r>   -6.5965    1.0000 </r>
       <r>   -6.5083    1.0000 </r>
       <r>   -6.4795    1.0000 </r>
       <r>   -6.4322    1.0000 </r>
       <r>   -6.3769    1.0000 </r>
       <r>   -6.3492    1.0000 </r>
       <r>   -6.1941    1.0000 </r>
       <r>   -6.1248    1.0000 </r>
       <r>   -6.0216    1.0000 </r>
       <r>   -5.9580    1.0000 </r>
       <r>   -5.8690    1.0000 </r>
       <r>   -5.7882    1.0000 </r>
       <r>   -5.7577    1.0000 </r>
       <r>   -5.6514    1.0000 </r>
       <r>   -5.5516    1.0000 </r>
       <r>   -5.5037    1.0000 </r>
       <r>   -5.4095    1.0000 </r>
       <r>   -5.1805    1.0000 </r>
       <r>   -5.0862    1.0000 </r>
       <r>   -4.9973    1.0000 </r>
       <r>   -4.8606    1.0000 </r>
       <r>   -4.8496    1.0000 </r>
       <r>   -4.7871    1.0000 </r>
       <r>   -4.7371    1.0000 </r>
       <r>   -4.5179    1.0000 </r>
       <r>   -4.3411    1.0000 </r>
       <r>   -4.2469    1.0000 </r>
       <r>   -4.1309    1.0000 </r>
       <r>   -3.9666    1.0000 </r>
       <r>   -3.8197    1.0000 </r>
       <r>   -3.7004    0.9997 </r>
       <r>   -3.6551    0.9989 </r>
       <r>   -3.0734    0.1497 </r>
       <r>   -3.0523    0.1176 </r>
       <r>   -2.8381    0.0034 </r>
       <r>   -2.7115    0.0002 </r>
       <r>   -2.5832    0.0000 </r>
       <r>   -2.4981    0.0000 </r>
       <r>   -2.4015    0.0000 </r>
       <r>   -2.2458    0.0000 </r>
       <r>   -2.1314    0.0000 </r>
       <r>   -2.0671    0.0000 </r>
       <r>   -1.9100    0.0000 </r>
       <r>   -1.6861    0.0000 </r>
       <r>   -1.4544    0.0000 </r>
       <r>   -1.4078    0.0000 </r>
       <r>   -1.2779    0.0000 </r>
       <r>   -1.2483    0.0000 </r>
       <r>   -1.1885    0.0000 </r>
       <r>   -1.0453    0.0000 </r>
       <r>   -0.9763    0.0000 </r>
       <r>   -0.8814    0.0000 </r>
       <r>   -0.8601    0.0000 </r>
       <r>   -0.7920    0.0000 </r>
       <r>   -0.7216    0.0000 </r>
       <r>   -0.6469    0.0000 </r>
       <r>   -0.6105    0.0000 </r>
       <r>   -0.5425    0.0000 </r>
       <r>   -0.3708    0.0000 </r>
       <r>   -0.3031    0.0000 </r>
       <r>   -0.0692    0.0000 </r>
       <r>   -0.0270    0.0000 </r>
       <r>    0.1471    0.0000 </r>
       <r>    0.3933    0.0000 </r>
       <r>    0.6009    0.0000 </r>
       <r>    0.7806    0.0000 </r>
       <r>    0.9280    0.0000 </r>
       <r>    1.1387    0.0000 </r>
       <r>    1.2746    0.0000 </r>
       <r>    1.6211    0.0000 </r>
       <r>    2.1187    0.0000 </r>
       <r>    2.2705    0.0000 </r>
       <r>    2.5828    0.0000 </r>
      </set>
      <set comment="kpoint 33">
       <r>  -17.5463    1.0000 </r>
       <r>  -17.2412    1.0000 </r>
       <r>  -16.9454    1.0000 </r>
       <r>  -16.6989    1.0000 </r>
       <r>  -16.5342    1.0000 </r>
       <r>  -16.4540    1.0000 </r>
       <r>  -16.3493    1.0000 </r>
       <r>  -16.1725    1.0000 </r>
       <r>  -16.1156    1.0000 </r>
       <r>  -16.0342    1.0000 </r>
       <r>  -15.9552    1.0000 </r>
       <r>  -15.8615    1.0000 </r>
       <r>  -15.7706    1.0000 </r>
       <r>  -15.6033    1.0000 </r>
       <r>  -15.5649    1.0000 </r>
       <r>  -15.4624    1.0000 </r>
       <r>  -15.3637    1.0000 </r>
       <r>  -15.3253    1.0000 </r>
       <r>   -9.7427    1.0000 </r>
       <r>   -9.4741    1.0000 </r>
       <r>   -9.3547    1.0000 </r>
       <r>   -8.9548    1.0000 </r>
       <r>   -8.8826    1.0000 </r>
       <r>   -8.7983    1.0000 </r>
       <r>   -8.5868    1.0000 </r>
       <r>   -8.5099    1.0000 </r>
       <r>   -8.4456    1.0000 </r>
       <r>   -8.2987    1.0000 </r>
       <r>   -8.2620    1.0000 </r>
       <r>   -8.2187    1.0000 </r>
       <r>   -8.1213    1.0000 </r>
       <r>   -8.0915    1.0000 </r>
       <r>   -7.9645    1.0000 </r>
       <r>   -7.9051    1.0000 </r>
       <r>   -7.8406    1.0000 </r>
       <r>   -7.7776    1.0000 </r>
       <r>   -7.5861    1.0000 </r>
       <r>   -7.4453    1.0000 </r>
       <r>   -7.3543    1.0000 </r>
       <r>   -7.2588    1.0000 </r>
       <r>   -7.1686    1.0000 </r>
       <r>   -7.0813    1.0000 </r>
       <r>   -6.9716    1.0000 </r>
       <r>   -6.9147    1.0000 </r>
       <r>   -6.8522    1.0000 </r>
       <r>   -6.7110    1.0000 </r>
       <r>   -6.6379    1.0000 </r>
       <r>   -6.5778    1.0000 </r>
       <r>   -6.5365    1.0000 </r>
       <r>   -6.4883    1.0000 </r>
       <r>   -6.4363    1.0000 </r>
       <r>   -6.3489    1.0000 </r>
       <r>   -6.3065    1.0000 </r>
       <r>   -6.2131    1.0000 </r>
       <r>   -6.1741    1.0000 </r>
       <r>   -6.0371    1.0000 </r>
       <r>   -5.9849    1.0000 </r>
       <r>   -5.8983    1.0000 </r>
       <r>   -5.8188    1.0000 </r>
       <r>   -5.7071    1.0000 </r>
       <r>   -5.6823    1.0000 </r>
       <r>   -5.5316    1.0000 </r>
       <r>   -5.4807    1.0000 </r>
       <r>   -5.4183    1.0000 </r>
       <r>   -5.2076    1.0000 </r>
       <r>   -5.0921    1.0000 </r>
       <r>   -5.0563    1.0000 </r>
       <r>   -4.8906    1.0000 </r>
       <r>   -4.8273    1.0000 </r>
       <r>   -4.7051    1.0000 </r>
       <r>   -4.6208    1.0000 </r>
       <r>   -4.5091    1.0000 </r>
       <r>   -4.3352    1.0000 </r>
       <r>   -4.2494    1.0000 </r>
       <r>   -4.1599    1.0000 </r>
       <r>   -3.9504    1.0000 </r>
       <r>   -3.8552    1.0000 </r>
       <r>   -3.7457    0.9999 </r>
       <r>   -3.6236    0.9978 </r>
       <r>   -3.0858    0.1710 </r>
       <r>   -3.0345    0.0946 </r>
       <r>   -2.8806    0.0082 </r>
       <r>   -2.6841    0.0001 </r>
       <r>   -2.5956    0.0000 </r>
       <r>   -2.4785    0.0000 </r>
       <r>   -2.4036    0.0000 </r>
       <r>   -2.2222    0.0000 </r>
       <r>   -2.1363    0.0000 </r>
       <r>   -2.0756    0.0000 </r>
       <r>   -1.9184    0.0000 </r>
       <r>   -1.6706    0.0000 </r>
       <r>   -1.4282    0.0000 </r>
       <r>   -1.4117    0.0000 </r>
       <r>   -1.2960    0.0000 </r>
       <r>   -1.2453    0.0000 </r>
       <r>   -1.1893    0.0000 </r>
       <r>   -1.0665    0.0000 </r>
       <r>   -0.9754    0.0000 </r>
       <r>   -0.9395    0.0000 </r>
       <r>   -0.8567    0.0000 </r>
       <r>   -0.8354    0.0000 </r>
       <r>   -0.7682    0.0000 </r>
       <r>   -0.6270    0.0000 </r>
       <r>   -0.5433    0.0000 </r>
       <r>   -0.5061    0.0000 </r>
       <r>   -0.3644    0.0000 </r>
       <r>   -0.2861    0.0000 </r>
       <r>   -0.0939    0.0000 </r>
       <r>   -0.0480    0.0000 </r>
       <r>    0.0986    0.0000 </r>
       <r>    0.3731    0.0000 </r>
       <r>    0.6294    0.0000 </r>
       <r>    0.7105    0.0000 </r>
       <r>    0.9617    0.0000 </r>
       <r>    1.1881    0.0000 </r>
       <r>    1.3099    0.0000 </r>
       <r>    1.6451    0.0000 </r>
       <r>    2.1480    0.0000 </r>
       <r>    2.3040    0.0000 </r>
       <r>    2.4026    0.0000 </r>
      </set>
      <set comment="kpoint 34">
       <r>  -17.5387    1.0000 </r>
       <r>  -17.2886    1.0000 </r>
       <r>  -16.7954    1.0000 </r>
       <r>  -16.6935    1.0000 </r>
       <r>  -16.6756    1.0000 </r>
       <r>  -16.4749    1.0000 </r>
       <r>  -16.3508    1.0000 </r>
       <r>  -16.1587    1.0000 </r>
       <r>  -16.1183    1.0000 </r>
       <r>  -16.0182    1.0000 </r>
       <r>  -15.9132    1.0000 </r>
       <r>  -15.8611    1.0000 </r>
       <r>  -15.7372    1.0000 </r>
       <r>  -15.6605    1.0000 </r>
       <r>  -15.5630    1.0000 </r>
       <r>  -15.4618    1.0000 </r>
       <r>  -15.3640    1.0000 </r>
       <r>  -15.3258    1.0000 </r>
       <r>   -9.7828    1.0000 </r>
       <r>   -9.3340    1.0000 </r>
       <r>   -9.2394    1.0000 </r>
       <r>   -9.1129    1.0000 </r>
       <r>   -8.9614    1.0000 </r>
       <r>   -8.8989    1.0000 </r>
       <r>   -8.5891    1.0000 </r>
       <r>   -8.5300    1.0000 </r>
       <r>   -8.4462    1.0000 </r>
       <r>   -8.2888    1.0000 </r>
       <r>   -8.2563    1.0000 </r>
       <r>   -8.1807    1.0000 </r>
       <r>   -8.1237    1.0000 </r>
       <r>   -8.0190    1.0000 </r>
       <r>   -7.9698    1.0000 </r>
       <r>   -7.8611    1.0000 </r>
       <r>   -7.7440    1.0000 </r>
       <r>   -7.7273    1.0000 </r>
       <r>   -7.6041    1.0000 </r>
       <r>   -7.4890    1.0000 </r>
       <r>   -7.4103    1.0000 </r>
       <r>   -7.3231    1.0000 </r>
       <r>   -7.1993    1.0000 </r>
       <r>   -7.0291    1.0000 </r>
       <r>   -6.9917    1.0000 </r>
       <r>   -6.9194    1.0000 </r>
       <r>   -6.7508    1.0000 </r>
       <r>   -6.7110    1.0000 </r>
       <r>   -6.6422    1.0000 </r>
       <r>   -6.6124    1.0000 </r>
       <r>   -6.5327    1.0000 </r>
       <r>   -6.4737    1.0000 </r>
       <r>   -6.4355    1.0000 </r>
       <r>   -6.3529    1.0000 </r>
       <r>   -6.3232    1.0000 </r>
       <r>   -6.2680    1.0000 </r>
       <r>   -6.1722    1.0000 </r>
       <r>   -6.0540    1.0000 </r>
       <r>   -6.0200    1.0000 </r>
       <r>   -5.8252    1.0000 </r>
       <r>   -5.8109    1.0000 </r>
       <r>   -5.7194    1.0000 </r>
       <r>   -5.6884    1.0000 </r>
       <r>   -5.5550    1.0000 </r>
       <r>   -5.5429    1.0000 </r>
       <r>   -5.4008    1.0000 </r>
       <r>   -5.2193    1.0000 </r>
       <r>   -5.0655    1.0000 </r>
       <r>   -5.0324    1.0000 </r>
       <r>   -4.9423    1.0000 </r>
       <r>   -4.8370    1.0000 </r>
       <r>   -4.6434    1.0000 </r>
       <r>   -4.5396    1.0000 </r>
       <r>   -4.4541    1.0000 </r>
       <r>   -4.3230    1.0000 </r>
       <r>   -4.2693    1.0000 </r>
       <r>   -4.2011    1.0000 </r>
       <r>   -3.9876    1.0000 </r>
       <r>   -3.8530    1.0000 </r>
       <r>   -3.7720    1.0000 </r>
       <r>   -3.6109    0.9971 </r>
       <r>   -3.0970    0.1918 </r>
       <r>   -3.0131    0.0716 </r>
       <r>   -2.9176    0.0162 </r>
       <r>   -2.6617    0.0000 </r>
       <r>   -2.6157    0.0000 </r>
       <r>   -2.4813    0.0000 </r>
       <r>   -2.3870    0.0000 </r>
       <r>   -2.1967    0.0000 </r>
       <r>   -2.1362    0.0000 </r>
       <r>   -2.0731    0.0000 </r>
       <r>   -1.9242    0.0000 </r>
       <r>   -1.6628    0.0000 </r>
       <r>   -1.4275    0.0000 </r>
       <r>   -1.4008    0.0000 </r>
       <r>   -1.2963    0.0000 </r>
       <r>   -1.2485    0.0000 </r>
       <r>   -1.1844    0.0000 </r>
       <r>   -1.0897    0.0000 </r>
       <r>   -0.9905    0.0000 </r>
       <r>   -0.9387    0.0000 </r>
       <r>   -0.8848    0.0000 </r>
       <r>   -0.8479    0.0000 </r>
       <r>   -0.7916    0.0000 </r>
       <r>   -0.5945    0.0000 </r>
       <r>   -0.5539    0.0000 </r>
       <r>   -0.4437    0.0000 </r>
       <r>   -0.3687    0.0000 </r>
       <r>   -0.3111    0.0000 </r>
       <r>   -0.1312    0.0000 </r>
       <r>   -0.0368    0.0000 </r>
       <r>    0.0853    0.0000 </r>
       <r>    0.3771    0.0000 </r>
       <r>    0.6223    0.0000 </r>
       <r>    0.7081    0.0000 </r>
       <r>    0.9815    0.0000 </r>
       <r>    1.2087    0.0000 </r>
       <r>    1.3270    0.0000 </r>
       <r>    1.6545    0.0000 </r>
       <r>    2.2276    0.0000 </r>
       <r>    2.2573    0.0000 </r>
       <r>    2.3977    0.0000 </r>
      </set>
     </set>
    </set>
   </array>
  </eigenvalues>
  <separator name="orbital magnetization" >
   <v name="MAGDIPOLOUT">      0.00000000      0.00000000      0.00000000</v>
  </separator>
 </calculation>
 <structure name="finalpos" >
  <crystal>
   <varray name="basis" >
    <v>       8.32978538       4.82397547       0.00000000 </v>
    <v>      -8.31190380       4.79310829       0.00000000 </v>
    <v>       0.00000000       0.00000000      30.00000000 </v>
   </varray>
   <i name="volume">   2400.65950407 </i>
   <varray name="rec_basis" >
    <v>       0.05989739       0.10387025       0.00000000 </v>
    <v>      -0.06028313       0.10409371       0.00000000 </v>
    <v>       0.00000000       0.00000000       0.03333333 </v>
   </varray>
  </crystal>
  <varray name="positions" >
   <v>       0.70656743       0.35256867      -0.00270718 </v>
   <v>       0.69896498       0.01585188      -0.00159173 </v>
   <v>       0.29438961       0.64669084       0.00277523 </v>
   <v>       0.00507679       0.00060693      -0.00026009 </v>
   <v>      -0.00028667       0.68653303      -0.00006172 </v>
   <v>       1.00392544       0.31636721      -0.00011860 </v>
   <v>       0.29815640      -0.01496159       0.00152334 </v>
   <v>       0.29659584       0.31116011       0.00179618 </v>
   <v>       0.70245526       0.68730702      -0.00142299 </v>
   <v>       0.10816612       0.21786452       0.94366098 </v>
   <v>       0.21915406       0.10938883       0.05731784 </v>
   <v>       0.10754025       0.55388493       0.94965034 </v>
   <v>       0.21911680       0.44315037       0.05557522 </v>
   <v>       0.10788155       0.88965788       0.94344074 </v>
   <v>       0.21939537       0.77517850       0.05514861 </v>
   <v>       0.44847423       0.22433311       0.95516991 </v>
   <v>       0.55881806       0.11427466       0.04226272 </v>
   <v>       0.44208261       0.55730115       0.95731937 </v>
   <v>       0.55753181       0.44142200       0.04296031 </v>
   <v>       0.44319333       0.88499079       0.95776667 </v>
   <v>       0.55288570       0.77897154       0.04366872 </v>
   <v>       0.77836030       0.21975607       0.94624732 </v>
   <v>       0.88511075       0.10718305       0.05382365 </v>
   <v>       0.78125203       0.55630413       0.94480054 </v>
   <v>       0.89339446       0.44644371       0.05002879 </v>
   <v>       0.77764139       0.89304785       0.94511315 </v>
   <v>       0.89237057       0.78293727       0.05611258 </v>
  </varray>
 </structure>
</modeling>
