unknown system                          
           1
     8.855869    5.109238    0.000000
    -8.852432    5.103326    0.000000
     0.000000    0.000000   30.000000
   V    Mo   W    S 
   3   3   3  18
Direct configuration=     1
   0.66666669  0.33333334  0.00000000
   0.66666669  0.00000000  0.00000000
   0.33333334  0.66666669  0.00000000
   0.00000000  0.00000000  0.00000000
   0.00000000  0.66666669  0.00000000
   1.00000000  0.33333334  0.00000000
   0.33333334  0.00000000  0.00000000
   0.33333334  0.33333334  0.00000000
   0.66666669  0.66666669  0.00000000
   0.11068511  0.22244981  0.95539999
   0.22244981  0.11068511  0.04460000
   0.11068511  0.55578315  0.95539999
   0.22244981  0.44401845  0.04460000
   0.11068511  0.88911647  0.95539999
   0.22244981  0.77735180  0.04460000
   0.44401845  0.22244981  0.95539999
   0.55578315  0.11068511  0.04460000
   0.44401845  0.55578315  0.95539999
   0.55578315  0.44401845  0.04460000
   0.44401845  0.88911647  0.95539999
   0.55578315  0.77735180  0.04460000
   0.77735180  0.22244981  0.95539999
   0.88911647  0.11068511  0.04460000
   0.77735180  0.55578315  0.95539999
   0.88911647  0.44401845  0.04460000
   0.77735180  0.88911647  0.95539999
   0.88911647  0.77735180  0.04460000
unknown system                          
           1
     8.668172    5.002962    0.000000
    -8.665103    4.997683    0.000000
     0.000000    0.000000   30.000000
   V    Mo   W    S 
   3   3   3  18
Direct configuration=     2
   0.66898475  0.33407049 -0.00015243
   0.66857750  0.00110364  0.00001739
   0.33134764  0.66590859  0.00013300
   0.00006429  0.00007574  0.00004773
   0.00000115  0.66657546 -0.00019529
   0.99975143  0.33326408 -0.00001685
   0.33113995 -0.00155331 -0.00002192
   0.33035435  0.33194709  0.00019452
   0.66932153  0.66833833  0.00006389
   0.11187859  0.22249992  0.95072935
   0.22295531  0.11158988  0.04932841
   0.11538886  0.55767865  0.95194643
   0.22498573  0.44852278  0.04813786
   0.11191197  0.88919908  0.95073218
   0.22517735  0.77620017  0.04803169
   0.44826926  0.22397404  0.95193467
   0.55898395  0.11256132  0.04683549
   0.44242317  0.55747610  0.95206952
   0.55737221  0.44235089  0.04792887
   0.44607040  0.88706117  0.95307719
   0.55362588  0.77931254  0.04694384
   0.77319025  0.22021046  0.95307986
   0.88436097  0.10881846  0.04804204
   0.77501285  0.55130068  0.95185807
   0.88437433  0.44213404  0.04805022
   0.77485275  0.89027014  0.95197194
   0.88783799  0.77732401  0.04923220
unknown system                          
           1
     8.487653    4.901902    0.000000
    -8.485526    4.898252    0.000000
     0.000000    0.000000   30.000000
   V    Mo   W    S 
   3   3   3  18
Direct configuration=     3
   0.66976085  0.33445164 -0.00012508
   0.66915152  0.00138269  0.00006694
   0.33071888  0.66561061  0.00009421
   0.00045488  0.00014915  0.00005493
  -0.00008843  0.66677656 -0.00021759
   1.00000902  0.33327099 -0.00001402
   0.33010752 -0.00191274 -0.00007799
   0.32915099  0.33117590  0.00015903
   0.67039633  0.66890118  0.00011019
   0.11211313  0.22262330  0.95065299
   0.22316276  0.11167727  0.04941099
   0.11553191  0.55776397  0.95191065
   0.22517073  0.44852987  0.04819358
   0.11214576  0.88932381  0.95063594
   0.22532868  0.77637741  0.04807686
   0.44810429  0.22391311  0.95206733
   0.55878323  0.11247333  0.04669686
   0.44252670  0.55739643  0.95222295
   0.55727045  0.44242470  0.04779464
   0.44597046  0.88716699  0.95321821
   0.55374399  0.77922227  0.04682186
   0.77311486  0.22013849  0.95305793
   0.88419021  0.10873714  0.04807369
   0.77483810  0.55131038  0.95180615
   0.88423714  0.44204681  0.04806548
   0.77470362  0.89008766  0.95193331
   0.88761686  0.77719554  0.04930986
unknown system                          
           1
     8.276998    4.787168    0.000000
    -8.268374    4.772263    0.000000
     0.000000    0.000000   30.000000
   V    Mo   W    S 
   3   3   3  18
Direct configuration=     4
   0.67273086  0.33634546  0.00004792
   0.67131670  0.00221062  0.00024563
   0.32817468  0.66413827 -0.00009610
   0.00247489  0.00048102  0.00005951
  -0.00071195  0.66780834 -0.00021275
   1.00160869  0.33339361  0.00001450
   0.32581654 -0.00291105 -0.00024290
   0.32432814  0.32786966 -0.00003396
   0.67458287  0.67081178  0.00023284
   0.11198490  0.22259873  0.94873236
   0.22313426  0.11156124  0.05142804
   0.11672811  0.55837988  0.95037236
   0.22569224  0.44968204  0.04991335
   0.11204928  0.88931135  0.94861890
   0.22572970  0.77581852  0.04970552
   0.44893441  0.22444774  0.95113765
   0.55935790  0.11281146  0.04744753
   0.44240832  0.55785542  0.95143546
   0.55746540  0.44195101  0.04866231
   0.44643422  0.88682976  0.95244711
   0.55336101  0.77962174  0.04766753
   0.77221645  0.21953019  0.95165789
   0.88293190  0.10815089  0.04959959
   0.77426033  0.55025137  0.95009903
   0.88313183  0.44142414  0.04950777
   0.77429171  0.89063175  0.95032160
   0.88778108  0.77720950  0.05123123
unknown system                          
           1
     8.280215    4.794495    0.000000
    -8.265082    4.768321    0.000000
     0.000000    0.000000   30.000000
   V    Mo   W    S 
   3   3   3  18
Direct configuration=     5
   0.67945914  0.34068921  0.00037199
   0.67541203  0.00361878  0.00046415
   0.32289065  0.66121096 -0.00043721
   0.00699591  0.00116353  0.00000906
  -0.00218304  0.67006277 -0.00009716
   1.00508262  0.33366577  0.00007242
   0.31722517 -0.00481031 -0.00034603
   0.31379866  0.32048291 -0.00023198
   0.68372090  0.67515596  0.00026417
   0.11050163  0.22180422  0.94581237
   0.22241189  0.11114208  0.05448313
   0.11716513  0.55870593  0.94822319
   0.22575025  0.45056584  0.05242842
   0.11096570  0.88867726  0.94556374
   0.22548665  0.77519920  0.05185648
   0.44947156  0.22475254  0.95012814
   0.55917096  0.11279567  0.04819763
   0.44272930  0.55806799  0.95090550
   0.55707897  0.44146989  0.04936197
   0.44662272  0.88670057  0.95161479
   0.55311457  0.78000901  0.04873112
   0.77202979  0.21913169  0.94960710
   0.88233284  0.10786054  0.05173459
   0.77436344  0.54937383  0.94754257
   0.88289764  0.44114620  0.05151665
   0.77471836  0.89158687  0.94815863
   0.88900100  0.77798552  0.05406447
unknown system                          
           1
     8.282259    4.798210    0.000000
    -8.265261    4.768800    0.000000
     0.000000    0.000000   30.000000
   V    Mo   W    S 
   3   3   3  18
Direct configuration=     6
   0.68291866  0.34264983  0.00029158
   0.67738194  0.00428171  0.00049261
   0.32034091  0.66016426 -0.00042044
   0.00734017  0.00097527 -0.00011537
  -0.00245612  0.67070891 -0.00011706
   1.00548283  0.33336319 -0.00001245
   0.31461917 -0.00564307 -0.00027555
   0.31090684  0.31852418 -0.00004474
   0.68706231  0.67694744  0.00015652
   0.10923531  0.22095161  0.94536895
   0.22199374  0.11095906  0.05493861
   0.11625737  0.55843217  0.94811577
   0.22552227  0.45008491  0.05265089
   0.11027229  0.88817526  0.94517009
   0.22502082  0.77530759  0.05199158
   0.44878190  0.22454167  0.95047587
   0.55829706  0.11254210  0.04782248
   0.44327822  0.55740948  0.95148632
   0.55617433  0.44153214  0.04879893
   0.44598439  0.88701965  0.95188911
   0.55341943  0.77960728  0.04848799
   0.77261660  0.21946435  0.94953037
   0.88322502  0.10817438  0.05186448
   0.77493836  0.54972497  0.94728131
   0.88410175  0.44167674  0.05169812
   0.77551237  0.89182987  0.94799436
   0.88998652  0.77880949  0.05447957
unknown system                          
           1
     8.290235    4.813417    0.000000
    -8.263361    4.766895    0.000000
     0.000000    0.000000   30.000000
   V    Mo   W    S 
   3   3   3  18
Direct configuration=     7
   0.68652798  0.34459456  0.00028008
   0.67976591  0.00509916  0.00060062
   0.31749958  0.65911415 -0.00042411
   0.00751345  0.00078494 -0.00016690
  -0.00251286  0.67153871 -0.00006704
   1.00578357  0.33286509 -0.00006711
   0.31177534 -0.00673988 -0.00024472
   0.30763176  0.31647889 -0.00000529
   0.69055906  0.67881391  0.00015176
   0.10842342  0.22039651  0.94506956
   0.22146268  0.11063585  0.05532828
   0.11557114  0.55820789  0.94800974
   0.22518903  0.44973770  0.05286515
   0.10970538  0.88775914  0.94483126
   0.22466727  0.77527091  0.05217312
   0.44832911  0.22448219  0.95092731
   0.55768318  0.11245743  0.04732197
   0.44379475  0.55700778  0.95216002
   0.55555662  0.44155622  0.04815599
   0.44546483  0.88720839  0.95227750
   0.55367301  0.77922918  0.04810763
   0.77296263  0.21967655  0.94940866
   0.88385115  0.10841819  0.05196579
   0.77547608  0.55003076  0.94698379
   0.88508575  0.44214247  0.05182286
   0.77598897  0.89205321  0.94773714
   0.89078568  0.77939454  0.05479683
unknown system                          
           1
     8.296553    4.828955    0.000000
    -8.257908    4.762043    0.000000
     0.000000    0.000000   30.000000
   V    Mo   W    S 
   3   3   3  18
Direct configuration=     8
   0.69216133  0.34758305  0.00015341
   0.68415222  0.00666969  0.00065708
   0.31277540  0.65746892 -0.00037473
   0.00727980  0.00029957 -0.00029769
  -0.00235792  0.67309080 -0.00005000
   1.00587121  0.33170958 -0.00017701
   0.30727100 -0.00873289 -0.00010213
   0.30306475  0.31377556  0.00024609
   0.69566113  0.68144694 -0.00004738
   0.10691399  0.21942774  0.94452017
   0.22067794  0.11017457  0.05589092
   0.11440974  0.55774646  0.94780792
   0.22462563  0.44919147  0.05319533
   0.10861652  0.88707377  0.94427662
   0.22428796  0.77524724  0.05254804
   0.44779691  0.22445406  0.95169984
   0.55687710  0.11241043  0.04644384
   0.44457495  0.55655592  0.95328942
   0.55473039  0.44153858  0.04708219
   0.44474307  0.88745285  0.95298514
   0.55406118  0.77868442  0.04744584
   0.77333447  0.21984970  0.94918948
   0.88479762  0.10884581  0.05224980
   0.77635183  0.55056030  0.94655671
   0.88677882  0.44295310  0.05207207
   0.77645369  0.89233414  0.94732635
   0.89230373  0.78040268  0.05541258
unknown system                          
           1
     8.310020    4.832037    0.000000
    -8.273652    4.769103    0.000000
     0.000000    0.000000   30.000000
   V    Mo   W    S 
   3   3   3  18
Direct configuration=     9
   0.70008129  0.35164131 -0.00020396
   0.69154832  0.00965509  0.00058826
   0.30504867  0.65472127 -0.00008565
   0.00640207 -0.00060432 -0.00042507
  -0.00143040  0.67661323  0.00007196
   1.00583330  0.32898093 -0.00035426
   0.30063780 -0.01244252  0.00024742
   0.29696212  0.31077313  0.00064944
   0.70229954  0.68459610 -0.00034549
   0.10481373  0.21814096  0.94387118
   0.21921800  0.10925734  0.05662779
   0.11233258  0.55674923  0.94751753
   0.22340306  0.44844056  0.05366304
   0.10670242  0.88610429  0.94348946
   0.22374744  0.77508508  0.05320275
   0.44719760  0.22441670  0.95317232
   0.55575522  0.11244096  0.04480182
   0.44573260  0.55633981  0.95527361
   0.55384587  0.44145720  0.04522346
   0.44375061  0.88767881  0.95437222
   0.55461228  0.77787058  0.04610792
   0.77389793  0.21999956  0.94876384
   0.88643266  0.10965686  0.05281007
   0.77805783  0.55156109  0.94588470
   0.88981990  0.44447036  0.05234434
   0.77690157  0.89279098  0.94659293
   0.89461044  0.78181986  0.05613825
unknown system                          
           1
     8.313686    4.830086    0.000000
    -8.279163    4.770382    0.000000
     0.000000    0.000000   30.000000
   V    Mo   W    S 
   3   3   3  18
Direct configuration=    10
   0.70028977  0.35162790 -0.00036634
   0.69240203  0.01032637  0.00037163
   0.30425922  0.65413690  0.00009336
   0.00607584 -0.00067459 -0.00042949
  -0.00114416  0.67752967  0.00001338
   1.00565391  0.32788627 -0.00035999
   0.30042002 -0.01281740  0.00039095
   0.29716221  0.31113950  0.00079657
   0.70197777  0.68433898 -0.00051752
   0.10471844  0.21802079  0.94382602
   0.21906727  0.10920536  0.05664094
   0.11182271  0.55650666  0.94753013
   0.22311128  0.44839437  0.05377847
   0.10639078  0.88610981  0.94344127
   0.22361029  0.77501660  0.05341909
   0.44733144  0.22440156  0.95344002
   0.55573009  0.11246166  0.04450216
   0.44569685  0.55659823  0.95551873
   0.55396137  0.44132933  0.04500919
   0.44388437  0.88763054  0.95466272
   0.55451613  0.77792140  0.04583891
   0.77400749  0.21990142  0.94861645
   0.88675451  0.10980221  0.05300019
   0.77852582  0.55187246  0.94581547
   0.89037515  0.44480381  0.05227184
   0.77677346  0.89277251  0.94649580
   0.89484038  0.78197212  0.05619995
unknown system                          
           1
     8.320168    4.830941    0.000000
    -8.288265    4.775781    0.000000
     0.000000    0.000000   30.000000
   V    Mo   W    S 
   3   3   3  18
Direct configuration=    11
   0.70325956  0.35288292 -0.00066099
   0.69591573  0.01234026  0.00006600
   0.30071113  0.65236182  0.00044571
   0.00543745 -0.00090260 -0.00042916
  -0.00060437  0.68009626  0.00002788
   1.00532300  0.32507573 -0.00038753
   0.29792056 -0.01456848  0.00066477
   0.29519482  0.31049277  0.00105972
   0.70402708  0.68531190 -0.00072378
   0.10433268  0.21760939  0.94367270
   0.21850431  0.10893832  0.05683825
   0.11051084  0.55583967  0.94760462
   0.22229857  0.44795557  0.05407812
   0.10564886  0.88608015  0.94323034
   0.22314494  0.77492002  0.05385736
   0.44728929  0.22435338  0.95428480
   0.55548317  0.11251248  0.04357844
   0.44579839  0.55681123  0.95641571
   0.55398971  0.44117137  0.04416532
   0.44378744  0.88762198  0.95554250
   0.55458125  0.77784715  0.04501310
   0.77444533  0.21987689  0.94826305
   0.88755215  0.11013385  0.05333678
   0.77965332  0.55262560  0.94552870
   0.89184367  0.44562955  0.05205638
   0.77671935  0.89280344  0.94615313
   0.89544622  0.78239383  0.05631796
unknown system                          
           1
     8.328017    4.832582    0.000000
    -8.299144    4.782675    0.000000
     0.000000    0.000000   30.000000
   V    Mo   W    S 
   3   3   3  18
Direct configuration=    12
   0.70290771  0.35253677 -0.00075790
   0.69586767  0.01263301 -0.00009525
   0.30053541  0.65194989  0.00057022
   0.00529923 -0.00069582 -0.00040933
  -0.00045369  0.68057395 -0.00000644
   1.00520684  0.32421899 -0.00035216
   0.29831720 -0.01449034  0.00073177
   0.29573398  0.31090956  0.00111258
   0.70341537  0.68514413 -0.00079381
   0.10462998  0.21762401  0.94367174
   0.21859238  0.10903946  0.05683517
   0.11028310  0.55569006  0.94777058
   0.22212836  0.44783045  0.05417327
   0.10574379  0.88637460  0.94326227
   0.22294497  0.77488930  0.05394713
   0.44739931  0.22435025  0.95434316
   0.55572571  0.11255254  0.04350989
   0.44546164  0.55692622  0.95640331
   0.55429126  0.44116533  0.04418119
   0.44396568  0.88750667  0.95569243
   0.55443176  0.77802330  0.04490769
   0.77463959  0.21984678  0.94810917
   0.88752551  0.11001270  0.05342057
   0.77979931  0.55282050  0.94550008
   0.89199520  0.44573510  0.05188448
   0.77662349  0.89269382  0.94609754
   0.89520370  0.78235321  0.05629053
unknown system                          
           1
     8.320373    4.828460    0.000000
    -8.291144    4.777937    0.000000
     0.000000    0.000000   30.000000
   V    Mo   W    S 
   3   3   3  18
Direct configuration=    13
   0.70335087  0.35249638 -0.00092473
   0.69664570  0.01338382 -0.00030587
   0.29964701  0.65121549  0.00079168
   0.00503379 -0.00052340 -0.00037763
  -0.00029667  0.68158337 -0.00001687
   1.00488228  0.32268098 -0.00031853
   0.29809940 -0.01481947  0.00083571
   0.29573975  0.31108192  0.00120906
   0.70340653  0.68536532 -0.00086553
   0.10500243  0.21761819  0.94367343
   0.21865947  0.10913780  0.05684428
   0.10987642  0.55542341  0.94799306
   0.22185746  0.44756973  0.05430038
   0.10587352  0.88676588  0.94329889
   0.22265208  0.77486210  0.05406181
   0.44750713  0.22436212  0.95453633
   0.55601418  0.11262489  0.04329631
   0.44509235  0.55702948  0.95652669
   0.55463382  0.44116292  0.04404530
   0.44411373  0.88736563  0.95600486
   0.55429472  0.77821719  0.04465500
   0.77493701  0.21982324  0.94793047
   0.88741428  0.10981355  0.05349361
   0.78004242  0.55309786  0.94546159
   0.89226717  0.44590185  0.05161891
   0.77653663  0.89263196  0.94600917
   0.89493099  0.78234224  0.05622252
unknown system                          
           1
     8.324303    4.829521    0.000000
    -8.296441    4.781364    0.000000
     0.000000    0.000000   30.000000
   V    Mo   W    S 
   3   3   3  18
Direct configuration=    14
   0.70359174  0.35257590 -0.00098061
   0.69686422  0.01357790 -0.00036081
   0.29930303  0.65096347  0.00084403
   0.00506955 -0.00045631 -0.00038092
  -0.00027172  0.68197017 -0.00003653
   1.00489226  0.32224795 -0.00031546
   0.29796541 -0.01488005  0.00086729
   0.29564335  0.31103265  0.00123919
   0.70345512  0.68541640 -0.00090634
   0.10506273  0.21757989  0.94366194
   0.21865208  0.10914454  0.05685847
   0.10966599  0.55528895  0.94806368
   0.22171360  0.44739046  0.05435105
   0.10585766  0.88685254  0.94329609
   0.22251909  0.77488695  0.05411688
   0.44747958  0.22433748  0.95462916
   0.55605198  0.11265274  0.04320561
   0.44501188  0.55701952  0.95661394
   0.55472332  0.44119738  0.04395142
   0.44406918  0.88732428  0.95612581
   0.55429038  0.77823158  0.04456281
   0.77508646  0.21985231  0.94784942
   0.88745426  0.10977622  0.05354953
   0.78014552  0.55325061  0.94544380
   0.89244260  0.44598706  0.05154950
   0.77655542  0.89258955  0.94596246
   0.89491977  0.78240429  0.05623850
unknown system                          
           1
     8.340960    4.833776    0.000000
    -8.319024    4.795887    0.000000
     0.000000    0.000000   30.000000
   V    Mo   W    S 
   3   3   3  18
Direct configuration=    15
   0.70384532  0.35253906 -0.00110213
   0.69723528  0.01399788 -0.00049782
   0.29876460  0.65047523  0.00099955
   0.00497578 -0.00029719 -0.00035876
  -0.00019792  0.68263602 -0.00004226
   1.00473256  0.32127098 -0.00028830
   0.29790175 -0.01499442  0.00093749
   0.29570248  0.31112715  0.00130107
   0.70338366  0.68555154 -0.00095124
   0.10534347  0.21756710  0.94363812
   0.21871390  0.10921382  0.05688977
   0.10934339  0.55506752  0.94821619
   0.22149854  0.44713712  0.05446217
   0.10597149  0.88714751  0.94329763
   0.22227387  0.77487811  0.05420959
   0.44757106  0.22435416  0.95472629
   0.55626280  0.11272524  0.04309793
   0.44474549  0.55706875  0.95667081
   0.55496599  0.44121089  0.04387509
   0.44413518  0.88720460  0.95631520
   0.55416902  0.77834227  0.04442498
   0.77534981  0.21986842  0.94769111
   0.88735095  0.10959384  0.05362460
   0.78028263  0.55345637  0.94539553
   0.89264570  0.44609480  0.05137598
   0.77654034  0.89255150  0.94587477
   0.89470733  0.78242619  0.05621653
unknown system                          
           1
     8.336428    4.830243    0.000000
    -8.315746    4.794524    0.000000
     0.000000    0.000000   30.000000
   V    Mo   W    S 
   3   3   3  18
Direct configuration=    16
   0.70499209  0.35251061 -0.00154673
   0.69861889  0.01540877 -0.00096555
   0.29692627  0.64887209  0.00151803
   0.00463370  0.00008870 -0.00032437
  -0.00012835  0.68462859 -0.00009928
   1.00395902  0.31818781 -0.00022368
   0.29776912 -0.01523526  0.00115539
   0.29597655  0.31136196  0.00149359
   0.70305566  0.68607811 -0.00114816
   0.10632534  0.21751197  0.94360359
   0.21894066  0.10942437  0.05699083
   0.10834724  0.55437485  0.94879447
   0.22076865  0.44614134  0.05480234
   0.10644490  0.88816395  0.94334795
   0.22139874  0.77490023  0.05448862
   0.44787673  0.22440950  0.95505470
   0.55706069  0.11302795  0.04271683
   0.44385574  0.55717477  0.95689759
   0.55579698  0.44126028  0.04356722
   0.44430729  0.88678752  0.95697111
   0.55379999  0.77875771  0.04396805
   0.77625601  0.21988549  0.94724382
   0.88674688  0.10881259  0.05380173
   0.78067989  0.55415978  0.94529737
   0.89321135  0.44637873  0.05076676
   0.77657058  0.89253166  0.94565289
   0.89402384  0.78261037  0.05617476
unknown system                          
           1
     8.326165    4.821739    0.000000
    -8.308770    4.791712    0.000000
     0.000000    0.000000   30.000000
   V    Mo   W    S 
   3   3   3  18
Direct configuration=    17
   0.70525221  0.35247135 -0.00167884
   0.69889716  0.01571991 -0.00107976
   0.29643850  0.64844145  0.00167296
   0.00462999  0.00019956 -0.00030591
  -0.00009850  0.68522707 -0.00010416
   1.00385885  0.31744494 -0.00019981
   0.29774525 -0.01527529  0.00121476
   0.29601606  0.31137519  0.00154422
   0.70297712  0.68625183 -0.00118196
   0.10661503  0.21750681  0.94361470
   0.21900125  0.10947773  0.05700104
   0.10804740  0.55415784  0.94897014
   0.22052366  0.44577832  0.05488126
   0.10659774  0.88845727  0.94337522
   0.22111790  0.77492629  0.05455033
   0.44792846  0.22440190  0.95514993
   0.55729974  0.11313167  0.04260666
   0.44357698  0.55717723  0.95697604
   0.55606042  0.44131354  0.04345910
   0.44427980  0.88664146  0.95716370
   0.55371288  0.77885764  0.04383518
   0.77655973  0.21990404  0.94710447
   0.88657410  0.10857028  0.05383939
   0.78077442  0.55440448  0.94526989
   0.89341097  0.44646783  0.05059548
   0.77662024  0.89252098  0.94558686
   0.89379707  0.78266312  0.05613901
unknown system                          
           1
     8.331037    4.826783    0.000000
    -8.311238    4.792591    0.000000
     0.000000    0.000000   30.000000
   V    Mo   W    S 
   3   3   3  18
Direct configuration=    18
   0.70555752  0.35229624 -0.00200998
   0.69916432  0.01601485 -0.00130819
   0.29565225  0.64765172  0.00204141
   0.00477925  0.00043574 -0.00026903
  -0.00004849  0.68628819 -0.00010287
   1.00385791  0.31641981 -0.00015098
   0.29782994 -0.01510956  0.00134473
   0.29617964  0.31125240  0.00164597
   0.70275141  0.68670704 -0.00126585
   0.10719019  0.21745956  0.94357403
   0.21910012  0.10953798  0.05713008
   0.10727769  0.55362964  0.94926770
   0.21987782  0.44477876  0.05514930
   0.10694588  0.88907005  0.94334259
   0.22038383  0.77500562  0.05477651
   0.44808237  0.22439460  0.95524033
   0.55783269  0.11338102  0.04245894
   0.44298263  0.55716697  0.95709185
   0.55660806  0.44142827  0.04327230
   0.44412850  0.88627376  0.95748374
   0.55347294  0.77904272  0.04366205
   0.77735700  0.21991583  0.94669503
   0.88614335  0.10795652  0.05397442
   0.78097861  0.55508700  0.94510424
   0.89397411  0.44670422  0.05033778
   0.77685151  0.89257035  0.94534907
   0.89330341  0.78285516  0.05616472
unknown system                          
           1
     8.334801    4.830323    0.000000
    -8.313638    4.793767    0.000000
     0.000000    0.000000   30.000000
   V    Mo   W    S 
   3   3   3  18
Direct configuration=    19
   0.70560611  0.35237146 -0.00198136
   0.69901953  0.01584509 -0.00126524
   0.29568992  0.64775197  0.00200871
   0.00479000  0.00038842 -0.00027438
  -0.00005564  0.68595988 -0.00009173
   1.00393193  0.31686570 -0.00015590
   0.29784214 -0.01513690  0.00132896
   0.29616635  0.31126742  0.00163560
   0.70279251  0.68667001 -0.00125538
   0.10712166  0.21747895  0.94357910
   0.21908547  0.10950685  0.05713714
   0.10747650  0.55376497  0.94922863
   0.21997440  0.44486383  0.05512385
   0.10695830  0.88899019  0.94334037
   0.22048409  0.77500709  0.05475164
   0.44811889  0.22441003  0.95518071
   0.55781093  0.11341605  0.04250519
   0.44303406  0.55717194  0.95707020
   0.55656103  0.44141857  0.04330042
   0.44404773  0.88623540  0.95741206
   0.55343544  0.77896907  0.04372699
   0.77726034  0.21990433  0.94673851
   0.88613879  0.10799865  0.05393703
   0.78089933  0.55502122  0.94510644
   0.89380951  0.44662900  0.05038070
   0.77688940  0.89260590  0.94536467
   0.89332570  0.78283935  0.05616696
unknown system                          
           1
     8.333518    4.828967    0.000000
    -8.312863    4.793293    0.000000
     0.000000    0.000000   30.000000
   V    Mo   W    S 
   3   3   3  18
Direct configuration=    20
   0.70584391  0.35243668 -0.00206694
   0.69898023  0.01580116 -0.00127794
   0.29552078  0.64765286  0.00208973
   0.00481526  0.00040871 -0.00027715
  -0.00013133  0.68586951 -0.00009329
   1.00390257  0.31693844 -0.00015839
   0.29790060 -0.01511720  0.00133262
   0.29620820  0.31125708  0.00163350
   0.70275729  0.68673147 -0.00127027
   0.10724815  0.21755204  0.94362033
   0.21909447  0.10947315  0.05714593
   0.10756267  0.55383426  0.94927280
   0.21992500  0.44471457  0.05515221
   0.10711868  0.88905916  0.94337637
   0.22040923  0.77501438  0.05477436
   0.44819649  0.22441559  0.95517432
   0.55795227  0.11357235  0.04248268
   0.44291316  0.55718778  0.95710478
   0.55667839  0.44141388  0.04325099
   0.44387931  0.88603725  0.95744207
   0.55331227  0.77892557  0.04372926
   0.77736130  0.21991963  0.94672793
   0.88598853  0.10790369  0.05388153
   0.78087493  0.55511124  0.94510328
   0.89367521  0.44656588  0.05034524
   0.77702688  0.89269310  0.94535891
   0.89319997  0.78284221  0.05614504
unknown system                          
           1
     8.332453    4.828356    0.000000
    -8.311701    4.792514    0.000000
     0.000000    0.000000   30.000000
   V    Mo   W    S 
   3   3   3  18
Direct configuration=    21
   0.70589471  0.35244156 -0.00212639
   0.69892367  0.01579767 -0.00131528
   0.29539552  0.64752589  0.00215672
   0.00490949  0.00043808 -0.00027037
  -0.00014074  0.68602736 -0.00009020
   1.00397916  0.31686247 -0.00014852
   0.29791173 -0.01508882  0.00135680
   0.29623339  0.31123016  0.00165814
   0.70272993  0.68677273 -0.00128301
   0.10733508  0.21756336  0.94361776
   0.21909907  0.10947880  0.05715605
   0.10747285  0.55377874  0.94931466
   0.21981934  0.44452912  0.05519216
   0.10717262  0.88913377  0.94337876
   0.22028788  0.77504130  0.05480748
   0.44821657  0.22440631  0.95518593
   0.55801489  0.11363096  0.04246166
   0.44283106  0.55719217  0.95712790
   0.55675833  0.44142708  0.04321615
   0.44380882  0.88595246  0.95748243
   0.55327095  0.77892147  0.04371280
   0.77749263  0.21992827  0.94666239
   0.88595224  0.10784031  0.05389936
   0.78092205  0.55524708  0.94507408
   0.89372319  0.44658772  0.05030719
   0.77708388  0.89269205  0.94532625
   0.89311614  0.78285638  0.05613902
unknown system                          
           1
     8.331356    4.826554    0.000000
    -8.311636    4.792501    0.000000
     0.000000    0.000000   30.000000
   V    Mo   W    S 
   3   3   3  18
Direct configuration=    22
   0.70593321  0.35246351 -0.00215753
   0.69884057  0.01575552 -0.00132124
   0.29535737  0.64749241  0.00218880
   0.00498314  0.00044407 -0.00026779
  -0.00016825  0.68605063 -0.00008785
   1.00404094  0.31690747 -0.00014593
   0.29792529 -0.01507070  0.00136196
   0.29623679  0.31120731  0.00166419
   0.70272542  0.68677648 -0.00128324
   0.10737257  0.21759216  0.94363218
   0.21909374  0.10947042  0.05714789
   0.10748018  0.55378935  0.94932738
   0.21978243  0.44444586  0.05519879
   0.10721085  0.88914638  0.94339366
   0.22024497  0.77505580  0.05481269
   0.44822113  0.22439577  0.95519064
   0.55803807  0.11368061  0.04245182
   0.44279891  0.55719419  0.95714490
   0.55679259  0.44143089  0.04319293
   0.44373226  0.88588646  0.95749290
   0.55324661  0.77889362  0.04371202
   0.77754458  0.21994227  0.94664913
   0.88594063  0.10783115  0.05388825
   0.78093463  0.55530624  0.94506944
   0.89369720  0.44657556  0.05029683
   0.77713488  0.89270154  0.94532362
   0.89307375  0.78284947  0.05612343
unknown system                          
           1
     8.330997    4.825593    0.000000
    -8.312164    4.793077    0.000000
     0.000000    0.000000   30.000000
   V    Mo   W    S 
   3   3   3  18
Direct configuration=    23
   0.70603827  0.35244548 -0.00224206
   0.69894158  0.01580664 -0.00136195
   0.29522268  0.64736027  0.00227588
   0.00493526  0.00047508 -0.00027276
  -0.00020974  0.68610128 -0.00008283
   1.00390846  0.31670228 -0.00014249
   0.29798621 -0.01502329  0.00139059
   0.29634376  0.31122813  0.00167799
   0.70264108  0.68689217 -0.00132004
   0.10749254  0.21761606  0.94362200
   0.21910628  0.10944610  0.05720219
   0.10745799  0.55379954  0.94937675
   0.21967195  0.44422947  0.05527990
   0.10732181  0.88923839  0.94337887
   0.22008128  0.77507644  0.05487927
   0.44829686  0.22440644  0.95517867
   0.55818440  0.11377758  0.04241972
   0.44268950  0.55721602  0.95716809
   0.55689869  0.44140905  0.04315842
   0.44367443  0.88575200  0.95753603
   0.55317690  0.77892780  0.04370552
   0.77769927  0.21989310  0.94659045
   0.88576876  0.10770713  0.05386709
   0.78099652  0.55547321  0.94501403
   0.89368135  0.44657670  0.05025377
   0.77722322  0.89278828  0.94529970
   0.89298511  0.78289313  0.05614711
unknown system                          
           1
     8.330534    4.824583    0.000000
    -8.312642    4.793695    0.000000
     0.000000    0.000000   30.000000
   V    Mo   W    S 
   3   3   3  18
Direct configuration=    24
   0.70616396  0.35247185 -0.00233929
   0.69895615  0.01582664 -0.00141750
   0.29499605  0.64719508  0.00238256
   0.00495850  0.00050624 -0.00026854
  -0.00021263  0.68620129 -0.00007883
   1.00391817  0.31664644 -0.00013927
   0.29800943 -0.01502951  0.00142002
   0.29638685  0.31121344  0.00171294
   0.70262363  0.68698480 -0.00133027
   0.10763696  0.21766356  0.94362019
   0.21911912  0.10944184  0.05723058
   0.10747850  0.55381771  0.94944010
   0.21955585  0.44400104  0.05534257
   0.10744857  0.88933570  0.94338859
   0.21993383  0.77508552  0.05493491
   0.44837422  0.22441021  0.95517101
   0.55833481  0.11389436  0.04239061
   0.44255035  0.55724721  0.95719271
   0.55703850  0.44139825  0.04311664
   0.44358301  0.88558137  0.95758509