   27   27  100    1
  0.9710400E+02  0.1002848E-08  0.1002848E-08  0.3000000E-08  0.5000000E-15
  1.000000000000000E-004
  CAR 
 unknown system                          
    159     34    120
 
  0.0000000E+00  0.0000000E+00  0.0000000E+00  0.1562500E-01
    1      -17.831620   1.000000
    2      -16.708914   1.000000
    3      -16.668804   1.000000
    4      -16.593946   1.000000
    5      -16.497347   1.000000
    6      -16.456157   1.000000
    7      -16.425526   1.000000
    8      -16.352800   1.000000
    9      -16.167704   1.000000
   10      -16.109186   1.000000
   11      -16.035089   1.000000
   12      -15.941393   1.000000
   13      -15.878749   1.000000
   14      -15.820706   1.000000
   15      -15.532403   1.000000
   16      -15.477459   1.000000
   17      -15.344600   1.000000
   18      -15.172932   1.000000
   19       -9.430919   1.000000
   20       -8.999440   1.000000
   21       -8.886647   1.000000
   22       -8.825344   1.000000
   23       -8.770511   1.000000
   24       -8.714175   1.000000
   25       -8.677058   1.000000
   26       -8.553298   1.000000
   27       -8.506406   1.000000
   28       -8.445942   1.000000
   29       -8.395156   1.000000
   30       -8.360265   1.000000
   31       -8.244477   1.000000
   32       -8.163727   1.000000
   33       -8.122499   1.000000
   34       -8.101027   1.000000
   35       -7.807596   1.000000
   36       -7.785906   1.000000
   37       -7.685437   1.000000
   38       -7.587448   1.000000
   39       -7.497300   1.000000
   40       -7.466981   1.000000
   41       -7.337292   1.000000
   42       -7.164918   1.000000
   43       -7.113040   1.000000
   44       -6.885608   1.000000
   45       -6.866411   1.000000
   46       -6.786509   1.000000
   47       -6.751627   1.000000
   48       -6.738548   1.000000
   49       -6.619664   1.000000
   50       -6.509089   1.000000
   51       -6.455419   1.000000
   52       -6.324474   1.000000
   53       -6.228491   1.000000
   54       -6.210893   1.000000
   55       -6.132265   1.000000
   56       -6.018360   1.000000
   57       -6.005088   1.000000
   58       -5.911857   1.000000
   59       -5.793526   1.000000
   60       -5.763644   1.000000
   61       -5.454232   1.000000
   62       -5.314853   1.000000
   63       -5.242990   1.000000
   64       -5.097856   1.000000
   65       -5.025399   1.000000
   66       -4.919786   1.000000
   67       -4.880700   1.000000
   68       -4.826665   1.000000
   69       -4.794044   1.000000
   70       -4.688357   1.000000
   71       -4.568042   1.000000
   72       -4.520409   1.000000
   73       -4.463370   1.000000
   74       -4.386699   1.000000
   75       -4.280150   1.000000
   76       -3.962968   0.999997
   77       -3.689898   0.995664
   78       -3.619984   0.983428
   79       -3.480942   0.874341
   80       -3.355631   0.602981
   81       -3.209843   0.220707
   82       -2.812952   0.000174
   83       -2.670918   0.000002
   84       -2.644145   0.000001
   85       -2.559991   0.000000
   86       -2.421985   0.000000
   87       -2.359502   0.000000
   88       -2.248807   0.000000
   89       -2.138703   0.000000
   90       -2.083037   0.000000
   91       -1.838001   0.000000
   92       -1.473014   0.000000
   93       -1.386431   0.000000
   94       -1.324269   0.000000
   95       -1.255444   0.000000
   96       -1.120623   0.000000
   97       -1.045942   0.000000
   98       -0.855046   0.000000
   99       -0.787085   0.000000
  100       -0.641664   0.000000
  101       -0.598042   0.000000
  102       -0.531438   0.000000
  103       -0.375001   0.000000
  104       -0.310040   0.000000
  105       -0.085929   0.000000
  106        0.004424   0.000000
  107        0.080874   0.000000
  108        0.128279   0.000000
  109        0.228515   0.000000
  110        0.365637   0.000000
  111        0.429193   0.000000
  112        0.471045   0.000000
  113        0.537727   0.000000
  114        0.679909   0.000000
  115        0.893239   0.000000
  116        0.975253   0.000000
  117        1.058706   0.000000
  118        1.650902   0.000000
  119        1.844019   0.000000
  120        2.169558   0.000000
 
  0.1250000E+00  0.2775558E-16  0.0000000E+00  0.3125000E-01
    1      -17.806780   1.000000
    2      -16.802504   1.000000
    3      -16.701736   1.000000
    4      -16.595742   1.000000
    5      -16.530570   1.000000
    6      -16.440305   1.000000
    7      -16.371254   1.000000
    8      -16.351707   1.000000
    9      -16.172138   1.000000
   10      -16.064778   1.000000
   11      -16.014460   1.000000
   12      -15.918630   1.000000
   13      -15.883502   1.000000
   14      -15.790194   1.000000
   15      -15.542035   1.000000
   16      -15.492411   1.000000
   17      -15.347100   1.000000
   18      -15.177990   1.000000
   19       -9.429832   1.000000
   20       -9.178444   1.000000
   21       -8.986652   1.000000
   22       -8.883505   1.000000
   23       -8.822945   1.000000
   24       -8.672659   1.000000
   25       -8.646631   1.000000
   26       -8.594703   1.000000
   27       -8.511632   1.000000
   28       -8.473573   1.000000
   29       -8.367301   1.000000
   30       -8.280181   1.000000
   31       -8.174149   1.000000
   32       -8.093889   1.000000
   33       -8.046704   1.000000
   34       -7.957591   1.000000
   35       -7.791788   1.000000
   36       -7.736555   1.000000
   37       -7.679462   1.000000
   38       -7.558825   1.000000
   39       -7.521125   1.000000
   40       -7.479613   1.000000
   41       -7.299633   1.000000
   42       -7.160609   1.000000
   43       -7.116929   1.000000
   44       -6.961568   1.000000
   45       -6.919416   1.000000
   46       -6.847107   1.000000
   47       -6.785495   1.000000
   48       -6.633907   1.000000
   49       -6.573720   1.000000
   50       -6.483074   1.000000
   51       -6.405487   1.000000
   52       -6.369966   1.000000
   53       -6.288488   1.000000
   54       -6.206389   1.000000
   55       -6.153949   1.000000
   56       -6.064058   1.000000
   57       -5.962995   1.000000
   58       -5.900347   1.000000
   59       -5.774275   1.000000
   60       -5.684844   1.000000
   61       -5.438063   1.000000
   62       -5.380612   1.000000
   63       -5.304649   1.000000
   64       -5.222357   1.000000
   65       -5.100024   1.000000
   66       -4.983661   1.000000
   67       -4.889321   1.000000
   68       -4.810213   1.000000
   69       -4.763452   1.000000
   70       -4.666201   1.000000
   71       -4.624305   1.000000
   72       -4.430879   1.000000
   73       -4.348248   1.000000
   74       -4.298629   1.000000
   75       -4.236545   1.000000
   76       -3.987214   0.999999
   77       -3.773799   0.999354
   78       -3.680825   0.994774
   79       -3.584738   0.970021
   80       -3.273201   0.373803
   81       -3.173206   0.151771
   82       -2.799194   0.000120
   83       -2.658767   0.000002
   84       -2.632481   0.000001
   85       -2.525020   0.000000
   86       -2.445624   0.000000
   87       -2.333711   0.000000
   88       -2.225239   0.000000
   89       -2.127753   0.000000
   90       -2.062975   0.000000
   91       -1.826457   0.000000
   92       -1.481860   0.000000
   93       -1.406715   0.000000
   94       -1.322477   0.000000
   95       -1.250200   0.000000
   96       -1.128810   0.000000
   97       -1.031028   0.000000
   98       -0.855949   0.000000
   99       -0.806991   0.000000
  100       -0.731537   0.000000
  101       -0.642251   0.000000
  102       -0.572781   0.000000
  103       -0.481508   0.000000
  104       -0.318848   0.000000
  105       -0.162136   0.000000
  106        0.011391   0.000000
  107        0.088754   0.000000
  108        0.116611   0.000000
  109        0.228924   0.000000
  110        0.302329   0.000000
  111        0.345977   0.000000
  112        0.466850   0.000000
  113        0.679523   0.000000
  114        0.758849   0.000000
  115        0.885138   0.000000
  116        0.970693   0.000000
  117        1.102008   0.000000
  118        1.693593   0.000000
  119        1.884333   0.000000
  120        2.204453   0.000000
 
  0.2500000E+00  0.5551115E-16  0.0000000E+00  0.3125000E-01
    1      -17.733772   1.000000
    2      -17.009638   1.000000
    3      -16.707361   1.000000
    4      -16.635397   1.000000
    5      -16.576672   1.000000
    6      -16.408886   1.000000
    7      -16.366534   1.000000
    8      -16.293171   1.000000
    9      -16.161752   1.000000
   10      -16.019496   1.000000
   11      -15.961940   1.000000
   12      -15.879011   1.000000
   13      -15.860586   1.000000
   14      -15.723830   1.000000
   15      -15.563861   1.000000
   16      -15.528625   1.000000
   17      -15.353986   1.000000
   18      -15.191277   1.000000
   19       -9.554501   1.000000
   20       -9.290544   1.000000
   21       -9.157687   1.000000
   22       -8.993423   1.000000
   23       -8.925231   1.000000
   24       -8.762411   1.000000
   25       -8.585921   1.000000
   26       -8.542781   1.000000
   27       -8.469628   1.000000
   28       -8.415152   1.000000
   29       -8.312696   1.000000
   30       -8.244836   1.000000
   31       -8.146029   1.000000
   32       -8.094271   1.000000
   33       -7.842417   1.000000
   34       -7.802780   1.000000
   35       -7.735813   1.000000
   36       -7.687783   1.000000
   37       -7.626405   1.000000
   38       -7.516601   1.000000
   39       -7.473385   1.000000
   40       -7.378671   1.000000
   41       -7.250800   1.000000
   42       -7.188155   1.000000
   43       -7.100414   1.000000
   44       -7.050056   1.000000
   45       -6.937033   1.000000
   46       -6.837760   1.000000
   47       -6.805784   1.000000
   48       -6.651706   1.000000
   49       -6.546040   1.000000
   50       -6.437286   1.000000
   51       -6.406651   1.000000
   52       -6.357092   1.000000
   53       -6.234543   1.000000
   54       -6.215571   1.000000
   55       -6.168167   1.000000
   56       -6.079623   1.000000
   57       -5.989752   1.000000
   58       -5.863652   1.000000
   59       -5.726262   1.000000
   60       -5.683502   1.000000
   61       -5.615651   1.000000
   62       -5.508946   1.000000
   63       -5.419270   1.000000
   64       -5.333584   1.000000
   65       -5.230139   1.000000
   66       -5.056351   1.000000
   67       -4.884245   1.000000
   68       -4.779313   1.000000
   69       -4.725224   1.000000
   70       -4.637401   1.000000
   71       -4.478606   1.000000
   72       -4.344242   1.000000
   73       -4.288685   1.000000
   74       -4.229527   1.000000
   75       -4.133008   1.000000
   76       -4.094844   1.000000
   77       -3.949107   0.999996
   78       -3.763587   0.999172
   79       -3.599602   0.976495
   80       -3.195935   0.192655
   81       -3.133798   0.095517
   82       -2.761286   0.000040
   83       -2.649452   0.000001
   84       -2.581153   0.000000
   85       -2.498477   0.000000
   86       -2.438524   0.000000
   87       -2.313114   0.000000
   88       -2.147876   0.000000
   89       -2.088679   0.000000
   90       -1.996178   0.000000
   91       -1.798712   0.000000
   92       -1.507996   0.000000
   93       -1.462170   0.000000
   94       -1.328758   0.000000
   95       -1.243460   0.000000
   96       -1.157951   0.000000
   97       -1.024494   0.000000
   98       -0.949329   0.000000
   99       -0.877863   0.000000
  100       -0.843293   0.000000
  101       -0.760585   0.000000
  102       -0.636210   0.000000
  103       -0.569976   0.000000
  104       -0.352661   0.000000
  105       -0.291132   0.000000
  106       -0.103136   0.000000
  107       -0.047601   0.000000
  108        0.086004   0.000000
  109        0.189001   0.000000
  110        0.274673   0.000000
  111        0.399378   0.000000
  112        0.498542   0.000000
  113        0.687605   0.000000
  114        0.816656   0.000000
  115        0.950825   0.000000
  116        1.082951   0.000000
  117        1.197815   0.000000
  118        1.813027   0.000000
  119        1.999131   0.000000
  120        2.307847   0.000000
 
  0.3750000E+00  0.0000000E+00  0.0000000E+00  0.3125000E-01
    1      -17.619534   1.000000
    2      -17.218782   1.000000
    3      -16.720841   1.000000
    4      -16.667706   1.000000
    5      -16.588740   1.000000
    6      -16.432754   1.000000
    7      -16.348491   1.000000
    8      -16.242395   1.000000
    9      -16.149137   1.000000
   10      -15.992281   1.000000
   11      -15.911396   1.000000
   12      -15.862176   1.000000
   13      -15.795135   1.000000
   14      -15.690775   1.000000
   15      -15.615686   1.000000
   16      -15.522542   1.000000
   17      -15.362345   1.000000
   18      -15.206379   1.000000
   19       -9.743772   1.000000
   20       -9.300931   1.000000
   21       -9.236393   1.000000
   22       -9.097299   1.000000
   23       -8.959849   1.000000
   24       -8.837794   1.000000
   25       -8.537043   1.000000
   26       -8.487472   1.000000
   27       -8.405301   1.000000
   28       -8.362205   1.000000
   29       -8.282867   1.000000
   30       -8.239728   1.000000
   31       -8.177786   1.000000
   32       -8.074382   1.000000
   33       -7.902333   1.000000
   34       -7.776354   1.000000
   35       -7.731318   1.000000
   36       -7.650539   1.000000
   37       -7.534175   1.000000
   38       -7.436190   1.000000
   39       -7.325396   1.000000
   40       -7.298434   1.000000
   41       -7.251893   1.000000
   42       -7.129800   1.000000
   43       -7.094970   1.000000
   44       -7.013641   1.000000
   45       -6.879930   1.000000
   46       -6.830392   1.000000
   47       -6.682209   1.000000
   48       -6.639011   1.000000
   49       -6.538349   1.000000
   50       -6.447294   1.000000
   51       -6.416291   1.000000
   52       -6.341401   1.000000
   53       -6.232293   1.000000
   54       -6.212125   1.000000
   55       -6.130247   1.000000
   56       -6.051513   1.000000
   57       -5.979530   1.000000
   58       -5.904250   1.000000
   59       -5.834422   1.000000
   60       -5.777378   1.000000
   61       -5.754144   1.000000
   62       -5.652655   1.000000
   63       -5.531523   1.000000
   64       -5.388065   1.000000
   65       -5.241764   1.000000
   66       -5.043226   1.000000
   67       -4.858636   1.000000
   68       -4.778377   1.000000
   69       -4.716856   1.000000
   70       -4.639471   1.000000
   71       -4.538024   1.000000
   72       -4.342444   1.000000
   73       -4.268218   1.000000
   74       -4.186369   1.000000
   75       -4.140890   1.000000
   76       -4.042869   1.000000
   77       -4.009486   0.999999
   78       -3.728133   0.998105
   79       -3.582718   0.969036
   80       -3.186692   0.175279
   81       -3.087704   0.051186
   82       -2.720673   0.000012
   83       -2.652081   0.000001
   84       -2.540076   0.000000
   85       -2.489323   0.000000
   86       -2.404843   0.000000
   87       -2.282974   0.000000
   88       -2.067379   0.000000
   89       -2.029317   0.000000
   90       -1.887037   0.000000
   91       -1.766484   0.000000
   92       -1.571780   0.000000
   93       -1.525184   0.000000
   94       -1.353349   0.000000
   95       -1.282580   0.000000
   96       -1.216969   0.000000
   97       -1.099293   0.000000
   98       -1.039288   0.000000
   99       -0.957202   0.000000
  100       -0.887892   0.000000
  101       -0.811874   0.000000
  102       -0.715333   0.000000
  103       -0.566830   0.000000
  104       -0.403590   0.000000
  105       -0.338698   0.000000
  106       -0.243182   0.000000
  107       -0.187827   0.000000
  108        0.002119   0.000000
  109        0.144995   0.000000
  110        0.268705   0.000000
  111        0.448662   0.000000
  112        0.515920   0.000000
  113        0.679294   0.000000
  114        0.816482   0.000000
  115        1.037046   0.000000
  116        1.213307   0.000000
  117        1.298885   0.000000
  118        1.992852   0.000000
  119        2.174428   0.000000
  120        2.469256   0.000000
 
  0.5000000E+00  0.1110223E-15  0.0000000E+00  0.1562500E-01
    1      -17.520498   1.000000
    2      -17.351343   1.000000
    3      -16.728256   1.000000
    4      -16.679522   1.000000
    5      -16.587299   1.000000
    6      -16.445414   1.000000
    7      -16.343658   1.000000
    8      -16.228384   1.000000
    9      -16.134723   1.000000
   10      -15.992981   1.000000
   11      -15.887957   1.000000
   12      -15.842923   1.000000
   13      -15.753023   1.000000
   14      -15.683349   1.000000
   15      -15.675640   1.000000
   16      -15.500139   1.000000
   17      -15.366603   1.000000
   18      -15.213312   1.000000
   19       -9.816331   1.000000
   20       -9.332787   1.000000
   21       -9.238243   1.000000
   22       -9.128027   1.000000
   23       -8.951033   1.000000
   24       -8.866683   1.000000
   25       -8.547526   1.000000
   26       -8.472314   1.000000
   27       -8.373999   1.000000
   28       -8.332310   1.000000
   29       -8.293099   1.000000
   30       -8.215346   1.000000
   31       -8.127005   1.000000
   32       -8.072290   1.000000
   33       -7.964895   1.000000
   34       -7.809229   1.000000
   35       -7.783205   1.000000
   36       -7.680046   1.000000
   37       -7.459546   1.000000
   38       -7.392612   1.000000
   39       -7.323685   1.000000
   40       -7.312041   1.000000
   41       -7.137198   1.000000
   42       -7.086528   1.000000
   43       -7.029017   1.000000
   44       -6.954551   1.000000
   45       -6.897793   1.000000
   46       -6.839722   1.000000
   47       -6.623620   1.000000
   48       -6.556984   1.000000
   49       -6.527768   1.000000
   50       -6.466759   1.000000
   51       -6.423189   1.000000
   52       -6.376278   1.000000
   53       -6.282157   1.000000
   54       -6.231826   1.000000
   55       -6.096155   1.000000
   56       -6.072228   1.000000
   57       -6.011069   1.000000
   58       -5.917112   1.000000
   59       -5.894134   1.000000
   60       -5.791706   1.000000
   61       -5.762086   1.000000
   62       -5.588142   1.000000
   63       -5.563263   1.000000
   64       -5.447265   1.000000
   65       -5.223287   1.000000
   66       -5.163342   1.000000
   67       -4.892522   1.000000
   68       -4.830079   1.000000
   69       -4.710529   1.000000
   70       -4.618771   1.000000
   71       -4.530632   1.000000
   72       -4.315428   1.000000
   73       -4.243067   1.000000
   74       -4.212050   1.000000
   75       -4.159081   1.000000
   76       -4.021109   1.000000
   77       -3.982257   0.999999
   78       -3.701018   0.996568
   79       -3.569576   0.961960
   80       -3.192950   0.186932
   81       -3.067289   0.037717
   82       -2.704131   0.000007
   83       -2.653067   0.000001
   84       -2.541764   0.000000
   85       -2.469873   0.000000
   86       -2.387789   0.000000
   87       -2.266931   0.000000
   88       -2.033630   0.000000
   89       -1.985327   0.000000
   90       -1.826995   0.000000
   91       -1.748039   0.000000
   92       -1.602728   0.000000
   93       -1.582963   0.000000
   94       -1.369139   0.000000
   95       -1.337457   0.000000
   96       -1.238910   0.000000
   97       -1.134709   0.000000
   98       -1.067306   0.000000
   99       -0.985184   0.000000
  100       -0.884684   0.000000
  101       -0.835207   0.000000
  102       -0.732936   0.000000
  103       -0.588380   0.000000
  104       -0.406549   0.000000
  105       -0.340785   0.000000
  106       -0.284920   0.000000
  107       -0.262120   0.000000
  108       -0.041764   0.000000
  109        0.130321   0.000000
  110        0.258434   0.000000
  111        0.459460   0.000000
  112        0.529668   0.000000
  113        0.673883   0.000000
  114        0.820108   0.000000
  115        1.067934   0.000000
  116        1.263017   0.000000
  117        1.340228   0.000000
  118        2.189433   0.000000
  119        2.261229   0.000000
  120        2.388944   0.000000
 
  0.0000000E+00  0.1250000E+00  0.0000000E+00  0.3125000E-01
    1      -17.807882   1.000000
    2      -16.776449   1.000000
    3      -16.676182   1.000000
    4      -16.641593   1.000000
    5      -16.564612   1.000000
    6      -16.431823   1.000000
    7      -16.375559   1.000000
    8      -16.295432   1.000000
    9      -16.202690   1.000000
   10      -16.109055   1.000000
   11      -16.016988   1.000000
   12      -15.882945   1.000000
   13      -15.847514   1.000000
   14      -15.815048   1.000000
   15      -15.539649   1.000000
   16      -15.484042   1.000000
   17      -15.353008   1.000000
   18      -15.182779   1.000000
   19       -9.437814   1.000000
   20       -9.106031   1.000000
   21       -9.040088   1.000000
   22       -8.914695   1.000000
   23       -8.766557   1.000000
   24       -8.742207   1.000000
   25       -8.667923   1.000000
   26       -8.586947   1.000000
   27       -8.522748   1.000000
   28       -8.447754   1.000000
   29       -8.378453   1.000000
   30       -8.223505   1.000000
   31       -8.207429   1.000000
   32       -8.104059   1.000000
   33       -8.028809   1.000000
   34       -7.917662   1.000000
   35       -7.838028   1.000000
   36       -7.767892   1.000000
   37       -7.645082   1.000000
   38       -7.562422   1.000000
   39       -7.513716   1.000000
   40       -7.369612   1.000000
   41       -7.352782   1.000000
   42       -7.195271   1.000000
   43       -7.120407   1.000000
   44       -6.938828   1.000000
   45       -6.895831   1.000000
   46       -6.860159   1.000000
   47       -6.797833   1.000000
   48       -6.711172   1.000000
   49       -6.584931   1.000000
   50       -6.497412   1.000000
   51       -6.449874   1.000000
   52       -6.326702   1.000000
   53       -6.265090   1.000000
   54       -6.198446   1.000000
   55       -6.138241   1.000000
   56       -6.039253   1.000000
   57       -5.934954   1.000000
   58       -5.873683   1.000000
   59       -5.806515   1.000000
   60       -5.675661   1.000000
   61       -5.439052   1.000000
   62       -5.336079   1.000000
   63       -5.254172   1.000000
   64       -5.219780   1.000000
   65       -5.143450   1.000000
   66       -5.014340   1.000000
   67       -4.948476   1.000000
   68       -4.892777   1.000000
   69       -4.763604   1.000000
   70       -4.665858   1.000000
   71       -4.527987   1.000000
   72       -4.421029   1.000000
   73       -4.365107   1.000000
   74       -4.294534   1.000000
   75       -4.238814   1.000000
   76       -3.934025   0.999993
   77       -3.816953   0.999787
   78       -3.661453   0.992315
   79       -3.508382   0.910069
   80       -3.436966   0.798478
   81       -3.082453   0.047402
   82       -2.795778   0.000109
   83       -2.670960   0.000002
   84       -2.654015   0.000001
   85       -2.593756   0.000000
   86       -2.431611   0.000000
   87       -2.371792   0.000000
   88       -2.219468   0.000000
   89       -2.115940   0.000000
   90       -2.056691   0.000000
   91       -1.760668   0.000000
   92       -1.483190   0.000000
   93       -1.397902   0.000000
   94       -1.346372   0.000000
   95       -1.214869   0.000000
   96       -1.116415   0.000000
   97       -1.052198   0.000000
   98       -0.874078   0.000000
   99       -0.776967   0.000000
  100       -0.707379   0.000000
  101       -0.630421   0.000000
  102       -0.573347   0.000000
  103       -0.526060   0.000000
  104       -0.296463   0.000000
  105       -0.139247   0.000000
  106       -0.080075   0.000000
  107        0.037144   0.000000
  108        0.107150   0.000000
  109        0.190256   0.000000
  110        0.300256   0.000000
  111        0.417180   0.000000
  112        0.505283   0.000000
  113        0.622148   0.000000
  114        0.785226   0.000000
  115        0.935708   0.000000
  116        0.974758   0.000000
  117        1.110893   0.000000
  118        1.694643   0.000000
  119        1.882059   0.000000
  120        2.204762   0.000000
 
  0.1250000E+00  0.1250000E+00  0.0000000E+00  0.3125000E-01
    1      -17.761036   1.000000
    2      -16.888857   1.000000
    3      -16.787591   1.000000
    4      -16.661200   1.000000
    5      -16.499540   1.000000
    6      -16.429328   1.000000
    7      -16.353730   1.000000
    8      -16.290249   1.000000
    9      -16.151466   1.000000
   10      -16.111956   1.000000
   11      -15.985155   1.000000
   12      -15.882329   1.000000
   13      -15.807298   1.000000
   14      -15.759443   1.000000
   15      -15.554555   1.000000
   16      -15.511992   1.000000
   17      -15.355938   1.000000
   18      -15.191991   1.000000
   19       -9.467570   1.000000
   20       -9.331905   1.000000
   21       -9.098277   1.000000
   22       -9.042195   1.000000
   23       -8.827431   1.000000
   24       -8.700507   1.000000
   25       -8.630585   1.000000
   26       -8.563698   1.000000
   27       -8.501801   1.000000
   28       -8.424050   1.000000
   29       -8.313752   1.000000
   30       -8.240005   1.000000
   31       -8.181024   1.000000
   32       -8.035083   1.000000
   33       -7.976288   1.000000
   34       -7.834903   1.000000
   35       -7.758965   1.000000
   36       -7.723208   1.000000
   37       -7.614629   1.000000
   38       -7.488190   1.000000
   39       -7.448721   1.000000
   40       -7.341442   1.000000
   41       -7.281320   1.000000
   42       -7.218740   1.000000
   43       -7.113661   1.000000
   44       -7.019923   1.000000
   45       -6.951104   1.000000
   46       -6.882744   1.000000
   47       -6.796899   1.000000
   48       -6.684791   1.000000
   49       -6.564203   1.000000
   50       -6.472436   1.000000
   51       -6.415751   1.000000
   52       -6.363838   1.000000
   53       -6.270768   1.000000
   54       -6.199896   1.000000
   55       -6.146278   1.000000
   56       -6.046355   1.000000
   57       -5.954250   1.000000
   58       -5.856715   1.000000
   59       -5.779560   1.000000
   60       -5.606974   1.000000
   61       -5.519497   1.000000
   62       -5.448439   1.000000
   63       -5.370131   1.000000
   64       -5.295630   1.000000
   65       -5.183172   1.000000
   66       -5.088724   1.000000
   67       -5.025511   1.000000
   68       -4.819284   1.000000
   69       -4.754247   1.000000
   70       -4.582308   1.000000
   71       -4.517232   1.000000
   72       -4.321347   1.000000
   73       -4.305187   1.000000
   74       -4.210114   1.000000
   75       -4.160380   1.000000
   76       -4.062709   1.000000
   77       -3.960126   0.999997
   78       -3.678494   0.994521
   79       -3.593003   0.973782
   80       -3.331849   0.537010
   81       -3.058618   0.032948
   82       -2.767873   0.000049
   83       -2.642121   0.000001
   84       -2.610156   0.000000
   85       -2.569860   0.000000
   86       -2.458391   0.000000
   87       -2.339094   0.000000
   88       -2.177824   0.000000
   89       -2.073940   0.000000
   90       -2.026554   0.000000
   91       -1.743705   0.000000
   92       -1.496804   0.000000
   93       -1.426386   0.000000
   94       -1.336732   0.000000
   95       -1.212805   0.000000
   96       -1.132246   0.000000
   97       -1.056884   0.000000
   98       -0.903435   0.000000
   99       -0.867635   0.000000
  100       -0.806719   0.000000
  101       -0.726730   0.000000
  102       -0.642570   0.000000
  103       -0.589388   0.000000
  104       -0.337029   0.000000
  105       -0.238504   0.000000
  106       -0.072983   0.000000
  107       -0.013030   0.000000
  108        0.085644   0.000000
  109        0.110265   0.000000
  110        0.262233   0.000000
  111        0.431694   0.000000
  112        0.482234   0.000000
  113        0.724173   0.000000
  114        0.862894   0.000000
  115        0.959510   0.000000
  116        1.014899   0.000000
  117        1.166967   0.000000
  118        1.776075   0.000000
  119        1.959838   0.000000
  120        2.273910   0.000000
 
  0.2500000E+00  0.1250000E+00  0.0000000E+00  0.3125000E-01
    1      -17.668956   1.000000
    2      -17.092713   1.000000
    3      -16.861264   1.000000
    4      -16.649232   1.000000
    5      -16.481693   1.000000
    6      -16.391989   1.000000
    7      -16.368293   1.000000
    8      -16.253645   1.000000
    9      -16.169002   1.000000
   10      -16.037480   1.000000
   11      -15.954288   1.000000
   12      -15.883979   1.000000
   13      -15.770463   1.000000
   14      -15.693713   1.000000
   15      -15.581597   1.000000
   16      -15.529043   1.000000
   17      -15.364020   1.000000
   18      -15.203538   1.000000
   19       -9.631393   1.000000
   20       -9.448466   1.000000
   21       -9.233974   1.000000
   22       -9.071044   1.000000
   23       -8.889753   1.000000
   24       -8.684547   1.000000
   25       -8.536371   1.000000
   26       -8.493712   1.000000
   27       -8.410341   1.000000
   28       -8.395849   1.000000
   29       -8.298727   1.000000
   30       -8.254790   1.000000
   31       -8.203428   1.000000
   32       -8.105016   1.000000
   33       -7.905796   1.000000
   34       -7.862782   1.000000
   35       -7.780442   1.000000
   36       -7.596748   1.000000
   37       -7.535100   1.000000
   38       -7.437212   1.000000
   39       -7.340605   1.000000
   40       -7.299577   1.000000
   41       -7.252904   1.000000
   42       -7.140553   1.000000
   43       -7.072853   1.000000
   44       -7.029539   1.000000
   45       -6.911113   1.000000
   46       -6.861564   1.000000
   47       -6.766700   1.000000