       N       E                     dE             d eps       ncg     rms          rms(c)
DAV:   1     0.112623889256E+04    0.11262E+04   -0.35979E+04  8160   0.577E+02
DAV:   2    -0.374537086790E+00   -0.11266E+04   -0.10846E+04 11200   0.173E+02
DAV:   3    -0.199547213712E+03   -0.19917E+03   -0.19115E+03 10880   0.823E+01
DAV:   4    -0.208978658797E+03   -0.94314E+01   -0.91332E+01 12040   0.264E+01
DAV:   5    -0.209322467726E+03   -0.34381E+00   -0.34282E+00 11520   0.373E+00    0.275E+01
DAV:   6    -0.237076016555E+03   -0.27754E+02   -0.10960E+02 12560   0.604E+01    0.596E+01
DAV:   7    -0.196446583429E+03    0.40629E+02   -0.17757E+02 13360   0.152E+02    0.199E+01
DAV:   8    -0.189402735431E+03    0.70438E+01   -0.17411E+01 12160   0.127E+01    0.126E+01
DAV:   9    -0.188169483751E+03    0.12333E+01   -0.31482E+00 12920   0.637E+00    0.913E+00
DAV:  10    -0.186999035770E+03    0.11704E+01   -0.20852E+00 13480   0.736E+00    0.271E+00
DAV:  11    -0.186967500573E+03    0.31535E-01   -0.59023E-01 13280   0.251E+00    0.274E+00
DAV:  12    -0.187089751545E+03   -0.12225E+00   -0.81500E-01 12160   0.482E+00    0.497E+00
DAV:  13    -0.186881077585E+03    0.20867E+00   -0.54772E-01 13000   0.410E+00    0.211E+00
DAV:  14    -0.186856671768E+03    0.24406E-01   -0.12768E-01 13280   0.206E+00    0.169E+00
DAV:  15    -0.186837089307E+03    0.19582E-01   -0.71382E-02 11880   0.161E+00    0.866E-01
DAV:  16    -0.186829434150E+03    0.76552E-02   -0.12308E-02 11840   0.468E-01    0.449E-01
DAV:  17    -0.186827554790E+03    0.18794E-02   -0.79706E-03 12720   0.431E-01    0.234E-01
DAV:  18    -0.186827092778E+03    0.46201E-03   -0.24520E-03 11600   0.144E-01    0.179E-01
DAV:  19    -0.186826739150E+03    0.35363E-03   -0.98396E-04 11000   0.134E-01    0.478E-02
DAV:  20    -0.186827476604E+03   -0.73745E-03   -0.69475E-04  9240   0.584E-02    0.496E-02
DAV:  21    -0.186828067615E+03   -0.59101E-03   -0.26541E-04  8000   0.450E-02    0.445E-02
DAV:  22    -0.186829233019E+03   -0.11654E-02   -0.21765E-04  7600   0.617E-02    0.399E-02
DAV:  23    -0.186830459974E+03   -0.12270E-02   -0.14556E-04  7480   0.442E-02    0.112E-02
DAV:  24    -0.186831048081E+03   -0.58811E-03   -0.30829E-05  6640   0.141E-02    0.774E-03
DAV:  25    -0.186831413786E+03   -0.36571E-03   -0.15786E-05  5840   0.121E-02    0.493E-03
DAV:  26    -0.186831648502E+03   -0.23472E-03   -0.90250E-06  6720   0.729E-03    0.159E-03
DAV:  27    -0.186831751436E+03   -0.10293E-03   -0.38348E-06  7160   0.480E-03    0.160E-03
DAV:  28    -0.186831792137E+03   -0.40701E-04   -0.20010E-06  7240   0.363E-03
   1 F= -.18683179E+03 E0= -.18665924E+03  d E =-.186832E+03
       N       E                     dE             d eps       ncg     rms          rms(c)
DAV:   1    -0.187459321435E+03   -0.62757E+00   -0.27120E+02  8160   0.350E+01    0.460E+00
DAV:   2    -0.189260639125E+03   -0.18013E+01   -0.20040E+01 12280   0.149E+01    0.789E+00
DAV:   3    -0.189367185538E+03   -0.10655E+00   -0.36212E+00 12440   0.117E+01    0.697E+00
DAV:   4    -0.188724901113E+03    0.64228E+00   -0.65837E-01 12600   0.492E+00    0.178E+00
DAV:   5    -0.188721338929E+03    0.35622E-02   -0.29495E-01 10120   0.142E+00    0.214E+00
DAV:   6    -0.188660230003E+03    0.61109E-01   -0.28277E-01 10880   0.145E+00    0.116E+00
DAV:   7    -0.188642720389E+03    0.17510E-01   -0.80959E-02 11440   0.106E+00    0.822E-01
DAV:   8    -0.188638586589E+03    0.41338E-02   -0.28508E-02 12400   0.934E-01    0.781E-01
DAV:   9    -0.188634119596E+03    0.44670E-02   -0.10627E-02 13080   0.564E-01    0.237E-01
DAV:  10    -0.188633771756E+03    0.34784E-03   -0.28650E-03 12920   0.206E-01    0.151E-01
DAV:  11    -0.188633519451E+03    0.25231E-03   -0.14190E-03 12120   0.128E-01    0.110E-01
DAV:  12    -0.188633854221E+03   -0.33477E-03   -0.99464E-04 11000   0.189E-01    0.216E-01
DAV:  13    -0.188633531829E+03    0.32239E-03   -0.56876E-04  9480   0.147E-01    0.215E-02
DAV:  14    -0.188633639774E+03   -0.10794E-03   -0.68379E-05  7400   0.272E-02    0.302E-02
DAV:  15    -0.188633673676E+03   -0.33902E-04   -0.37743E-05  7560   0.210E-02
   2 F= -.18863367E+03 E0= -.18849138E+03  d E =-.180188E+01
       N       E                     dE             d eps       ncg     rms          rms(c)
DAV:   1    -0.190551981986E+03   -0.19183E+01   -0.30897E+01  9280   0.142E+01    0.446E+00
DAV:   2    -0.190545923526E+03    0.60585E-02   -0.28405E+00 11680   0.972E+00    0.748E+00
DAV:   3    -0.190024514844E+03    0.52141E+00   -0.13436E+00 12320   0.865E+00    0.413E+00
DAV:   4    -0.189819915284E+03    0.20460E+00   -0.69847E-01 12920   0.404E+00    0.247E+00
DAV:   5    -0.189737221034E+03    0.82694E-01   -0.29526E-01 11440   0.198E+00    0.118E+00
DAV:   6    -0.189723062467E+03    0.14159E-01   -0.63916E-02 11920   0.139E+00    0.855E-01
DAV:   7    -0.189717105954E+03    0.59565E-02   -0.15036E-02 12240   0.702E-01    0.215E-01
DAV:   8    -0.189716959095E+03    0.14686E-03   -0.21954E-03 10560   0.171E-01    0.143E-01
DAV:   9    -0.189717174829E+03   -0.21573E-03   -0.10442E-03 11120   0.144E-01    0.160E-01
DAV:  10    -0.189717573798E+03   -0.39897E-03   -0.14386E-03 10160   0.263E-01    0.251E-01
DAV:  11    -0.189716990384E+03    0.58341E-03   -0.83323E-04  9760   0.193E-01    0.267E-02
DAV:  12    -0.189717012905E+03   -0.22521E-04   -0.66928E-05  5760   0.320E-02
   3 F= -.18971701E+03 E0= -.18959717E+03  d E =-.108334E+01
       N       E                     dE             d eps       ncg     rms          rms(c)
DAV:   1    -0.191282135407E+03   -0.15651E+01   -0.71857E+01  8160   0.194E+01    0.464E+00
DAV:   2    -0.191157203977E+03    0.12493E+00   -0.54527E+00 13360   0.833E+00    0.521E+00
DAV:   3    -0.191196998642E+03   -0.39795E-01   -0.16174E+00 12280   0.927E+00    0.650E+00
DAV:   4    -0.190837656018E+03    0.35934E+00   -0.13703E+00 12600   0.737E+00    0.318E+00
DAV:   5    -0.190833405751E+03    0.42503E-02   -0.56380E-01 12000   0.490E+00    0.337E+00
DAV:   6    -0.190688532019E+03    0.14487E+00   -0.21611E-01 12160   0.327E+00    0.841E-01
DAV:   7    -0.190683073983E+03    0.54580E-02   -0.39141E-02 12360   0.907E-01    0.491E-01
DAV:   8    -0.190681548179E+03    0.15258E-02   -0.11064E-02 11680   0.640E-01    0.496E-01
DAV:   9    -0.190679354614E+03    0.21936E-02   -0.39989E-03 11360   0.464E-01    0.157E-01
DAV:  10    -0.190679626904E+03   -0.27229E-03   -0.11871E-03 10440   0.144E-01    0.126E-01
DAV:  11    -0.190679466926E+03    0.15998E-03   -0.87959E-04 10480   0.108E-01    0.485E-02
DAV:  12    -0.190679460830E+03    0.60959E-05   -0.14695E-04  7160   0.453E-02
   4 F= -.19067946E+03 E0= -.19057825E+03  d E =-.962448E+00
       N       E                     dE             d eps       ncg     rms          rms(c)
DAV:   1    -0.192064032140E+03   -0.13846E+01   -0.14996E+02  8160   0.274E+01    0.569E+00
DAV:   2    -0.191841807499E+03    0.22222E+00   -0.94432E+00 12040   0.869E+00    0.450E+00
DAV:   3    -0.192225403258E+03   -0.38360E+00   -0.23901E+00 12200   0.108E+01    0.914E+00
DAV:   4    -0.191561085960E+03    0.66432E+00   -0.23401E+00 12160   0.111E+01    0.353E+00
DAV:   5    -0.191387982821E+03    0.17310E+00   -0.49996E-01 12280   0.349E+00    0.176E+00
DAV:   6    -0.191371176820E+03    0.16806E-01   -0.20052E-01 12520   0.292E+00    0.180E+00
DAV:   7    -0.191347234984E+03    0.23942E-01   -0.10384E-01 12200   0.206E+00    0.675E-01
DAV:   8    -0.191339871867E+03    0.73631E-02   -0.11470E-02 11160   0.538E-01    0.201E-01
DAV:   9    -0.191341189070E+03   -0.13172E-02   -0.38554E-03 12520   0.423E-01    0.379E-01
DAV:  10    -0.191340159059E+03    0.10300E-02   -0.35235E-03 11320   0.406E-01    0.125E-01
DAV:  11    -0.191339992536E+03    0.16652E-03   -0.73876E-04 10400   0.123E-01    0.579E-02
DAV:  12    -0.191339959011E+03    0.33526E-04   -0.13263E-04  7400   0.470E-02
   5 F= -.19133996E+03 E0= -.19124564E+03  d E =-.660498E+00
       N       E                     dE             d eps       ncg     rms          rms(c)
DAV:   1    -0.191426668878E+03   -0.86676E-01   -0.77905E+00  8160   0.589E+00    0.715E-01
DAV:   2    -0.191489325829E+03   -0.62657E-01   -0.31664E-01 13200   0.271E+00    0.223E+00
DAV:   3    -0.191442462575E+03    0.46863E-01   -0.13571E-01 12320   0.241E+00    0.660E-01
DAV:   4    -0.191442891679E+03   -0.42910E-03   -0.20580E-02 11720   0.987E-01    0.724E-01
DAV:   5    -0.191437529800E+03    0.53619E-02   -0.10101E-02 11720   0.765E-01    0.240E-01
DAV:   6    -0.191437078230E+03    0.45157E-03   -0.25835E-03 10960   0.237E-01    0.141E-01
DAV:   7    -0.191436843286E+03    0.23494E-03   -0.14037E-03 10320   0.138E-01    0.824E-02
DAV:   8    -0.191436798277E+03    0.45009E-04   -0.42226E-04  9520   0.131E-01
   6 F= -.19143680E+03 E0= -.19134100E+03  d E =-.968393E-01
       N       E                     dE             d eps       ncg     rms          rms(c)
DAV:   1    -0.191459980569E+03   -0.23137E-01   -0.45485E-01  8160   0.143E+00    0.172E-01
DAV:   2    -0.191463266171E+03   -0.32856E-02   -0.16635E-02 13600   0.641E-01    0.507E-01
DAV:   3    -0.191460632069E+03    0.26341E-02   -0.62716E-03 11440   0.547E-01    0.143E-01
DAV:   4    -0.191460799312E+03   -0.16724E-03   -0.11631E-03  9960   0.235E-01    0.188E-01
DAV:   5    -0.191460456351E+03    0.34296E-03   -0.61837E-04  8720   0.193E-01    0.566E-02
DAV:   6    -0.191460461441E+03   -0.50906E-05   -0.13599E-04  6080   0.655E-02
   7 F= -.19146046E+03 E0= -.19136461E+03  d E =-.236632E-01
       N       E                     dE             d eps       ncg     rms          rms(c)
DAV:   1    -0.191364607554E+03    0.95849E-01   -0.77964E+00  8160   0.593E+00    0.731E-01
DAV:   2    -0.191421118607E+03   -0.56511E-01   -0.28956E-01 13600   0.286E+00    0.204E+00
DAV:   3    -0.191373782702E+03    0.47336E-01   -0.90833E-02 12440   0.224E+00    0.540E-01
DAV:   4    -0.191375970359E+03   -0.21877E-02   -0.18780E-02 10600   0.957E-01    0.761E-01
DAV:   5    -0.191370266081E+03    0.57043E-02   -0.12512E-02 10760   0.823E-01    0.281E-01
DAV:   6    -0.191369845669E+03    0.42041E-03   -0.39893E-03 11640   0.336E-01    0.206E-01
DAV:   7    -0.191370123163E+03   -0.27749E-03   -0.32621E-03 12160   0.393E-01    0.297E-01
DAV:   8    -0.191369205298E+03    0.91787E-03   -0.15988E-03 10000   0.280E-01    0.486E-02
DAV:   9    -0.191369200801E+03    0.44971E-05   -0.95533E-05  5920   0.448E-02
   8 F= -.19136920E+03 E0= -.19127455E+03  d E =0.912606E-01
       N       E                     dE             d eps       ncg     rms          rms(c)
DAV:   1    -0.191322125490E+03    0.47080E-01   -0.47338E+00  8160   0.462E+00    0.441E-01
DAV:   2    -0.191331897882E+03   -0.97724E-02   -0.12213E-01 12520   0.108E+00    0.538E-01
DAV:   3    -0.191332851502E+03   -0.95362E-03   -0.23241E-02 12600   0.101E+00    0.702E-01
DAV:   4    -0.191328647752E+03    0.42037E-02   -0.11035E-02 12040   0.708E-01    0.273E-01
DAV:   5    -0.191327889921E+03    0.75783E-03   -0.31543E-03 10200   0.325E-01    0.214E-01
DAV:   6    -0.191328132113E+03   -0.24219E-03   -0.29731E-03 12000   0.380E-01    0.244E-01
DAV:   7    -0.191327593474E+03    0.53864E-03   -0.15622E-03  9920   0.273E-01    0.127E-01
DAV:   8    -0.191327445212E+03    0.14826E-03   -0.44148E-04  8560   0.156E-01    0.608E-02
DAV:   9    -0.191327406635E+03    0.38577E-04   -0.88808E-05  6800   0.659E-02
   9 F= -.19132741E+03 E0= -.19123356E+03  d E =0.417942E-01
       N       E                     dE             d eps       ncg     rms          rms(c)
DAV:   1    -0.191385437400E+03   -0.57992E-01   -0.52265E+00  8160   0.483E+00    0.539E-01
DAV:   2    -0.191408018148E+03   -0.22581E-01   -0.16484E-01 13320   0.147E+00    0.122E+00
DAV:   3    -0.191395407598E+03    0.12611E-01   -0.59824E-02 12240   0.159E+00    0.659E-01
DAV:   4    -0.191392667040E+03    0.27406E-02   -0.12742E-02 11920   0.699E-01    0.461E-01
DAV:   5    -0.191390806308E+03    0.18607E-02   -0.56741E-03 11320   0.562E-01    0.258E-01
DAV:   6    -0.191390256184E+03    0.55012E-03   -0.25210E-03 12040   0.288E-01    0.143E-01
DAV:   7    -0.191390135581E+03    0.12060E-03   -0.12793E-03 11120   0.190E-01    0.118E-01
DAV:   8    -0.191390052456E+03    0.83125E-04   -0.59548E-04  9040   0.179E-01
  10 F= -.19139005E+03 E0= -.19129432E+03  d E =-.626458E-01
       N       E                     dE             d eps       ncg     rms          rms(c)
DAV:   1    -0.191409190017E+03   -0.19054E-01   -0.39082E-01  8160   0.135E+00    0.215E-01
DAV:   2    -0.191413300007E+03   -0.41100E-02   -0.20121E-02 12760   0.807E-01    0.616E-01
DAV:   3    -0.191409279141E+03    0.40209E-02   -0.87449E-03 11560   0.657E-01    0.149E-01
DAV:   4    -0.191409618484E+03   -0.33934E-03   -0.20348E-03 10120   0.297E-01    0.257E-01
DAV:   5    -0.191409002536E+03    0.61595E-03   -0.14121E-03  9760   0.268E-01    0.890E-02
DAV:   6    -0.191408914094E+03    0.88442E-04   -0.27690E-04  6000   0.856E-02
  11 F= -.19140891E+03 E0= -.19131257E+03  d E =-.188616E-01
       N       E                     dE             d eps       ncg     rms          rms(c)
DAV:   1    -0.191491619492E+03   -0.82617E-01   -0.75434E+00  8160   0.584E+00    0.724E-01
DAV:   2    -0.191553080081E+03   -0.61461E-01   -0.28888E-01 13600   0.288E+00    0.236E+00
DAV:   3    -0.191501933884E+03    0.51146E-01   -0.13769E-01 12280   0.241E+00    0.645E-01
DAV:   4    -0.191503244872E+03   -0.13110E-02   -0.23621E-02 11320   0.106E+00    0.785E-01
DAV:   5    -0.191497012647E+03    0.62322E-02   -0.12281E-02 11880   0.801E-01    0.260E-01
DAV:   6    -0.191496384036E+03    0.62861E-03   -0.35472E-03 11280   0.266E-01    0.152E-01
DAV:   7    -0.191496131352E+03    0.25268E-03   -0.15915E-03 11640   0.188E-01    0.124E-01
DAV:   8    -0.191496009572E+03    0.12178E-03   -0.65119E-04  8920   0.182E-01    0.900E-02
DAV:   9    -0.191495922658E+03    0.86915E-04   -0.16329E-04  6400   0.914E-02
  12 F= -.19149592E+03 E0= -.19139912E+03  d E =-.870086E-01
       N       E                     dE             d eps       ncg     rms          rms(c)
DAV:   1    -0.191242465164E+03    0.25354E+00   -0.57340E+01  8160   0.161E+01    0.174E+00
DAV:   2    -0.191496838581E+03   -0.25437E+00   -0.17266E+00 13200   0.553E+00    0.372E+00
DAV:   3    -0.191319852982E+03    0.17699E+00   -0.36368E-01 11680   0.451E+00    0.145E+00
DAV:   4    -0.191320508490E+03   -0.65551E-03   -0.11373E-01 12360   0.206E+00    0.159E+00
DAV:   5    -0.191298383922E+03    0.22125E-01   -0.67559E-02 11720   0.183E+00    0.792E-01
DAV:   6    -0.191293726260E+03    0.46577E-02   -0.24483E-02 12200   0.944E-01    0.467E-01
DAV:   7    -0.191292661737E+03    0.10645E-02   -0.12386E-02 12760   0.675E-01    0.501E-01
DAV:   8    -0.191290372876E+03    0.22889E-02   -0.55340E-03 11600   0.563E-01    0.180E-01
DAV:   9    -0.191290031061E+03    0.34182E-03   -0.90573E-04 10360   0.167E-01    0.584E-02
DAV:  10    -0.191289983407E+03    0.47654E-04   -0.35120E-04 10240   0.606E-02
  13 F= -.19128998E+03 E0= -.19119738E+03  d E =0.205939E+00
       N       E                     dE             d eps       ncg     rms          rms(c)
DAV:   1    -0.191260330383E+03    0.29701E-01   -0.73029E+00  8160   0.566E+00    0.561E-01
DAV:   2    -0.191276162046E+03   -0.15832E-01   -0.15766E-01 12440   0.139E+00    0.846E-01
DAV:   3    -0.191269680663E+03    0.64814E-02   -0.32365E-02 12880   0.127E+00    0.601E-01
DAV:   4    -0.191266868152E+03    0.28125E-02   -0.11374E-02 12320   0.735E-01    0.344E-01
DAV:   5    -0.191265792347E+03    0.10758E-02   -0.51552E-03 11800   0.468E-01    0.317E-01
DAV:   6    -0.191265506755E+03    0.28559E-03   -0.41451E-03 11280   0.469E-01    0.251E-01
DAV:   7    -0.191264909389E+03    0.59737E-03   -0.14577E-03 10360   0.244E-01    0.682E-02
DAV:   8    -0.191264880356E+03    0.29034E-04   -0.30424E-04  7840   0.110E-01
  14 F= -.19126488E+03 E0= -.19117289E+03  d E =0.251031E-01
       N       E                     dE             d eps       ncg     rms          rms(c)
DAV:   1    -0.191292078153E+03   -0.27169E-01   -0.21087E+00  8160   0.308E+00    0.411E-01
DAV:   2    -0.191308014522E+03   -0.15936E-01   -0.86869E-02 13400   0.154E+00    0.111E+00
DAV:   3    -0.191294950017E+03    0.13065E-01   -0.33887E-02 12240   0.129E+00    0.343E-01
DAV:   4    -0.191294711637E+03    0.23838E-03   -0.67467E-03 11280   0.491E-01    0.369E-01
DAV:   5    -0.191293753199E+03    0.95844E-03   -0.43139E-03 11480   0.461E-01    0.226E-01
DAV:   6    -0.191293132167E+03    0.62103E-03   -0.14085E-03 10080   0.219E-01    0.661E-02
DAV:   7    -0.191293229335E+03   -0.97168E-04   -0.54523E-04 10720   0.121E-01
  15 F= -.19129323E+03 E0= -.19119866E+03  d E =-.283490E-01
       N       E                     dE             d eps       ncg     rms          rms(c)
DAV:   1    -0.191339287510E+03   -0.46155E-01   -0.10953E+01  8160   0.700E+00    0.835E-01
DAV:   2    -0.191397289754E+03   -0.58002E-01   -0.37676E-01 13480   0.289E+00    0.202E+00
DAV:   3    -0.191357356112E+03    0.39934E-01   -0.13883E-01 12320   0.255E+00    0.819E-01
DAV:   4    -0.191353729236E+03    0.36269E-02   -0.29065E-02 12200   0.101E+00    0.720E-01
DAV:   5    -0.191350654162E+03    0.30751E-02   -0.18291E-02 12240   0.946E-01    0.509E-01
DAV:   6    -0.191347705889E+03    0.29483E-02   -0.64602E-03 12280   0.486E-01    0.149E-01
DAV:   7    -0.191347666330E+03    0.39559E-04   -0.18693E-03 10600   0.159E-01    0.882E-02
DAV:   8    -0.191347529920E+03    0.13641E-03   -0.49922E-04 10840   0.124E-01    0.753E-02
DAV:   9    -0.191347492320E+03    0.37600E-04   -0.19010E-04  6800   0.104E-01
  16 F= -.19134749E+03 E0= -.19124904E+03  d E =-.542630E-01
       N       E                     dE             d eps       ncg     rms          rms(c)
DAV:   1    -0.191358925109E+03   -0.11395E-01   -0.42590E-01  8160   0.143E+00    0.218E-01
DAV:   2    -0.191361080645E+03   -0.21555E-02   -0.18924E-02 13120   0.625E-01    0.420E-01
DAV:   3    -0.191359334094E+03    0.17466E-02   -0.60731E-03 11640   0.563E-01    0.203E-01
DAV:   4    -0.191359022421E+03    0.31167E-03   -0.19234E-03  9960   0.260E-01    0.167E-01
DAV:   5    -0.191358938905E+03    0.83516E-04   -0.13200E-03  9800   0.246E-01    0.168E-01
DAV:   6    -0.191358659752E+03    0.27915E-03   -0.65406E-04  8200   0.174E-01    0.498E-02
DAV:   7    -0.191358647842E+03    0.11910E-04   -0.16780E-04  5760   0.679E-02
  17 F= -.19135865E+03 E0= -.19126007E+03  d E =-.111555E-01
       N       E                     dE             d eps       ncg     rms          rms(c)
DAV:   1    -0.191383098628E+03   -0.24439E-01   -0.19798E+00  8160   0.301E+00    0.355E-01
DAV:   2    -0.191390380671E+03   -0.72820E-02   -0.63679E-02 13600   0.102E+00    0.645E-01
DAV:   3    -0.191386496304E+03    0.38844E-02   -0.17769E-02 12280   0.934E-01    0.382E-01
DAV:   4    -0.191385420035E+03    0.10763E-02   -0.52160E-03 11400   0.435E-01    0.259E-01
DAV:   5    -0.191385236084E+03    0.18395E-03   -0.32122E-03 11160   0.391E-01    0.264E-01
DAV:   6    -0.191384562322E+03    0.67376E-03   -0.15850E-03  9640   0.269E-01    0.752E-02
DAV:   7    -0.191384565697E+03   -0.33745E-05   -0.38201E-04  8520   0.954E-02
  18 F= -.19138457E+03 E0= -.19128602E+03  d E =-.259179E-01
       N       E                     dE             d eps       ncg     rms          rms(c)
DAV:   1    -0.191369457791E+03    0.15105E-01   -0.71995E-01  8160   0.183E+00    0.236E-01
DAV:   2    -0.191372853390E+03   -0.33956E-02   -0.25392E-02 12840   0.737E-01    0.508E-01
DAV:   3    -0.191370282440E+03    0.25710E-02   -0.77546E-03 12040   0.643E-01    0.228E-01
DAV:   4    -0.191370080885E+03    0.20156E-03   -0.23806E-03 10520   0.311E-01    0.211E-01
DAV:   5    -0.191369779650E+03    0.30124E-03   -0.15189E-03  9560   0.282E-01    0.146E-01
DAV:   6    -0.191369548971E+03    0.23068E-03   -0.61710E-04  9480   0.153E-01    0.533E-02
DAV:   7    -0.191369644480E+03   -0.95509E-04   -0.37035E-04  8320   0.131E-01
  19 F= -.19136964E+03 E0= -.19127083E+03  d E =0.149212E-01
       N       E                     dE             d eps       ncg     rms          rms(c)
DAV:   1    -0.191350210694E+03    0.19338E-01   -0.11343E+00  8160   0.228E+00    0.258E-01
DAV:   2    -0.191353708222E+03   -0.34975E-02   -0.34383E-02 13560   0.681E-01    0.432E-01
DAV:   3    -0.191352435027E+03    0.12732E-02   -0.93332E-03 12480   0.647E-01    0.340E-01
DAV:   4    -0.191351677632E+03    0.75740E-03   -0.37518E-03 11360   0.378E-01    0.204E-01
DAV:   5    -0.191351412406E+03    0.26523E-03   -0.15566E-03  9760   0.277E-01    0.166E-01
DAV:   6    -0.191351158601E+03    0.25381E-03   -0.80831E-04  9680   0.198E-01    0.707E-02
DAV:   7    -0.191351237360E+03   -0.78759E-04   -0.37356E-04  9200   0.129E-01
  20 F= -.19135124E+03 E0= -.19125243E+03  d E =0.184071E-01
       N       E                     dE             d eps       ncg     rms          rms(c)
DAV:   1    -0.191357428942E+03   -0.62703E-02   -0.41193E-01  8160   0.135E+00    0.160E-01
DAV:   2    -0.191359751377E+03   -0.23224E-02   -0.13303E-02 13560   0.559E-01    0.412E-01
DAV:   3    -0.191358029173E+03    0.17222E-02   -0.46912E-03 11720   0.502E-01    0.158E-01
DAV:   4    -0.191357870916E+03    0.15826E-03   -0.94894E-04  9640   0.200E-01    0.119E-01
DAV:   5    -0.191357777492E+03    0.93423E-04   -0.47379E-04  8280   0.161E-01
  21 F= -.19135778E+03 E0= -.19125836E+03  d E =-.654013E-02
       N       E                     dE             d eps       ncg     rms          rms(c)
DAV:   1    -0.191365683515E+03   -0.78126E-02   -0.17059E+00  8160   0.274E+00    0.252E-01
DAV:   2    -0.191369262023E+03   -0.35785E-02   -0.33708E-02 12240   0.652E-01    0.432E-01
DAV:   3    -0.191368108176E+03    0.11538E-02   -0.79193E-03 12640   0.634E-01    0.333E-01
DAV:   4    -0.191367330938E+03    0.77724E-03   -0.29089E-03 11040   0.347E-01    0.155E-01
DAV:   5    -0.191366952066E+03    0.37887E-03   -0.10139E-03 10240   0.152E-01    0.911E-02
DAV:   6    -0.191367284092E+03   -0.33203E-03   -0.11062E-03 10040   0.231E-01    0.199E-01
DAV:   7    -0.191366879313E+03    0.40478E-03   -0.61756E-04  8160   0.171E-01    0.154E-02
DAV:   8    -0.191366898441E+03   -0.19128E-04   -0.30955E-05  5560   0.269E-02
  22 F= -.19136690E+03 E0= -.19126849E+03  d E =-.912095E-02
       N       E                     dE             d eps       ncg     rms          rms(c)
DAV:   1    -0.191353262193E+03    0.13617E-01   -0.14684E+00  8160   0.256E+00    0.237E-01
DAV:   2    -0.191355186372E+03   -0.19242E-02   -0.28191E-02 12240   0.488E-01    0.260E-01
DAV:   3    -0.191355843417E+03   -0.65705E-03   -0.58966E-03 12800   0.511E-01    0.398E-01
DAV:   4    -0.191354561589E+03    0.12818E-02   -0.35743E-03 11040   0.395E-01    0.152E-01
DAV:   5    -0.191354305727E+03    0.25586E-03   -0.10453E-03  9840   0.169E-01    0.107E-01
DAV:   6    -0.191354466067E+03   -0.16034E-03   -0.88752E-04 10600   0.213E-01    0.155E-01
DAV:   7    -0.191354228270E+03    0.23780E-03   -0.48867E-04  8240   0.155E-01    0.531E-02
DAV:   8    -0.191354208562E+03    0.19708E-04   -0.89456E-05  5560   0.709E-02
  23 F= -.19135421E+03 E0= -.19125520E+03  d E =0.126899E-01
       N       E                     dE             d eps       ncg     rms          rms(c)
DAV:   1    -0.191356734185E+03   -0.25059E-02   -0.50790E-01  8160   0.151E+00    0.174E-01
DAV:   2    -0.191358256617E+03   -0.15224E-02   -0.14685E-02 13440   0.427E-01    0.333E-01
DAV:   3    -0.191357490754E+03    0.76586E-03   -0.44688E-03 11840   0.453E-01    0.218E-01
DAV:   4    -0.191357129619E+03    0.36114E-03   -0.12693E-03  9520   0.220E-01    0.119E-01
DAV:   5    -0.191357064087E+03    0.65532E-04   -0.62226E-04  8360   0.183E-01
  24 F= -.19135706E+03 E0= -.19125779E+03  d E =-.285552E-02
       N       E                     dE             d eps       ncg     rms          rms(c)
DAV:   1    -0.191368060972E+03   -0.10931E-01   -0.64898E-01  8160   0.174E+00    0.277E-01
DAV:   2    -0.191371860776E+03   -0.37998E-02   -0.26208E-02 13320   0.859E-01    0.647E-01
DAV:   3    -0.191367825177E+03    0.40356E-02   -0.10545E-02 11360   0.765E-01    0.241E-01
DAV:   4    -0.191367983357E+03   -0.15818E-03   -0.36120E-03 11440   0.397E-01    0.307E-01
DAV:   5    -0.191367220430E+03    0.76293E-03   -0.29612E-03  9760   0.365E-01    0.159E-01
DAV:   6    -0.191366916727E+03    0.30370E-03   -0.99829E-04  9520   0.159E-01    0.642E-02
DAV:   7    -0.191366962800E+03   -0.46073E-04   -0.39123E-04  7960   0.132E-01
  25 F= -.19136696E+03 E0= -.19126662E+03  d E =-.989871E-02
       N       E                     dE             d eps       ncg     rms          rms(c)
DAV:   1    -0.191376960952E+03   -0.10044E-01   -0.29809E-01  8160   0.118E+00    0.144E-01
DAV:   2    -0.191378259050E+03   -0.12981E-02   -0.10267E-02 13440   0.385E-01    0.288E-01
DAV:   3    -0.191377556464E+03    0.70259E-03   -0.35079E-03 11600   0.401E-01    0.183E-01
DAV:   4    -0.191377325592E+03    0.23087E-03   -0.10697E-03  9080   0.198E-01    0.108E-01
DAV:   5    -0.191377270498E+03    0.55094E-04   -0.45957E-04  8000   0.154E-01
  26 F= -.19137727E+03 E0= -.19127697E+03  d E =-.103077E-01
       N       E                     dE             d eps       ncg     rms          rms(c)
DAV:   1    -0.191380794536E+03   -0.34689E-02   -0.18930E-01  8160   0.951E-01    0.125E-01
DAV:   2    -0.191381084276E+03   -0.28974E-03   -0.58905E-03 12200   0.247E-01    0.159E-01
DAV:   3    -0.191381183899E+03   -0.99624E-04   -0.19220E-03 10320   0.292E-01    0.208E-01
DAV:   4    -0.191380803746E+03    0.38015E-03   -0.99179E-04  8400   0.199E-01    0.795E-02
DAV:   5    -0.191380812732E+03   -0.89866E-05   -0.37818E-04  7880   0.135E-01
  27 F= -.19138081E+03 E0= -.19128025E+03  d E =-.354223E-02
       N       E                     dE             d eps       ncg     rms          rms(c)
DAV:   1    -0.191370673090E+03    0.10131E-01   -0.18875E+00  8160   0.297E+00    0.399E-01
DAV:   2    -0.191378008411E+03   -0.73353E-02   -0.59332E-02 13600   0.108E+00    0.888E-01
DAV:   3    -0.191371816430E+03    0.61920E-02   -0.25698E-02 12280   0.109E+00    0.433E-01
DAV:   4    -0.191370238572E+03    0.15779E-02   -0.64021E-03 10800   0.458E-01    0.236E-01
DAV:   5    -0.191370193280E+03    0.45292E-04   -0.37694E-03 11120   0.405E-01    0.298E-01
DAV:   6    -0.191369462547E+03    0.73073E-03   -0.25070E-03 10800   0.352E-01    0.141E-01
DAV:   7    -0.191369438867E+03    0.23680E-04   -0.96964E-04  9080   0.198E-01
  28 F= -.19136944E+03 E0= -.19126870E+03  d E =0.113739E-01
       N       E                     dE             d eps       ncg     rms          rms(c)
DAV:   1    -0.191415323065E+03   -0.45861E-01   -0.77184E+00  8160   0.605E+00    0.836E-01
DAV:   2    -0.191450965004E+03   -0.35642E-01   -0.26508E-01 13520   0.240E+00    0.196E+00
DAV:   3    -0.191420061821E+03    0.30903E-01   -0.12339E-01 12240   0.234E+00    0.855E-01
DAV:   4    -0.191415911940E+03    0.41499E-02   -0.32641E-02 12000   0.109E+00    0.721E-01
DAV:   5    -0.191412830186E+03    0.30818E-02   -0.20179E-02 12160   0.102E+00    0.587E-01
DAV:   6    -0.191409755687E+03    0.30745E-02   -0.11140E-02 11600   0.682E-01    0.316E-01
DAV:   7    -0.191409656968E+03    0.98719E-04   -0.53527E-03 11000   0.513E-01    0.309E-01
DAV:   8    -0.191408640152E+03    0.10168E-02   -0.19587E-03 10120   0.313E-01    0.645E-02
DAV:   9    -0.191408580555E+03    0.59597E-04   -0.23921E-04  7880   0.661E-02
  29 F= -.19140858E+03 E0= -.19130868E+03  d E =-.391417E-01
       N       E                     dE             d eps       ncg     rms          rms(c)
DAV:   1    -0.191430858122E+03   -0.22218E-01   -0.12612E+00  8160   0.241E+00    0.278E-01
DAV:   2    -0.191436330072E+03   -0.54720E-02   -0.40136E-02 13600   0.820E-01    0.605E-01
DAV:   3    -0.191433159046E+03    0.31710E-02   -0.13086E-02 12280   0.793E-01    0.320E-01
DAV:   4    -0.191432540856E+03    0.61819E-03   -0.33802E-03 10920   0.354E-01    0.211E-01
DAV:   5    -0.191432202530E+03    0.33833E-03   -0.15239E-03 10000   0.284E-01    0.163E-01
DAV:   6    -0.191432005489E+03    0.19704E-03   -0.86491E-04  8840   0.200E-01    0.965E-02
DAV:   7    -0.191432156190E+03   -0.15070E-03   -0.74330E-04  9160   0.192E-01    0.151E-01
DAV:   8    -0.191431910800E+03    0.24539E-03   -0.41931E-04  8240   0.150E-01    0.217E-02
DAV:   9    -0.191431917146E+03   -0.63465E-05   -0.35893E-05  5640   0.279E-02
  30 F= -.19143192E+03 E0= -.19133249E+03  d E =-.233366E-01
       N       E                     dE             d eps       ncg     rms          rms(c)
DAV:   1    -0.191406812949E+03    0.25098E-01   -0.20338E+00  8160   0.304E+00    0.357E-01
DAV:   2    -0.191415330875E+03   -0.85179E-02   -0.62966E-02 13600   0.113E+00    0.765E-01
DAV:   3    -0.191409485920E+03    0.58450E-02   -0.18261E-02 12240   0.973E-01    0.353E-01
DAV:   4    -0.191409105292E+03    0.38063E-03   -0.56751E-03 11320   0.474E-01    0.328E-01
DAV:   5    -0.191408250266E+03    0.85503E-03   -0.31488E-03 10560   0.409E-01    0.200E-01
DAV:   6    -0.191407923299E+03    0.32697E-03   -0.13950E-03 10120   0.234E-01    0.108E-01
DAV:   7    -0.191408105949E+03   -0.18265E-03   -0.10669E-03 10080   0.223E-01    0.176E-01
DAV:   8    -0.191407785219E+03    0.32073E-03   -0.54740E-04  8200   0.169E-01    0.288E-02
DAV:   9    -0.191407790537E+03   -0.53183E-05   -0.38806E-05  5720   0.300E-02
  31 F= -.19140779E+03 E0= -.19130856E+03  d E =0.241266E-01
       N       E                     dE             d eps       ncg     rms          rms(c)
DAV:   1    -0.191454047411E+03   -0.46262E-01   -0.50958E+00  8160   0.490E+00    0.631E-01
DAV:   2    -0.191482798750E+03   -0.28751E-01   -0.18869E-01 13560   0.200E+00    0.153E+00
DAV:   3    -0.191461525316E+03    0.21273E-01   -0.70867E-02 12240   0.186E+00    0.623E-01
DAV:   4    -0.191459630837E+03    0.18945E-02   -0.16819E-02 11560   0.808E-01    0.535E-01
DAV:   5    -0.191457309338E+03    0.23215E-02   -0.89790E-03 11520   0.701E-01    0.367E-01
DAV:   6    -0.191456227333E+03    0.10820E-02   -0.48454E-03 11160   0.447E-01    0.231E-01
DAV:   7    -0.191456597732E+03   -0.37040E-03   -0.37646E-03 11640   0.429E-01    0.298E-01
DAV:   8    -0.191455635375E+03    0.96236E-03   -0.16772E-03  9520   0.290E-01    0.472E-02
DAV:   9    -0.191455612531E+03    0.22844E-04   -0.11538E-04  6000   0.500E-02
  32 F= -.19145561E+03 E0= -.19135729E+03  d E =-.478220E-01
       N       E                     dE             d eps       ncg     rms          rms(c)
DAV:   1    -0.191461717701E+03   -0.60823E-02   -0.17692E-01  8160   0.901E-01    0.102E-01
DAV:   2    -0.191462496778E+03   -0.77908E-03   -0.50184E-03 13600   0.313E-01    0.248E-01
DAV:   3    -0.191461921148E+03    0.57563E-03   -0.16633E-03 10880   0.294E-01    0.976E-02
DAV:   4    -0.191461882613E+03    0.38534E-04   -0.36819E-04  7960   0.111E-01
  33 F= -.19146188E+03 E0= -.19136414E+03  d E =-.627008E-02
       N       E                     dE             d eps       ncg     rms          rms(c)
DAV:   1    -0.191492679468E+03   -0.30758E-01   -0.19038E+00  8160   0.296E+00    0.347E-01
DAV:   2    -0.191502528248E+03   -0.98488E-02   -0.60870E-02 13600   0.101E+00    0.889E-01
DAV:   3    -0.191495634406E+03    0.68938E-02   -0.23270E-02 12200   0.103E+00    0.366E-01
DAV:   4    -0.191494830699E+03    0.80371E-03   -0.45745E-03 11080   0.380E-01    0.248E-01
DAV:   5    -0.191494516631E+03    0.31407E-03   -0.26946E-03 11160   0.371E-01    0.236E-01
DAV:   6    -0.191494043336E+03    0.47329E-03   -0.15645E-03 10400   0.272E-01    0.102E-01
DAV:   7    -0.191494096674E+03   -0.53338E-04   -0.59369E-04 10000   0.161E-01
  34 F= -.19149410E+03 E0= -.19139824E+03  d E =-.322141E-01
       N       E                     dE             d eps       ncg     rms          rms(c)
DAV:   1    -0.191472970421E+03    0.21073E-01   -0.87601E-01  8160   0.200E+00    0.216E-01
DAV:   2    -0.191476736898E+03   -0.37665E-02   -0.25884E-02 13480   0.645E-01    0.508E-01
DAV:   3    -0.191474343845E+03    0.23931E-02   -0.78045E-03 11560   0.617E-01    0.227E-01
DAV:   4    -0.191474092441E+03    0.25140E-03   -0.17512E-03 10560   0.257E-01    0.169E-01
DAV:   5    -0.191473852601E+03    0.23984E-03   -0.86880E-04 10080   0.222E-01    0.111E-01
DAV:   6    -0.191473795608E+03    0.56994E-04   -0.51364E-04  8520   0.151E-01
  35 F= -.19147380E+03 E0= -.19137704E+03  d E =0.203011E-01
       N       E                     dE             d eps       ncg     rms          rms(c)
DAV:   1    -0.191451476788E+03    0.22376E-01   -0.28726E+00  8160   0.359E+00    0.382E-01
DAV:   2    -0.191457615497E+03   -0.61387E-02   -0.69196E-02 12400   0.842E-01    0.591E-01
DAV:   3    -0.191456066026E+03    0.15495E-02   -0.17903E-02 11480   0.909E-01    0.547E-01
DAV:   4    -0.191454107672E+03    0.19584E-02   -0.75605E-03 11880   0.554E-01    0.315E-01
DAV:   5    -0.191453312171E+03    0.79550E-03   -0.30636E-03 11120   0.428E-01    0.207E-01
DAV:   6    -0.191453069680E+03    0.24249E-03   -0.17246E-03 10680   0.276E-01    0.126E-01
DAV:   7    -0.191452967232E+03    0.10245E-03   -0.84519E-04 10800   0.184E-01    0.118E-01
DAV:   8    -0.191452833308E+03    0.13392E-03   -0.33694E-04  8360   0.140E-01    0.414E-02
DAV:   9    -0.191452815088E+03    0.18221E-04   -0.41054E-05  6080   0.398E-02
  36 F= -.19145282E+03 E0= -.19135592E+03  d E =0.209805E-01
       N       E                     dE             d eps       ncg     rms          rms(c)
DAV:   1    -0.191488726480E+03   -0.35893E-01   -0.30441E+00  8160   0.375E+00    0.438E-01
DAV:   2    -0.191503962469E+03   -0.15236E-01   -0.10444E-01 13200   0.134E+00    0.102E+00
DAV:   3    -0.191494336550E+03    0.96259E-02   -0.30519E-02 12440   0.128E+00    0.450E-01
DAV:   4    -0.191492738036E+03    0.15985E-02   -0.63699E-03 11040   0.466E-01    0.249E-01
DAV:   5    -0.191492459041E+03    0.27900E-03   -0.35943E-03 11360   0.393E-01    0.286E-01
DAV:   6    -0.191491925894E+03    0.53315E-03   -0.24615E-03 10360   0.349E-01    0.149E-01
DAV:   7    -0.191491745141E+03    0.18075E-03   -0.72443E-04 10160   0.162E-01    0.692E-02
DAV:   8    -0.191491695047E+03    0.50093E-04   -0.15810E-04  7480   0.105E-01
  37 F= -.19149170E+03 E0= -.19139713E+03  d E =-.388800E-01
       N       E                     dE             d eps       ncg     rms          rms(c)
DAV:   1    -0.191498258364E+03   -0.65132E-02   -0.20829E-01  8160   0.979E-01    0.111E-01
DAV:   2    -0.191499024513E+03   -0.76615E-03   -0.57448E-03 13600   0.318E-01    0.237E-01
DAV:   3    -0.191498506228E+03    0.51828E-03   -0.16032E-03 11080   0.308E-01    0.110E-01
DAV:   4    -0.191498439809E+03    0.66419E-04   -0.40877E-04  8320   0.131E-01
  38 F= -.19149844E+03 E0= -.19140446E+03  d E =-.674476E-02
       N       E                     dE             d eps       ncg     rms          rms(c)
DAV:   1    -0.191518706636E+03   -0.20200E-01   -0.17340E+00  8160   0.279E+00    0.312E-01
DAV:   2    -0.191527954340E+03   -0.92477E-02   -0.51646E-02 13520   0.990E-01    0.863E-01
DAV:   3    -0.191521021435E+03    0.69329E-02   -0.19512E-02 11600   0.960E-01    0.292E-01
DAV:   4    -0.191520934516E+03    0.86919E-04   -0.34152E-03 11160   0.380E-01    0.279E-01
DAV:   5    -0.191520226206E+03    0.70831E-03   -0.19807E-03 10160   0.345E-01    0.152E-01
DAV:   6    -0.191520117443E+03    0.10876E-03   -0.96947E-04 10160   0.202E-01    0.115E-01
DAV:   7    -0.191520194865E+03   -0.77422E-04   -0.77210E-04  9960   0.216E-01
  39 F= -.19152019E+03 E0= -.19142694E+03  d E =-.217551E-01
       N       E                     dE             d eps       ncg     rms          rms(c)
DAV:   1    -0.191552539930E+03   -0.32422E-01   -0.18955E+00  8160   0.301E+00    0.367E-01
DAV:   2    -0.191560854540E+03   -0.83146E-02   -0.68159E-02 13400   0.105E+00    0.781E-01
DAV:   3    -0.191556023820E+03    0.48307E-02   -0.20041E-02 12400   0.102E+00    0.401E-01
DAV:   4    -0.191554680465E+03    0.13434E-02   -0.48309E-03 11240   0.416E-01    0.237E-01
DAV:   5    -0.191554456667E+03    0.22380E-03   -0.27578E-03 11000   0.379E-01    0.242E-01
DAV:   6    -0.191554020312E+03    0.43635E-03   -0.17476E-03 10400   0.294E-01    0.111E-01
DAV:   7    -0.191553854067E+03    0.16625E-03   -0.48876E-04  9400   0.108E-01    0.306E-02
DAV:   8    -0.191553845376E+03    0.86909E-05   -0.68647E-05  7520   0.457E-02
  40 F= -.19155385E+03 E0= -.19146270E+03  d E =-.336505E-01
       N       E                     dE             d eps       ncg     rms          rms(c)
DAV:   1    -0.191551799252E+03    0.20548E-02   -0.35561E-02  8160   0.421E-01    0.630E-02
DAV:   2    -0.191551988339E+03   -0.18909E-03   -0.12881E-03 13480   0.177E-01    0.135E-01
DAV:   3    -0.191551788162E+03    0.20018E-03   -0.49317E-04  8840   0.180E-01    0.569E-02
DAV:   4    -0.191551783548E+03    0.46139E-05   -0.12533E-04  5480   0.825E-02
  41 F= -.19155178E+03 E0= -.19146051E+03  d E =0.206183E-02
       N       E                     dE             d eps       ncg     rms          rms(c)
DAV:   1    -0.191587623123E+03   -0.35835E-01   -0.24792E+00  8160   0.338E+00    0.381E-01
DAV:   2    -0.191599536838E+03   -0.11914E-01   -0.79572E-02 13040   0.125E+00    0.894E-01
DAV:   3    -0.191591543884E+03    0.79930E-02   -0.20189E-02 12080   0.111E+00    0.345E-01
DAV:   4    -0.191591085199E+03    0.45869E-03   -0.47586E-03 10920   0.448E-01    0.299E-01
DAV:   5    -0.191590363352E+03    0.72185E-03   -0.32673E-03 10160   0.415E-01    0.202E-01
DAV:   6    -0.191590204119E+03    0.15923E-03   -0.16114E-03 11320   0.270E-01    0.155E-01
DAV:   7    -0.191590199389E+03    0.47297E-05   -0.10796E-03  9920   0.259E-01    0.150E-01
DAV:   8    -0.191589903490E+03    0.29590E-03   -0.35475E-04  8080   0.146E-01    0.175E-02
DAV:   9    -0.191589910934E+03   -0.74445E-05   -0.42489E-05  6120   0.244E-02
  42 F= -.19158991E+03 E0= -.19150100E+03  d E =-.381274E-01
       N       E                     dE             d eps       ncg     rms          rms(c)
DAV:   1    -0.191585633447E+03    0.42700E-02   -0.45411E-02  8160   0.451E-01    0.467E-02
DAV:   2    -0.191585762280E+03   -0.12883E-03   -0.11437E-03 13080   0.132E-01    0.896E-02
DAV:   3    -0.191585694262E+03    0.68018E-04   -0.28401E-04  7200   0.127E-01
  43 F= -.19158569E+03 E0= -.19149646E+03  d E =0.421667E-02
       N       E                     dE             d eps       ncg     rms          rms(c)
DAV:   1    -0.191585800016E+03   -0.37736E-04   -0.21930E+00  8160   0.320E+00    0.472E-01
DAV:   2    -0.191588107728E+03   -0.23077E-02   -0.61995E-02 12880   0.954E-01    0.657E-01
DAV:   3    -0.191586815039E+03    0.12927E-02   -0.23380E-02 12240   0.116E+00    0.634E-01
DAV:   4    -0.191582858740E+03    0.39563E-02   -0.93073E-03 11760   0.717E-01    0.267E-01
DAV:   5    -0.191582824496E+03    0.34244E-04   -0.48321E-03 10640   0.449E-01    0.340E-01
DAV:   6    -0.191581843155E+03    0.98134E-03   -0.37909E-03 11240   0.432E-01    0.171E-01
DAV:   7    -0.191581632926E+03    0.21023E-03   -0.10228E-03  9720   0.208E-01    0.103E-01
DAV:   8    -0.191581533833E+03    0.99093E-04   -0.27350E-04  7960   0.137E-01
  44 F= -.19158153E+03 E0= -.19149275E+03  d E =0.416043E-02
       N       E                     dE             d eps       ncg     rms          rms(c)
DAV:   1    -0.191573067387E+03    0.85655E-02   -0.27167E+00  8160   0.345E+00    0.346E-01
DAV:   2    -0.191580198164E+03   -0.71308E-02   -0.58792E-02 12760   0.106E+00    0.661E-01
DAV:   3    -0.191576198419E+03    0.39997E-02   -0.13696E-02 12520   0.897E-01    0.349E-01
DAV:   4    -0.191575674402E+03    0.52402E-03   -0.38937E-03 11520   0.446E-01    0.278E-01
DAV:   5    -0.191575168774E+03    0.50563E-03   -0.22065E-03 10800   0.401E-01    0.205E-01
DAV:   6    -0.191574946926E+03    0.22185E-03   -0.15344E-03 10680   0.271E-01    0.132E-01
DAV:   7    -0.191574985561E+03   -0.38634E-04   -0.93089E-04  9160   0.232E-01
  45 F= -.19157499E+03 E0= -.19148733E+03  d E =0.654827E-02
       N       E                     dE             d eps       ncg     rms          rms(c)
DAV:   1    -0.191604937887E+03   -0.29991E-01   -0.22006E+00  8160   0.319E+00    0.391E-01
DAV:   2    -0.191620718470E+03   -0.15781E-01   -0.77880E-02 13440   0.150E+00    0.109E+00
DAV:   3    -0.191607512653E+03    0.13206E-01   -0.22726E-02 11920   0.125E+00    0.260E-01
DAV:   4    -0.191607368678E+03    0.14398E-03   -0.34670E-03 11400   0.403E-01    0.264E-01
DAV:   5    -0.191606655070E+03    0.71361E-03   -0.22937E-03 12000   0.381E-01    0.160E-01
DAV:   6    -0.191606630830E+03    0.24240E-04   -0.11546E-03 10520   0.225E-01    0.146E-01
DAV:   7    -0.191606589779E+03    0.41051E-04   -0.94613E-04 10200   0.241E-01
  46 F= -.19160659E+03 E0= -.19152097E+03  d E =-.316042E-01
       N       E                     dE             d eps       ncg     rms          rms(c)
DAV:   1    -0.191633773057E+03   -0.27142E-01   -0.20637E+00  8160   0.310E+00    0.354E-01
DAV:   2    -0.191641693849E+03   -0.79208E-02   -0.74882E-02 12960   0.102E+00    0.664E-01
DAV:   3    -0.191638641521E+03    0.30523E-02   -0.14356E-02 12120   0.947E-01    0.399E-01
DAV:   4    -0.191637088131E+03    0.15534E-02   -0.37313E-03 11240   0.416E-01    0.198E-01
DAV:   5    -0.191636894786E+03    0.19335E-03   -0.18655E-03 10560   0.335E-01    0.182E-01
DAV:   6    -0.191636822055E+03    0.72731E-04   -0.13802E-03 10400   0.276E-01    0.141E-01
DAV:   7    -0.191636593142E+03    0.22891E-03   -0.68910E-04 10040   0.189E-01    0.854E-02
DAV:   8    -0.191636516944E+03    0.76197E-04   -0.15063E-04  7200   0.107E-01
  47 F= -.19163652E+03 E0= -.19155251E+03  d E =-.299272E-01
       N       E                     dE             d eps       ncg     rms          rms(c)
DAV:   1    -0.191674716199E+03   -0.38123E-01   -0.58618E+00  8160   0.519E+00    0.563E-01
DAV:   2    -0.191694520464E+03   -0.19804E-01   -0.20001E-01 12400   0.162E+00    0.904E-01
DAV:   3    -0.191687748609E+03    0.67719E-02   -0.29932E-02 11360   0.143E+00    0.574E-01
DAV:   4    -0.191684707069E+03    0.30415E-02   -0.81601E-03 12240   0.711E-01    0.344E-01
DAV:   5    -0.191683947177E+03    0.75989E-03   -0.48989E-03 10560   0.555E-01    0.277E-01
DAV:   6    -0.191683683056E+03    0.26412E-03   -0.28096E-03 12360   0.363E-01    0.198E-01
DAV:   7    -0.191683335255E+03    0.34780E-03   -0.16505E-03 11280   0.300E-01    0.172E-01
DAV:   8    -0.191683011695E+03    0.32356E-03   -0.53052E-04  8480   0.184E-01    0.325E-02
DAV:   9    -0.191683011176E+03    0.51931E-06   -0.68466E-05  5920   0.395E-02
  48 F= -.19168301E+03 E0= -.19160108E+03  d E =-.464942E-01
       N       E                     dE             d eps       ncg     rms          rms(c)
DAV:   1    -0.191690274214E+03   -0.72625E-02   -0.19715E-01  8160   0.974E-01    0.149E-01
DAV:   2    -0.191690734213E+03   -0.46000E-03   -0.86385E-03 12080   0.357E-01    0.210E-01
DAV:   3    -0.191690557961E+03    0.17625E-03   -0.19990E-03 11320   0.366E-01    0.185E-01
DAV:   4    -0.191690186774E+03    0.37119E-03   -0.78728E-04  8960   0.222E-01    0.869E-02
DAV:   5    -0.191690199360E+03   -0.12586E-04   -0.46696E-04  8400   0.166E-01
  49 F= -.19169020E+03 E0= -.19160805E+03  d E =-.718818E-02
       N       E                     dE             d eps       ncg     rms          rms(c)
DAV:   1    -0.191710088449E+03   -0.19902E-01   -0.15714E+00  8160   0.269E+00    0.305E-01
DAV:   2    -0.191713611175E+03   -0.35227E-02   -0.52608E-02 11880   0.703E-01    0.346E-01
DAV:   3    -0.191714084156E+03   -0.47298E-03   -0.88049E-03 11720   0.749E-01    0.423E-01
DAV:   4    -0.191711892626E+03    0.21915E-02   -0.29334E-03 11240   0.450E-01    0.110E-01
DAV:   5    -0.191712133419E+03   -0.24079E-03   -0.12685E-03 10120   0.271E-01    0.187E-01
DAV:   6    -0.191711799425E+03    0.33399E-03   -0.85535E-04 10120   0.255E-01    0.886E-02
DAV:   7    -0.191711718128E+03    0.81297E-04   -0.29003E-04  7600   0.121E-01
  50 F= -.19171172E+03 E0= -.19162996E+03  d E =-.215188E-01
       N       E                     dE             d eps       ncg     rms          rms(c)
DAV:   1    -0.191724304159E+03   -0.12505E-01   -0.66762E-01  8160   0.175E+00    0.210E-01
DAV:   2    -0.191726501961E+03   -0.21978E-02   -0.25495E-02 11360   0.638E-01    0.318E-01
DAV:   3    -0.191725659758E+03    0.84220E-03   -0.41511E-03 12000   0.517E-01    0.195E-01
DAV:   4    -0.191725251477E+03    0.40828E-03   -0.10291E-03 10200   0.256E-01    0.114E-01
DAV:   5    -0.191725242107E+03    0.93704E-05   -0.68824E-04  9400   0.210E-01
  51 F= -.19172524E+03 E0= -.19164440E+03  d E =-.135240E-01
       N       E                     dE             d eps       ncg     rms          rms(c)
DAV:   1    -0.191747508187E+03   -0.22257E-01   -0.33064E+00  8160   0.386E+00    0.411E-01
DAV:   2    -0.191756236536E+03   -0.87283E-02   -0.10883E-01 11840   0.109E+00    0.516E-01
DAV:   3    -0.191755242453E+03    0.99408E-03   -0.15048E-02 11880   0.967E-01    0.454E-01
DAV:   4    -0.191752784121E+03    0.24583E-02   -0.44417E-03 11360   0.550E-01    0.193E-01
DAV:   5    -0.191753032606E+03   -0.24848E-03   -0.24351E-03 10480   0.411E-01    0.258E-01
DAV:   6    -0.191752483587E+03    0.54902E-03   -0.16795E-03 11360   0.331E-01    0.113E-01
DAV:   7    -0.191752297819E+03    0.18577E-03   -0.51842E-04  9480   0.146E-01    0.701E-02
DAV:   8    -0.191752260677E+03    0.37142E-04   -0.15165E-04  7240   0.978E-02
  52 F= -.19175226E+03 E0= -.19167247E+03  d E =-.270186E-01
       N       E                     dE             d eps       ncg     rms          rms(c)
DAV:   1    -0.191754889012E+03   -0.25912E-02   -0.43038E-02  8160   0.505E-01    0.123E-01
DAV:   2    -0.191754821072E+03    0.67940E-04   -0.27018E-03 10240   0.250E-01    0.166E-01
DAV:   3    -0.191754630635E+03    0.19044E-03   -0.10287E-03 10240   0.285E-01    0.121E-01
DAV:   4    -0.191754453508E+03    0.17713E-03   -0.43344E-04  8880   0.171E-01    0.757E-02
DAV:   5    -0.191754456619E+03   -0.31103E-05   -0.30567E-04  8600   0.147E-01
  53 F= -.19175446E+03 E0= -.19167427E+03  d E =-.219594E-02
       N       E                     dE             d eps       ncg     rms          rms(c)
DAV:   1    -0.191768742355E+03   -0.14289E-01   -0.12171E+00  8160   0.236E+00    0.264E-01
DAV:   2    -0.191771125297E+03   -0.23829E-02   -0.39395E-02 11640   0.572E-01    0.258E-01
DAV:   3    -0.191771863076E+03   -0.73778E-03   -0.58995E-03 11840   0.580E-01    0.389E-01
DAV:   4    -0.191770194061E+03    0.16690E-02   -0.27567E-03 11480   0.430E-01    0.118E-01
DAV:   5    -0.191770240973E+03   -0.46911E-04   -0.97337E-04  9920   0.226E-01
  54 F= -.19177024E+03 E0= -.19169043E+03  d E =-.157844E-01
       N       E                     dE             d eps       ncg     rms          rms(c)
DAV:   1    -0.191777367761E+03   -0.71737E-02   -0.31662E-01  8160   0.121E+00    0.165E-01
DAV:   2    -0.191779066032E+03   -0.16983E-02   -0.11885E-02 11360   0.528E-01    0.344E-01
DAV:   3    -0.191777698193E+03    0.13678E-02   -0.27642E-03 11240   0.453E-01    0.117E-01
DAV:   4    -0.191777685214E+03    0.12978E-04   -0.59592E-04  8840   0.187E-01
  55 F= -.19177769E+03 E0= -.19169852E+03  d E =-.744424E-02
       N       E                     dE             d eps       ncg     rms          rms(c)
DAV:   1    -0.191791031728E+03   -0.13334E-01   -0.13190E+00  8160   0.244E+00    0.263E-01
DAV:   2    -0.191793283068E+03   -0.22513E-02   -0.39254E-02 11840   0.548E-01    0.176E-01
DAV:   3    -0.191793769577E+03   -0.48651E-03   -0.34131E-03 12480   0.390E-01    0.292E-01
DAV:   4    -0.191792911283E+03    0.85829E-03   -0.19334E-03 10760   0.396E-01    0.148E-01
DAV:   5    -0.191792781747E+03    0.12954E-03   -0.97636E-04 10200   0.186E-01    0.870E-02
DAV:   6    -0.191792779876E+03    0.18709E-05   -0.56393E-04  9560   0.160E-01
  56 F= -.19179278E+03 E0= -.19171478E+03  d E =-.150947E-01
       N       E                     dE             d eps       ncg     rms          rms(c)
DAV:   1    -0.191801155746E+03   -0.83740E-02   -0.49647E-01  8160   0.151E+00    0.166E-01
DAV:   2    -0.191802205193E+03   -0.10494E-02   -0.16718E-02 12040   0.378E-01    0.140E-01
DAV:   3    -0.191802395836E+03   -0.19064E-03   -0.17370E-03 12360   0.320E-01    0.194E-01
DAV:   4    -0.191801967443E+03    0.42839E-03   -0.90768E-04 11360   0.260E-01    0.874E-02
DAV:   5    -0.191801943579E+03    0.23864E-04   -0.35607E-04  8160   0.133E-01
  57 F= -.19180194E+03 E0= -.19172430E+03  d E =-.916370E-02
       N       E                     dE             d eps       ncg     rms          rms(c)
DAV:   1    -0.191807725502E+03   -0.57581E-02   -0.21918E-01  8160   0.100E+00    0.120E-01
DAV:   2    -0.191808607335E+03   -0.88183E-03   -0.69665E-03 11960   0.337E-01    0.224E-01
DAV:   3    -0.191808086463E+03    0.52087E-03   -0.13720E-03 11120   0.328E-01    0.108E-01
DAV:   4    -0.191808047503E+03    0.38959E-04   -0.34030E-04  8360   0.143E-01
  58 F= -.19180805E+03 E0= -.19173094E+03  d E =-.610392E-02
       N       E                     dE             d eps       ncg     rms          rms(c)
DAV:   1    -0.191816498478E+03   -0.84120E-02   -0.48529E-01  8160   0.148E+00    0.166E-01
DAV:   2    -0.191817743890E+03   -0.12454E-02   -0.14101E-02 12160   0.423E-01    0.235E-01
DAV:   3    -0.191817375448E+03    0.36844E-03   -0.24148E-03 12160   0.391E-01    0.168E-01
DAV:   4    -0.191817137180E+03    0.23827E-03   -0.70845E-04  9880   0.205E-01    0.970E-02
DAV:   5    -0.191817138268E+03   -0.10875E-05   -0.41112E-04 10040   0.191E-01
  59 F= -.19181714E+03 E0= -.19174075E+03  d E =-.909076E-02
       N       E                     dE             d eps       ncg     rms          rms(c)
DAV:   1    -0.191816612530E+03    0.52465E-03   -0.15505E-03  9960   0.148E-01    0.434E-02
DAV:   2    -0.191816852620E+03   -0.24009E-03   -0.59668E-04 10680   0.171E-01    0.137E-01
DAV:   3    -0.191816600668E+03    0.25195E-03   -0.34631E-04  8360   0.167E-01    0.404E-02
DAV:   4    -0.191816583077E+03    0.17591E-04   -0.37652E-05  5640   0.453E-02
  60 F= -.19181658E+03 E0= -.19174022E+03  d E =0.555191E-03
       N       E                     dE             d eps       ncg     rms          rms(c)
DAV:   1    -0.191819878339E+03   -0.32777E-02   -0.84879E-02  8160   0.631E-01    0.919E-02
DAV:   2    -0.191820457836E+03   -0.57950E-03   -0.35304E-03 11960   0.318E-01    0.227E-01
DAV:   3    -0.191819914310E+03    0.54353E-03   -0.10979E-03 10360   0.272E-01    0.628E-02
DAV:   4    -0.191819870268E+03    0.44042E-04   -0.12646E-04  5960   0.779E-02
  61 F= -.19181987E+03 E0= -.19174358E+03  d E =-.328719E-02
       N       E                     dE             d eps       ncg     rms          rms(c)
DAV:   1    -0.191825742753E+03   -0.58284E-02   -0.23418E-01  8160   0.104E+00    0.156E-01
DAV:   2    -0.191828217425E+03   -0.24747E-02   -0.11288E-02 12040   0.641E-01    0.446E-01
DAV:   3    -0.191825864228E+03    0.23532E-02   -0.36634E-03 11440   0.499E-01    0.864E-02
DAV:   4    -0.191825939236E+03   -0.75008E-04   -0.43838E-04  8360   0.177E-01
  62 F= -.19182594E+03 E0= -.19175046E+03  d E =-.606897E-02
       N       E                     dE             d eps       ncg     rms          rms(c)
DAV:   1    -0.191816462002E+03    0.94022E-02   -0.46548E-01  8160   0.145E+00    0.163E-01
DAV:   2    -0.191818810913E+03   -0.23489E-02   -0.15342E-02 12440   0.616E-01    0.381E-01
DAV:   3    -0.191817060702E+03    0.17502E-02   -0.32295E-03 11640   0.485E-01    0.924E-02
DAV:   4    -0.191817043472E+03    0.17230E-04   -0.42575E-04  8800   0.149E-01
  63 F= -.19181704E+03 E0= -.19174028E+03  d E =0.889576E-02
       N       E                     dE             d eps       ncg     rms          rms(c)
DAV:   1    -0.191799530488E+03    0.17530E-01   -0.25004E+00  8160   0.339E+00    0.424E-01
DAV:   2    -0.191803344437E+03   -0.38139E-02   -0.72724E-02 11920   0.997E-01    0.499E-01
DAV:   3    -0.191801795684E+03    0.15488E-02   -0.15323E-02 12480   0.912E-01    0.411E-01
DAV:   4    -0.191800569440E+03    0.12262E-02   -0.60408E-03 12320   0.590E-01    0.301E-01
DAV:   5    -0.191799710801E+03    0.85864E-03   -0.33927E-03 11760   0.437E-01    0.235E-01
DAV:   6    -0.191799408055E+03    0.30275E-03   -0.18560E-03 11760   0.369E-01    0.150E-01
DAV:   7    -0.191799124842E+03    0.28321E-03   -0.53956E-04  8840   0.160E-01    0.416E-02
DAV:   8    -0.191799116133E+03    0.87088E-05   -0.10418E-04  6720   0.772E-02
  64 F= -.19179912E+03 E0= -.19171968E+03  d E =0.179273E-01
       N       E                     dE             d eps       ncg     rms          rms(c)
DAV:   1    -0.191795626695E+03    0.34981E-02   -0.12826E-01  8160   0.761E-01    0.772E-02
DAV:   2    -0.191795819223E+03   -0.19253E-03   -0.32739E-03 12080   0.150E-01    0.514E-02
DAV:   3    -0.191795837383E+03   -0.18160E-04   -0.25486E-04  7680   0.969E-02
  65 F= -.19179584E+03 E0= -.19171579E+03  d E =0.327875E-02
       N       E                     dE             d eps       ncg     rms          rms(c)
DAV:   1    -0.191789800006E+03    0.60192E-02   -0.14267E+00  8160   0.253E+00    0.297E-01
DAV:   2    -0.191795575365E+03   -0.57754E-02   -0.44665E-02 12240   0.102E+00    0.579E-01
DAV:   3    -0.191791858097E+03    0.37173E-02   -0.74779E-03 12080   0.776E-01    0.219E-01
DAV:   4    -0.191791724566E+03    0.13353E-03   -0.20519E-03 11240   0.355E-01    0.222E-01
DAV:   5    -0.191791357770E+03    0.36680E-03   -0.16567E-03 10360   0.329E-01    0.147E-01
DAV:   6    -0.191791237791E+03    0.11998E-03   -0.95093E-04 11320   0.196E-01    0.777E-02
DAV:   7    -0.191791157194E+03    0.80596E-04   -0.28633E-04  7280   0.109E-01
  66 F= -.19179116E+03 E0= -.19171051E+03  d E =0.468019E-02
       N       E                     dE             d eps       ncg     rms          rms(c)
DAV:   1    -0.191798874184E+03   -0.76364E-02   -0.72626E-01  8160   0.181E+00    0.214E-01
DAV:   2    -0.191803254807E+03   -0.43806E-02   -0.27863E-02 13000   0.837E-01    0.526E-01
DAV:   3    -0.191800212293E+03    0.30425E-02   -0.67382E-03 11960   0.676E-01    0.154E-01
DAV:   4    -0.191800024955E+03    0.18734E-03   -0.78883E-04 10000   0.192E-01    0.106E-01
DAV:   5    -0.191799980044E+03    0.44911E-04   -0.51791E-04 10680   0.195E-01
  67 F= -.19179998E+03 E0= -.19171989E+03  d E =-.882285E-02
       N       E                     dE             d eps       ncg     rms          rms(c)
DAV:   1    -0.191804210775E+03   -0.41858E-02   -0.18476E-01  8160   0.932E-01    0.122E-01
DAV:   2    -0.191804859040E+03   -0.64826E-03   -0.66912E-03 12040   0.296E-01    0.188E-01
DAV:   3    -0.191804555703E+03    0.30334E-03   -0.13495E-03 11640   0.301E-01    0.123E-01
DAV:   4    -0.191804440654E+03    0.11505E-03   -0.35977E-04  8680   0.155E-01    0.652E-02
DAV:   5    -0.191804414007E+03    0.26647E-04   -0.18460E-04  7040   0.103E-01
  68 F= -.19180441E+03 E0= -.19172508E+03  d E =-.443396E-02
       N       E                     dE             d eps       ncg     rms          rms(c)
DAV:   1    -0.191811297530E+03   -0.68569E-02   -0.57038E-01  8160   0.161E+00    0.180E-01
DAV:   2    -0.191812907410E+03   -0.16099E-02   -0.19430E-02 12240   0.460E-01    0.225E-01
DAV:   3    -0.191812592362E+03    0.31505E-03   -0.32530E-03 12520   0.422E-01    0.190E-01
DAV:   4    -0.191812290593E+03    0.30177E-03   -0.96932E-04 10280   0.246E-01    0.107E-01
DAV:   5    -0.191812202737E+03    0.87857E-04   -0.44071E-04  9400   0.166E-01
  69 F= -.19181220E+03 E0= -.19173384E+03  d E =-.778873E-02
       N       E                     dE             d eps       ncg     rms          rms(c)
DAV:   1    -0.191813927562E+03   -0.16370E-02   -0.28945E-02  8160   0.395E-01    0.806E-02
DAV:   2    -0.191814706055E+03   -0.77849E-03   -0.19939E-03 13200   0.324E-01    0.252E-01
DAV:   3    -0.191813894533E+03    0.81152E-03   -0.96590E-04  9920   0.287E-01    0.496E-02
DAV:   4    -0.191813914149E+03   -0.19616E-04   -0.10213E-04  5720   0.778E-02
  70 F= -.19181391E+03 E0= -.19173575E+03  d E =-.171141E-02
       N       E                     dE             d eps       ncg     rms          rms(c)
DAV:   1    -0.191820738627E+03   -0.68441E-02   -0.51292E-01  8160   0.152E+00    0.166E-01
DAV:   2    -0.191821910712E+03   -0.11721E-02   -0.14898E-02 12160   0.433E-01    0.211E-01
DAV:   3    -0.191821822622E+03    0.88090E-04   -0.20702E-03 12560   0.395E-01    0.198E-01
DAV:   4    -0.191821404576E+03    0.41805E-03   -0.69373E-04  9120   0.230E-01    0.868E-02
DAV:   5    -0.191821443546E+03   -0.38969E-04   -0.40949E-04  9160   0.168E-01
  71 F= -.19182144E+03 E0= -.19174398E+03  d E =-.752940E-02
       N       E                     dE             d eps       ncg     rms          rms(c)
DAV:   1    -0.191809899739E+03    0.11505E-01   -0.96065E-01  8160   0.209E+00    0.217E-01
DAV:   2    -0.191812512591E+03   -0.26129E-02   -0.29848E-02 12160   0.567E-01    0.299E-01
DAV:   3    -0.191812085854E+03    0.42674E-03   -0.55130E-03 12280   0.543E-01    0.269E-01
DAV:   4    -0.191811402050E+03    0.68380E-03   -0.15077E-03 10560   0.312E-01    0.110E-01
DAV:   5    -0.191811234673E+03    0.16738E-03   -0.57582E-04 10200   0.146E-01    0.671E-02
DAV:   6    -0.191811333454E+03   -0.98781E-04   -0.36204E-04 10080   0.166E-01
  72 F= -.19181133E+03 E0= -.19173285E+03  d E =0.101101E-01
       N       E                     dE             d eps       ncg     rms          rms(c)
DAV:   1    -0.191806655413E+03    0.45793E-02   -0.22591E-01  8160   0.102E+00    0.142E-01
DAV:   2    -0.191807023852E+03   -0.36844E-03   -0.76212E-03 11400   0.333E-01    0.172E-01
DAV:   3    -0.191806952253E+03    0.71599E-04   -0.14357E-03 12360   0.329E-01    0.164E-01
DAV:   4    -0.191806668680E+03    0.28357E-03   -0.55472E-04  8480   0.211E-01    0.836E-02
DAV:   5    -0.191806672029E+03   -0.33492E-05   -0.36284E-04  8240   0.151E-01
  73 F= -.19180667E+03 E0= -.19172815E+03  d E =0.466142E-02
       N       E                     dE             d eps       ncg     rms          rms(c)
DAV:   1    -0.191814986966E+03   -0.83183E-02   -0.86971E-01  8160   0.200E+00    0.209E-01
DAV:   2    -0.191817082181E+03   -0.20952E-02   -0.27835E-02 11920   0.489E-01    0.227E-01
DAV:   3    -0.191817194727E+03   -0.11255E-03   -0.44867E-03 12200   0.475E-01    0.285E-01
DAV:   4    -0.191816401184E+03    0.79354E-03   -0.15780E-03 10880   0.331E-01    0.106E-01
DAV:   5    -0.191816251586E+03    0.14960E-03   -0.49711E-04  9920   0.128E-01    0.585E-02
DAV:   6    -0.191816312406E+03   -0.60820E-04   -0.30382E-04  8720   0.138E-01
  74 F= -.19181631E+03 E0= -.19173858E+03  d E =-.964038E-02
       N       E                     dE             d eps       ncg     rms          rms(c)
DAV:   1    -0.191798653607E+03    0.17598E-01   -0.22442E+00  8160   0.320E+00    0.343E-01
DAV:   2    -0.191803420488E+03   -0.47669E-02   -0.67204E-02 12040   0.802E-01    0.394E-01
DAV:   3    -0.191803931570E+03   -0.51108E-03   -0.11106E-02 12200   0.816E-01    0.470E-01
DAV:   4    -0.191801416649E+03    0.25149E-02   -0.35963E-03 11480   0.508E-01    0.133E-01
DAV:   5    -0.191801386562E+03    0.30086E-04   -0.14619E-03 10280   0.218E-01    0.137E-01
DAV:   6    -0.191801413319E+03   -0.26757E-04   -0.10761E-03 11360   0.278E-01    0.151E-01
DAV:   7    -0.191801135025E+03    0.27829E-03   -0.44279E-04  8800   0.181E-01    0.345E-02
DAV:   8    -0.191801134281E+03    0.74354E-06   -0.63898E-05  5960   0.588E-02
  75 F= -.19180113E+03 E0= -.19172234E+03  d E =0.151781E-01
       N       E                     dE             d eps       ncg     rms          rms(c)
DAV:   1    -0.191821728497E+03   -0.20593E-01   -0.90130E+00  8160   0.641E+00    0.678E-01
DAV:   2    -0.191839283163E+03   -0.17555E-01   -0.26646E-01 12000   0.152E+00    0.641E-01
DAV:   3    -0.191843434469E+03   -0.41513E-02   -0.35520E-02 12360   0.147E+00    0.941E-01
DAV:   4    -0.191833847271E+03    0.95872E-02   -0.15798E-02 12320   0.111E+00    0.322E-01
DAV:   5    -0.191833429243E+03    0.41803E-03   -0.56952E-03 11520   0.473E-01    0.313E-01
DAV:   6    -0.191833430924E+03   -0.16816E-05   -0.55324E-03 12880   0.599E-01    0.305E-01
DAV:   7    -0.191832175635E+03    0.12553E-02   -0.23333E-03 11800   0.363E-01    0.786E-02
DAV:   8    -0.191832157383E+03    0.18253E-04   -0.33691E-04  9120   0.142E-01
  76 F= -.19183216E+03 E0= -.19175559E+03  d E =-.310231E-01
       N       E                     dE             d eps       ncg     rms          rms(c)
DAV:   1    -0.191827592800E+03    0.45828E-02   -0.18519E-01  8160   0.938E-01    0.112E-01
DAV:   2    -0.191827810489E+03   -0.21769E-03   -0.57105E-03 12080   0.207E-01    0.867E-02
DAV:   3    -0.191827952114E+03   -0.14162E-03   -0.90827E-04 11160   0.228E-01    0.156E-01
DAV:   4    -0.191827667046E+03    0.28507E-03   -0.45887E-04  8800   0.193E-01    0.514E-02
DAV:   5    -0.191827647810E+03    0.19236E-04   -0.13231E-04  5960   0.736E-02
  77 F= -.19182765E+03 E0= -.19175093E+03  d E =0.450957E-02
       N       E                     dE             d eps       ncg     rms          rms(c)
DAV:   1    -0.191829840688E+03   -0.21736E-02   -0.69641E-02  8160   0.581E-01    0.908E-02
DAV:   2    -0.191830609336E+03   -0.76865E-03   -0.33169E-03 12880   0.345E-01    0.251E-01
DAV:   3    -0.191829848044E+03    0.76129E-03   -0.12606E-03  9880   0.311E-01    0.597E-02
DAV:   4    -0.191829839765E+03    0.82790E-05   -0.13788E-04  5560   0.799E-02
  78 F= -.19182984E+03 E0= -.19175366E+03  d E =-.219196E-02
       N       E                     dE             d eps       ncg     rms          rms(c)
DAV:   1    -0.191827157491E+03    0.26906E-02   -0.58054E-01  8160   0.172E+00    0.307E-01
DAV:   2    -0.191827707470E+03   -0.54998E-03   -0.26524E-02 12440   0.592E-01    0.381E-01
DAV:   3    -0.191827354465E+03    0.35301E-03   -0.82946E-03 12280   0.751E-01    0.390E-01
DAV:   4    -0.191825594781E+03    0.17597E-02   -0.33766E-03 11360   0.461E-01    0.134E-01
DAV:   5    -0.191825549563E+03    0.45219E-04   -0.12436E-03 10520   0.265E-01    0.161E-01
DAV:   6    -0.191825270533E+03    0.27903E-03   -0.66889E-04 10240   0.226E-01    0.646E-02
DAV:   7    -0.191825242847E+03    0.27686E-04   -0.14604E-04  6080   0.974E-02
  79 F= -.19182524E+03 E0= -.19174743E+03  d E =0.459692E-02
       N       E                     dE             d eps       ncg     rms          rms(c)
DAV:   1    -0.191841252931E+03   -0.15982E-01   -0.20883E+00  8160   0.315E+00    0.444E-01
DAV:   2    -0.191841621913E+03   -0.36898E-03   -0.69761E-02 11400   0.709E-01    0.283E-01
DAV:   3    -0.191841433990E+03    0.18792E-03   -0.93560E-03 11320   0.527E-01    0.354E-01
DAV:   4    -0.191840852846E+03    0.58114E-03   -0.54288E-03 12280   0.661E-01    0.358E-01
DAV:   5    -0.191839518875E+03    0.13340E-02   -0.34478E-03 11840   0.438E-01    0.124E-01
DAV:   6    -0.191839409226E+03    0.10965E-03   -0.12315E-03 10480   0.201E-01    0.963E-02
DAV:   7    -0.191839346430E+03    0.62797E-04   -0.39428E-04 10200   0.163E-01
  80 F= -.19183935E+03 E0= -.19176442E+03  d E =-.141036E-01
       N       E                     dE             d eps       ncg     rms          rms(c)
DAV:   1    -0.191842578698E+03   -0.31695E-02   -0.14925E-01  8160   0.873E-01    0.160E-01
DAV:   2    -0.191842562325E+03    0.16374E-04   -0.67795E-03 12120   0.286E-01    0.171E-01
DAV:   3    -0.191842657876E+03   -0.95551E-04   -0.18921E-03 11640   0.375E-01    0.212E-01
DAV:   4    -0.191842143800E+03    0.51408E-03   -0.95094E-04  9720   0.264E-01    0.817E-02
DAV:   5    -0.191842135279E+03    0.85211E-05   -0.43203E-04  8360   0.154E-01
  81 F= -.19184214E+03 E0= -.19176699E+03  d E =-.278885E-02
       N       E                     dE             d eps       ncg     rms          rms(c)
DAV:   1    -0.191850717004E+03   -0.85732E-02   -0.67574E-01  8160   0.174E+00    0.185E-01
DAV:   2    -0.191852426497E+03   -0.17095E-02   -0.18646E-02 11920   0.540E-01    0.273E-01
DAV:   3    -0.191851758587E+03    0.66791E-03   -0.28221E-03 12360   0.433E-01    0.165E-01
DAV:   4    -0.191851485050E+03    0.27354E-03   -0.92501E-04 10400   0.222E-01    0.960E-02
DAV:   5    -0.191851459879E+03    0.25170E-04   -0.52136E-04  9160   0.169E-01
  82 F= -.19185146E+03 E0= -.19177705E+03  d E =-.932460E-02
       N       E                     dE             d eps       ncg     rms          rms(c)
DAV:   1    -0.191856049658E+03   -0.45646E-02   -0.15528E-01  8160   0.854E-01    0.113E-01
DAV:   2    -0.191857143698E+03   -0.10940E-02   -0.56078E-03 13040   0.377E-01    0.277E-01
DAV:   3    -0.191856265191E+03    0.87851E-03   -0.16837E-03 10240   0.357E-01    0.894E-02
DAV:   4    -0.191856232357E+03    0.32835E-04   -0.30998E-04  7960   0.110E-01
  83 F= -.19185623E+03 E0= -.19178236E+03  d E =-.477248E-02
       N       E                     dE             d eps       ncg     rms          rms(c)
DAV:   1    -0.191854208985E+03    0.20562E-02   -0.15881E-01  8160   0.846E-01    0.143E-01
DAV:   2    -0.191856935846E+03   -0.27269E-02   -0.86219E-03 12400   0.691E-01    0.469E-01
DAV:   3    -0.191854194117E+03    0.27417E-02   -0.32140E-03 10600   0.529E-01    0.615E-02
DAV:   4    -0.191854241113E+03   -0.46996E-04   -0.33061E-04  8160   0.141E-01
  84 F= -.19185424E+03 E0= -.19178028E+03  d E =0.199124E-02
       N       E                     dE             d eps       ncg     rms          rms(c)
DAV:   1    -0.191852790835E+03    0.14033E-02   -0.13657E-01  8160   0.786E-01    0.935E-02
DAV:   2    -0.191853193721E+03   -0.40289E-03   -0.36245E-03 13200   0.210E-01    0.138E-01
DAV:   3    -0.191852950340E+03    0.24338E-03   -0.81079E-04 10920   0.216E-01    0.882E-02
DAV:   4    -0.191852886821E+03    0.63519E-04   -0.23590E-04  7440   0.118E-01
  85 F= -.19185289E+03 E0= -.19177863E+03  d E =0.135429E-02
       N       E                     dE             d eps       ncg     rms          rms(c)
DAV:   1    -0.191849604870E+03    0.33455E-02   -0.88217E-01  8160   0.197E+00    0.214E-01
DAV:   2    -0.191851763944E+03   -0.21591E-02   -0.19712E-02 12720   0.538E-01    0.347E-01
DAV:   3    -0.191850657362E+03    0.11066E-02   -0.51400E-03 12480   0.572E-01    0.233E-01
DAV:   4    -0.191850160484E+03    0.49688E-03   -0.15846E-03 10920   0.296E-01    0.108E-01
DAV:   5    -0.191850021739E+03    0.13874E-03   -0.52487E-04  9680   0.145E-01    0.796E-02
DAV:   6    -0.191850066485E+03   -0.44746E-04   -0.37310E-04  9360   0.175E-01
  86 F= -.19185007E+03 E0= -.19177518E+03  d E =0.282034E-02
       N       E                     dE             d eps       ncg     rms          rms(c)
DAV:   1    -0.191858447756E+03   -0.84260E-02   -0.85542E-01  8160   0.199E+00    0.229E-01
DAV:   2    -0.191860593213E+03   -0.21455E-02   -0.27274E-02 12240   0.556E-01    0.305E-01
DAV:   3    -0.191860219712E+03    0.37350E-03   -0.50529E-03 12280   0.568E-01    0.283E-01
DAV:   4    -0.191859410669E+03    0.80904E-03   -0.16810E-03 11440   0.332E-01    0.117E-01
DAV:   5    -0.191859281946E+03    0.12872E-03   -0.64296E-04  9880   0.153E-01    0.901E-02
DAV:   6    -0.191859306973E+03   -0.25027E-04   -0.47877E-04 10240   0.185E-01
  87 F= -.19185931E+03 E0= -.19178570E+03  d E =-.924049E-02
       N       E                     dE             d eps       ncg     rms          rms(c)
DAV:   1    -0.191862011910E+03   -0.27300E-02   -0.58047E-01  8160   0.161E+00    0.175E-01
DAV:   2    -0.191863712025E+03   -0.17001E-02   -0.15390E-02 12560   0.514E-01    0.288E-01
DAV:   3    -0.191862873534E+03    0.83849E-03   -0.32573E-03 11520   0.463E-01    0.177E-01
DAV:   4    -0.191862616198E+03    0.25734E-03   -0.87090E-04 10160   0.231E-01    0.974E-02
DAV:   5    -0.191862522308E+03    0.93890E-04   -0.31136E-04  7600   0.134E-01
  88 F= -.19186252E+03 E0= -.19178873E+03  d E =-.321534E-02
       N       E                     dE             d eps       ncg     rms          rms(c)
DAV:   1    -0.191870738483E+03   -0.81223E-02   -0.12133E+00  8160   0.232E+00    0.236E-01
DAV:   2    -0.191874238383E+03   -0.34999E-02   -0.28723E-02 11920   0.696E-01    0.423E-01
DAV:   3    -0.191872366430E+03    0.18720E-02   -0.66692E-03 11800   0.658E-01    0.233E-01
DAV:   4    -0.191871898327E+03    0.46810E-03   -0.15542E-03 11120   0.300E-01    0.126E-01
DAV:   5    -0.191871744139E+03    0.15419E-03   -0.58358E-04 10720   0.177E-01    0.980E-02
DAV:   6    -0.191871732480E+03    0.11659E-04   -0.40685E-04  9400   0.187E-01
  89 F= -.19187173E+03 E0= -.19179920E+03  d E =-.921017E-02
       N       E                     dE             d eps       ncg     rms          rms(c)
DAV:   1    -0.191877832945E+03   -0.60888E-02   -0.63515E-01  8160   0.170E+00    0.199E-01
DAV:   2    -0.191880794703E+03   -0.29618E-02   -0.19894E-02 13080   0.692E-01    0.430E-01
DAV:   3    -0.191878673382E+03    0.21213E-02   -0.48385E-03 11920   0.593E-01    0.160E-01
DAV:   4    -0.191878472745E+03    0.20064E-03   -0.95117E-04  9840   0.216E-01    0.106E-01
DAV:   5    -0.191878382901E+03    0.89844E-04   -0.45500E-04  9720   0.172E-01
  90 F= -.19187838E+03 E0= -.19180558E+03  d E =-.665042E-02
       N       E                     dE             d eps       ncg     rms          rms(c)
DAV:   1    -0.191873864235E+03    0.46085E-02   -0.21277E-01  8160   0.999E-01    0.123E-01
DAV:   2    -0.191875523263E+03   -0.16590E-02   -0.85699E-03 13320   0.470E-01    0.325E-01
DAV:   3    -0.191874214066E+03    0.13092E-02   -0.26120E-03 11480   0.430E-01    0.999E-02
DAV:   4    -0.191874116233E+03    0.97833E-04   -0.34365E-04  8200   0.121E-01
  91 F= -.19187412E+03 E0= -.19180152E+03  d E =0.426667E-02
       N       E                     dE             d eps       ncg     rms          rms(c)
DAV:   1    -0.191878061138E+03   -0.38471E-02   -0.11493E+00  8160   0.226E+00    0.291E-01
DAV:   2    -0.191882868012E+03   -0.48069E-02   -0.32990E-02 12360   0.966E-01    0.590E-01
DAV:   3    -0.191878673068E+03    0.41949E-02   -0.88254E-03 11920   0.808E-01    0.227E-01
DAV:   4    -0.191878312283E+03    0.36078E-03   -0.21167E-03 11440   0.332E-01    0.170E-01
DAV:   5    -0.191878129154E+03    0.18313E-03   -0.12192E-03 10360   0.280E-01    0.153E-01
DAV:   6    -0.191877895138E+03    0.23402E-03   -0.75732E-04 10000   0.220E-01    0.664E-02
DAV:   7    -0.191877869801E+03    0.25337E-04   -0.22437E-04  7720   0.976E-02
  92 F= -.19187787E+03 E0= -.19180679E+03  d E =-.375357E-02
       N       E                     dE             d eps       ncg     rms          rms(c)
DAV:   1    -0.191889634492E+03   -0.11739E-01   -0.12365E+00  8160   0.237E+00    0.267E-01
DAV:   2    -0.191894440110E+03   -0.48056E-02   -0.39182E-02 12400   0.865E-01    0.519E-01
DAV:   3    -0.191891721061E+03    0.27190E-02   -0.79335E-03 12280   0.757E-01    0.232E-01
DAV:   4    -0.191891189809E+03    0.53125E-03   -0.15050E-03 11480   0.282E-01    0.126E-01
DAV:   5    -0.191891075501E+03    0.11431E-03   -0.77692E-04 10720   0.200E-01    0.116E-01
DAV:   6    -0.191891065102E+03    0.10400E-04   -0.68411E-04  9560   0.211E-01
  93 F= -.19189107E+03 E0= -.19182010E+03  d E =-.131953E-01
       N       E                     dE             d eps       ncg     rms          rms(c)
DAV:   1    -0.191906562068E+03   -0.15487E-01   -0.11964E+00  8160   0.232E+00    0.223E-01
DAV:   2    -0.191908713167E+03   -0.21511E-02   -0.27980E-02 11960   0.589E-01    0.257E-01
DAV:   3    -0.191908584254E+03    0.12891E-03   -0.33584E-03 12160   0.496E-01    0.241E-01
DAV:   4    -0.191907933244E+03    0.65101E-03   -0.11512E-03 10160   0.308E-01    0.110E-01
DAV:   5    -0.191908017899E+03   -0.84656E-04   -0.78328E-04 10360   0.223E-01
  94 F= -.19190802E+03 E0= -.19183777E+03  d E =-.169528E-01
       N       E                     dE             d eps       ncg     rms          rms(c)
DAV:   1    -0.191869877828E+03    0.38055E-01   -0.51018E+00  8160   0.477E+00    0.467E-01
DAV:   2    -0.191882883207E+03   -0.13005E-01   -0.12261E-01 11840   0.133E+00    0.810E-01
DAV:   3    -0.191877860718E+03    0.50225E-02   -0.24558E-02 12200   0.125E+00    0.501E-01
DAV:   4    -0.191875137600E+03    0.27231E-02   -0.54472E-03 12280   0.555E-01    0.189E-01
DAV:   5    -0.191874610290E+03    0.52731E-03   -0.21452E-03 10400   0.194E-01    0.103E-01
DAV:   6    -0.191874588340E+03    0.21950E-04   -0.93742E-04 11560   0.145E-01
  95 F= -.19187459E+03 E0= -.19180271E+03  d E =0.334296E-01
       N       E                     dE             d eps       ncg     rms          rms(c)
DAV:   1    -0.191822533938E+03    0.52076E-01   -0.13459E+01  8160   0.773E+00    0.696E-01
DAV:   2    -0.191843618951E+03   -0.21085E-01   -0.28201E-01 11600   0.161E+00    0.704E-01
DAV:   3    -0.191847822882E+03   -0.42039E-02   -0.39259E-02 12280   0.154E+00    0.949E-01
DAV:   4    -0.191838082431E+03    0.97405E-02   -0.15681E-02 12360   0.109E+00    0.316E-01
DAV:   5    -0.191837060290E+03    0.10221E-02   -0.50899E-03 10200   0.395E-01    0.204E-01
DAV:   6    -0.191837756740E+03   -0.69645E-03   -0.35541E-03 11960   0.483E-01    0.314E-01
DAV:   7    -0.191836532106E+03    0.12246E-02   -0.16567E-03 10280   0.371E-01    0.561E-02
DAV:   8    -0.191836517463E+03    0.14643E-04   -0.14491E-04  6320   0.748E-02
  96 F= -.19183652E+03 E0= -.19176022E+03  d E =0.380709E-01
       N       E                     dE             d eps       ncg     rms          rms(c)
DAV:   1    -0.191847613015E+03   -0.11081E-01   -0.11726E+00  8160   0.232E+00    0.332E-01
DAV:   2    -0.191855680291E+03   -0.80673E-02   -0.46257E-02 13160   0.115E+00    0.820E-01
DAV:   3    -0.191848345932E+03    0.73344E-02   -0.14146E-02 12520   0.102E+00    0.241E-01
DAV:   4    -0.191847671645E+03    0.67429E-03   -0.21239E-03 11560   0.292E-01    0.143E-01
DAV:   5    -0.191847569509E+03    0.10214E-03   -0.13021E-03 12920   0.240E-01    0.151E-01
DAV:   6    -0.191847377099E+03    0.19241E-03   -0.89929E-04 10480   0.248E-01    0.905E-02
DAV:   7    -0.191847263357E+03    0.11374E-03   -0.28002E-04  8200   0.115E-01    0.270E-02
DAV:   8    -0.191847257927E+03    0.54299E-05   -0.52734E-05  7120   0.514E-02
  97 F= -.19184726E+03 E0= -.19177094E+03  d E =-.107405E-01
       N       E                     dE             d eps       ncg     rms          rms(c)
DAV:   1    -0.191826969212E+03    0.20294E-01   -0.60935E+00  8160   0.519E+00    0.455E-01
DAV:   2    -0.191835030679E+03   -0.80615E-02   -0.11901E-01 12000   0.105E+00    0.358E-01
DAV:   3    -0.191835673056E+03   -0.64238E-03   -0.12229E-02 11000   0.716E-01    0.480E-01
DAV:   4    -0.191833826788E+03    0.18463E-02   -0.74636E-03 11280   0.706E-01    0.319E-01
DAV:   5    -0.191832810652E+03    0.10161E-02   -0.27875E-03 10440   0.373E-01    0.161E-01
DAV:   6    -0.191833191339E+03   -0.38069E-03   -0.18229E-03 10720   0.377E-01    0.222E-01
DAV:   7    -0.191832546612E+03    0.64473E-03   -0.80116E-04 10200   0.264E-01    0.341E-02
DAV:   8    -0.191832537923E+03    0.86883E-05   -0.67998E-05  5760   0.405E-02
  98 F= -.19183254E+03 E0= -.19175279E+03  d E =0.147200E-01
       N       E                     dE             d eps       ncg     rms          rms(c)
DAV:   1    -0.191841855937E+03   -0.93093E-02   -0.26323E+00  8160   0.342E+00    0.319E-01
DAV:   2    -0.191845946816E+03   -0.40909E-02   -0.58439E-02 11560   0.744E-01    0.307E-01
DAV:   3    -0.191846438022E+03   -0.49121E-03   -0.71544E-03 12600   0.654E-01    0.413E-01
DAV:   4    -0.191844737383E+03    0.17006E-02   -0.34624E-03 11680   0.522E-01    0.174E-01
DAV:   5    -0.191844526262E+03    0.21112E-03   -0.13449E-03 10280   0.239E-01    0.137E-01
DAV:   6    -0.191844565830E+03   -0.39569E-04   -0.10994E-03 11440   0.276E-01    0.138E-01
DAV:   7    -0.191844299196E+03    0.26663E-03   -0.37698E-04  8960   0.161E-01    0.235E-02
DAV:   8    -0.191844302636E+03   -0.34393E-05   -0.57486E-05  6720   0.471E-02
  99 F= -.19184430E+03 E0= -.19176641E+03  d E =-.117647E-01
       N       E                     dE             d eps       ncg     rms          rms(c)
DAV:   1    -0.191847245010E+03   -0.29458E-02   -0.13122E-01  8160   0.771E-01    0.928E-02
DAV:   2    -0.191847885735E+03   -0.64073E-03   -0.53152E-03 11320   0.293E-01    0.183E-01
DAV:   3    -0.191847576134E+03    0.30960E-03   -0.10675E-03 11360   0.268E-01    0.894E-02
DAV:   4    -0.191847499557E+03    0.76577E-04   -0.14863E-04  6600   0.957E-02
 100 F= -.19184750E+03 E0= -.19176978E+03  d E =-.319692E-02
