<?xml version="1.0" encoding="ISO-8859-1"?>
<modeling>
 <generator>
  <i name="program" type="string">vasp </i>
  <i name="version" type="string">5.4.1  </i>
  <i name="subversion" type="string">05Feb16 (build Jul 05 2020 17:13:04) complex                          parallel </i>
  <i name="platform" type="string">IFC91_ompi </i>
  <i name="date" type="string">2024 04 29 </i>
  <i name="time" type="string">04:39:20 </i>
 </generator>
 <incar>
  <i type="int" name="ISTART">     0</i>
  <i type="string" name="PREC">normal</i>
  <i type="string" name="ALGO"> Normal</i>
  <i type="int" name="ISPIN">     1</i>
  <i type="int" name="ICHARG">     2</i>
  <i type="int" name="IBRION">     1</i>
  <i type="int" name="NSW">   100</i>
  <i type="int" name="ISIF">     3</i>
  <i type="int" name="ISYM">     0</i>
  <i name="SYMPREC">      0.00000001</i>
  <i name="POTIM">      0.50000000</i>
  <i type="logical" name="LREAL"> F  </i>
  <i type="logical" name="LPLANE"> F  </i>
  <i type="int" name="ISMEAR">     0</i>
  <i type="logical" name="LWAVE"> F  </i>
  <i type="logical" name="LCHARG"> F  </i>
  <v type="int" name="KPOINT_BSE">    -1     0     0     0</v>
 </incar>
 <kpoints>
  <generation param="Gamma">
   <v type="int" name="divisions">       8        8        1 </v>
   <v name="usershift">      0.00000000       0.00000000       0.00000000 </v>
   <v name="genvec1">      0.12500000       0.00000000       0.00000000 </v>
   <v name="genvec2">     -0.00000000       0.12500000       0.00000000 </v>
   <v name="genvec3">      0.00000000       0.00000000       1.00000000 </v>
   <v name="shift">      0.00000000       0.00000000       0.00000000 </v>
  </generation>
  <varray name="kpointlist" >
   <v>       0.00000000       0.00000000       0.00000000 </v>
   <v>       0.12500000       0.00000000       0.00000000 </v>
   <v>       0.25000000       0.00000000       0.00000000 </v>
   <v>       0.37500000       0.00000000       0.00000000 </v>
   <v>       0.50000000       0.00000000       0.00000000 </v>
   <v>       0.00000000       0.12500000       0.00000000 </v>
   <v>       0.12500000       0.12500000       0.00000000 </v>
   <v>       0.25000000       0.12500000       0.00000000 </v>
   <v>       0.37500000       0.12500000       0.00000000 </v>
   <v>       0.50000000       0.12500000       0.00000000 </v>
   <v>      -0.37500000       0.12500000       0.00000000 </v>
   <v>      -0.25000000       0.12500000       0.00000000 </v>
   <v>      -0.12500000       0.12500000       0.00000000 </v>
   <v>       0.00000000       0.25000000       0.00000000 </v>
   <v>       0.12500000       0.25000000       0.00000000 </v>
   <v>       0.25000000       0.25000000       0.00000000 </v>
   <v>       0.37500000       0.25000000       0.00000000 </v>
   <v>       0.50000000       0.25000000       0.00000000 </v>
   <v>      -0.37500000       0.25000000       0.00000000 </v>
   <v>      -0.25000000       0.25000000       0.00000000 </v>
   <v>      -0.12500000       0.25000000       0.00000000 </v>
   <v>      -0.00000000       0.37500000       0.00000000 </v>
   <v>       0.12500000       0.37500000       0.00000000 </v>
   <v>       0.25000000       0.37500000       0.00000000 </v>
   <v>       0.37500000       0.37500000       0.00000000 </v>
   <v>       0.50000000       0.37500000       0.00000000 </v>
   <v>      -0.37500000       0.37500000       0.00000000 </v>
   <v>      -0.25000000       0.37500000       0.00000000 </v>
   <v>      -0.12500000       0.37500000       0.00000000 </v>
   <v>       0.00000000       0.50000000       0.00000000 </v>
   <v>       0.12500000       0.50000000       0.00000000 </v>
   <v>       0.25000000       0.50000000       0.00000000 </v>
   <v>       0.37500000       0.50000000       0.00000000 </v>
   <v>       0.50000000       0.50000000       0.00000000 </v>
  </varray>
  <varray name="weights" >
   <v>       0.01562500 </v>
   <v>       0.03125000 </v>
   <v>       0.03125000 </v>
   <v>       0.03125000 </v>
   <v>       0.01562500 </v>
   <v>       0.03125000 </v>
   <v>       0.03125000 </v>
   <v>       0.03125000 </v>
   <v>       0.03125000 </v>
   <v>       0.03125000 </v>
   <v>       0.03125000 </v>
   <v>       0.03125000 </v>
   <v>       0.03125000 </v>
   <v>       0.03125000 </v>
   <v>       0.03125000 </v>
   <v>       0.03125000 </v>
   <v>       0.03125000 </v>
   <v>       0.03125000 </v>
   <v>       0.03125000 </v>
   <v>       0.03125000 </v>
   <v>       0.03125000 </v>
   <v>       0.03125000 </v>
   <v>       0.03125000 </v>
   <v>       0.03125000 </v>
   <v>       0.03125000 </v>
   <v>       0.03125000 </v>
   <v>       0.03125000 </v>
   <v>       0.03125000 </v>
   <v>       0.03125000 </v>
   <v>       0.01562500 </v>
   <v>       0.03125000 </v>
   <v>       0.03125000 </v>
   <v>       0.03125000 </v>
   <v>       0.01562500 </v>
  </varray>
 </kpoints>
 <parameters>
  <separator name="general" >
   <i type="string" name="SYSTEM">unknown system</i>
   <i type="logical" name="LCOMPAT"> F  </i>
  </separator>
  <separator name="electronic" >
   <i type="string" name="PREC">normal</i>
   <i name="ENMAX">    280.00000000</i>
   <i name="ENAUG">    373.43800000</i>
   <i name="EDIFF">      0.00010000</i>
   <i type="int" name="IALGO">    38</i>
   <i type="int" name="IWAVPR">    11</i>
   <i type="int" name="NBANDS">   120</i>
   <i name="NELECT">    159.00000000</i>
   <i type="int" name="TURBO">     0</i>
   <i type="int" name="IRESTART">     0</i>
   <i type="int" name="NREBOOT">     0</i>
   <i type="int" name="NMIN">     0</i>
   <i name="EREF">      0.00000000</i>
   <separator name="electronic smearing" >
    <i type="int" name="ISMEAR">     0</i>
    <i name="SIGMA">      0.20000000</i>
    <i name="KSPACING">      0.50000000</i>
    <i type="logical" name="KGAMMA"> T  </i>
   </separator>
   <separator name="electronic projectors" >
    <i type="logical" name="LREAL"> F  </i>
    <v name="ROPT">      0.00000000      0.00000000      0.00000000      0.00000000</v>
    <i type="int" name="LMAXPAW">  -100</i>
    <i type="int" name="LMAXMIX">     2</i>
    <i type="logical" name="NLSPLINE"> F  </i>
   </separator>
   <separator name="electronic startup" >
    <i type="int" name="ISTART">     0</i>
    <i type="int" name="ICHARG">     2</i>
    <i type="int" name="INIWAV">     1</i>
   </separator>
   <separator name="electronic spin" >
    <i type="int" name="ISPIN">     1</i>
    <i type="logical" name="LNONCOLLINEAR"> F  </i>
    <v name="MAGMOM">      1.00000000      1.00000000      1.00000000      1.00000000      1.00000000      1.00000000      1.00000000      1.00000000      1.00000000      1.00000000      1.00000000      1.00000000      1.00000000      1.00000000      1.00000000      1.00000000      1.00000000      1.00000000      1.00000000      1.00000000
      1.00000000      1.00000000      1.00000000      1.00000000      1.00000000      1.00000000      1.00000000</v>
    <i name="NUPDOWN">     -1.00000000</i>
    <i type="logical" name="LSORBIT"> F  </i>
    <v name="SAXIS">      0.00000000      0.00000000      1.00000000</v>
    <i type="logical" name="LSPIRAL"> F  </i>
    <v name="QSPIRAL">      0.00000000      0.00000000      0.00000000</v>
    <i type="logical" name="LZEROZ"> F  </i>
   </separator>
   <separator name="electronic exchange-correlation" >
    <i type="logical" name="LASPH"> F  </i>
    <i type="logical" name="LMETAGGA"> F  </i>
   </separator>
   <separator name="electronic convergence" >
    <i type="int" name="NELM">    60</i>
    <i type="int" name="NELMDL">    -5</i>
    <i type="int" name="NELMIN">     2</i>
    <i name="ENINI">    280.00000000</i>
    <separator name="electronic convergence detail" >
     <i type="logical" name="LDIAG"> T  </i>
     <i type="logical" name="LSUBROT"> F  </i>
     <i name="WEIMIN">      0.00100000</i>
     <i name="EBREAK">      0.00000021</i>
     <i name="DEPER">      0.30000000</i>
     <i type="int" name="NRMM">     4</i>
     <i name="TIME">      0.40000000</i>
    </separator>
   </separator>
   <separator name="electronic mixer" >
    <i name="AMIX">      0.40000000</i>
    <i name="BMIX">      1.00000000</i>
    <i name="AMIN">      0.10000000</i>
    <i name="AMIX_MAG">      1.60000000</i>
    <i name="BMIX_MAG">      1.00000000</i>
    <separator name="electronic mixer details" >
     <i type="int" name="IMIX">     4</i>
     <i type="logical" name="MIXFIRST"> F  </i>
     <i type="int" name="MAXMIX">   -45</i>
     <i name="WC">    100.00000000</i>
     <i type="int" name="INIMIX">     1</i>
     <i type="int" name="MIXPRE">     1</i>
     <i type="int" name="MREMOVE">     5</i>
    </separator>
   </separator>
   <separator name="electronic dipolcorrection" >
    <i type="logical" name="LDIPOL"> F  </i>
    <i type="logical" name="LMONO"> F  </i>
    <i type="int" name="IDIPOL">     0</i>
    <i name="EPSILON">      1.00000000</i>
    <v name="DIPOL">   -100.00000000   -100.00000000   -100.00000000</v>
    <i name="EFIELD">      0.00000000</i>
   </separator>
  </separator>
  <separator name="grids" >
   <i type="int" name="NGX">    42</i>
   <i type="int" name="NGY">    42</i>
   <i type="int" name="NGZ">   126</i>
   <i type="int" name="NGXF">    84</i>
   <i type="int" name="NGYF">    84</i>
   <i type="int" name="NGZF">   252</i>
   <i type="logical" name="ADDGRID"> F  </i>
  </separator>
  <separator name="ionic" >
   <i type="int" name="NSW">   100</i>
   <i type="int" name="IBRION">     1</i>
   <i type="int" name="ISIF">     3</i>
   <i name="PSTRESS">      0.00000000</i>
   <i name="EDIFFG">      0.00100000</i>
   <i type="int" name="NFREE">     0</i>
   <i name="POTIM">      0.50000000</i>
   <i name="SMASS">     -3.00000000</i>
   <i name="SCALEE">      1.00000000</i>
  </separator>
  <separator name="ionic md" >
   <i name="TEBEG">      0.00010000</i>
   <i name="TEEND">      0.00010000</i>
   <i type="int" name="NBLOCK">     1</i>
   <i type="int" name="KBLOCK">   100</i>
   <i type="int" name="NPACO">   256</i>
   <i name="APACO">     16.00000000</i>
  </separator>
  <separator name="symmetry" >
   <i type="int" name="ISYM">     0</i>
   <i name="SYMPREC">      0.00000001</i>
  </separator>
  <separator name="dos" >
   <i type="logical" name="LORBIT"> F  </i>
   <v name="RWIGS">     -1.00000000     -1.00000000     -1.00000000     -1.00000000</v>
   <i type="int" name="NEDOS">   301</i>
   <i name="EMIN">     10.00000000</i>
   <i name="EMAX">    -10.00000000</i>
   <i name="EFERMI">      0.00000000</i>
  </separator>
  <separator name="writing" >
   <i type="int" name="NWRITE">     2</i>
   <i type="logical" name="LWAVE"> F  </i>
   <i type="logical" name="LCHARG"> F  </i>
   <i type="logical" name="LPARD"> F  </i>
   <i type="logical" name="LVTOT"> F  </i>
   <i type="logical" name="LVHAR"> F  </i>
   <i type="logical" name="LELF"> F  </i>
   <i type="logical" name="LOPTICS"> F  </i>
   <v name="STM">      0.00000000      0.00000000      0.00000000      0.00000000      0.00000000      0.00000000      0.00000000</v>
  </separator>
  <separator name="performance" >
   <i type="int" name="NPAR">    40</i>
   <i type="int" name="NSIM">     4</i>
   <i type="int" name="NBLK">    -1</i>
   <i type="logical" name="LPLANE"> F  </i>
   <i type="logical" name="LSCALAPACK"> T  </i>
   <i type="logical" name="LSCAAWARE"> F  </i>
   <i type="logical" name="LSCALU"> F  </i>
   <i type="logical" name="LASYNC"> F  </i>
   <i type="logical" name="LORBITALREAL"> F  </i>
  </separator>
  <separator name="miscellaneous" >
   <i type="int" name="IDIOT">     3</i>
   <i type="logical" name="LMUSIC"> F  </i>
   <v name="POMASS">     50.94100000     95.94000000    183.85000000     32.06600000</v>
   <v name="DARWINR">      0.00000000      0.00000000      0.00000000      0.00000000</v>
   <v name="DARWINV">      1.00000000      1.00000000      1.00000000      1.00000000</v>
   <i type="logical" name="LCORR"> T  </i>
  </separator>
  <i type="logical" name="GGA_COMPAT"> T  </i>
  <i type="logical" name="LBERRY"> F  </i>
  <i type="int" name="ICORELEVEL">     0</i>
  <i type="logical" name="LDAU"> F  </i>
  <i type="int" name="I_CONSTRAINED_M">     0</i>
  <separator name="electronic exchange-correlation" >
   <i type="string" name="GGA">--</i>
   <i type="int" name="VOSKOWN">     0</i>
   <i type="logical" name="LHFCALC"> F  </i>
   <i type="string" name="PRECFOCK"></i>
   <i type="logical" name="LSYMGRAD"> F  </i>
   <i type="logical" name="LHFONE"> F  </i>
   <i type="logical" name="LRHFCALC"> F  </i>
   <i type="logical" name="LTHOMAS"> F  </i>
   <i type="logical" name="LMODELHF"> F  </i>
   <i name="ENCUT4O">     -1.00000000</i>
   <i type="int" name="EXXOEP">     0</i>
   <i type="int" name="FOURORBIT">     0</i>
   <i name="AEXX">      0.00000000</i>
   <i name="HFALPHA">      0.00000000</i>
   <i name="MCALPHA">      0.00000000</i>
   <i name="ALDAX">      1.00000000</i>
   <i name="AGGAX">      1.00000000</i>
   <i name="ALDAC">      1.00000000</i>
   <i name="AGGAC">      1.00000000</i>
   <i type="int" name="NKREDX">     1</i>
   <i type="int" name="NKREDY">     1</i>
   <i type="int" name="NKREDZ">     1</i>
   <i type="logical" name="SHIFTRED"> F  </i>
   <i type="logical" name="ODDONLY"> F  </i>
   <i type="logical" name="EVENONLY"> F  </i>
   <i type="int" name="LMAXFOCK">     0</i>
   <i type="int" name="NMAXFOCKAE">     0</i>
   <i type="logical" name="LFOCKAEDFT"> F  </i>
   <i name="HFSCREEN">      0.00000000</i>
   <i name="HFSCREENC">      0.00000000</i>
   <i type="int" name="NBANDSGWLOW">     0</i>
  </separator>
  <separator name="vdW DFT" >
   <i type="logical" name="LUSE_VDW"> F  </i>
   <i name="Zab_VDW">     -0.84910000</i>
   <i name="PARAM1">      0.12340000</i>
   <i name="PARAM2">      1.00000000</i>
   <i name="PARAM3">      0.00000000</i>
  </separator>
  <separator name="model GW" >
   <i type="int" name="MODEL_GW">     0</i>
   <i name="MODEL_EPS0">     58.26239943</i>
   <i name="MODEL_ALPHA">      1.00000000</i>
  </separator>
  <separator name="linear response parameters" >
   <i type="logical" name="LEPSILON"> F  </i>
   <i type="logical" name="LRPA"> F  </i>
   <i type="logical" name="LNABLA"> F  </i>
   <i type="logical" name="LVEL"> F  </i>
   <i type="int" name="KINTER">     0</i>
   <i name="CSHIFT">      0.10000000</i>
   <i name="OMEGAMAX">     -1.00000000</i>
   <i name="DEG_THRESHOLD">      0.00200000</i>
  </separator>
  <separator name="orbital magnetization" >
   <i type="logical" name="NUCIND"> F  </i>
   <v name="MAGPOS">      0.00000000      0.00000000      0.00000000</v>
   <i type="logical" name="LNICSALL"> T  </i>
   <i type="logical" name="ORBITALMAG"> F  </i>
   <i type="logical" name="LMAGBLOCH"> F  </i>
   <i type="logical" name="LCHIMAG"> F  </i>
   <i type="logical" name="LGAUGE"> T  </i>
   <i type="int" name="MAGATOM">     0</i>
   <v name="MAGDIPOL">      0.00000000      0.00000000      0.00000000</v>
   <v name="AVECCONST">      0.00000000      0.00000000      0.00000000</v>
  </separator>
  <separator name="response functions" >
   <i type="logical" name="LADDER"> F  </i>
   <i type="logical" name="LFXC"> F  </i>
   <i type="logical" name="LHARTREE"> T  </i>
   <i type="int" name="IBSE">     0</i>
   <v type="int" name="KPOINT">    -1     0     0     0</v>
   <i type="logical" name="LTCTE"> F  </i>
   <i type="logical" name="LTETE"> F  </i>
   <i type="logical" name="LTRIPLET"> F  </i>
   <i type="logical" name="LFXCEPS"> F  </i>
   <i type="logical" name="LFXHEG"> F  </i>
   <i type="int" name="NATURALO">     0</i>
   <i type="logical" name="L2ORDER"> F  </i>
   <i type="logical" name="LUSEW"> F  </i>
   <i name="ENCUTGW">     -2.00000000</i>
   <i name="ENCUTGWSOFT">     -2.00000000</i>
   <i name="ENCUTLF">     -1.00000000</i>
   <i type="int" name="LMAXMP2">    -1</i>
   <i name="SCISSOR">      0.00000000</i>
   <i type="int" name="NOMEGA">     0</i>
   <i type="int" name="NOMEGAR">     0</i>
   <i type="int" name="NBANDSGW">    -1</i>
   <i type="int" name="NBANDSO">    -1</i>
   <i type="int" name="NBANDSV">    -1</i>
   <i type="int" name="NELM">     1</i>
   <i type="int" name="NELMHF">     1</i>
   <i type="int" name="DIM">     3</i>
   <i type="int" name="ANTIRES">     0</i>
   <i name="OMEGAMAX">    -30.00000000</i>
   <i name="OMEGAMIN">    -30.00000000</i>
   <i name="OMEGATL">   -200.00000000</i>
   <i type="int" name="OMEGAGRID">     0</i>
   <i name="CSHIFT">     -0.10000000</i>
   <i type="logical" name="SELFENERGY"> F  </i>
   <i type="logical" name="LSPECTRAL"> F  </i>
   <i type="logical" name="LSPECTRALGW"> F  </i>
   <i type="logical" name="LSINGLES"> F  </i>
   <i type="logical" name="LFERMIGW"> F  </i>
   <i type="logical" name="ODDONLYGW"> F  </i>
   <i type="logical" name="EVENONLYGW"> F  </i>
   <i type="int" name="NKREDLFX">     1</i>
   <i type="int" name="NKREDLFY">     1</i>
   <i type="int" name="NKREDLFZ">     1</i>
   <i type="int" name="MAXMEM">  1800</i>
   <i type="int" name="TELESCOPE">     0</i>
   <i type="int" name="TAUPAR">     1</i>
   <i type="int" name="OMEGAPAR">    -1</i>
   <i name="LAMBDA">      1.00000000</i>
  </separator>
  <separator name="External order field" >
   <i name="OFIELD_KAPPA">      0.00000000</i>
   <v name="OFIELD_K">      0.00000000      0.00000000      0.00000000</v>
   <i name="OFIELD_Q6_NEAR">      0.00000000</i>
   <i name="OFIELD_Q6_FAR">      0.00000000</i>
   <i name="OFIELD_A">      0.00000000</i>
  </separator>
 </parameters>
 <atominfo>
  <atoms>      27 </atoms>
  <types>       4 </types>
  <array name="atoms" >
   <dimension dim="1">ion</dimension>
   <field type="string">element</field>
   <field type="int">atomtype</field>
   <set>
    <rc><c>V </c><c>   1</c></rc>
    <rc><c>V </c><c>   1</c></rc>
    <rc><c>V </c><c>   1</c></rc>
    <rc><c>Mo</c><c>   2</c></rc>
    <rc><c>Mo</c><c>   2</c></rc>
    <rc><c>Mo</c><c>   2</c></rc>
    <rc><c>W </c><c>   3</c></rc>
    <rc><c>W </c><c>   3</c></rc>
    <rc><c>W </c><c>   3</c></rc>
    <rc><c>S </c><c>   4</c></rc>
    <rc><c>S </c><c>   4</c></rc>
    <rc><c>S </c><c>   4</c></rc>
    <rc><c>S </c><c>   4</c></rc>
    <rc><c>S </c><c>   4</c></rc>
    <rc><c>S </c><c>   4</c></rc>
    <rc><c>S </c><c>   4</c></rc>
    <rc><c>S </c><c>   4</c></rc>
    <rc><c>S </c><c>   4</c></rc>
    <rc><c>S </c><c>   4</c></rc>
    <rc><c>S </c><c>   4</c></rc>
    <rc><c>S </c><c>   4</c></rc>
    <rc><c>S </c><c>   4</c></rc>
    <rc><c>S </c><c>   4</c></rc>
    <rc><c>S </c><c>   4</c></rc>
    <rc><c>S </c><c>   4</c></rc>
    <rc><c>S </c><c>   4</c></rc>
    <rc><c>S </c><c>   4</c></rc>
   </set>
  </array>
  <array name="atomtypes" >
   <dimension dim="1">type</dimension>
   <field type="int">atomspertype</field>
   <field type="string">element</field>
   <field>mass</field>
   <field>valence</field>
   <field type="string">pseudopotential</field>
   <set>
    <rc><c>   3</c><c>V </c><c>     50.94100000</c><c>      5.00000000</c><c> PAW_PBE V 08Apr2002                    </c></rc>
    <rc><c>   3</c><c>Mo</c><c>     95.94000000</c><c>      6.00000000</c><c> PAW_PBE Mo 08Apr2002                   </c></rc>
    <rc><c>   3</c><c>W </c><c>    183.85000000</c><c>      6.00000000</c><c> PAW_PBE W 08Apr2002                    </c></rc>
    <rc><c>  18</c><c>S </c><c>     32.06600000</c><c>      6.00000000</c><c>  PAW_PBE S 17Jan2003                   </c></rc>
   </set>
  </array>
 </atominfo>
 <structure name="initialpos" >
  <crystal>
   <varray name="basis" >
    <v>       8.66999996       5.03999989       0.00000000 </v>
    <v>      -8.66999982       5.04000013       0.00000000 </v>
    <v>       0.00000000       0.00000000      30.00000000 </v>
   </varray>
   <i name="volume">   2621.80797419 </i>
   <varray name="rec_basis" >
    <v>       0.05767013       0.09920635       0.00000000 </v>
    <v>      -0.05767013       0.09920635       0.00000000 </v>
    <v>       0.00000000       0.00000000       0.03333333 </v>
   </varray>
  </crystal>
  <varray name="positions" >
   <v>       0.66666669       0.00000000       0.00000000 </v>
   <v>       0.00000000       0.00000000       0.00000000 </v>
   <v>       0.66666669       0.33333334       0.00000000 </v>
   <v>       0.33333334       0.33333334       0.00000000 </v>
   <v>       1.00000000       0.33333334       0.00000000 </v>
   <v>       0.33333334       0.00000000       0.00000000 </v>
   <v>       0.00000000       0.66666669       0.00000000 </v>
   <v>       0.33333334       0.66666669       0.00000000 </v>
   <v>       0.66666669       0.66666669       0.00000000 </v>
   <v>       0.11068511       0.22244981       0.95539999 </v>
   <v>       0.22244981       0.11068511       0.04460000 </v>
   <v>       0.11068511       0.55578315       0.95539999 </v>
   <v>       0.22244981       0.44401845       0.04460000 </v>
   <v>       0.11068511       0.88911647       0.95539999 </v>
   <v>       0.22244981       0.77735180       0.04460000 </v>
   <v>       0.44401845       0.22244981       0.95539999 </v>
   <v>       0.55578315       0.11068511       0.04460000 </v>
   <v>       0.44401845       0.55578315       0.95539999 </v>
   <v>       0.55578315       0.44401845       0.04460000 </v>
   <v>       0.44401845       0.88911647       0.95539999 </v>
   <v>       0.55578315       0.77735180       0.04460000 </v>
   <v>       0.77735180       0.22244981       0.95539999 </v>
   <v>       0.88911647       0.11068511       0.04460000 </v>
   <v>       0.77735180       0.55578315       0.95539999 </v>
   <v>       0.88911647       0.44401845       0.04460000 </v>
   <v>       0.77735180       0.88911647       0.95539999 </v>
   <v>       0.88911647       0.77735180       0.04460000 </v>
  </varray>
 </structure>
 <calculation>
  <scstep>
   <time name="dav">   22.10   22.16</time>
   <time name="total">   22.15   22.21</time>
   <energy>
    <i name="alphaZ">     81.65567618 </i>
    <i name="ewald">  41890.25209520 </i>
    <i name="hartreedc"> -47722.89515139 </i>
    <i name="XCdc">   -242.92702709 </i>
    <i name="pawpsdc">   3467.42045192 </i>
    <i name="pawaedc">  -2871.19716117 </i>
    <i name="eentropy">     -0.52821382 </i>
    <i name="bandstr">   -236.98430154 </i>
    <i name="atom">   6761.44252427 </i>
    <i name="e_fr_energy">   1126.23889256 </i>
    <i name="e_wo_entrp">   1126.76710638 </i>
    <i name="e_0_energy">   1126.50299947 </i>
   </energy>
  </scstep>
  <scstep>
   <time name="dav">   28.61   28.68</time>
   <time name="total">   28.62   28.69</time>
   <energy>
    <i name="e_fr_energy">     -0.37453709 </i>
    <i name="e_wo_entrp">     -0.17436603 </i>
    <i name="e_0_energy">     -0.27445156 </i>
   </energy>
  </scstep>
  <scstep>
   <time name="dav">   27.96   28.02</time>
   <time name="total">   27.96   28.03</time>
   <energy>
    <i name="e_fr_energy">   -199.54721371 </i>
    <i name="e_wo_entrp">   -199.27211674 </i>
    <i name="e_0_energy">   -199.40966523 </i>
   </energy>
  </scstep>
  <scstep>
   <time name="dav">   30.41   30.49</time>
   <time name="total">   30.42   30.50</time>
   <energy>
    <i name="e_fr_energy">   -208.97865880 </i>
    <i name="e_wo_entrp">   -208.67345063 </i>
    <i name="e_0_energy">   -208.82605471 </i>
   </energy>
  </scstep>
  <scstep>
   <time name="dav">   29.27   29.34</time>
   <time name="total">   29.73   29.81</time>
   <energy>
    <i name="e_fr_energy">   -209.32246773 </i>
    <i name="e_wo_entrp">   -209.02005520 </i>
    <i name="e_0_energy">   -209.17126146 </i>
   </energy>
  </scstep>
  <scstep>
   <time name="dav">   31.36   31.43</time>
   <time name="total">   31.85   31.94</time>
   <energy>
    <i name="e_fr_energy">   -237.07601656 </i>
    <i name="e_wo_entrp">   -236.79735618 </i>
    <i name="e_0_energy">   -236.93668637 </i>
   </energy>
  </scstep>
  <scstep>
   <time name="dav">   33.15   33.23</time>
   <time name="total">   33.66   33.75</time>
   <energy>
    <i name="e_fr_energy">   -196.44658343 </i>
    <i name="e_wo_entrp">   -196.12982684 </i>
    <i name="e_0_energy">   -196.28820513 </i>
   </energy>
  </scstep>
  <scstep>
   <time name="dav">   30.61   30.69</time>
   <time name="total">   31.12   31.20</time>
   <energy>
    <i name="e_fr_energy">   -189.40273543 </i>
    <i name="e_wo_entrp">   -189.11112528 </i>
    <i name="e_0_energy">   -189.25693036 </i>
   </energy>
  </scstep>
  <scstep>
   <time name="dav">   32.23   32.31</time>
   <time name="total">   32.75   32.83</time>
   <energy>
    <i name="e_fr_energy">   -188.16948375 </i>
    <i name="e_wo_entrp">   -187.83017721 </i>
    <i name="e_0_energy">   -187.99983048 </i>
   </energy>
  </scstep>
  <scstep>
   <time name="dav">   33.41   33.49</time>
   <time name="total">   33.94   34.03</time>
   <energy>
    <i name="e_fr_energy">   -186.99903577 </i>
    <i name="e_wo_entrp">   -186.65148025 </i>
    <i name="e_0_energy">   -186.82525801 </i>
   </energy>
  </scstep>
  <scstep>
   <time name="dav">   33.00   33.08</time>
   <time name="total">   33.53   33.62</time>
   <energy>
    <i name="e_fr_energy">   -186.96750057 </i>
    <i name="e_wo_entrp">   -186.61768704 </i>
    <i name="e_0_energy">   -186.79259380 </i>
   </energy>
  </scstep>
  <scstep>
   <time name="dav">   30.62   30.70</time>
   <time name="total">   31.15   31.24</time>
   <energy>
    <i name="e_fr_energy">   -187.08975155 </i>
    <i name="e_wo_entrp">   -186.74989557 </i>
    <i name="e_0_energy">   -186.91982356 </i>
   </energy>
  </scstep>
  <scstep>
   <time name="dav">   32.38   32.46</time>
   <time name="total">   32.91   33.00</time>
   <energy>
    <i name="e_fr_energy">   -186.88107759 </i>
    <i name="e_wo_entrp">   -186.54419983 </i>
    <i name="e_0_energy">   -186.71263871 </i>
   </energy>
  </scstep>
  <scstep>
   <time name="dav">   32.99   33.07</time>
   <time name="total">   33.53   33.63</time>
   <energy>
    <i name="e_fr_energy">   -186.85667177 </i>
    <i name="e_wo_entrp">   -186.51199528 </i>
    <i name="e_0_energy">   -186.68433352 </i>
   </energy>
  </scstep>
  <scstep>
   <time name="dav">   30.02   30.09</time>
   <time name="total">   30.55   30.63</time>
   <energy>
    <i name="e_fr_energy">   -186.83708931 </i>
    <i name="e_wo_entrp">   -186.49029758 </i>
    <i name="e_0_energy">   -186.66369344 </i>
   </energy>
  </scstep>
  <scstep>
   <time name="dav">   29.89   29.96</time>
   <time name="total">   30.41   30.49</time>
   <energy>
    <i name="e_fr_energy">   -186.82943415 </i>
    <i name="e_wo_entrp">   -186.48265251 </i>
    <i name="e_0_energy">   -186.65604333 </i>
   </energy>
  </scstep>
  <scstep>
   <time name="dav">   31.70   31.78</time>
   <time name="total">   32.23   32.32</time>
   <energy>
    <i name="e_fr_energy">   -186.82755479 </i>
    <i name="e_wo_entrp">   -186.48273327 </i>
    <i name="e_0_energy">   -186.65514403 </i>
   </energy>
  </scstep>
  <scstep>
   <time name="dav">   29.38   29.45</time>
   <time name="total">   29.91   29.99</time>
   <energy>
    <i name="e_fr_energy">   -186.82709278 </i>
    <i name="e_wo_entrp">   -186.48202867 </i>
    <i name="e_0_energy">   -186.65456072 </i>
   </energy>
  </scstep>
  <scstep>
   <time name="dav">   28.08   28.14</time>
   <time name="total">   28.61   28.68</time>
   <energy>
    <i name="e_fr_energy">   -186.82673915 </i>
    <i name="e_wo_entrp">   -186.48138835 </i>
    <i name="e_0_energy">   -186.65406375 </i>
   </energy>
  </scstep>
  <scstep>
   <time name="dav">   24.28   24.33</time>
   <time name="total">   24.81   24.87</time>
   <energy>
    <i name="e_fr_energy">   -186.82747660 </i>
    <i name="e_wo_entrp">   -186.48230243 </i>
    <i name="e_0_energy">   -186.65488952 </i>
   </energy>
  </scstep>
  <scstep>
   <time name="dav">   21.81   21.86</time>
   <time name="total">   22.34   22.40</time>
   <energy>
    <i name="e_fr_energy">   -186.82806761 </i>
    <i name="e_wo_entrp">   -186.48306340 </i>
    <i name="e_0_energy">   -186.65556551 </i>
   </energy>
  </scstep>
  <scstep>
   <time name="dav">   20.94   20.99</time>
   <time name="total">   21.47   21.53</time>
   <energy>
    <i name="e_fr_energy">   -186.82923302 </i>
    <i name="e_wo_entrp">   -186.48406709 </i>
    <i name="e_0_energy">   -186.65665006 </i>
   </energy>
  </scstep>
  <scstep>
   <time name="dav">   20.72   20.77</time>
   <time name="total">   21.25   21.31</time>
   <energy>
    <i name="e_fr_energy">   -186.83045997 </i>
    <i name="e_wo_entrp">   -186.48540142 </i>
    <i name="e_0_energy">   -186.65793070 </i>
   </energy>
  </scstep>
  <scstep>
   <time name="dav">   19.05   19.10</time>
   <time name="total">   19.58   19.64</time>
   <energy>
    <i name="e_fr_energy">   -186.83104808 </i>
    <i name="e_wo_entrp">   -186.48597213 </i>
    <i name="e_0_energy">   -186.65851011 </i>
   </energy>
  </scstep>
  <scstep>
   <time name="dav">   17.41   17.45</time>
   <time name="total">   17.94   17.99</time>
   <energy>
    <i name="e_fr_energy">   -186.83141379 </i>
    <i name="e_wo_entrp">   -186.48629866 </i>
    <i name="e_0_energy">   -186.65885622 </i>
   </energy>
  </scstep>
  <scstep>
   <time name="dav">   19.25   19.29</time>
   <time name="total">   19.78   19.83</time>
   <energy>
    <i name="e_fr_energy">   -186.83164850 </i>
    <i name="e_wo_entrp">   -186.48654964 </i>
    <i name="e_0_energy">   -186.65909907 </i>
   </energy>
  </scstep>
  <scstep>
   <time name="dav">   20.20   20.25</time>
   <time name="total">   20.73   20.79</time>
   <energy>
    <i name="e_fr_energy">   -186.83175144 </i>
    <i name="e_wo_entrp">   -186.48665047 </i>
    <i name="e_0_energy">   -186.65920095 </i>
   </energy>
  </scstep>
  <scstep>
   <time name="dav">   20.41   20.46</time>
   <time name="total">   20.45   20.51</time>
   <energy>
    <i name="alphaZ">     81.65567618 </i>
    <i name="ewald">  41890.25209520 </i>
    <i name="hartreedc"> -47832.89615810 </i>
    <i name="XCdc">   -231.61129510 </i>
    <i name="pawpsdc">   4192.00686122 </i>
    <i name="pawaedc">  -3610.00932621 </i>
    <i name="eentropy">     -0.34509842 </i>
    <i name="bandstr">  -1437.32707117 </i>
    <i name="atom">   6761.44252427 </i>
    <i name="e_fr_energy">   -186.83179214 </i>
    <i name="e_wo_entrp">   -186.48669372 </i>
    <i name="e_0_energy">   -186.65924293 </i>
   </energy>
  </scstep>
  <structure>
   <crystal>
    <varray name="basis" >
     <v>       8.66999996       5.03999989       0.00000000 </v>
     <v>      -8.66999982       5.04000013       0.00000000 </v>
     <v>       0.00000000       0.00000000      30.00000000 </v>
    </varray>
    <i name="volume">   2621.80797419 </i>
    <varray name="rec_basis" >
     <v>       0.05767013       0.09920635       0.00000000 </v>
     <v>      -0.05767013       0.09920635       0.00000000 </v>
     <v>       0.00000000       0.00000000       0.03333333 </v>
    </varray>
   </crystal>
   <varray name="positions" >
    <v>       0.66666669       0.00000000       0.00000000 </v>
    <v>       0.00000000       0.00000000       0.00000000 </v>
    <v>       0.66666669       0.33333334       0.00000000 </v>
    <v>       0.33333334       0.33333334       0.00000000 </v>
    <v>       1.00000000       0.33333334       0.00000000 </v>
    <v>       0.33333334       0.00000000       0.00000000 </v>
    <v>       0.00000000       0.66666669       0.00000000 </v>
    <v>       0.33333334       0.66666669       0.00000000 </v>
    <v>       0.66666669       0.66666669       0.00000000 </v>
    <v>       0.11068511       0.22244981       0.95539999 </v>
    <v>       0.22244981       0.11068511       0.04460000 </v>
    <v>       0.11068511       0.55578315       0.95539999 </v>
    <v>       0.22244981       0.44401845       0.04460000 </v>
    <v>       0.11068511       0.88911647       0.95539999 </v>
    <v>       0.22244981       0.77735180       0.04460000 </v>
    <v>       0.44401845       0.22244981       0.95539999 </v>
    <v>       0.55578315       0.11068511       0.04460000 </v>
    <v>       0.44401845       0.55578315       0.95539999 </v>
    <v>       0.55578315       0.44401845       0.04460000 </v>
    <v>       0.44401845       0.88911647       0.95539999 </v>
    <v>       0.55578315       0.77735180       0.04460000 </v>
    <v>       0.77735180       0.22244981       0.95539999 </v>
    <v>       0.88911647       0.11068511       0.04460000 </v>
    <v>       0.77735180       0.55578315       0.95539999 </v>
    <v>       0.88911647       0.44401845       0.04460000 </v>
    <v>       0.77735180       0.88911647       0.95539999 </v>
    <v>       0.88911647       0.77735180       0.04460000 </v>
   </varray>
  </structure>
  <varray name="forces" >
   <v>      -0.19866568       0.20657311      -0.01067271 </v>
   <v>      -0.07590960       0.44311218      -0.08690861 </v>
   <v>       0.06559288      -0.28289856       0.09944788 </v>
   <v>       0.01803567      -0.29167358       0.09495589 </v>
   <v>       0.24615921       0.08550622       0.01601013 </v>
   <v>      -0.25137862       0.15487999      -0.00221638 </v>
   <v>       0.25166701       0.12454880      -0.09795911 </v>
   <v>      -0.00855067      -0.28775058      -0.02728576 </v>
   <v>      -0.01815394      -0.23788197      -0.02983332 </v>
   <v>       0.52781598      -0.73116454      -2.18334003 </v>
   <v>      -0.52482931      -0.67513174       2.17532216 </v>
   <v>       0.03565179       0.15335630      -2.95252169 </v>
   <v>      -0.18555956       0.17114524       2.91127645 </v>
   <v>      -0.69053947      -0.16328980      -2.13391608 </v>
   <v>      -0.04067347      -0.10627196       2.90991358 </v>
   <v>       0.53218646       0.69326616      -2.14781642 </v>
   <v>       0.31131443       0.69722423       1.45154785 </v>
   <v>       0.03825231       0.14619051      -2.88570796 </v>
   <v>       0.68313227       0.15091496       2.14106397 </v>
   <v>       0.61325314       0.53921032      -2.11293836 </v>
   <v>      -0.46714279       0.56207966       2.16884356 </v>
   <v>      -0.31375204      -0.66775337      -1.41289367 </v>
   <v>       0.31348724      -0.66305276       1.41510616 </v>
   <v>       0.46627644      -0.55138872      -2.14808773 </v>
   <v>      -0.62628150      -0.57573972       2.13732449 </v>
   <v>      -0.22391681       0.53425217      -1.41338671 </v>
   <v>      -0.47747137       0.57173746       2.12467242 </v>
  </varray>
  <varray name="stress" >
   <v>       7.30516107       0.13885280      -1.63158620 </v>
   <v>       0.13885291       4.42409055       0.14736475 </v>
   <v>      -1.63158616       0.14736481      30.32937532 </v>
  </varray>
  <energy>
   <i name="e_fr_energy">   -186.83179214 </i>
   <i name="e_wo_entrp">   -186.65924293 </i>
   <i name="e_0_energy">     -0.34509842 </i>
  </energy>
  <time name="totalsc">  815.92  818.13</time>
 </calculation>
 <calculation>
  <scstep>
   <time name="dav">   22.04   22.09</time>
   <time name="total">   22.57   22.63</time>
   <energy>
    <i name="alphaZ">     78.92709483 </i>
    <i name="ewald">  39382.17062479 </i>
    <i name="hartreedc"> -45339.65903181 </i>
    <i name="XCdc">   -239.06724193 </i>
    <i name="pawpsdc">   4192.00687865 </i>
    <i name="pawaedc">  -3610.00933710 </i>
    <i name="eentropy">     -0.28733156 </i>
    <i name="bandstr">  -1412.98350159 </i>
    <i name="atom">   6761.44252427 </i>
    <i name="e_fr_energy">   -187.45932144 </i>
    <i name="e_wo_entrp">   -187.17198987 </i>
    <i name="e_0_energy">   -187.31565565 </i>
   </energy>
  </scstep>
  <scstep>
   <time name="dav">   30.87   30.95</time>
   <time name="total">   31.41   31.49</time>
   <energy>
    <i name="e_fr_energy">   -189.26063912 </i>
    <i name="e_wo_entrp">   -188.94518012 </i>
    <i name="e_0_energy">   -189.10290962 </i>
   </energy>
  </scstep>
  <scstep>
   <time name="dav">   31.01   31.08</time>
   <time name="total">   31.55   31.63</time>
   <energy>
    <i name="e_fr_energy">   -189.36718554 </i>
    <i name="e_wo_entrp">   -189.08626449 </i>
    <i name="e_0_energy">   -189.22672501 </i>
   </energy>
  </scstep>
  <scstep>
   <time name="dav">   31.41   31.48</time>
   <time name="total">   31.95   32.03</time>
   <energy>
    <i name="e_fr_energy">   -188.72490111 </i>
    <i name="e_wo_entrp">   -188.43869767 </i>
    <i name="e_0_energy">   -188.58179939 </i>
   </energy>
  </scstep>
  <scstep>
   <time name="dav">   26.16   26.22</time>
   <time name="total">   26.70   26.77</time>
   <energy>
    <i name="e_fr_energy">   -188.72133893 </i>
    <i name="e_wo_entrp">   -188.43343270 </i>
    <i name="e_0_energy">   -188.57738582 </i>
   </energy>
  </scstep>
  <scstep>
   <time name="dav">   27.78   27.85</time>
   <time name="total">   28.32   28.40</time>
   <energy>
    <i name="e_fr_energy">   -188.66023000 </i>
    <i name="e_wo_entrp">   -188.37394039 </i>
    <i name="e_0_energy">   -188.51708520 </i>
   </energy>
  </scstep>
  <scstep>
   <time name="dav">   28.98   29.05</time>
   <time name="total">   29.52   29.60</time>
   <energy>
    <i name="e_fr_energy">   -188.64272039 </i>
    <i name="e_wo_entrp">   -188.35689123 </i>
    <i name="e_0_energy">   -188.49980581 </i>
   </energy>
  </scstep>
  <scstep>
   <time name="dav">   31.04   31.11</time>
   <time name="total">   31.58   31.66</time>
   <energy>
    <i name="e_fr_energy">   -188.63858659 </i>
    <i name="e_wo_entrp">   -188.35375833 </i>
    <i name="e_0_energy">   -188.49617246 </i>
   </energy>
  </scstep>
  <scstep>
   <time name="dav">   32.48   32.56</time>
   <time name="total">   33.02   33.11</time>
   <energy>
    <i name="e_fr_energy">   -188.63411960 </i>
    <i name="e_wo_entrp">   -188.34878578 </i>
    <i name="e_0_energy">   -188.49145269 </i>
   </energy>
  </scstep>
  <scstep>
   <time name="dav">   32.13   32.21</time>
   <time name="total">   32.67   32.76</time>
   <energy>
    <i name="e_fr_energy">   -188.63377176 </i>
    <i name="e_wo_entrp">   -188.34900689 </i>
    <i name="e_0_energy">   -188.49138932 </i>
   </energy>
  </scstep>
  <scstep>
   <time name="dav">   30.46   30.53</time>
   <time name="total">   31.00   31.08</time>
   <energy>
    <i name="e_fr_energy">   -188.63351945 </i>
    <i name="e_wo_entrp">   -188.34911875 </i>
    <i name="e_0_energy">   -188.49131910 </i>
   </energy>
  </scstep>
  <scstep>
   <time name="dav">   28.15   28.22</time>
   <time name="total">   28.70   28.77</time>
   <energy>
    <i name="e_fr_energy">   -188.63385422 </i>
    <i name="e_wo_entrp">   -188.34958534 </i>
    <i name="e_0_energy">   -188.49171978 </i>
   </energy>
  </scstep>
  <scstep>
   <time name="dav">   24.96   25.02</time>
   <time name="total">   25.50   25.57</time>
   <energy>
    <i name="e_fr_energy">   -188.63353183 </i>
    <i name="e_wo_entrp">   -188.34896680 </i>
    <i name="e_0_energy">   -188.49124932 </i>
   </energy>
  </scstep>
  <scstep>
   <time name="dav">   20.63   20.68</time>
   <time name="total">   21.17   21.23</time>
   <energy>
    <i name="e_fr_energy">   -188.63363977 </i>
    <i name="e_wo_entrp">   -188.34901873 </i>
    <i name="e_0_energy">   -188.49132925 </i>
   </energy>
  </scstep>
  <scstep>
   <time name="dav">   21.06   21.11</time>
   <time name="total">   21.10   21.15</time>
   <energy>
    <i name="alphaZ">     78.92709483 </i>
    <i name="ewald">  39382.17062479 </i>
    <i name="hartreedc"> -45350.08541311 </i>
    <i name="XCdc">   -237.98536542 </i>
    <i name="pawpsdc">   3949.08283395 </i>
    <i name="pawaedc">  -3363.57461207 </i>
    <i name="eentropy">     -0.28459618 </i>
    <i name="bandstr">  -1408.32676474 </i>
    <i name="atom">   6761.44252427 </i>
    <i name="e_fr_energy">   -188.63367368 </i>
    <i name="e_wo_entrp">   -188.34907750 </i>
    <i name="e_0_energy">   -188.49137559 </i>
   </energy>
  </scstep>
  <structure>
   <crystal>
    <varray name="basis" >
     <v>       8.85723148       5.10871450       0.00000000 </v>
     <v>      -8.85313898       5.10167492       0.00000000 </v>
     <v>       0.00000000       0.00000000      30.00000000 </v>
    </varray>
    <i name="volume">   2712.44625676 </i>
    <varray name="rec_basis" >
     <v>       0.05642517       0.09791684       0.00000000 </v>
     <v>      -0.05650303       0.09796210       0.00000000 </v>
     <v>       0.00000000       0.00000000       0.03333333 </v>
    </varray>
   </crystal>
   <varray name="positions" >
    <v>       0.66710262       0.00154137      -0.00001716 </v>
    <v>       0.00190953       0.00233192      -0.00013976 </v>
    <v>       0.66549523       0.33179691       0.00015992 </v>
    <v>       0.33198758       0.33188722       0.00015270 </v>
    <v>       1.00109409       0.33305772       0.00002575 </v>
    <v>       0.33337522       0.00144063      -0.00000356 </v>
    <v>       0.00129627       0.66656260      -0.00015753 </v>
    <v>       0.33193239       0.66531331      -0.00004388 </v>
    <v>       0.66547768       0.66557870      -0.00004797 </v>
    <v>       0.10865424       0.21748200       0.95188899 </v>
    <v>       0.21775848       0.10891410       0.04809811 </v>
    <v>       0.11151826       0.55641792       0.95065207 </v>
    <v>       0.22275265       0.44535381       0.04928159 </v>
    <v>       0.10798242       0.89025616       0.95196846 </v>
    <v>       0.22182803       0.77695634       0.04927940 </v>
    <v>       0.44881704       0.22428714       0.95194611 </v>
    <v>       0.55998618       0.11315588       0.04693422 </v>
    <v>       0.44482454       0.55637639       0.95075952 </v>
    <v>       0.55840601       0.44284015       0.04804302 </v>
    <v>       0.44830527       0.88999095       0.95200220 </v>
    <v>       0.55717359       0.78134156       0.04808769 </v>
    <v>       0.77328304       0.22012686       0.95312793 </v>
    <v>       0.88681528       0.10663958       0.04687561 </v>
    <v>       0.77601012       0.55184696       0.95194567 </v>
    <v>       0.88461857       0.44300539       0.04803701 </v>
    <v>       0.77928574       0.89229636       0.95312714 </v>
    <v>       0.89052439       0.78141652       0.04801666 </v>
   </varray>
  </structure>
  <varray name="forces" >
   <v>      -0.13981940       0.12080118      -0.07284980 </v>
   <v>      -0.02223083       0.40524798      -0.01492118 </v>
   <v>      -0.01844020      -0.24206586       0.02245293 </v>
   <v>      -0.08983981      -0.14829307       0.02400291 </v>
   <v>       0.16757038       0.43037966       0.06629401 </v>
   <v>      -0.23122089       0.00165911      -0.07188638 </v>
   <v>       0.37390428       0.21101933       0.06644113 </v>
   <v>      -0.03470749      -0.41624164      -0.00350332 </v>
   <v>      -0.04753421      -0.30697329       0.01621799 </v>
   <v>       0.04310256      -0.08997059      -0.16763077 </v>
   <v>      -0.04059449      -0.07426365       0.16213815 </v>
   <v>      -0.07187293       0.10411381      -0.15737207 </v>
   <v>      -0.03841139       0.11016257       0.18819812 </v>
   <v>      -0.00323068      -0.11064502      -0.03238478 </v>
   <v>       0.07115411      -0.09984044      -0.00425088 </v>
   <v>       0.03165176       0.07277991      -0.04277393 </v>
   <v>      -0.00024816       0.06224139       0.03566802 </v>
   <v>      -0.06514852       0.08844113      -0.01227934 </v>
   <v>      -0.01073555       0.09723351       0.03794920 </v>
   <v>       0.07764778      -0.03951088       0.13008134 </v>
   <v>       0.05522628      -0.05627958      -0.14436267 </v>
   <v>       0.00477893      -0.04420000       0.08324945 </v>
   <v>       0.00895055      -0.04556610      -0.06451693 </v>
   <v>      -0.03959937       0.05174263       0.13626927 </v>
   <v>      -0.08282306       0.05273634      -0.09645306 </v>
   <v>       0.06102314      -0.07268983       0.18545075 </v>
   <v>       0.04144720      -0.06201861      -0.26922816 </v>
  </varray>
  <varray name="stress" >
   <v>     -19.85550391      -0.01328469      -0.02926230 </v>
   <v>      -0.01328464     -19.45723547       0.00997661 </v>
   <v>      -0.02926221       0.00997666      -1.67457296 </v>
  </varray>
  <energy>
   <i name="e_fr_energy">   -188.63367368 </i>
   <i name="e_wo_entrp">   -188.49137559 </i>
   <i name="e_0_energy">     -0.28459618 </i>
  </energy>
  <time name="totalsc">  469.64  470.89</time>
 </calculation>
 <calculation>
  <scstep>
   <time name="dav">   24.36   24.42</time>
   <time name="total">   24.89   24.96</time>
   <energy>
    <i name="alphaZ">     82.35323621 </i>
    <i name="ewald">  41305.79125901 </i>
    <i name="hartreedc"> -47304.35850167 </i>
    <i name="XCdc">   -233.86215090 </i>
    <i name="pawpsdc">   3949.02691192 </i>
    <i name="pawaedc">  -3363.51864338 </i>
    <i name="eentropy">     -0.23671630 </i>
    <i name="bandstr">  -1387.18990114 </i>
    <i name="atom">   6761.44252427 </i>
    <i name="e_fr_energy">   -190.55198199 </i>
    <i name="e_wo_entrp">   -190.31526569 </i>
    <i name="e_0_energy">   -190.43362384 </i>
   </energy>
  </scstep>
  <scstep>
   <time name="dav">   29.49   29.56</time>
   <time name="total">   30.01   30.09</time>
   <energy>
    <i name="e_fr_energy">   -190.54592353 </i>
    <i name="e_wo_entrp">   -190.30630227 </i>
    <i name="e_0_energy">   -190.42611290 </i>
   </energy>
  </scstep>
  <scstep>
   <time name="dav">   30.79   30.86</time>
   <time name="total">   31.31   31.39</time>
   <energy>
    <i name="e_fr_energy">   -190.02451484 </i>
    <i name="e_wo_entrp">   -189.77593079 </i>
    <i name="e_0_energy">   -189.90022282 </i>
   </energy>
  </scstep>
  <scstep>
   <time name="dav">   32.12   32.20</time>
   <time name="total">   32.65   32.74</time>
   <energy>
    <i name="e_fr_energy">   -189.81991528 </i>
    <i name="e_wo_entrp">   -189.58250570 </i>
    <i name="e_0_energy">   -189.70121049 </i>
   </energy>
  </scstep>
  <scstep>
   <time name="dav">   28.91   28.98</time>
   <time name="total">   29.44   29.52</time>
   <energy>
    <i name="e_fr_energy">   -189.73722103 </i>
    <i name="e_wo_entrp">   -189.49499924 </i>
    <i name="e_0_energy">   -189.61611014 </i>
   </energy>
  </scstep>
  <scstep>
   <time name="dav">   29.99   30.06</time>
   <time name="total">   30.52   30.60</time>
   <energy>
    <i name="e_fr_energy">   -189.72306247 </i>
    <i name="e_wo_entrp">   -189.48414131 </i>
    <i name="e_0_energy">   -189.60360189 </i>
   </energy>
  </scstep>
  <scstep>
   <time name="dav">   30.61   30.69</time>
   <time name="total">   31.14   31.23</time>
   <energy>
    <i name="e_fr_energy">   -189.71710595 </i>
    <i name="e_wo_entrp">   -189.47726560 </i>
    <i name="e_0_energy">   -189.59718578 </i>
   </energy>
  </scstep>
  <scstep>
   <time name="dav">   27.07   27.14</time>
   <time name="total">   27.60   27.67</time>
   <energy>
    <i name="e_fr_energy">   -189.71695910 </i>
    <i name="e_wo_entrp">   -189.47743129 </i>
    <i name="e_0_energy">   -189.59719519 </i>
   </energy>
  </scstep>
  <scstep>
   <time name="dav">   28.26   28.33</time>
   <time name="total">   28.80   28.87</time>
   <energy>
    <i name="e_fr_energy">   -189.71717483 </i>
    <i name="e_wo_entrp">   -189.47739019 </i>
    <i name="e_0_energy">   -189.59728251 </i>
   </energy>
  </scstep>
  <scstep>
   <time name="dav">   26.23   26.30</time>
   <time name="total">   26.77   26.83</time>
   <energy>
    <i name="e_fr_energy">   -189.71757380 </i>
    <i name="e_wo_entrp">   -189.47788012 </i>
    <i name="e_0_energy">   -189.59772696 </i>
   </energy>
  </scstep>
  <scstep>
   <time name="dav">   25.51   25.57</time>
   <time name="total">   26.04   26.11</time>
   <energy>
    <i name="e_fr_energy">   -189.71699038 </i>
    <i name="e_wo_entrp">   -189.47722978 </i>
    <i name="e_0_energy">   -189.59711008 </i>
   </energy>
  </scstep>
  <scstep>
   <time name="dav">   17.13   17.17</time>
   <time name="total">   17.17   17.23</time>
   <energy>
    <i name="alphaZ">     82.35323621 </i>
    <i name="ewald">  41305.79125901 </i>
    <i name="hartreedc"> -47278.02583357 </i>
    <i name="XCdc">   -235.25359963 </i>
    <i name="pawpsdc">   4038.50846377 </i>
    <i name="pawaedc">  -3454.20494475 </i>
    <i name="eentropy">     -0.23969545 </i>
    <i name="bandstr">  -1410.08842275 </i>
    <i name="atom">   6761.44252427 </i>
    <i name="e_fr_energy">   -189.71701291 </i>
    <i name="e_wo_entrp">   -189.47731746 </i>
    <i name="e_0_energy">   -189.59716518 </i>
   </energy>
  </scstep>
  <structure>
   <crystal>
    <varray name="basis" >
     <v>       8.66907186       5.00227900       0.00000000 </v>
     <v>      -8.66521134       4.99563754       0.00000000 </v>
     <v>       0.00000000       0.00000000      30.00000000 </v>
    </varray>
    <i name="volume">   2599.60036538 </i>
    <varray name="rec_basis" >
     <v>       0.05765083       0.09999858       0.00000000 </v>
     <v>      -0.05772748       0.10004313       0.00000000 </v>
     <v>       0.00000000       0.00000000       0.03333333 </v>
    </varray>
   </crystal>
   <varray name="positions" >
    <v>       0.66716981       0.00187797      -0.00005858 </v>
    <v>       0.00256495       0.00303047      -0.00014824 </v>
    <v>       0.66507320       0.33141021       0.00017269 </v>
    <v>       0.33165345       0.33172602       0.00016634 </v>
    <v>       1.00197415       0.33361535       0.00006344 </v>
    <v>       0.33315546       0.00166624      -0.00004444 </v>
    <v>       0.00200855       0.66655484      -0.00011975 </v>
    <v>       0.33120380       0.66465126      -0.00004587 </v>
    <v>       0.66491925       0.66511158      -0.00003875 </v>
    <v>       0.10854546       0.21729013       0.95179368 </v>
    <v>       0.21759539       0.10882914       0.04819029 </v>
    <v>       0.11162297       0.55666116       0.95056260 </v>
    <v>       0.22289967       0.44557490       0.04938859 </v>
    <v>       0.10779452       0.89007439       0.95195005 </v>
    <v>       0.22172977       0.77672094       0.04927698 </v>
    <v>       0.44896905       0.22437824       0.95192179 </v>
    <v>       0.56008989       0.11326012       0.04695450 </v>
    <v>       0.44490955       0.55658696       0.95075253 </v>
    <v>       0.55855807       0.44301296       0.04806460 </v>
    <v>       0.44831401       0.88985009       0.95207616 </v>
    <v>       0.55713274       0.78119430       0.04800561 </v>
    <v>       0.77321382       0.22004841       0.95317526 </v>
    <v>       0.88674780       0.10655482       0.04683893 </v>
    <v>       0.77605842       0.55197158       0.95202315 </v>
    <v>       0.88462694       0.44317333       0.04798217 </v>
    <v>       0.77922307       0.89211609       0.95323258 </v>
    <v>       0.89046070       0.78127295       0.04786359 </v>
   </varray>
  </structure>
  <varray name="forces" >
   <v>      -0.12096002       0.07549154      -0.07423863 </v>
   <v>       0.01219651       0.39913178       0.00519390 </v>
   <v>      -0.06750654      -0.22044440      -0.00231330 </v>
   <v>      -0.12946001      -0.09777211       0.00106869 </v>
   <v>       0.13730631       0.54226272       0.05552718 </v>
   <v>      -0.22077052      -0.05386361      -0.07004101 </v>
   <v>       0.42923674       0.23188473       0.08356949 </v>
   <v>      -0.04200763      -0.47221590      -0.00218428 </v>
   <v>      -0.05637977      -0.33784404       0.02121602 </v>
   <v>       0.07580712      -0.14042085      -0.66280704 </v>
   <v>      -0.07875096      -0.13852583       0.65713131 </v>
   <v>      -0.02278100       0.02907163      -0.74580976 </v>
   <v>       0.00892211       0.04487743       0.75378963 </v>
   <v>      -0.11732512      -0.04403816      -0.53306402 </v>
   <v>       0.03527305      -0.01433287       0.55240952 </v>
   <v>       0.05823352       0.13746318      -0.52326298 </v>
   <v>       0.03440971       0.11109638       0.48886329 </v>
   <v>      -0.02924651       0.00572225      -0.56849455 </v>
   <v>       0.10364211       0.00724711       0.54453464 </v>
   <v>       0.07496777       0.07991726      -0.34098874 </v>
   <v>      -0.03492317       0.06262122       0.35272890 </v>
   <v>      -0.02533414      -0.08239254      -0.34543136 </v>
   <v>       0.04339320      -0.10145859       0.37198893 </v>
   <v>       0.04676463      -0.07052753      -0.35378759 </v>
   <v>      -0.07017864      -0.07870280       0.38936771 </v>
   <v>      -0.01351729       0.06308480      -0.26080062 </v>
   <v>      -0.03101145       0.06266721       0.20583470 </v>
  </varray>
  <varray name="stress" >
   <v>     -10.19888826      -0.03988584      -0.03483977 </v>
   <v>      -0.03988576      -9.84950870      -0.02357471 </v>
   <v>      -0.03483982      -0.02357489       6.49409338 </v>
  </varray>
  <energy>
   <i name="e_fr_energy">   -189.71701291 </i>
   <i name="e_wo_entrp">   -189.59716518 </i>
   <i name="e_0_energy">     -0.23969545 </i>
  </energy>
  <time name="totalsc">  379.18  380.19</time>
 </calculation>
 <calculation>
  <scstep>
   <time name="dav">   21.98   22.03</time>
   <time name="total">   22.49   22.55</time>
   <energy>
    <i name="alphaZ">     85.86164510 </i>
    <i name="ewald">  42852.75992742 </i>
    <i name="hartreedc"> -48869.77789339 </i>
    <i name="XCdc">   -232.93657008 </i>
    <i name="pawpsdc">   4038.52644321 </i>
    <i name="pawaedc">  -3454.22010423 </i>
    <i name="eentropy">     -0.19608787 </i>
    <i name="bandstr">  -1372.74201984 </i>
    <i name="atom">   6761.44252427 </i>
    <i name="e_fr_energy">   -191.28213541 </i>
    <i name="e_wo_entrp">   -191.08604754 </i>
    <i name="e_0_energy">   -191.18409147 </i>
   </energy>
  </scstep>
  <scstep>
   <time name="dav">   33.11   33.19</time>
   <time name="total">   33.62   33.70</time>
   <energy>
    <i name="e_fr_energy">   -191.15720398 </i>
    <i name="e_wo_entrp">   -190.95464896 </i>
    <i name="e_0_energy">   -191.05592647 </i>
   </energy>
  </scstep>
  <scstep>
   <time name="dav">   30.73   30.81</time>
   <time name="total">   31.24   31.33</time>
   <energy>
    <i name="e_fr_energy">   -191.19699864 </i>
    <i name="e_wo_entrp">   -190.98049113 </i>
    <i name="e_0_energy">   -191.08874488 </i>
   </energy>
  </scstep>
  <scstep>
   <time name="dav">   31.43   31.50</time>
   <time name="total">   31.95   32.03</time>
   <energy>
    <i name="e_fr_energy">   -190.83765602 </i>
    <i name="e_wo_entrp">   -190.63348266 </i>
    <i name="e_0_energy">   -190.73556934 </i>
   </energy>
  </scstep>
  <scstep>
   <time name="dav">   30.09   30.16</time>
   <time name="total">   30.60   30.68</time>
   <energy>
    <i name="e_fr_energy">   -190.83340575 </i>
    <i name="e_wo_entrp">   -190.63550529 </i>
    <i name="e_0_energy">   -190.73445552 </i>
   </energy>
  </scstep>
  <scstep>
   <time name="dav">   30.46   30.54</time>
   <time name="total">   30.98   31.06</time>
   <energy>
    <i name="e_fr_energy">   -190.68853202 </i>
    <i name="e_wo_entrp">   -190.48443785 </i>
    <i name="e_0_energy">   -190.58648493 </i>
   </energy>
  </scstep>
  <scstep>
   <time name="dav">   30.93   31.00</time>
   <time name="total">   31.44   31.53</time>
   <energy>
    <i name="e_fr_energy">   -190.68307398 </i>
    <i name="e_wo_entrp">   -190.48104998 </i>
    <i name="e_0_energy">   -190.58206198 </i>
   </energy>
  </scstep>
  <scstep>
   <time name="dav">   29.45   29.52</time>
   <time name="total">   29.97   30.05</time>
   <energy>
    <i name="e_fr_energy">   -190.68154818 </i>
    <i name="e_wo_entrp">   -190.47930733 </i>
    <i name="e_0_energy">   -190.58042775 </i>
   </energy>
  </scstep>
  <scstep>
   <time name="dav">   28.79   28.86</time>
   <time name="total">   29.31   29.38</time>
   <energy>
    <i name="e_fr_energy">   -190.67935461 </i>
    <i name="e_wo_entrp">   -190.47700741 </i>
    <i name="e_0_energy">   -190.57818101 </i>
   </energy>
  </scstep>
  <scstep>
   <time name="dav">   26.86   26.92</time>
   <time name="total">   27.37   27.44</time>
   <energy>
    <i name="e_fr_energy">   -190.67962690 </i>
    <i name="e_wo_entrp">   -190.47699580 </i>
    <i name="e_0_energy">   -190.57831135 </i>
   </energy>
  </scstep>
  <scstep>
   <time name="dav">   26.92   26.98</time>
   <time name="total">   27.43   27.51</time>
   <energy>
    <i name="e_fr_energy">   -190.67946693 </i>
    <i name="e_wo_entrp">   -190.47706236 </i>
    <i name="e_0_energy">   -190.57826465 </i>
   </energy>
  </scstep>
  <scstep>
   <time name="dav">   20.16   20.20</time>
   <time name="total">   20.19   20.25</time>
   <energy>
    <i name="alphaZ">     85.86164510 </i>
    <i name="ewald">  42852.75992742 </i>
    <i name="hartreedc"> -48840.97896356 </i>
    <i name="XCdc">   -234.28256238 </i>
    <i name="pawpsdc">   4063.65765408 </i>
    <i name="pawaedc">  -3479.53299855 </i>
    <i name="eentropy">     -0.20242332 </i>
    <i name="bandstr">  -1399.40426390 </i>
    <i name="atom">   6761.44252427 </i>
    <i name="e_fr_energy">   -190.67946083 </i>
    <i name="e_wo_entrp">   -190.47703751 </i>
    <i name="e_0_energy">   -190.57824917 </i>
   </energy>
  </scstep>
  <structure>
   <crystal>
    <varray name="basis" >
     <v>       8.48406145       4.90032559       0.00000000 </v>
     <v>      -8.48216933       4.89708799       0.00000000 </v>
     <v>       0.00000000       0.00000000      30.00000000 </v>
    </varray>
    <i name="volume">   2493.37760389 </i>
    <varray name="rec_basis" >
     <v>       0.05892114       0.10205638       0.00000000 </v>
     <v>      -0.05896009       0.10207914       0.00000000 </v>
     <v>       0.00000000       0.00000000       0.03333333 </v>
    </varray>
   </crystal>
   <varray name="positions" >
    <v>       0.66711912       0.00264997      -0.00021398 </v>
    <v>       0.00515235       0.00543045      -0.00012020 </v>
    <v>       0.66342625       0.33039489       0.00014664 </v>
    <v>       0.33063952       0.33176600       0.00014889 </v>
    <v>       1.00611796       0.33685284       0.00016954 </v>
    <v>       0.33189208       0.00197354      -0.00018834 </v>
    <v>       0.00515453       0.66642740       0.00006853 </v>
    <v>       0.32793196       0.66170395      -0.00004928 </v>
    <v>       0.66250088       0.66312688       0.00000960 </v>
    <v>       0.10785800       0.21595734       0.94999212 </v>
    <v>       0.21622199       0.10813736       0.04997990 </v>
    <v>       0.11160533       0.55666607       0.94850863 </v>
    <v>       0.22311829       0.44559131       0.05143954 </v>
    <v>       0.10709469       0.89055705       0.95041328 </v>
    <v>       0.22193087       0.77677054       0.05090195 </v>
    <v>       0.45024566       0.22515569       0.95042270 </v>
    <v>       0.56108628       0.11390658       0.04835872 </v>
    <v>       0.44468322       0.55646834       0.94909453 </v>
    <v>       0.55891857       0.44228927       0.04963026 </v>
    <v>       0.44938504       0.89038552       0.95096377 </v>
    <v>       0.55756846       0.78214561       0.04916471 </v>
    <v>       0.77246419       0.21956977       0.95209001 </v>
    <v>       0.88617655       0.10556841       0.04798606 </v>
    <v>       0.77560194       0.55092460       0.95086789 </v>
    <v>       0.88356511       0.44258340       0.04920770 </v>
    <v>       0.77980446       0.89301247       0.95230805 </v>
    <v>       0.89095114       0.78219921       0.04869865 </v>
   </varray>
  </structure>
  <varray name="forces" >
   <v>      -0.07266899       0.05820110      -0.04901590 </v>
   <v>       0.02039410       0.36878508       0.05218945 </v>
   <v>      -0.15278001      -0.21974358      -0.04854148 </v>
   <v>      -0.15038975      -0.02305103      -0.02439749 </v>
   <v>       0.09395189       0.60867445       0.01027142 </v>
   <v>      -0.22724046      -0.06807299      -0.03204348 </v>
   <v>       0.53433651       0.25803385       0.05173910 </v>
   <v>      -0.03163881      -0.53377250       0.00617866 </v>
   <v>      -0.10847242      -0.38240475       0.02833806 </v>
   <v>       0.01180154      -0.01799063      -0.48117183 </v>
   <v>      -0.04797586      -0.03009512       0.46317406 </v>
   <v>       0.01991899      -0.01503766      -0.62183554 </v>
   <v>       0.04909164       0.01068531       0.61580041 </v>
   <v>      -0.04553256      -0.02497686      -0.38335664 </v>
   <v>       0.02381966       0.07000797       0.40303184 </v>
   <v>      -0.00173757       0.01947819      -0.36598409 </v>
   <v>      -0.01699423       0.00524011       0.37606775 </v>
   <v>      -0.01552107      -0.06300634      -0.40929288 </v>
   <v>       0.04323092      -0.07967243       0.41574602 </v>
   <v>       0.01234903      -0.01277083      -0.19110894 </v>
   <v>      -0.05429359      -0.01376899       0.20997292 </v>
   <v>       0.02955852       0.04935966      -0.21806734 </v>
   <v>      -0.00997255       0.04011580       0.24910425 </v>
   <v>       0.05491894      -0.01872242      -0.15518946 </v>
   <v>       0.02855890      -0.02887334       0.25429946 </v>
   <v>       0.01482463       0.02517142      -0.17499291 </v>
   <v>      -0.00153740       0.01820653       0.01908459 </v>
  </varray>
  <varray name="stress" >
   <v>      -5.78576303       0.07945711      -0.05656248 </v>
   <v>       0.07945702      -5.72847953       0.05319043 </v>
   <v>      -0.05656238       0.05319063       4.56449950 </v>
  </varray>
  <energy>
   <i name="e_fr_energy">   -190.67946083 </i>
   <i name="e_wo_entrp">   -190.57824917 </i>
   <i name="e_0_energy">     -0.20242332 </i>
  </energy>
  <time name="totalsc">  389.57  390.60</time>
 </calculation>
 <calculation>
  <scstep>
   <time name="dav">   22.03   22.08</time>
   <time name="total">   22.53   22.59</time>
   <energy>
    <i name="alphaZ">     90.23223252 </i>
    <i name="ewald">  44691.63300018 </i>
    <i name="hartreedc"> -50735.39208734 </i>
    <i name="XCdc">   -231.81644542 </i>
    <i name="pawpsdc">   4063.60508488 </i>
    <i name="pawaedc">  -3479.47529389 </i>
    <i name="eentropy">     -0.18024974 </i>
    <i name="bandstr">  -1352.11279760 </i>
    <i name="atom">   6761.44252427 </i>
    <i name="e_fr_energy">   -192.06403214 </i>
    <i name="e_wo_entrp">   -191.88378240 </i>
    <i name="e_0_energy">   -191.97390727 </i>
   </energy>
  </scstep>
  <scstep>
   <time name="dav">   30.21   30.29</time>
   <time name="total">   30.72   30.80</time>
   <energy>
    <i name="e_fr_energy">   -191.84180750 </i>
    <i name="e_wo_entrp">   -191.64960299 </i>
    <i name="e_0_energy">   -191.74570524 </i>
   </energy>
  </scstep>
  <scstep>
   <time name="dav">   30.53   30.61</time>
   <time name="total">   31.04   31.12</time>
   <energy>
    <i name="e_fr_energy">   -192.22540326 </i>
    <i name="e_wo_entrp">   -192.02407264 </i>
    <i name="e_0_energy">   -192.12473795 </i>
   </energy>
  </scstep>
  <scstep>
   <time name="dav">   30.39   30.46</time>
   <time name="total">   30.90   30.98</time>
   <energy>
    <i name="e_fr_energy">   -191.56108596 </i>
    <i name="e_wo_entrp">   -191.37341900 </i>
    <i name="e_0_energy">   -191.46725248 </i>
   </energy>
  </scstep>
  <scstep>
   <time name="dav">   30.74   30.81</time>
   <time name="total">   31.24   31.33</time>
   <energy>
    <i name="e_fr_energy">   -191.38798282 </i>
    <i name="e_wo_entrp">   -191.20215016 </i>
    <i name="e_0_energy">   -191.29506649 </i>
   </energy>
  </scstep>
  <scstep>
   <time name="dav">   31.22   31.30</time>
   <time name="total">   31.72   31.81</time>
   <energy>
    <i name="e_fr_energy">   -191.37117682 </i>
    <i name="e_wo_entrp">   -191.17723755 </i>
    <i name="e_0_energy">   -191.27420718 </i>
   </energy>
  </scstep>
  <scstep>
   <time name="dav">   30.55   30.63</time>
   <time name="total">   31.06   31.14</time>
   <energy>
    <i name="e_fr_energy">   -191.34723498 </i>
    <i name="e_wo_entrp">   -191.16031774 </i>
    <i name="e_0_energy">   -191.25377636 </i>
   </energy>
  </scstep>
  <scstep>
   <time name="dav">   28.41   28.48</time>
   <time name="total">   28.91   28.99</time>
   <energy>
    <i name="e_fr_energy">   -191.33987187 </i>
    <i name="e_wo_entrp">   -191.15150217 </i>
    <i name="e_0_energy">   -191.24568702 </i>
   </energy>
  </scstep>
  <scstep>
   <time name="dav">   31.23   31.31</time>
   <time name="total">   31.74   31.82</time>
   <energy>
    <i name="e_fr_energy">   -191.34118907 </i>
    <i name="e_wo_entrp">   -191.15250703 </i>
    <i name="e_0_energy">   -191.24684805 </i>
   </energy>
  </scstep>
  <scstep>
   <time name="dav">   28.72   28.79</time>
   <time name="total">   29.23   29.31</time>
   <energy>
    <i name="e_fr_energy">   -191.34015906 </i>
    <i name="e_wo_entrp">   -191.15154976 </i>
    <i name="e_0_energy">   -191.24585441 </i>
   </energy>
  </scstep>
  <scstep>
   <time name="dav">   26.77   26.83</time>
   <time name="total">   27.27   27.35</time>
   <energy>
    <i name="e_fr_energy">   -191.33999254 </i>
    <i name="e_wo_entrp">   -191.15132791 </i>
    <i name="e_0_energy">   -191.24566023 </i>
   </energy>
  </scstep>
  <scstep>
   <time name="dav">   20.68   20.73</time>
   <time name="total">   20.71   20.77</time>
   <energy>
    <i name="alphaZ">     90.23223252 </i>
    <i name="ewald">  44691.63300018 </i>
    <i name="hartreedc"> -50701.19305831 </i>
    <i name="XCdc">   -233.35930436 </i>
    <i name="pawpsdc">   4084.64518687 </i>
    <i name="pawaedc">  -3500.58679720 </i>
    <i name="eentropy">     -0.18864167 </i>
    <i name="bandstr">  -1383.96510130 </i>
    <i name="atom">   6761.44252427 </i>
    <i name="e_fr_energy">   -191.33995901 </i>
    <i name="e_wo_entrp">   -191.15131734 </i>
    <i name="e_0_energy">   -191.24563817 </i>
   </energy>
  </scstep>
  <structure>
   <crystal>
    <varray name="basis" >
     <v>       8.27573315       4.78477400       0.00000000 </v>
     <v>      -8.27005823       4.77498417       0.00000000 </v>
     <v>       0.00000000       0.00000000      30.00000000 </v>
    </varray>
    <i name="volume">   2372.60563048 </i>
    <varray name="rec_basis" >
     <v>       0.06037646       0.10456932       0.00000000 </v>
     <v>      -0.06050024       0.10464107       0.00000000 </v>
     <v>       0.00000000       0.00000000       0.03333333 </v>
    </varray>
   </crystal>
   <varray name="positions" >
    <v>       0.66720088       0.00379086      -0.00042464 </v>
    <v>       0.00989790       0.00978955       0.00008268 </v>
    <v>       0.65971521       0.32884390      -0.00004667 </v>
    <v>       0.32926834       0.33261473       0.00004261 </v>
    <v>       1.01444421       0.34386845       0.00022433 </v>
    <v>       0.32933755       0.00258725      -0.00033493 </v>
    <v>       0.01210275       0.66583343       0.00030912 </v>
    <v>       0.32108711       0.65534962      -0.00002781 </v>
    <v>       0.65706920       0.65915775       0.00012384 </v>
    <v>       0.10748622       0.21518529       0.94748550 </v>
    <v>       0.21505277       0.10783372       0.05242112 </v>
    <v>       0.11145939       0.55615705       0.94537960 </v>
    <v>       0.22350499       0.44520311       0.05452953 </v>
    <v>       0.10636763       0.89099402       0.94830899 </v>
    <v>       0.22301431       0.77761467       0.05313975 </v>
    <v>       0.45095936       0.22568939       0.94840357 </v>
    <v>       0.56145666       0.11430245       0.05036727 </v>
    <v>       0.44372399       0.55563532       0.94682688 </v>
    <v>       0.55838275       0.44064278       0.05185842 </v>
    <v>       0.44987295       0.89058653       0.94965613 </v>
    <v>       0.55735625       0.78296515       0.05056945 </v>
    <v>       0.77284330       0.21973733       0.95072860 </v>
    <v>       0.88630747       0.10562216       0.04947669 </v>
    <v>       0.77545650       0.54972937       0.94965874 </v>
    <v>       0.88287509       0.44163794       0.05077419 </v>
    <v>       0.78052240       0.89382445       0.95112371 </v>
    <v>       0.89144929       0.78301817       0.04934323 </v>
   </varray>
  </structure>
  <varray name="forces" >
   <v>       0.01117846       0.10821511      -0.05272853 </v>
   <v>      -0.02803030       0.34177956       0.00580479 </v>
   <v>      -0.24802601      -0.30615804      -0.01349402 </v>
   <v>      -0.01199910       0.08597064       0.03876831 </v>
   <v>       0.03367481       0.29851051      -0.02248203 </v>
   <v>      -0.18828176      -0.00813754       0.02470973 </v>
   <v>       0.46943510       0.22400249      -0.05327444 </v>
   <v>       0.07209728      -0.27947114       0.06654732 </v>
   <v>      -0.24710053      -0.45367661       0.04638274 </v>
   <v>      -0.06898064       0.10159558      -0.12637263 </v>
   <v>      -0.02310476       0.07780787       0.13150084 </v>
   <v>       0.02962698      -0.00047955      -0.35909625 </v>
   <v>       0.09116298       0.01424894       0.28322534 </v>
   <v>       0.04002975      -0.04615690      -0.04977634 </v>
   <v>       0.09514098       0.13780383       0.15316330 </v>
   <v>      -0.08086622      -0.10522446      -0.11810331 </v>
   <v>      -0.06544959      -0.06620403       0.02853661 </v>
   <v>      -0.07433737      -0.09695684      -0.19821960 </v>
   <v>      -0.01740087      -0.12430958       0.13462892 </v>
   <v>      -0.04206326      -0.17607797       0.12085976 </v>
   <v>      -0.07455776      -0.15550328      -0.02183491 </v>
   <v>       0.04417632       0.18491484       0.09132679 </v>
   <v>      -0.06403754       0.19878126      -0.01073132 </v>
   <v>       0.03164552       0.08043448       0.18539634 </v>
   <v>       0.13392795       0.07125430      -0.06921163 </v>
   <v>       0.06581636      -0.03011797       0.09984012 </v>
   <v>       0.11632321      -0.07684551      -0.31536590 </v>
  </varray>
  <varray name="stress" >
   <v>      -0.30635602       0.18481736       0.27760948 </v>
   <v>       0.18481745       0.11808779       0.18656981 </v>
   <v>       0.27760947       0.18656980      -0.43393531 </v>
  </varray>
  <energy>
   <i name="e_fr_energy">   -191.33995901 </i>
   <i name="e_wo_entrp">   -191.24563817 </i>
   <i name="e_0_energy">     -0.18864167 </i>
  </energy>
  <time name="totalsc">  389.85  390.88</time>
 </calculation>
 <calculation>
  <scstep>
   <time name="dav">   21.99   22.04</time>
   <time name="total">   22.49   22.55</time>
   <energy>
    <i name="alphaZ">     90.31746058 </i>
    <i name="ewald">  44707.99125974 </i>
    <i name="hartreedc"> -50719.27504447 </i>
    <i name="XCdc">   -233.39213357 </i>
    <i name="pawpsdc">   4084.53892808 </i>
    <i name="pawaedc">  -3500.47539945 </i>
    <i name="eentropy">     -0.18942616 </i>
    <i name="bandstr">  -1382.38483789 </i>
    <i name="atom">   6761.44252427 </i>
    <i name="e_fr_energy">   -191.42666888 </i>
    <i name="e_wo_entrp">   -191.23724271 </i>
    <i name="e_0_energy">   -191.33195580 </i>
   </energy>
  </scstep>
  <scstep>
   <time name="dav">   32.79   32.87</time>
   <time name="total">   33.30   33.39</time>
   <energy>
    <i name="e_fr_energy">   -191.48932583 </i>
    <i name="e_wo_entrp">   -191.28875372 </i>
    <i name="e_0_energy">   -191.38903978 </i>
   </energy>
  </scstep>
  <scstep>
   <time name="dav">   30.83   30.91</time>
   <time name="total">   31.34   31.42</time>
   <energy>
    <i name="e_fr_energy">   -191.44246258 </i>
    <i name="e_wo_entrp">   -191.25242339 </i>
    <i name="e_0_energy">   -191.34744298 </i>
   </energy>
  </scstep>
  <scstep>
   <time name="dav">   29.54   29.61</time>
   <time name="total">   30.04   30.12</time>
   <energy>
    <i name="e_fr_energy">   -191.44289168 </i>
    <i name="e_wo_entrp">   -191.25181059 </i>
    <i name="e_0_energy">   -191.34735113 </i>
   </energy>
  </scstep>
  <scstep>
   <time name="dav">   29.55   29.62</time>
   <time name="total">   30.05   30.13</time>
   <energy>
    <i name="e_fr_energy">   -191.43752980 </i>
    <i name="e_wo_entrp">   -191.24618622 </i>
    <i name="e_0_energy">   -191.34185801 </i>
   </energy>
  </scstep>
  <scstep>
   <time name="dav">   27.92   27.99</time>
   <time name="total">   28.42   28.50</time>
   <energy>
    <i name="e_fr_energy">   -191.43707823 </i>
    <i name="e_wo_entrp">   -191.24548611 </i>
    <i name="e_0_energy">   -191.34128217 </i>
   </energy>
  </scstep>
  <scstep>
   <time name="dav">   26.58   26.64</time>
   <time name="total">   27.08   27.15</time>
   <energy>
    <i name="e_fr_energy">   -191.43684329 </i>
    <i name="e_wo_entrp">   -191.24506959 </i>
    <i name="e_0_energy">   -191.34095644 </i>
   </energy>
  </scstep>
  <scstep>
   <time name="dav">   25.00   25.06</time>
   <time name="total">   25.04   25.10</time>
   <energy>
    <i name="alphaZ">     90.31746058 </i>
    <i name="ewald">  44707.99125974 </i>
    <i name="hartreedc"> -50719.54394381 </i>
    <i name="XCdc">   -233.39715654 </i>
    <i name="pawpsdc">   4083.04867412 </i>
    <i name="pawaedc">  -3498.95409416 </i>
    <i name="eentropy">     -0.19158751 </i>
    <i name="bandstr">  -1382.14993497 </i>
    <i name="atom">   6761.44252427 </i>
    <i name="e_fr_energy">   -191.43679828 </i>
    <i name="e_wo_entrp">   -191.24521077 </i>
    <i name="e_0_energy">   -191.34100452 </i>
   </energy>
  </scstep>
  <structure>
   <crystal>
    <varray name="basis" >
     <v>       8.26944778       4.78947702       0.00000000 </v>
     <v>      -8.25894584       4.77132136       0.00000000 </v>
     <v>       0.00000000       0.00000000      30.00000000 </v>
    </varray>
    <i name="volume">   2370.36672162 </i>
    <varray name="rec_basis" >
     <v>       0.06038713       0.10452744       0.00000000 </v>
     <v>      -0.06061691       0.10466036       0.00000000 </v>
     <v>       0.00000000       0.00000000       0.03333333 </v>
    </varray>
   </crystal>
   <varray name="positions" >
    <v>       0.66779374       0.00433333      -0.00051481 </v>
    <v>       0.01165240       0.01170605       0.00009519 </v>
    <v>       0.65733764       0.32797949      -0.00007176 </v>
    <v>       0.32965639       0.33310863       0.00010484 </v>
    <v>       1.01621354       0.34541832       0.00018823 </v>
    <v>       0.32869444       0.00311582      -0.00029657 </v>
    <v>       0.01476520       0.66557961       0.00022523 </v>
    <v>       0.31975515       0.65359352       0.00008214 </v>
    <v>       0.65390582       0.65749043       0.00020198 </v>
    <v>       0.10779769       0.21590109       0.94723426 </v>
    <v>       0.21536411       0.10829812       0.05267990 </v>
    <v>       0.11154216       0.55605657       0.94473501 </v>
    <v>       0.22385560       0.44499668       0.05504835 </v>
    <v>       0.10623672       0.89064618       0.94819006 </v>
    <v>       0.22402736       0.77805707       0.05343159 </v>
    <v>       0.45018943       0.22539764       0.94817346 </v>
    <v>       0.56092877       0.11416369       0.05044912 </v>
    <v>       0.44298585       0.55534202       0.94646030 </v>
    <v>       0.55768155       0.44002367       0.05211897 </v>
    <v>       0.44884989       0.88980885       0.94983050 </v>
    <v>       0.55633001       0.78240186       0.05055993 </v>
    <v>       0.77393243       0.22056204       0.95085404 </v>
    <v>       0.88714304       0.10683780       0.04948604 </v>
    <v>       0.77596160       0.55002735       0.94994046 </v>
    <v>       0.88362763       0.44158807       0.05068884 </v>
    <v>       0.78057684       0.89348989       0.95126585 </v>
    <v>       0.89140947       0.78229066       0.04883874 </v>
   </varray>
  </structure>
  <varray name="forces" >
   <v>       0.03365376       0.16299169      -0.10396116 </v>
   <v>      -0.07457220       0.39072258      -0.00185975 </v>
   <v>      -0.24874818      -0.34397763      -0.02205851 </v>
   <v>       0.02697478       0.08315034       0.01165520 </v>
   <v>       0.08327323       0.29386220      -0.00263631 </v>
   <v>      -0.22288032      -0.00718806       0.00410828 </v>
   <v>       0.49669864       0.27772345      -0.00342380 </v>
   <v>       0.10164544      -0.28401385       0.00901783 </v>
   <v>      -0.32824465      -0.52126988       0.02506118 </v>
   <v>      -0.02367465       0.07653906      -0.09409052 </v>
   <v>      -0.03125342       0.04375402       0.11573406 </v>
   <v>       0.05422831       0.02962071      -0.25478371 </v>
   <v>       0.07589413      -0.00672929       0.19930826 </v>
   <v>       0.01968292      -0.02984701      -0.01148773 </v>
   <v>       0.07599578       0.09726057       0.08242087 </v>
   <v>      -0.05530369      -0.08207681      -0.10120497 </v>
   <v>      -0.04728655      -0.04166811       0.00178050 </v>
   <v>      -0.05306400      -0.07973656      -0.17427370 </v>
   <v>      -0.00722237      -0.08796923       0.15160773 </v>
   <v>      -0.02288429      -0.12150635       0.18632281 </v>
   <v>      -0.06244981      -0.10538353       0.00848651 </v>
   <v>       0.00793145       0.12623628       0.12641510 </v>
   <v>      -0.03439760       0.13188668      -0.02845276 </v>
   <v>       0.00523288       0.06647629       0.24233066 </v>
   <v>       0.07545768       0.05108503      -0.12711713 </v>
   <v>       0.07020517      -0.03005829       0.15906317 </v>
   <v>       0.08510754      -0.08988429      -0.39796210 </v>
  </varray>
  <varray name="stress" >
   <v>       0.05768764       0.05964603       0.13854149 </v>
   <v>       0.05964606       0.09518309       0.04384226 </v>
   <v>       0.13854154       0.04384209      -1.22656232 </v>
  </varray>
  <energy>
   <i name="e_fr_energy">   -191.43679828 </i>
   <i name="e_wo_entrp">   -191.34100452 </i>
   <i name="e_0_energy">     -0.19158751 </i>
  </energy>
  <time name="totalsc">  270.44  271.16</time>
 </calculation>
 <calculation>
  <scstep>
   <time name="dav">   22.02   22.07</time>
   <time name="total">   22.52   22.58</time>
   <energy>
    <i name="alphaZ">     90.29929821 </i>
    <i name="ewald">  44700.81299454 </i>
    <i name="hartreedc"> -50712.11077181 </i>
    <i name="XCdc">   -233.40538376 </i>
    <i name="pawpsdc">   4083.04387031 </i>
    <i name="pawaedc">  -3498.94939852 </i>
    <i name="eentropy">     -0.19118557 </i>
    <i name="bandstr">  -1382.40192824 </i>
    <i name="atom">   6761.44252427 </i>
    <i name="e_fr_energy">   -191.45998057 </i>
    <i name="e_wo_entrp">   -191.26879499 </i>
    <i name="e_0_energy">   -191.36438778 </i>
   </energy>
  </scstep>
  <scstep>
   <time name="dav">   33.64   33.72</time>
   <time name="total">   34.14   34.23</time>
   <energy>
    <i name="e_fr_energy">   -191.46326617 </i>
    <i name="e_wo_entrp">   -191.26934732 </i>
    <i name="e_0_energy">   -191.36630674 </i>
   </energy>
  </scstep>
  <scstep>
   <time name="dav">   28.93   29.00</time>
   <time name="total">   29.44   29.52</time>
   <energy>
    <i name="e_fr_energy">   -191.46063207 </i>
    <i name="e_wo_entrp">   -191.26932667 </i>
    <i name="e_0_energy">   -191.36497937 </i>
   </energy>
  </scstep>
  <scstep>
   <time name="dav">   25.78   25.85</time>
   <time name="total">   26.30   26.58</time>
   <energy>
    <i name="e_fr_energy">   -191.46079931 </i>
    <i name="e_wo_entrp">   -191.26928256 </i>
    <i name="e_0_energy">   -191.36504094 </i>
   </energy>
  </scstep>
  <scstep>
   <time name="dav">   23.29   23.35</time>
   <time name="total">   23.80   23.86</time>
   <energy>
    <i name="e_fr_energy">   -191.46045635 </i>
    <i name="e_wo_entrp">   -191.26882461 </i>
    <i name="e_0_energy">   -191.36464048 </i>
   </energy>
  </scstep>
  <scstep>
[...]
      <set comment="kpoint 31">
       <r>  -17.5721    1.0000 </r>
       <r>  -17.2221    1.0000 </r>
       <r>  -16.9199    1.0000 </r>
       <r>  -16.6074    1.0000 </r>
       <r>  -16.5312    1.0000 </r>
       <r>  -16.4854    1.0000 </r>
       <r>  -16.2712    1.0000 </r>
       <r>  -16.2180    1.0000 </r>
       <r>  -16.1419    1.0000 </r>
       <r>  -16.0528    1.0000 </r>
       <r>  -15.9576    1.0000 </r>
       <r>  -15.8837    1.0000 </r>
       <r>  -15.7635    1.0000 </r>
       <r>  -15.6417    1.0000 </r>
       <r>  -15.5624    1.0000 </r>
       <r>  -15.4615    1.0000 </r>
       <r>  -15.3749    1.0000 </r>
       <r>  -15.2621    1.0000 </r>
       <r>   -9.7781    1.0000 </r>
       <r>   -9.5289    1.0000 </r>
       <r>   -9.2567    1.0000 </r>
       <r>   -9.0495    1.0000 </r>
       <r>   -8.8878    1.0000 </r>
       <r>   -8.7150    1.0000 </r>
       <r>   -8.5746    1.0000 </r>
       <r>   -8.5139    1.0000 </r>
       <r>   -8.4165    1.0000 </r>
       <r>   -8.3562    1.0000 </r>
       <r>   -8.2695    1.0000 </r>
       <r>   -8.2011    1.0000 </r>
       <r>   -8.1430    1.0000 </r>
       <r>   -8.0213    1.0000 </r>
       <r>   -7.9187    1.0000 </r>
       <r>   -7.8742    1.0000 </r>
       <r>   -7.7947    1.0000 </r>
       <r>   -7.7015    1.0000 </r>
       <r>   -7.5520    1.0000 </r>
       <r>   -7.5035    1.0000 </r>
       <r>   -7.3534    1.0000 </r>
       <r>   -7.2624    1.0000 </r>
       <r>   -7.2111    1.0000 </r>
       <r>   -7.0692    1.0000 </r>
       <r>   -6.9984    1.0000 </r>
       <r>   -6.9360    1.0000 </r>
       <r>   -6.8138    1.0000 </r>
       <r>   -6.7345    1.0000 </r>
       <r>   -6.6414    1.0000 </r>
       <r>   -6.6070    1.0000 </r>
       <r>   -6.5579    1.0000 </r>
       <r>   -6.5180    1.0000 </r>
       <r>   -6.4272    1.0000 </r>
       <r>   -6.3370    1.0000 </r>
       <r>   -6.2862    1.0000 </r>
       <r>   -6.1731    1.0000 </r>
       <r>   -6.0705    1.0000 </r>
       <r>   -6.0119    1.0000 </r>
       <r>   -5.9530    1.0000 </r>
       <r>   -5.8862    1.0000 </r>
       <r>   -5.8393    1.0000 </r>
       <r>   -5.7652    1.0000 </r>
       <r>   -5.7122    1.0000 </r>
       <r>   -5.5721    1.0000 </r>
       <r>   -5.4898    1.0000 </r>
       <r>   -5.4353    1.0000 </r>
       <r>   -5.3516    1.0000 </r>
       <r>   -5.1194    1.0000 </r>
       <r>   -5.0441    1.0000 </r>
       <r>   -4.8837    1.0000 </r>
       <r>   -4.7628    1.0000 </r>
       <r>   -4.7017    1.0000 </r>
       <r>   -4.5704    1.0000 </r>
       <r>   -4.4043    1.0000 </r>
       <r>   -4.3215    1.0000 </r>
       <r>   -4.1709    1.0000 </r>
       <r>   -4.0244    1.0000 </r>
       <r>   -3.8030    0.9997 </r>
       <r>   -3.7491    0.9988 </r>
       <r>   -3.6754    0.9942 </r>
       <r>   -3.5570    0.9540 </r>
       <r>   -3.4856    0.8811 </r>
       <r>   -3.0795    0.0454 </r>
       <r>   -2.7836    0.0001 </r>
       <r>   -2.6921    0.0000 </r>
       <r>   -2.6486    0.0000 </r>
       <r>   -2.5921    0.0000 </r>
       <r>   -2.4453    0.0000 </r>
       <r>   -2.2995    0.0000 </r>
       <r>   -2.0977    0.0000 </r>
       <r>   -2.0237    0.0000 </r>
       <r>   -1.8624    0.0000 </r>
       <r>   -1.5709    0.0000 </r>
       <r>   -1.5122    0.0000 </r>
       <r>   -1.3923    0.0000 </r>
       <r>   -1.3084    0.0000 </r>
       <r>   -1.2508    0.0000 </r>
       <r>   -1.2079    0.0000 </r>
       <r>   -1.1089    0.0000 </r>
       <r>   -1.0547    0.0000 </r>
       <r>   -0.9727    0.0000 </r>
       <r>   -0.8619    0.0000 </r>
       <r>   -0.8201    0.0000 </r>
       <r>   -0.7308    0.0000 </r>
       <r>   -0.6382    0.0000 </r>
       <r>   -0.5766    0.0000 </r>
       <r>   -0.4078    0.0000 </r>
       <r>   -0.2629    0.0000 </r>
       <r>   -0.2137    0.0000 </r>
       <r>   -0.1087    0.0000 </r>
       <r>    0.0189    0.0000 </r>
       <r>    0.0818    0.0000 </r>
       <r>    0.3815    0.0000 </r>
       <r>    0.5798    0.0000 </r>
       <r>    0.7898    0.0000 </r>
       <r>    0.9999    0.0000 </r>
       <r>    1.1118    0.0000 </r>
       <r>    1.2938    0.0000 </r>
       <r>    1.3735    0.0000 </r>
       <r>    2.1426    0.0000 </r>
       <r>    2.2956    0.0000 </r>
       <r>    2.4036    0.0000 </r>
      </set>
      <set comment="kpoint 32">
       <r>  -17.5612    1.0000 </r>
       <r>  -17.2065    1.0000 </r>
       <r>  -17.0039    1.0000 </r>
       <r>  -16.6047    1.0000 </r>
       <r>  -16.5141    1.0000 </r>
       <r>  -16.3407    1.0000 </r>
       <r>  -16.2939    1.0000 </r>
       <r>  -16.2552    1.0000 </r>
       <r>  -16.1831    1.0000 </r>
       <r>  -16.0503    1.0000 </r>
       <r>  -15.9555    1.0000 </r>
       <r>  -15.8958    1.0000 </r>
       <r>  -15.7811    1.0000 </r>
       <r>  -15.6422    1.0000 </r>
       <r>  -15.5578    1.0000 </r>
       <r>  -15.4530    1.0000 </r>
       <r>  -15.3713    1.0000 </r>
       <r>  -15.2584    1.0000 </r>
       <r>   -9.7304    1.0000 </r>
       <r>   -9.6237    1.0000 </r>
       <r>   -9.3371    1.0000 </r>
       <r>   -8.9952    1.0000 </r>
       <r>   -8.7470    1.0000 </r>
       <r>   -8.6389    1.0000 </r>
       <r>   -8.5680    1.0000 </r>
       <r>   -8.4739    1.0000 </r>
       <r>   -8.3982    1.0000 </r>
       <r>   -8.3443    1.0000 </r>
       <r>   -8.3047    1.0000 </r>
       <r>   -8.2729    1.0000 </r>
       <r>   -8.2073    1.0000 </r>
       <r>   -8.0631    1.0000 </r>
       <r>   -7.9938    1.0000 </r>
       <r>   -7.8883    1.0000 </r>
       <r>   -7.8655    1.0000 </r>
       <r>   -7.6228    1.0000 </r>
       <r>   -7.5269    1.0000 </r>
       <r>   -7.4798    1.0000 </r>
       <r>   -7.3221    1.0000 </r>
       <r>   -7.2732    1.0000 </r>
       <r>   -7.1917    1.0000 </r>
       <r>   -7.1173    1.0000 </r>
       <r>   -6.9767    1.0000 </r>
       <r>   -6.9407    1.0000 </r>
       <r>   -6.8427    1.0000 </r>
       <r>   -6.7616    1.0000 </r>
       <r>   -6.6697    1.0000 </r>
       <r>   -6.6247    1.0000 </r>
       <r>   -6.5449    1.0000 </r>
       <r>   -6.4986    1.0000 </r>
       <r>   -6.4119    1.0000 </r>
       <r>   -6.3429    1.0000 </r>
       <r>   -6.2843    1.0000 </r>
       <r>   -6.1204    1.0000 </r>
       <r>   -6.0520    1.0000 </r>
       <r>   -6.0130    1.0000 </r>
       <r>   -5.9294    1.0000 </r>
       <r>   -5.9162    1.0000 </r>
       <r>   -5.7982    1.0000 </r>
       <r>   -5.6907    1.0000 </r>
       <r>   -5.6616    1.0000 </r>
       <r>   -5.6054    1.0000 </r>
       <r>   -5.5232    1.0000 </r>
       <r>   -5.4349    1.0000 </r>
       <r>   -5.3127    1.0000 </r>
       <r>   -5.2408    1.0000 </r>
       <r>   -5.0046    1.0000 </r>
       <r>   -4.8757    1.0000 </r>
       <r>   -4.8008    1.0000 </r>
       <r>   -4.7537    1.0000 </r>
       <r>   -4.5655    1.0000 </r>
       <r>   -4.4642    1.0000 </r>
       <r>   -4.2602    1.0000 </r>
       <r>   -4.1680    1.0000 </r>
       <r>   -4.0010    1.0000 </r>
       <r>   -3.8654    0.9999 </r>
       <r>   -3.7685    0.9993 </r>
       <r>   -3.6591    0.9920 </r>
       <r>   -3.5143    0.9167 </r>
       <r>   -3.4096    0.7399 </r>
       <r>   -3.0924    0.0548 </r>
       <r>   -2.8363    0.0003 </r>
       <r>   -2.7073    0.0000 </r>
       <r>   -2.6564    0.0000 </r>
       <r>   -2.5690    0.0000 </r>
       <r>   -2.4658    0.0000 </r>
       <r>   -2.2851    0.0000 </r>
       <r>   -2.0877    0.0000 </r>
       <r>   -2.0170    0.0000 </r>
       <r>   -1.8925    0.0000 </r>
       <r>   -1.5911    0.0000 </r>
       <r>   -1.5505    0.0000 </r>
       <r>   -1.4142    0.0000 </r>
       <r>   -1.2989    0.0000 </r>
       <r>   -1.2246    0.0000 </r>
       <r>   -1.2085    0.0000 </r>
       <r>   -1.0762    0.0000 </r>
       <r>   -0.9887    0.0000 </r>
       <r>   -0.9473    0.0000 </r>
       <r>   -0.8794    0.0000 </r>
       <r>   -0.8033    0.0000 </r>
       <r>   -0.7506    0.0000 </r>
       <r>   -0.6225    0.0000 </r>
       <r>   -0.5809    0.0000 </r>
       <r>   -0.3743    0.0000 </r>
       <r>   -0.2849    0.0000 </r>
       <r>   -0.2032    0.0000 </r>
       <r>   -0.1201    0.0000 </r>
       <r>    0.0626    0.0000 </r>
       <r>    0.1178    0.0000 </r>
       <r>    0.3462    0.0000 </r>
       <r>    0.5348    0.0000 </r>
       <r>    0.7628    0.0000 </r>
       <r>    0.9794    0.0000 </r>
       <r>    1.1010    0.0000 </r>
       <r>    1.3073    0.0000 </r>
       <r>    1.3709    0.0000 </r>
       <r>    2.1122    0.0000 </r>
       <r>    2.2658    0.0000 </r>
       <r>    2.5837    0.0000 </r>
      </set>
      <set comment="kpoint 33">
       <r>  -17.5209    1.0000 </r>
       <r>  -17.3215    1.0000 </r>
       <r>  -16.8793    1.0000 </r>
       <r>  -16.6029    1.0000 </r>
       <r>  -16.5194    1.0000 </r>
       <r>  -16.4658    1.0000 </r>
       <r>  -16.2906    1.0000 </r>
       <r>  -16.2358    1.0000 </r>
       <r>  -16.1625    1.0000 </r>
       <r>  -16.0385    1.0000 </r>
       <r>  -15.9443    1.0000 </r>
       <r>  -15.8467    1.0000 </r>
       <r>  -15.7818    1.0000 </r>
       <r>  -15.6487    1.0000 </r>
       <r>  -15.5835    1.0000 </r>
       <r>  -15.4625    1.0000 </r>
       <r>  -15.3649    1.0000 </r>
       <r>  -15.2588    1.0000 </r>
       <r>   -9.8227    1.0000 </r>
       <r>   -9.4673    1.0000 </r>
       <r>   -9.3227    1.0000 </r>
       <r>   -8.9573    1.0000 </r>
       <r>   -8.8232    1.0000 </r>
       <r>   -8.7308    1.0000 </r>
       <r>   -8.6451    1.0000 </r>
       <r>   -8.5768    1.0000 </r>
       <r>   -8.4149    1.0000 </r>
       <r>   -8.3205    1.0000 </r>
       <r>   -8.2498    1.0000 </r>
       <r>   -8.2053    1.0000 </r>
       <r>   -8.1116    1.0000 </r>
       <r>   -8.0633    1.0000 </r>
       <r>   -7.9670    1.0000 </r>
       <r>   -7.8864    1.0000 </r>
       <r>   -7.8188    1.0000 </r>
       <r>   -7.6273    1.0000 </r>
       <r>   -7.5791    1.0000 </r>
       <r>   -7.4794    1.0000 </r>
       <r>   -7.3824    1.0000 </r>
       <r>   -7.2847    1.0000 </r>
       <r>   -7.1056    1.0000 </r>
       <r>   -7.0596    1.0000 </r>
       <r>   -7.0074    1.0000 </r>
       <r>   -6.9201    1.0000 </r>
       <r>   -6.8737    1.0000 </r>
       <r>   -6.7870    1.0000 </r>
       <r>   -6.6432    1.0000 </r>
       <r>   -6.6114    1.0000 </r>
       <r>   -6.5536    1.0000 </r>
       <r>   -6.4998    1.0000 </r>
       <r>   -6.4417    1.0000 </r>
       <r>   -6.3050    1.0000 </r>
       <r>   -6.2438    1.0000 </r>
       <r>   -6.1406    1.0000 </r>
       <r>   -6.0785    1.0000 </r>
       <r>   -6.0065    1.0000 </r>
       <r>   -5.9759    1.0000 </r>
       <r>   -5.8989    1.0000 </r>
       <r>   -5.8294    1.0000 </r>
       <r>   -5.7587    1.0000 </r>
       <r>   -5.6868    1.0000 </r>
       <r>   -5.6210    1.0000 </r>
       <r>   -5.5592    1.0000 </r>
       <r>   -5.4270    1.0000 </r>
       <r>   -5.3145    1.0000 </r>
       <r>   -5.1492    1.0000 </r>
       <r>   -5.0262    1.0000 </r>
       <r>   -4.8911    1.0000 </r>
       <r>   -4.7231    1.0000 </r>
       <r>   -4.6739    1.0000 </r>
       <r>   -4.6156    1.0000 </r>
       <r>   -4.4241    1.0000 </r>
       <r>   -4.2434    1.0000 </r>
       <r>   -4.1861    1.0000 </r>
       <r>   -4.0037    1.0000 </r>
       <r>   -3.9033    1.0000 </r>
       <r>   -3.7862    0.9995 </r>
       <r>   -3.6475    0.9900 </r>
       <r>   -3.5339    0.9360 </r>
       <r>   -3.3499    0.5872 </r>
       <r>   -3.1298    0.0908 </r>
       <r>   -2.8932    0.0013 </r>
       <r>   -2.7431    0.0000 </r>
       <r>   -2.6411    0.0000 </r>
       <r>   -2.5534    0.0000 </r>
       <r>   -2.4553    0.0000 </r>
       <r>   -2.2860    0.0000 </r>
       <r>   -2.0565    0.0000 </r>
       <r>   -1.9954    0.0000 </r>
       <r>   -1.8975    0.0000 </r>
       <r>   -1.6324    0.0000 </r>
       <r>   -1.5647    0.0000 </r>
       <r>   -1.4090    0.0000 </r>
       <r>   -1.3011    0.0000 </r>
       <r>   -1.2206    0.0000 </r>
       <r>   -1.1839    0.0000 </r>
       <r>   -1.0906    0.0000 </r>
       <r>   -0.9464    0.0000 </r>
       <r>   -0.9336    0.0000 </r>
       <r>   -0.8588    0.0000 </r>
       <r>   -0.7991    0.0000 </r>
       <r>   -0.7400    0.0000 </r>
       <r>   -0.6290    0.0000 </r>
       <r>   -0.5738    0.0000 </r>
       <r>   -0.4324    0.0000 </r>
       <r>   -0.3139    0.0000 </r>
       <r>   -0.2172    0.0000 </r>
       <r>   -0.1368    0.0000 </r>
       <r>    0.0892    0.0000 </r>
       <r>    0.2514    0.0000 </r>
       <r>    0.3305    0.0000 </r>
       <r>    0.5066    0.0000 </r>
       <r>    0.6957    0.0000 </r>
       <r>    0.9690    0.0000 </r>
       <r>    1.1310    0.0000 </r>
       <r>    1.3361    0.0000 </r>
       <r>    1.3755    0.0000 </r>
       <r>    2.1459    0.0000 </r>
       <r>    2.3001    0.0000 </r>
       <r>    2.4063    0.0000 </r>
      </set>
      <set comment="kpoint 34">
       <r>  -17.4635    1.0000 </r>
       <r>  -17.4135    1.0000 </r>
       <r>  -16.7223    1.0000 </r>
       <r>  -16.6588    1.0000 </r>
       <r>  -16.5870    1.0000 </r>
       <r>  -16.5125    1.0000 </r>
       <r>  -16.2930    1.0000 </r>
       <r>  -16.2267    1.0000 </r>
       <r>  -16.1489    1.0000 </r>
       <r>  -16.0296    1.0000 </r>
       <r>  -15.9326    1.0000 </r>
       <r>  -15.8394    1.0000 </r>
       <r>  -15.7228    1.0000 </r>
       <r>  -15.6708    1.0000 </r>
       <r>  -15.6146    1.0000 </r>
       <r>  -15.4711    1.0000 </r>
       <r>  -15.3613    1.0000 </r>
       <r>  -15.2600    1.0000 </r>
       <r>   -9.8598    1.0000 </r>
       <r>   -9.3468    1.0000 </r>
       <r>   -9.2798    1.0000 </r>
       <r>   -8.9936    1.0000 </r>
       <r>   -8.8866    1.0000 </r>
       <r>   -8.8225    1.0000 </r>
       <r>   -8.7063    1.0000 </r>
       <r>   -8.5963    1.0000 </r>
       <r>   -8.4198    1.0000 </r>
       <r>   -8.3260    1.0000 </r>
       <r>   -8.2096    1.0000 </r>
       <r>   -8.1639    1.0000 </r>
       <r>   -8.1307    1.0000 </r>
       <r>   -7.9971    1.0000 </r>
       <r>   -7.9425    1.0000 </r>
       <r>   -7.8772    1.0000 </r>
       <r>   -7.6816    1.0000 </r>
       <r>   -7.6212    1.0000 </r>
       <r>   -7.5821    1.0000 </r>
       <r>   -7.5579    1.0000 </r>
       <r>   -7.4573    1.0000 </r>
       <r>   -7.3275    1.0000 </r>
       <r>   -7.1134    1.0000 </r>
       <r>   -7.0126    1.0000 </r>
       <r>   -6.9466    1.0000 </r>
       <r>   -6.9135    1.0000 </r>
       <r>   -6.8804    1.0000 </r>
       <r>   -6.7508    1.0000 </r>
       <r>   -6.6801    1.0000 </r>
       <r>   -6.5776    1.0000 </r>
       <r>   -6.5539    1.0000 </r>
       <r>   -6.4902    1.0000 </r>
       <r>   -6.4087    1.0000 </r>
       <r>   -6.3650    1.0000 </r>
       <r>   -6.2615    1.0000 </r>
       <r>   -6.1754    1.0000 </r>
       <r>   -6.0703    1.0000 </r>
       <r>   -6.0453    1.0000 </r>
       <r>   -5.9830    1.0000 </r>
       <r>   -5.8934    1.0000 </r>
       <r>   -5.8594    1.0000 </r>
       <r>   -5.7485    1.0000 </r>
       <r>   -5.6844    1.0000 </r>
       <r>   -5.6071    1.0000 </r>
       <r>   -5.5767    1.0000 </r>
       <r>   -5.5300    1.0000 </r>
       <r>   -5.3187    1.0000 </r>
       <r>   -5.0271    1.0000 </r>
       <r>   -4.9739    1.0000 </r>
       <r>   -4.9422    1.0000 </r>
       <r>   -4.7839    1.0000 </r>
       <r>   -4.6238    1.0000 </r>
       <r>   -4.5248    1.0000 </r>
       <r>   -4.3632    1.0000 </r>
       <r>   -4.2950    1.0000 </r>
       <r>   -4.2057    1.0000 </r>
       <r>   -4.0092    1.0000 </r>
       <r>   -3.9295    1.0000 </r>
       <r>   -3.7761    0.9994 </r>
       <r>   -3.6453    0.9895 </r>
       <r>   -3.5594    0.9556 </r>
       <r>   -3.3288    0.5285 </r>
       <r>   -3.1513    0.1182 </r>
       <r>   -2.9182    0.0023 </r>
       <r>   -2.7602    0.0000 </r>
       <r>   -2.6319    0.0000 </r>
       <r>   -2.5509    0.0000 </r>
       <r>   -2.4423    0.0000 </r>
       <r>   -2.2899    0.0000 </r>
       <r>   -2.0367    0.0000 </r>
       <r>   -1.9824    0.0000 </r>
       <r>   -1.8886    0.0000 </r>
       <r>   -1.6573    0.0000 </r>
       <r>   -1.5670    0.0000 </r>
       <r>   -1.3993    0.0000 </r>
       <r>   -1.3069    0.0000 </r>
       <r>   -1.2149    0.0000 </r>
       <r>   -1.1770    0.0000 </r>
       <r>   -1.1084    0.0000 </r>
       <r>   -0.9363    0.0000 </r>
       <r>   -0.9024    0.0000 </r>
       <r>   -0.8721    0.0000 </r>
       <r>   -0.7945    0.0000 </r>
       <r>   -0.7276    0.0000 </r>
       <r>   -0.6412    0.0000 </r>
       <r>   -0.5723    0.0000 </r>
       <r>   -0.4692    0.0000 </r>
       <r>   -0.3331    0.0000 </r>
       <r>   -0.2240    0.0000 </r>
       <r>   -0.1297    0.0000 </r>
       <r>    0.0845    0.0000 </r>
       <r>    0.3035    0.0000 </r>
       <r>    0.3689    0.0000 </r>
       <r>    0.4764    0.0000 </r>
       <r>    0.6673    0.0000 </r>
       <r>    0.9696    0.0000 </r>
       <r>    1.1468    0.0000 </r>
       <r>    1.3433    0.0000 </r>
       <r>    1.3883    0.0000 </r>
       <r>    2.2402    0.0000 </r>
       <r>    2.2484    0.0000 </r>
       <r>    2.3808    0.0000 </r>
      </set>
     </set>
    </set>
   </array>
  </eigenvalues>
  <separator name="orbital magnetization" >
   <v name="MAGDIPOLOUT">      0.00000000      0.00000000      0.00000000</v>
  </separator>
 </calculation>
 <structure name="finalpos" >
  <crystal>
   <varray name="basis" >
    <v>       8.32590956       4.82721870       0.00000000 </v>
    <v>      -8.30914336       4.79828637       0.00000000 </v>
    <v>       0.00000000       0.00000000      30.00000000 </v>
   </varray>
   <i name="volume">   2401.80451419 </i>
   <varray name="rec_basis" >
    <v>       0.05993352       0.10378626       0.00000000 </v>
    <v>      -0.06029490       0.10399568       0.00000000 </v>
    <v>       0.00000000       0.00000000       0.03333333 </v>
   </varray>
  </crystal>
  <varray name="positions" >
   <v>       0.63807780      -0.00361977       0.00040434 </v>
   <v>       0.03073321       0.03445616      -0.00050601 </v>
   <v>       0.62900130       0.30986082       0.00090819 </v>
   <v>       0.33249910       0.33624869       0.00053400 </v>
   <v>       1.03763721       0.35579164      -0.00166853 </v>
   <v>       0.32818375      -0.00432522       0.00005040 </v>
   <v>       0.02666208       0.66986045      -0.00065887 </v>
   <v>       0.31198100       0.66139907       0.00136243 </v>
   <v>       0.65817852       0.63428567      -0.00067421 </v>
   <v>       0.11645639       0.22415571       0.94457243 </v>
   <v>       0.21859718       0.11267913       0.05360006 </v>
   <v>       0.11707193       0.56030267       0.94231560 </v>
   <v>       0.23108920       0.45165162       0.05588656 </v>
   <v>       0.10289610       0.88984317       0.94799843 </v>
   <v>       0.22311031       0.78071071       0.05597931 </v>
   <v>       0.44042065       0.21878588       0.94723376 </v>
   <v>       0.55129220       0.11022870       0.05339250 </v>
   <v>       0.44656583       0.56200940       0.94865744 </v>
   <v>       0.55564673       0.43589406       0.05504904 </v>
   <v>       0.44211186       0.88737196       0.94794194 </v>
   <v>       0.55854237       0.78011081       0.04847848 </v>
   <v>       0.77594855       0.22217565       0.95538319 </v>
   <v>       0.89134791       0.11518942       0.04560290 </v>
   <v>       0.77519594       0.53675449       0.95027621 </v>
   <v>       0.88274751       0.43794679       0.04554709 </v>
   <v>       0.78024846       0.89142132       0.95734053 </v>
   <v>       0.89597138       0.78702546       0.04499267 </v>
  </varray>
 </structure>
</modeling>
