unknown system                          
           1
     8.857231    5.108714    0.000000
    -8.853139    5.101675    0.000000
     0.000000    0.000000   30.000000
   V    Mo   W    S 
   3   3   3  18
Direct configuration=     1
   0.66666669  0.00000000  0.00000000
   0.00000000  0.00000000  0.00000000
   0.66666669  0.33333334  0.00000000
   0.33333334  0.33333334  0.00000000
   1.00000000  0.33333334  0.00000000
   0.33333334  0.00000000  0.00000000
   0.00000000  0.66666669  0.00000000
   0.33333334  0.66666669  0.00000000
   0.66666669  0.66666669  0.00000000
   0.11068511  0.22244981  0.95539999
   0.22244981  0.11068511  0.04460000
   0.11068511  0.55578315  0.95539999
   0.22244981  0.44401845  0.04460000
   0.11068511  0.88911647  0.95539999
   0.22244981  0.77735180  0.04460000
   0.44401845  0.22244981  0.95539999
   0.55578315  0.11068511  0.04460000
   0.44401845  0.55578315  0.95539999
   0.55578315  0.44401845  0.04460000
   0.44401845  0.88911647  0.95539999
   0.55578315  0.77735180  0.04460000
   0.77735180  0.22244981  0.95539999
   0.88911647  0.11068511  0.04460000
   0.77735180  0.55578315  0.95539999
   0.88911647  0.44401845  0.04460000
   0.77735180  0.88911647  0.95539999
   0.88911647  0.77735180  0.04460000
unknown system                          
           1
     8.669072    5.002279    0.000000
    -8.665211    4.995638    0.000000
     0.000000    0.000000   30.000000
   V    Mo   W    S 
   3   3   3  18
Direct configuration=     2
   0.66710262  0.00154137 -0.00001716
   0.00190953  0.00233192 -0.00013976
   0.66549523  0.33179691  0.00015992
   0.33198758  0.33188722  0.00015270
   1.00109409  0.33305772  0.00002575
   0.33337522  0.00144063 -0.00000356
   0.00129627  0.66656260 -0.00015753
   0.33193239  0.66531331 -0.00004388
   0.66547768  0.66557870 -0.00004797
   0.10865424  0.21748200  0.95188899
   0.21775848  0.10891410  0.04809811
   0.11151826  0.55641792  0.95065207
   0.22275265  0.44535381  0.04928159
   0.10798242  0.89025616  0.95196846
   0.22182803  0.77695634  0.04927940
   0.44881704  0.22428714  0.95194611
   0.55998618  0.11315588  0.04693422
   0.44482454  0.55637639  0.95075952
   0.55840601  0.44284015  0.04804302
   0.44830527  0.88999095  0.95200220
   0.55717359  0.78134156  0.04808769
   0.77328304  0.22012686  0.95312793
   0.88681528  0.10663958  0.04687561
   0.77601012  0.55184696  0.95194567
   0.88461857  0.44300539  0.04803701
   0.77928574  0.89229636  0.95312714
   0.89052439  0.78141652  0.04801666
unknown system                          
           1
     8.484061    4.900326    0.000000
    -8.482169    4.897088    0.000000
     0.000000    0.000000   30.000000
   V    Mo   W    S 
   3   3   3  18
Direct configuration=     3
   0.66716981  0.00187797 -0.00005858
   0.00256495  0.00303047 -0.00014824
   0.66507320  0.33141021  0.00017269
   0.33165345  0.33172602  0.00016634
   1.00197415  0.33361535  0.00006344
   0.33315546  0.00166624 -0.00004444
   0.00200855  0.66655484 -0.00011975
   0.33120380  0.66465126 -0.00004587
   0.66491925  0.66511158 -0.00003875
   0.10854546  0.21729013  0.95179368
   0.21759539  0.10882914  0.04819029
   0.11162297  0.55666116  0.95056260
   0.22289967  0.44557490  0.04938859
   0.10779452  0.89007439  0.95195005
   0.22172977  0.77672094  0.04927698
   0.44896905  0.22437824  0.95192179
   0.56008989  0.11326012  0.04695450
   0.44490955  0.55658696  0.95075253
   0.55855807  0.44301296  0.04806460
   0.44831401  0.88985009  0.95207616
   0.55713274  0.78119430  0.04800561
   0.77321382  0.22004841  0.95317526
   0.88674780  0.10655482  0.04683893
   0.77605842  0.55197158  0.95202315
   0.88462694  0.44317333  0.04798217
   0.77922307  0.89211609  0.95323258
   0.89046070  0.78127295  0.04786359
unknown system                          
           1
     8.275733    4.784774    0.000000
    -8.270058    4.774984    0.000000
     0.000000    0.000000   30.000000
   V    Mo   W    S 
   3   3   3  18
Direct configuration=     4
   0.66711912  0.00264997 -0.00021398
   0.00515235  0.00543045 -0.00012020
   0.66342625  0.33039489  0.00014664
   0.33063952  0.33176600  0.00014889
   1.00611796  0.33685284  0.00016954
   0.33189208  0.00197354 -0.00018834
   0.00515453  0.66642740  0.00006853
   0.32793196  0.66170395 -0.00004928
   0.66250088  0.66312688  0.00000960
   0.10785800  0.21595734  0.94999212
   0.21622199  0.10813736  0.04997990
   0.11160533  0.55666607  0.94850863
   0.22311829  0.44559131  0.05143954
   0.10709469  0.89055705  0.95041328
   0.22193087  0.77677054  0.05090195
   0.45024566  0.22515569  0.95042270
   0.56108628  0.11390658  0.04835872
   0.44468322  0.55646834  0.94909453
   0.55891857  0.44228927  0.04963026
   0.44938504  0.89038552  0.95096377
   0.55756846  0.78214561  0.04916471
   0.77246419  0.21956977  0.95209001
   0.88617655  0.10556841  0.04798606
   0.77560194  0.55092460  0.95086789
   0.88356511  0.44258340  0.04920770
   0.77980446  0.89301247  0.95230805
   0.89095114  0.78219921  0.04869865
unknown system                          
           1
     8.269448    4.789477    0.000000
    -8.258946    4.771321    0.000000
     0.000000    0.000000   30.000000
   V    Mo   W    S 
   3   3   3  18
Direct configuration=     5
   0.66720088  0.00379086 -0.00042464
   0.00989790  0.00978955  0.00008268
   0.65971521  0.32884390 -0.00004667
   0.32926834  0.33261473  0.00004261
   1.01444421  0.34386845  0.00022433
   0.32933755  0.00258725 -0.00033493
   0.01210275  0.66583343  0.00030912
   0.32108711  0.65534962 -0.00002781
   0.65706920  0.65915775  0.00012384
   0.10748622  0.21518529  0.94748550
   0.21505277  0.10783372  0.05242112
   0.11145939  0.55615705  0.94537960
   0.22350499  0.44520311  0.05452953
   0.10636763  0.89099402  0.94830899
   0.22301431  0.77761467  0.05313975
   0.45095936  0.22568939  0.94840357
   0.56145666  0.11430245  0.05036727
   0.44372399  0.55563532  0.94682688
   0.55838275  0.44064278  0.05185842
   0.44987295  0.89058653  0.94965613
   0.55735625  0.78296515  0.05056945
   0.77284330  0.21973733  0.95072860
   0.88630747  0.10562216  0.04947669
   0.77545650  0.54972937  0.94965874
   0.88287509  0.44163794  0.05077419
   0.78052240  0.89382445  0.95112371
   0.89144929  0.78301817  0.04934323
unknown system                          
           1
     8.270384    4.790302    0.000000
    -8.259531    4.771540    0.000000
     0.000000    0.000000   30.000000
   V    Mo   W    S 
   3   3   3  18
Direct configuration=     6
   0.66779374  0.00433333 -0.00051481
   0.01165240  0.01170605  0.00009519
   0.65733764  0.32797949 -0.00007176
   0.32965639  0.33310863  0.00010484
   1.01621354  0.34541832  0.00018823
   0.32869444  0.00311582 -0.00029657
   0.01476520  0.66557961  0.00022523
   0.31975515  0.65359352  0.00008214
   0.65390582  0.65749043  0.00020198
   0.10779769  0.21590109  0.94723426
   0.21536411  0.10829812  0.05267990
   0.11154216  0.55605657  0.94473501
   0.22385560  0.44499668  0.05504835
   0.10623672  0.89064618  0.94819006
   0.22402736  0.77805707  0.05343159
   0.45018943  0.22539764  0.94817346
   0.56092877  0.11416369  0.05044912
   0.44298585  0.55534202  0.94646030
   0.55768155  0.44002367  0.05211897
   0.44884989  0.88980885  0.94983050
   0.55633001  0.78240186  0.05055993
   0.77393243  0.22056204  0.95085404
   0.88714304  0.10683780  0.04948604
   0.77596160  0.55002735  0.94994046
   0.88362763  0.44158807  0.05068884
   0.78057684  0.89348989  0.95126585
   0.89140947  0.78229066  0.04883874
unknown system                          
           1
     8.260820    4.780298    0.000000
    -8.253259    4.767238    0.000000
     0.000000    0.000000   30.000000
   V    Mo   W    S 
   3   3   3  18
Direct configuration=     7
   0.66802554  0.00451205 -0.00055633
   0.01207552  0.01224158  0.00009373
   0.65673387  0.32773110 -0.00008008
   0.32978590  0.33319024  0.00010965
   1.01661762  0.34570404  0.00018713
   0.32853114  0.00326860 -0.00029458
   0.01545616  0.66556996  0.00022344
   0.31949403  0.65318099  0.00008520
   0.65302430  0.65708499  0.00021149
   0.10787868  0.21601712  0.94720618
   0.21540026  0.10837697  0.05271703
   0.11162090  0.55605681  0.94464512
   0.22390050  0.44493402  0.05511628
   0.10621615  0.89059255  0.94819389
   0.22420021  0.77812037  0.05345543
   0.45004336  0.22533235  0.94814073
   0.56084064  0.11414430  0.05044194
   0.44285082  0.55528340  0.94639924
   0.55756802  0.43992494  0.05217155
   0.44867907  0.88967179  0.94991142
   0.55615323  0.78231171  0.05055779
   0.77409484  0.22071448  0.95091067
   0.88728306  0.10702801  0.04946850
   0.77604954  0.55011262  0.95004360
   0.88374891  0.44160170  0.05063093
   0.78058714  0.89339658  0.95133522
   0.89135504  0.78211120  0.04867471
unknown system                          
           1
     8.260440    4.782811    0.000000
    -8.251775    4.767833    0.000000
     0.000000    0.000000   30.000000
   V    Mo   W    S 
   3   3   3  18
Direct configuration=     8
   0.66684179  0.00338032 -0.00036540
   0.01094336  0.01022930  0.00009913
   0.65957944  0.32896105 -0.00007813
   0.32838543  0.33265860  0.00005264
   1.01556620  0.34482252  0.00019163
   0.32854827  0.00218241 -0.00031501
   0.01296057  0.66571651  0.00026745
   0.32002922  0.65462386  0.00002261
   0.65690952  0.65895278  0.00007297
   0.10756577  0.21560377  0.94737313
   0.21517821  0.10812884  0.05254832
   0.11130820  0.55611779  0.94492254
   0.22372822  0.44516658  0.05494499
   0.10626346  0.89082128  0.94816004
   0.22341008  0.77789504  0.05341654
   0.45031817  0.22554482  0.94826100
   0.56099102  0.11406560  0.05053673
   0.44347675  0.55560662  0.94673616
   0.55782946  0.44027555  0.05198113
   0.44911767  0.89007277  0.94953518
   0.55667517  0.78252338  0.05056765
   0.77382993  0.22016154  0.95066298
   0.88692190  0.10652009  0.04947267
   0.77586679  0.54980504  0.94953324
   0.88354005  0.44161459  0.05093478
   0.78066081  0.89384769  0.95105732
   0.89176899  0.78291615  0.04940762
unknown system                          
           1
     8.252515    4.778859    0.000000
    -8.243695    4.763612    0.000000
     0.000000    0.000000   30.000000
   V    Mo   W    S 
   3   3   3  18
Direct configuration=     9
   0.66516893  0.00218353 -0.00022542
   0.01041232  0.00852181  0.00013329
   0.66149729  0.32980585 -0.00010194
   0.32723264  0.33264943  0.00011047
   1.01559216  0.34535503  0.00019869
   0.32853909  0.00102252 -0.00034264
   0.01134324  0.66554933  0.00027163
   0.31979533  0.65550204  0.00005663
   0.66011852  0.66005254  0.00007444
   0.10732566  0.21565195  0.94725031
   0.21529318  0.10829966  0.05261946
   0.11104532  0.55616826  0.94480873
   0.22382545  0.44547912  0.05510364
   0.10613423  0.89072117  0.94794952
   0.22317591  0.77785410  0.05359284
   0.45011435  0.22559551  0.94843509
   0.56077824  0.11402260  0.05055658
   0.44357863  0.55583816  0.94688403
   0.55770011  0.44029713  0.05173980
   0.44881454  0.88995813  0.94924232
   0.55646955  0.78219276  0.05051963
   0.77414824  0.21995200  0.95060991
   0.88713301  0.10691439  0.04941383
   0.77607436  0.54958692  0.94914248
   0.88385887  0.44163359  0.05119297
   0.78083204  0.89419316  0.95084438
   0.89221323  0.78321376  0.04991920
unknown system                          
           1
     8.257339    4.782590    0.000000
    -8.247942    4.766343    0.000000
     0.000000    0.000000   30.000000
   V    Mo   W    S 
   3   3   3  18
Direct configuration=    10
   0.66546921  0.00271070 -0.00036995
   0.01179377  0.01022009  0.00010624
   0.65940532  0.32886508 -0.00016317
   0.32752876  0.33307687  0.00008219
   1.01743580  0.34683795  0.00017689
   0.32817603  0.00144441 -0.00031552
   0.01361391  0.66544036  0.00021174
   0.31854038  0.65395219  0.00007336
   0.65761889  0.65864943  0.00006664
   0.10760863  0.21611033  0.94720062
   0.21549848  0.10853582  0.05272318
   0.11139675  0.55628284  0.94453449
   0.22400692  0.44543791  0.05532094
   0.10610800  0.89044641  0.94798015
   0.22366308  0.77800665  0.05365918
   0.44967205  0.22541407  0.94843084
   0.56046036  0.11404239  0.05048308
   0.44318103  0.55573804  0.94677817
   0.55738962  0.43990574  0.05188055
   0.44819632  0.88944692  0.94951247
   0.55586041  0.78177094  0.05045866
   0.77463101  0.22044816  0.95089022
   0.88756920  0.10760994  0.04925908
   0.77636698  0.54981321  0.94953820
   0.88423912  0.44170131  0.05097441
   0.78079597  0.89380261  0.95114605
   0.89198845  0.78250406  0.04936119
unknown system                          
           1
     8.266532    4.791550    0.000000
    -8.254721    4.771122    0.000000
     0.000000    0.000000   30.000000
   V    Mo   W    S 
   3   3   3  18
Direct configuration=    11
   0.66552642  0.00283264 -0.00040175
   0.01216488  0.01067995  0.00010913
   0.65878818  0.32858768 -0.00016716
   0.32768066  0.33319715  0.00010455
   1.01785414  0.34715882  0.00017616
   0.32810247  0.00157250 -0.00030314
   0.01422611  0.66543532  0.00021009
   0.31832165  0.65362348  0.00009919
   0.65685046  0.65823644  0.00008691
   0.10766528  0.21621092  0.94715045
   0.21553186  0.10859933  0.05276754
   0.11146642  0.55629155  0.94441883
   0.22407209  0.44541081  0.05540386
   0.10608761  0.89039464  0.94796305
   0.22380520  0.77805223  0.05369789
   0.44956158  0.22537607  0.94839380
   0.56040680  0.11405182  0.05048743
   0.44306153  0.55569895  0.94670289
   0.55730820  0.43979288  0.05193432
   0.44805707  0.88932739  0.94955821
   0.55572978  0.78169762  0.05046001
   0.77475337  0.22057697  0.95094596
   0.88767264  0.10777183  0.04923189
   0.77643537  0.54984508  0.94961518
   0.88431574  0.44170030  0.05092597
   0.78080788  0.89373554  0.95120451
   0.89196106  0.78235654  0.04922414
unknown system                          
           1
     8.251694    4.773601    0.000000
    -8.248056    4.767315    0.000000
     0.000000    0.000000   30.000000
   V    Mo   W    S 
   3   3   3  18
Direct configuration=    12
   0.66603797  0.00342833 -0.00056304
   0.01385246  0.01285370  0.00011357
   0.65603670  0.32735972 -0.00018457
   0.32841901  0.33362642  0.00017560
   1.01954185  0.34833204  0.00016194
   0.32764042  0.00216588 -0.00026872
   0.01705757  0.66552285  0.00019034
   0.31753085  0.65222279  0.00017157
   0.65311729  0.65643931  0.00016197
   0.10793682  0.21659039  0.94699738
   0.21562255  0.10881425  0.05291388
   0.11180905  0.55633081  0.94404602
   0.22431253  0.44526009  0.05568334
   0.10603341  0.89022286  0.94796009
   0.22443743  0.77824422  0.05380082
   0.44908305  0.22515343  0.94823450
   0.56018591  0.11404223  0.05048869
   0.44257047  0.55551534  0.94640923
   0.55699073  0.43940831  0.05217495
   0.44752033  0.88886196  0.94982516
   0.55523422  0.78143510  0.05046150
   0.77522370  0.22110799  0.95119986
   0.88808370  0.10835785  0.04911188
   0.77669036  0.55007331  0.95002103
   0.88465410  0.44173784  0.05066190
   0.78082812  0.89339046  0.95149988
   0.89176385  0.78171698  0.04855111
unknown system                          
           1
     8.247178    4.773257    0.000000
    -8.241523    4.763481    0.000000
     0.000000    0.000000   30.000000
   V    Mo   W    S 
   3   3   3  18
Direct configuration=    13
   0.66391872  0.00114715 -0.00003821
   0.00947471  0.00643943  0.00014762
   0.66401973  0.33098979 -0.00013775
   0.32584502  0.33280209  0.00006214
   1.01567592  0.34636381  0.00019260
   0.32815314 -0.00041249 -0.00030678
   0.00987640  0.66514275  0.00032694
   0.31867426  0.65591865  0.00005246
   0.66428352  0.66159816 -0.00005436
   0.10711610  0.21574868  0.94736657
   0.21539950  0.10836093  0.05249178
   0.11090745  0.55634164  0.94479946
   0.22377208  0.44590841  0.05513997
   0.10623115  0.89063177  0.94786900
   0.22256964  0.77762889  0.05356634
   0.45002312  0.22571853  0.94866525
   0.56051253  0.11405017  0.05050992
   0.44399610  0.55633058  0.94726246
   0.55755774  0.44019292  0.05151204
   0.44845106  0.88969878  0.94902692
   0.55614184  0.78167496  0.05031244
   0.77446192  0.21973031  0.95055852
   0.88729176  0.10737483  0.04927875
   0.77621216  0.54932138  0.94868642
   0.88415686  0.44163824  0.05151316
   0.78083324  0.89447120  0.95067992
   0.89265875  0.78340289  0.05051632
unknown system                          
           1
     8.252698    4.780041    0.000000
    -8.244946    4.766633    0.000000
     0.000000    0.000000   30.000000
   V    Mo   W    S 
   3   3   3  18
Direct configuration=    14
   0.66267897  0.00048610  0.00011495
   0.00845617  0.00451099  0.00013585
   0.66629066  0.33198133 -0.00019016
   0.32440586  0.33251736 -0.00001169
   1.01556076  0.34674038  0.00018866
   0.32838534 -0.00129192 -0.00040207
   0.00744117  0.66483760  0.00020822
   0.31806978  0.65651936 -0.00000094
   0.66879911  0.66307487 -0.00008761
   0.10676012  0.21562563  0.94748725
   0.21542494  0.10833593  0.05240047
   0.11063749  0.55648436  0.94481774
   0.22374471  0.44627159  0.05512878
   0.10616613  0.89045390  0.94784013
   0.22214765  0.77752257  0.05371041
   0.45008172  0.22584619  0.94898346
   0.56045940  0.11409984  0.05046737
   0.44438358  0.55676652  0.94763372
   0.55779007  0.44039103  0.05120758
   0.44843604  0.88970838  0.94883922
   0.55615564  0.78134525  0.05015704
   0.77437830  0.21940316  0.95049386
   0.88722300  0.10743385  0.04915780
   0.77629300  0.54908362  0.94835244
   0.88416639  0.44170574  0.05178512
   0.78087596  0.89469527  0.95051721
   0.89300249  0.78366553  0.05106511
unknown system                          
           1
     8.259004    4.790727    0.000000
    -8.247369    4.770598    0.000000
     0.000000    0.000000   30.000000
   V    Mo   W    S 
   3   3   3  18
Direct configuration=    15
   0.66220008  0.00081810  0.00006379
   0.00943464  0.00537507  0.00013044
   0.66527817  0.33145866 -0.00019324
   0.32358624  0.33239723  0.00002462
   1.01727503  0.34803536  0.00019590
   0.32826497 -0.00129932 -0.00036887
   0.00823005  0.66480849  0.00018890
   0.31662145  0.65554520  0.00006575
   0.66912024  0.66261443 -0.00000475
   0.10665830  0.21577878  0.94740439
   0.21549520  0.10843796  0.05245928
   0.11077123  0.55661962  0.94448482
   0.22397011  0.44636541  0.05535074
   0.10607379  0.89023930  0.94779467
   0.22229967  0.77755190  0.05382554
   0.44973902  0.22578887  0.94905413
   0.56023442  0.11414384  0.05043506
   0.44433347  0.55698516  0.94769278
   0.55774918  0.44019779  0.05118538
   0.44803115  0.88930779  0.94894719
   0.55575362  0.78080239  0.05000234
   0.77468564  0.21971642  0.95067980
   0.88746782  0.10788469  0.04893463
   0.77653802  0.54906452  0.94845647
   0.88439332  0.44178471  0.05165802
   0.78096598  0.89446198  0.95071411
   0.89304365  0.78333009  0.05081800
unknown system                          
           1
     8.265008    4.795670    0.000000
    -8.251557    4.772404    0.000000
     0.000000    0.000000   30.000000
   V    Mo   W    S 
   3   3   3  18
Direct configuration=    16
   0.66053055  0.00148827 -0.00000875
   0.01140382  0.00723460  0.00004339
   0.66279314  0.33008797 -0.00022839
   0.32181112  0.33235033  0.00007182
   1.02084415  0.35079368  0.00010405
   0.32848491 -0.00124988 -0.00034948
   0.00987481  0.66447384  0.00006690
   0.31318804  0.65358588  0.00016939
   0.67077578  0.66163018  0.00003940
   0.10655170  0.21624088  0.94721664
   0.21566860  0.10869257  0.05260420
   0.11097783  0.55688327  0.94391461
   0.22454082  0.44660255  0.05587258
   0.10609539  0.88992236  0.94775393
   0.22239233  0.77755211  0.05402080
   0.44888304  0.22576278  0.94922809
   0.55974632  0.11416858  0.05044021
   0.44427400  0.55741045  0.94806379
   0.55738414  0.43955752  0.05112562
   0.44711372  0.88839057  0.94917380
   0.55492315  0.77970448  0.04952357
   0.77545053  0.22037015  0.95114187
   0.88794510  0.10895211  0.04839233
   0.77693618  0.54870210  0.94860188
   0.88496976  0.44186414  0.05132166
   0.78109133  0.89405097  0.95118835
   0.89356419  0.78299199  0.05050764
unknown system                          
           1
     8.268513    4.800551    0.000000
    -8.252733    4.773257    0.000000
     0.000000    0.000000   30.000000
   V    Mo   W    S 
   3   3   3  18
Direct configuration=    17
   0.66028886  0.00161539 -0.00001066
   0.01192075  0.00790343  0.00004910
   0.66160992  0.32943568 -0.00021973
   0.32186526  0.33226231  0.00014293
   1.02112196  0.35066294  0.00010053
   0.32853568 -0.00106278 -0.00033254
   0.01054485  0.66473013  0.00007323
   0.31304354  0.65358524  0.00024977
   0.67069026  0.66140047  0.00006398
   0.10666125  0.21630687  0.94712840
   0.21562698  0.10870246  0.05261502
   0.11099687  0.55683018  0.94381529
   0.22463795  0.44662574  0.05592110
   0.10618216  0.89001699  0.94777283
   0.22248596  0.77762042  0.05403341
   0.44868322  0.22572314  0.94912651
   0.55966136  0.11408776  0.05053990
   0.44420502  0.55740814  0.94808042
   0.55723323  0.43946338  0.05120366
   0.44699577  0.88825541  0.94918452
   0.55485448  0.77968524  0.04945344
   0.77557632  0.22045652  0.95118571
   0.88799130  0.10903665  0.04832222
   0.77693088  0.54853023  0.94861010
   0.88503349  0.44178302  0.05120544
   0.78110636  0.89405511  0.95127003
   0.89373075  0.78309437  0.05041527
unknown system                          
           1
     8.264061    4.795921    0.000000
    -8.249990    4.771582    0.000000
     0.000000    0.000000   30.000000
   V    Mo   W    S 
   3   3   3  18
Direct configuration=    18
   0.65948376  0.00194162 -0.00004586
   0.01289428  0.00904904  0.00000615
   0.65962798  0.32834378 -0.00022274
   0.32143451  0.33215855  0.00018987
   1.02246719  0.35133181  0.00005013
   0.32883653 -0.00082584 -0.00031844
   0.01151557  0.66483503  0.00002316
   0.31182951  0.65305201  0.00030089
   0.67133413  0.66088820  0.00005947
   0.10679381  0.21651316  0.94701584
   0.21564625  0.10877459  0.05267329
   0.11110512  0.55685434  0.94363668
   0.22486628  0.44672322  0.05609351
   0.10628330  0.89002434  0.94778822
   0.22257592  0.77771829  0.05410579
   0.44826159  0.22567282  0.94908729
   0.55941645  0.11401924  0.05063672
   0.44416951  0.55756280  0.94826372
   0.55703021  0.43923021  0.05125171
   0.44663064  0.88789697  0.94926167
   0.55460026  0.77934820  0.04924608
   0.77584385  0.22069232  0.95138157
   0.88813711  0.10937950  0.04810500
   0.77701542  0.54822948  0.94868214
   0.88522117  0.44172425  0.05096168
   0.78114437  0.89395097  0.95150013
   0.89404975  0.78312554  0.05026622
unknown system                          
           1
     8.261959    4.792371    0.000000
    -8.250093    4.771840    0.000000
     0.000000    0.000000   30.000000
   V    Mo   W    S 
   3   3   3  18
Direct configuration=    19
   0.66004227  0.00179885 -0.00004036
   0.01233466  0.00845792  0.00002308
   0.66067504  0.32893913 -0.00022814
   0.32181861  0.33227434  0.00014772
   1.02170150  0.35096643  0.00007273
   0.32869441 -0.00089010 -0.00033515
   0.01106038  0.66474055  0.00003588
   0.31253669  0.65329862  0.00023732
   0.67066775  0.66106732  0.00004536
   0.10675448  0.21640677  0.94709069
   0.21563486  0.10873117  0.05264579
   0.11108531  0.55684715  0.94377758
   0.22470969  0.44663762  0.05599027
   0.10623835  0.89003096  0.94779336
   0.22255233  0.77767372  0.05406017
   0.44851703  0.22570092  0.94910618
   0.55957034  0.11405920  0.05057954
   0.44415095  0.55743111  0.94814973
   0.55713467  0.43935435  0.05123915
   0.44684223  0.88810381  0.94924021
   0.55475527  0.77958068  0.04938114
   0.77567656  0.22055278  0.95127701
   0.88804751  0.10917410  0.04823982
   0.77694889  0.54843010  0.94868049
   0.88511623  0.44176060  0.05108661
   0.78110578  0.89399589  0.95138055
   0.89384268  0.78309047  0.05032319
unknown system                          
           1
     8.263271    4.794033    0.000000
    -8.250920    4.772661    0.000000
     0.000000    0.000000   30.000000
   V    Mo   W    S 
   3   3   3  18
Direct configuration=    20
   0.66076588  0.00159130 -0.00002388
   0.01162495  0.00767617  0.00006004
   0.66220482  0.32975646 -0.00023247
   0.32219058  0.33245603  0.00011627
   1.02082579  0.35064964  0.00011607
   0.32842920 -0.00105539 -0.00034208
   0.01053370  0.66460656  0.00006815
   0.31336750  0.65351826  0.00019431
   0.66975159  0.66133512  0.00005917
   0.10664441  0.21626539  0.94717152
   0.21561900  0.10868066  0.05260892
   0.11104167  0.55685245  0.94388615
   0.22453271  0.44653790  0.05588682
   0.10615655  0.89001410  0.94778240
   0.22252723  0.77758001  0.05400335
   0.44882214  0.22574872  0.94913369
   0.55979150  0.11410434  0.05049434
   0.44409753  0.55725732  0.94796426
   0.55723620  0.43947631  0.05122124
   0.44711429  0.88833441  0.94921361
   0.55490091  0.77987077  0.04954953
   0.77551957  0.22037784  0.95113423
   0.88794329  0.10896310  0.04839769
   0.77690800  0.54872325  0.94865613
   0.88502345  0.44182899  0.05128239
   0.78106373  0.89406024  0.95121497
   0.89357826  0.78300450  0.05038309
unknown system                          
           1
     8.263118    4.795395    0.000000
    -8.249068    4.771090    0.000000
     0.000000    0.000000   30.000000
   V    Mo   W    S 
   3   3   3  18
Direct configuration=    21
   0.66084161  0.00181900 -0.00005417
   0.01182095  0.00810122  0.00005393
   0.66171600  0.32946883 -0.00024644
   0.32245317  0.33273621  0.00013410
   1.02108090  0.35094779  0.00010381
   0.32858406 -0.00080691 -0.00033757
   0.01106372  0.66446189  0.00006051
   0.31323023  0.65313493  0.00022867
   0.66883745  0.66079760  0.00008558
   0.10669507  0.21640028  0.94715128
   0.21566812  0.10872651  0.05263106
   0.11110294  0.55685784  0.94379323
   0.22458753  0.44651781  0.05595439
   0.10616055  0.88996643  0.94779675
   0.22264086  0.77758274  0.05400370
   0.44876422  0.22576043  0.94914311
   0.55981603  0.11413398  0.05048353
   0.44393787  0.55716778  0.94790071
   0.55714453  0.43932144  0.05124648
   0.44701991  0.88820222  0.94928121
   0.55477270  0.77985186  0.04953209
   0.77564379  0.22049651  0.95119638
   0.88802078  0.10914824  0.04836309
   0.77691836  0.54875111  0.94875471
   0.88511826  0.44185925  0.05123007
   0.78102085  0.89396207  0.95127721
   0.89355401  0.78284737  0.05023249
unknown system                          
           1
     8.261128    4.792691    0.000000
    -8.248836    4.771423    0.000000
     0.000000    0.000000   30.000000
   V    Mo   W    S 
   3   3   3  18
Direct configuration=    22
   0.65995013  0.00167044 -0.00000625
   0.01211503  0.00819851  0.00003128
   0.66089692  0.32902238 -0.00021805
   0.32170915  0.33217080  0.00015215
   1.02157490  0.35086378  0.00007799
   0.32873152 -0.00101603 -0.00032598
   0.01081147  0.66478618  0.00005463
   0.31260345  0.65350578  0.00026428
   0.67116636  0.66138368  0.00005341
   0.10670721  0.21634856  0.94707678
   0.21564601  0.10871534  0.05265615
   0.11099720  0.55680884  0.94377516
   0.22472419  0.44668119  0.05596146
   0.10622804  0.89003641  0.94775937
   0.22251395  0.77766045  0.05406668
   0.44852769  0.22568383  0.94910147
   0.55958359  0.11400891  0.05056821
   0.44420557  0.55745712  0.94816906
   0.55715985  0.43944778  0.05121290
   0.44691477  0.88817505  0.94920337
   0.55480577  0.77961881  0.04937867
   0.77561712  0.22045661  0.95125125
   0.88797380  0.10910253  0.04826133
   0.77696966  0.54844243  0.94862647
   0.88509450  0.44175518  0.05111761
   0.78111679  0.89407549  0.95132497
   0.89386981  0.78315439  0.05040553
unknown system                          
           1
     8.256749    4.789187    0.000000
    -8.245789    4.770222    0.000000
     0.000000    0.000000   30.000000
   V    Mo   W    S 
   3   3   3  18
Direct configuration=    23
   0.66080435  0.00171170 -0.00003224
   0.01173364  0.00790744  0.00006150
   0.66201772  0.32962261 -0.00023360
   0.32236323  0.33266045  0.00013557
   1.02094254  0.35082118  0.00011571
   0.32850515 -0.00093760 -0.00033023
   0.01082251  0.66452612  0.00008052
   0.31334106  0.65330382  0.00024248
   0.66916264  0.66100626  0.00008944
   0.10666113  0.21634435  0.94715529
   0.21565737  0.10871505  0.05262438
   0.11105041  0.55684383  0.94381983
   0.22457081  0.44653410  0.05591748
   0.10614112  0.88997312  0.94778046
   0.22259396  0.77756850  0.05398684
   0.44878302  0.22575395  0.94914204
   0.55980935  0.11410834  0.05046976
   0.44400186  0.55719625  0.94791302
   0.55717332  0.43938954  0.05123144
   0.44706916  0.88827526  0.94925710
   0.55483202  0.77987072  0.04953132
   0.77559921  0.22044268  0.95116736
   0.88798067  0.10906222  0.04837488
   0.77692271  0.54875168  0.94870600
   0.88509193  0.44186090  0.05125606
   0.78103647  0.89400387  0.95125030
   0.89354707  0.78289812  0.05028721
unknown system                          
           1
     8.264887    4.794992    0.000000
    -8.252957    4.774347    0.000000
     0.000000    0.000000   30.000000
   V    Mo   W    S 
   3   3   3  18
Direct configuration=    24
   0.66094422  0.00170815 -0.00008534
   0.01221784  0.00830114  0.00004686
   0.66197110  0.32970248 -0.00027475
   0.32259701  0.33296349  0.00010645
   1.02115046  0.35101134  0.00007317
   0.32809191 -0.00100720 -0.00035666
   0.01132834  0.66462362  0.00000847
   0.31335013  0.65296742  0.00015931
   0.66803944  0.66041929  0.00005976
   0.10671340  0.21644591  0.94714619
   0.21565343  0.10872497  0.05267185
   0.11118254  0.55691032  0.94379425
   0.22454985  0.44644381  0.05604584
   0.10613643  0.88994859  0.94778042
   0.22272604  0.77766514  0.05404456
   0.44867098  0.22572226  0.94912975
   0.55974406  0.11408274  0.05051760
   0.44388764  0.55713097  0.94781133
   0.55702497  0.43922857  0.05134806
   0.44695124  0.88818659  0.94930577