   27   27  100    1
  0.9710400E+02  0.1002848E-08  0.1002848E-08  0.3000000E-08  0.5000000E-15
  1.000000000000000E-004
  CAR 
 unknown system                          
    159     34    120
 
  0.0000000E+00  0.0000000E+00  0.0000000E+00  0.1562500E-01
    1      -17.804803   1.000000
    2      -16.730375   1.000000
    3      -16.680430   1.000000
    4      -16.579499   1.000000
    5      -16.536954   1.000000
    6      -16.463434   1.000000
    7      -16.426909   1.000000
    8      -16.314815   1.000000
    9      -16.158625   1.000000
   10      -16.099201   1.000000
   11      -16.077517   1.000000
   12      -15.944933   1.000000
   13      -15.915739   1.000000
   14      -15.673790   1.000000
   15      -15.588255   1.000000
   16      -15.530508   1.000000
   17      -15.320441   1.000000
   18      -15.262725   1.000000
   19       -9.286458   1.000000
   20       -9.003326   1.000000
   21       -8.927860   1.000000
   22       -8.824298   1.000000
   23       -8.769269   1.000000
   24       -8.707126   1.000000
   25       -8.653456   1.000000
   26       -8.609000   1.000000
   27       -8.559563   1.000000
   28       -8.421380   1.000000
   29       -8.403743   1.000000
   30       -8.347919   1.000000
   31       -8.291913   1.000000
   32       -8.197966   1.000000
   33       -8.116360   1.000000
   34       -8.030988   1.000000
   35       -7.874944   1.000000
   36       -7.771709   1.000000
   37       -7.692927   1.000000
   38       -7.516620   1.000000
   39       -7.503052   1.000000
   40       -7.427545   1.000000
   41       -7.315571   1.000000
   42       -7.211632   1.000000
   43       -7.132713   1.000000
   44       -6.901895   1.000000
   45       -6.812587   1.000000
   46       -6.804809   1.000000
   47       -6.690457   1.000000
   48       -6.647372   1.000000
   49       -6.549512   1.000000
   50       -6.536955   1.000000
   51       -6.486265   1.000000
   52       -6.424328   1.000000
   53       -6.318512   1.000000
   54       -6.227574   1.000000
   55       -6.168206   1.000000
   56       -6.063326   1.000000
   57       -6.034582   1.000000
   58       -5.845645   1.000000
   59       -5.823121   1.000000
   60       -5.575284   1.000000
   61       -5.508960   1.000000
   62       -5.461348   1.000000
   63       -5.259597   1.000000
   64       -5.113984   1.000000
   65       -5.057797   1.000000
   66       -4.994060   1.000000
   67       -4.957905   1.000000
   68       -4.818139   1.000000
   69       -4.787846   1.000000
   70       -4.695568   1.000000
   71       -4.591782   1.000000
   72       -4.563243   1.000000
   73       -4.535304   1.000000
   74       -4.371243   1.000000
   75       -4.160488   1.000000
   76       -4.026914   1.000000
   77       -3.764508   0.999078
   78       -3.628158   0.984223
   79       -3.544216   0.940200
   80       -3.357067   0.592165
   81       -3.257774   0.319539
   82       -2.837896   0.000293
   83       -2.756999   0.000030
   84       -2.544686   0.000000
   85       -2.475916   0.000000
   86       -2.362966   0.000000
   87       -2.312722   0.000000
   88       -2.199077   0.000000
   89       -2.131550   0.000000
   90       -2.036003   0.000000
   91       -1.782854   0.000000
   92       -1.551099   0.000000
   93       -1.486979   0.000000
   94       -1.368751   0.000000
   95       -1.257720   0.000000
   96       -1.010030   0.000000
   97       -0.958729   0.000000
   98       -0.844781   0.000000
   99       -0.818761   0.000000
  100       -0.637676   0.000000
  101       -0.518791   0.000000
  102       -0.469582   0.000000
  103       -0.466255   0.000000
  104       -0.310067   0.000000
  105       -0.285925   0.000000
  106       -0.163299   0.000000
  107       -0.079929   0.000000
  108       -0.040670   0.000000
  109        0.075526   0.000000
  110        0.186096   0.000000
  111        0.366906   0.000000
  112        0.486512   0.000000
  113        0.681202   0.000000
  114        0.819418   0.000000
  115        0.834589   0.000000
  116        1.091193   0.000000
  117        1.308762   0.000000
  118        1.644022   0.000000
  119        1.834506   0.000000
  120        2.149888   0.000000
 
  0.1250000E+00  0.2775558E-16  0.0000000E+00  0.3125000E-01
    1      -17.779983   1.000000
    2      -16.784563   1.000000
    3      -16.725626   1.000000
    4      -16.626859   1.000000
    5      -16.543809   1.000000
    6      -16.473722   1.000000
    7      -16.387857   1.000000
    8      -16.268319   1.000000
    9      -16.184103   1.000000
   10      -16.070667   1.000000
   11      -16.016022   1.000000
   12      -15.938403   1.000000
   13      -15.893390   1.000000
   14      -15.675607   1.000000
   15      -15.603583   1.000000
   16      -15.526417   1.000000
   17      -15.331982   1.000000
   18      -15.266743   1.000000
   19       -9.279274   1.000000
   20       -9.156367   1.000000
   21       -9.027311   1.000000
   22       -8.945967   1.000000
   23       -8.802748   1.000000
   24       -8.722852   1.000000
   25       -8.648487   1.000000
   26       -8.579077   1.000000
   27       -8.519033   1.000000
   28       -8.409125   1.000000
   29       -8.374212   1.000000
   30       -8.328924   1.000000
   31       -8.227375   1.000000
   32       -8.107632   1.000000
   33       -8.004859   1.000000
   34       -7.941455   1.000000
   35       -7.826798   1.000000
   36       -7.758420   1.000000
   37       -7.619766   1.000000
   38       -7.588173   1.000000
   39       -7.494715   1.000000
   40       -7.431227   1.000000
   41       -7.275247   1.000000
   42       -7.218872   1.000000
   43       -7.148655   1.000000
   44       -6.956926   1.000000
   45       -6.888801   1.000000
   46       -6.784517   1.000000
   47       -6.696738   1.000000
   48       -6.636911   1.000000
   49       -6.581625   1.000000
   50       -6.542184   1.000000
   51       -6.469124   1.000000
   52       -6.392658   1.000000
   53       -6.282382   1.000000
   54       -6.232632   1.000000
   55       -6.187757   1.000000
   56       -6.089510   1.000000
   57       -5.985876   1.000000
   58       -5.848481   1.000000
   59       -5.769402   1.000000
   60       -5.561700   1.000000
   61       -5.539321   1.000000
   62       -5.464305   1.000000
   63       -5.323724   1.000000
   64       -5.198509   1.000000
   65       -5.145685   1.000000
   66       -5.064979   1.000000
   67       -4.924739   1.000000
   68       -4.866772   1.000000
   69       -4.785468   1.000000
   70       -4.670094   1.000000
   71       -4.608556   1.000000
   72       -4.520519   1.000000
   73       -4.412150   1.000000
   74       -4.300858   1.000000
   75       -4.137787   1.000000
   76       -4.013727   0.999999
   77       -3.790269   0.999510
   78       -3.741106   0.998404
   79       -3.524067   0.921316
   80       -3.455352   0.823322
   81       -3.118436   0.072937
   82       -2.839212   0.000303
   83       -2.737225   0.000017
   84       -2.568780   0.000000
   85       -2.447672   0.000000
   86       -2.379397   0.000000
   87       -2.294036   0.000000
   88       -2.163265   0.000000
   89       -2.132121   0.000000
   90       -2.007108   0.000000
   91       -1.799434   0.000000
   92       -1.543060   0.000000
   93       -1.490416   0.000000
   94       -1.362739   0.000000
   95       -1.257505   0.000000
   96       -1.012212   0.000000
   97       -0.961329   0.000000
   98       -0.878248   0.000000
   99       -0.823159   0.000000
  100       -0.716873   0.000000
  101       -0.612140   0.000000
  102       -0.528972   0.000000
  103       -0.459266   0.000000
  104       -0.337975   0.000000
  105       -0.310627   0.000000
  106       -0.209647   0.000000
  107       -0.126693   0.000000
  108       -0.051506   0.000000
  109        0.082395   0.000000
  110        0.138411   0.000000
  111        0.418732   0.000000
  112        0.553297   0.000000
  113        0.718689   0.000000
  114        0.822704   0.000000
  115        0.886581   0.000000
  116        1.108508   0.000000
  117        1.279593   0.000000
  118        1.688854   0.000000
  119        1.873056   0.000000
  120        2.185089   0.000000
 
  0.2500000E+00  0.5551115E-16  0.0000000E+00  0.3125000E-01
    1      -17.707123   1.000000
    2      -16.979332   1.000000
    3      -16.748185   1.000000
    4      -16.665869   1.000000
    5      -16.603069   1.000000
    6      -16.448487   1.000000
    7      -16.343367   1.000000
    8      -16.225017   1.000000
    9      -16.164128   1.000000
   10      -16.027726   1.000000
   11      -15.959290   1.000000
   12      -15.913586   1.000000
   13      -15.806675   1.000000
   14      -15.695389   1.000000
   15      -15.615935   1.000000
   16      -15.530431   1.000000
   17      -15.369588   1.000000
   18      -15.266858   1.000000
   19       -9.487779   1.000000
   20       -9.227626   1.000000
   21       -9.161672   1.000000
   22       -9.039484   1.000000
   23       -8.897287   1.000000
   24       -8.777631   1.000000
   25       -8.682123   1.000000
   26       -8.518952   1.000000
   27       -8.436758   1.000000
   28       -8.353812   1.000000
   29       -8.307728   1.000000
   30       -8.269564   1.000000
   31       -8.148078   1.000000
   32       -8.045054   1.000000
   33       -7.951429   1.000000
   34       -7.844588   1.000000
   35       -7.751173   1.000000
   36       -7.643585   1.000000
   37       -7.595111   1.000000
   38       -7.531455   1.000000
   39       -7.431133   1.000000
   40       -7.388890   1.000000
   41       -7.257712   1.000000
   42       -7.210305   1.000000
   43       -7.133399   1.000000
   44       -6.967093   1.000000
   45       -6.937772   1.000000
   46       -6.797301   1.000000
   47       -6.747889   1.000000
   48       -6.660344   1.000000
   49       -6.582934   1.000000
   50       -6.515443   1.000000
   51       -6.461251   1.000000
   52       -6.385224   1.000000
   53       -6.240206   1.000000
   54       -6.215687   1.000000
   55       -6.124205   1.000000
   56       -6.084586   1.000000
   57       -5.968323   1.000000
   58       -5.840877   1.000000
   59       -5.744083   1.000000
   60       -5.710809   1.000000
   61       -5.601079   1.000000
   62       -5.574484   1.000000
   63       -5.411722   1.000000
   64       -5.340306   1.000000
   65       -5.181151   1.000000
   66       -5.092786   1.000000
   67       -5.014895   1.000000
   68       -4.867240   1.000000
   69       -4.815999   1.000000
   70       -4.593225   1.000000
   71       -4.516663   1.000000
   72       -4.405806   1.000000
   73       -4.313605   1.000000
   74       -4.241687   1.000000
   75       -4.130214   1.000000
   76       -4.074077   1.000000
   77       -4.007239   0.999999
   78       -3.698257   0.995924
   79       -3.510523   0.906284
   80       -3.429553   0.772066
   81       -3.009292   0.013006
   82       -2.829530   0.000235
   83       -2.701090   0.000005
   84       -2.584481   0.000000
   85       -2.433838   0.000000
   86       -2.407562   0.000000
   87       -2.256056   0.000000
   88       -2.163367   0.000000
   89       -2.034731   0.000000
   90       -1.947586   0.000000
   91       -1.824947   0.000000
   92       -1.540655   0.000000
   93       -1.494212   0.000000
   94       -1.337534   0.000000
   95       -1.254765   0.000000
   96       -1.077331   0.000000
   97       -0.998163   0.000000
   98       -0.946249   0.000000
   99       -0.859231   0.000000
  100       -0.830616   0.000000
  101       -0.725461   0.000000
  102       -0.632359   0.000000
  103       -0.524163   0.000000
  104       -0.425913   0.000000
  105       -0.381027   0.000000
  106       -0.304166   0.000000
  107       -0.163032   0.000000
  108       -0.095450   0.000000
  109        0.006754   0.000000
  110        0.140833   0.000000
  111        0.491792   0.000000
  112        0.582402   0.000000
  113        0.729523   0.000000
  114        0.930485   0.000000
  115        1.006705   0.000000
  116        1.182971   0.000000
  117        1.239024   0.000000
  118        1.812119   0.000000
  119        1.983667   0.000000
  120        2.289347   0.000000
 
  0.3750000E+00  0.0000000E+00  0.0000000E+00  0.3125000E-01
    1      -17.593705   1.000000
    2      -17.186003   1.000000
    3      -16.778903   1.000000
    4      -16.677403   1.000000
    5      -16.636120   1.000000
    6      -16.437302   1.000000
    7      -16.341270   1.000000
    8      -16.210237   1.000000
    9      -16.082959   1.000000
   10      -15.987401   1.000000
   11      -15.946265   1.000000
   12      -15.877843   1.000000
   13      -15.756191   1.000000
   14      -15.707976   1.000000
   15      -15.599762   1.000000
   16      -15.540898   1.000000
   17      -15.426839   1.000000
   18      -15.254574   1.000000
   19       -9.703453   1.000000
   20       -9.333895   1.000000
   21       -9.148978   1.000000
   22       -9.103373   1.000000
   23       -8.944788   1.000000
   24       -8.807728   1.000000
   25       -8.659895   1.000000
   26       -8.464239   1.000000
   27       -8.410216   1.000000
   28       -8.311224   1.000000
   29       -8.274941   1.000000
   30       -8.192793   1.000000
   31       -8.135543   1.000000
   32       -8.062785   1.000000
   33       -7.921840   1.000000
   34       -7.848073   1.000000
   35       -7.770471   1.000000
   36       -7.681708   1.000000
   37       -7.548072   1.000000
   38       -7.443133   1.000000
   39       -7.339904   1.000000
   40       -7.299422   1.000000
   41       -7.202397   1.000000
   42       -7.162125   1.000000
   43       -7.060525   1.000000
   44       -6.934236   1.000000
   45       -6.905071   1.000000
   46       -6.851191   1.000000
   47       -6.692218   1.000000
   48       -6.596685   1.000000
   49       -6.547698   1.000000
   50       -6.532126   1.000000
   51       -6.401017   1.000000
   52       -6.313588   1.000000
   53       -6.228504   1.000000
   54       -6.196021   1.000000
   55       -6.129281   1.000000
   56       -6.105948   1.000000
   57       -5.995888   1.000000
   58       -5.908281   1.000000
   59       -5.860222   1.000000
   60       -5.787207   1.000000
   61       -5.735917   1.000000
   62       -5.659197   1.000000
   63       -5.537900   1.000000
   64       -5.325350   1.000000
   65       -5.217008   1.000000
   66       -5.107936   1.000000
   67       -5.025047   1.000000
   68       -4.923526   1.000000
   69       -4.743059   1.000000
   70       -4.681042   1.000000
   71       -4.455808   1.000000
   72       -4.410589   1.000000
   73       -4.295159   1.000000
   74       -4.243303   1.000000
   75       -4.152293   1.000000
   76       -4.069326   1.000000
   77       -3.965362   0.999997
   78       -3.642837   0.987896
   79       -3.538176   0.934955
   80       -3.350558   0.574206
   81       -2.928184   0.002559
   82       -2.799442   0.000104
   83       -2.713812   0.000008
   84       -2.555344   0.000000
   85       -2.473247   0.000000
   86       -2.411336   0.000000
   87       -2.216088   0.000000
   88       -2.171681   0.000000
   89       -1.988660   0.000000
   90       -1.878222   0.000000
   91       -1.777073   0.000000
   92       -1.555006   0.000000
   93       -1.498138   0.000000
   94       -1.310190   0.000000
   95       -1.251161   0.000000
   96       -1.196117   0.000000
   97       -1.096087   0.000000
   98       -1.030860   0.000000
   99       -0.919757   0.000000
  100       -0.838369   0.000000
  101       -0.773507   0.000000
  102       -0.711979   0.000000
  103       -0.615239   0.000000
  104       -0.522345   0.000000
  105       -0.422832   0.000000
  106       -0.356462   0.000000
  107       -0.230297   0.000000
  108       -0.145575   0.000000
  109       -0.064470   0.000000
  110        0.159155   0.000000
  111        0.485562   0.000000
  112        0.585383   0.000000
  113        0.760975   0.000000
  114        0.997412   0.000000
  115        1.130241   0.000000
  116        1.210034   0.000000
  117        1.309186   0.000000
  118        1.995217   0.000000
  119        2.156548   0.000000
  120        2.458899   0.000000
 
  0.5000000E+00  0.1110223E-15  0.0000000E+00  0.1562500E-01
    1      -17.497977   1.000000
    2      -17.315130   1.000000
    3      -16.791660   1.000000
    4      -16.683493   1.000000
    5      -16.641754   1.000000
    6      -16.436474   1.000000
    7      -16.344024   1.000000
    8      -16.205469   1.000000
    9      -16.036056   1.000000
   10      -15.971398   1.000000
   11      -15.949253   1.000000
   12      -15.851436   1.000000
   13      -15.781916   1.000000
   14      -15.690364   1.000000
   15      -15.594420   1.000000
   16      -15.519004   1.000000
   17      -15.473901   1.000000
   18      -15.245964   1.000000
   19       -9.781771   1.000000
   20       -9.375423   1.000000
   21       -9.168714   1.000000
   22       -9.108760   1.000000
   23       -8.951610   1.000000
   24       -8.787100   1.000000
   25       -8.631659   1.000000
   26       -8.511163   1.000000
   27       -8.418833   1.000000
   28       -8.280698   1.000000
   29       -8.251071   1.000000
   30       -8.126346   1.000000
   31       -8.122706   1.000000
   32       -8.066178   1.000000
   33       -7.931881   1.000000
   34       -7.840079   1.000000
   35       -7.822071   1.000000
   36       -7.739945   1.000000
   37       -7.563190   1.000000
   38       -7.418006   1.000000
   39       -7.320064   1.000000
   40       -7.277260   1.000000
   41       -7.168987   1.000000
   42       -7.054982   1.000000
   43       -6.964817   1.000000
   44       -6.933437   1.000000
   45       -6.901526   1.000000
   46       -6.757980   1.000000
   47       -6.718067   1.000000
   48       -6.581179   1.000000
   49       -6.542894   1.000000
   50       -6.515371   1.000000
   51       -6.432943   1.000000
   52       -6.346621   1.000000
   53       -6.264180   1.000000
   54       -6.214355   1.000000
   55       -6.101790   1.000000
   56       -6.048821   1.000000
   57       -5.970385   1.000000
   58       -5.927119   1.000000
   59       -5.881647   1.000000
   60       -5.867937   1.000000
   61       -5.763466   1.000000
   62       -5.636371   1.000000
   63       -5.514971   1.000000
   64       -5.412594   1.000000
   65       -5.330773   1.000000
   66       -5.106137   1.000000
   67       -5.062580   1.000000
   68       -4.971481   1.000000
   69       -4.749376   1.000000
   70       -4.620010   1.000000
   71       -4.470188   1.000000
   72       -4.376568   1.000000
   73       -4.347992   1.000000
   74       -4.243549   1.000000
   75       -4.129052   1.000000
   76       -4.042285   1.000000
   77       -3.922797   0.999988
   78       -3.620594   0.981982
   79       -3.555401   0.949033
   80       -3.328187   0.511530
   81       -2.842935   0.000334
   82       -2.812365   0.000148
   83       -2.746032   0.000022
   84       -2.529734   0.000000
   85       -2.487683   0.000000
   86       -2.423440   0.000000
   87       -2.192208   0.000000
   88       -2.180495   0.000000
   89       -1.984880   0.000000
   90       -1.866692   0.000000
   91       -1.707131   0.000000
   92       -1.577663   0.000000
   93       -1.485489   0.000000
   94       -1.327840   0.000000
   95       -1.257059   0.000000
   96       -1.232607   0.000000
   97       -1.127134   0.000000
   98       -1.082410   0.000000
   99       -0.948709   0.000000
  100       -0.832422   0.000000
  101       -0.785123   0.000000
  102       -0.733265   0.000000
  103       -0.655444   0.000000
  104       -0.571847   0.000000
  105       -0.438316   0.000000
  106       -0.361937   0.000000
  107       -0.262209   0.000000
  108       -0.175973   0.000000
  109       -0.088104   0.000000
  110        0.166417   0.000000
  111        0.475090   0.000000
  112        0.580737   0.000000
  113        0.782419   0.000000
  114        1.015882   0.000000
  115        1.159893   0.000000
  116        1.230284   0.000000
  117        1.354635   0.000000
  118        2.210490   0.000000
  119        2.245349   0.000000
  120        2.381178   0.000000
 
  0.0000000E+00  0.1250000E+00  0.0000000E+00  0.3125000E-01
    1      -17.779933   1.000000
    2      -16.798241   1.000000
    3      -16.715069   1.000000
    4      -16.636031   1.000000
    5      -16.556029   1.000000
    6      -16.431922   1.000000
    7      -16.369851   1.000000
    8      -16.303181   1.000000
    9      -16.151412   1.000000
   10      -16.091575   1.000000
   11      -16.044494   1.000000
   12      -15.932391   1.000000
   13      -15.878883   1.000000
   14      -15.682668   1.000000
   15      -15.594399   1.000000
   16      -15.541944   1.000000
   17      -15.324787   1.000000
   18      -15.265279   1.000000
   19       -9.286606   1.000000
   20       -9.169333   1.000000
   21       -9.017840   1.000000
   22       -8.914440   1.000000
   23       -8.810148   1.000000
   24       -8.748492   1.000000
   25       -8.677044   1.000000
   26       -8.570327   1.000000
   27       -8.458809   1.000000
   28       -8.394526   1.000000
   29       -8.371375   1.000000
   30       -8.299190   1.000000
   31       -8.193756   1.000000
   32       -8.124715   1.000000
   33       -8.105632   1.000000
   34       -7.954981   1.000000
   35       -7.831677   1.000000
   36       -7.715195   1.000000
   37       -7.637400   1.000000
   38       -7.576748   1.000000
   39       -7.516181   1.000000
   40       -7.449574   1.000000
   41       -7.291882   1.000000
   42       -7.237428   1.000000
   43       -7.122090   1.000000
   44       -6.958131   1.000000
   45       -6.862006   1.000000
   46       -6.764466   1.000000
   47       -6.676777   1.000000
   48       -6.620938   1.000000
   49       -6.564307   1.000000
   50       -6.532930   1.000000
   51       -6.455490   1.000000
   52       -6.414544   1.000000
   53       -6.324512   1.000000
   54       -6.254331   1.000000
   55       -6.189024   1.000000
   56       -6.076859   1.000000
   57       -5.974624   1.000000
   58       -5.868429   1.000000
   59       -5.782285   1.000000
   60       -5.583792   1.000000
   61       -5.541472   1.000000
   62       -5.460290   1.000000
   63       -5.370945   1.000000
   64       -5.275533   1.000000
   65       -5.035657   1.000000
   66       -4.969821   1.000000
   67       -4.930239   1.000000
   68       -4.887059   1.000000
   69       -4.715936   1.000000
   70       -4.649912   1.000000
   71       -4.606944   1.000000
   72       -4.545578   1.000000
   73       -4.459191   1.000000
   74       -4.328704   1.000000
   75       -4.132295   1.000000
   76       -4.088346   1.000000
   77       -3.798982   0.999607
   78       -3.697550   0.995863
   79       -3.591385   0.970621
   80       -3.309789   0.459699
   81       -3.235329   0.265100
   82       -2.802619   0.000113
   83       -2.723453   0.000011
   84       -2.538239   0.000000
   85       -2.468111   0.000000
   86       -2.351662   0.000000
   87       -2.292246   0.000000
   88       -2.165065   0.000000
   89       -2.135815   0.000000
   90       -2.010988   0.000000
   91       -1.794118   0.000000
   92       -1.557471   0.000000
   93       -1.481656   0.000000
   94       -1.364256   0.000000
   95       -1.253502   0.000000
   96       -1.024738   0.000000
   97       -0.954806   0.000000
   98       -0.883854   0.000000
   99       -0.840364   0.000000
  100       -0.693608   0.000000
  101       -0.594212   0.000000
  102       -0.512206   0.000000
  103       -0.462687   0.000000
  104       -0.447182   0.000000
  105       -0.332087   0.000000
  106       -0.190462   0.000000
  107       -0.118568   0.000000
  108        0.047305   0.000000
  109        0.097024   0.000000
  110        0.191072   0.000000
  111        0.356014   0.000000
  112        0.563099   0.000000
  113        0.664135   0.000000
  114        0.823024   0.000000
  115        0.893992   0.000000
  116        1.108996   0.000000
  117        1.268416   0.000000
  118        1.685770   0.000000
  119        1.875674   0.000000
  120        2.184626   0.000000
 
  0.1250000E+00  0.1250000E+00  0.0000000E+00  0.3125000E-01
    1      -17.731407   1.000000
    2      -16.880246   1.000000
    3      -16.831517   1.000000
    4      -16.675950   1.000000
    5      -16.501091   1.000000
    6      -16.421442   1.000000
    7      -16.370396   1.000000
    8      -16.273830   1.000000
    9      -16.156755   1.000000
   10      -16.044394   1.000000
   11      -16.000891   1.000000
   12      -15.872629   1.000000
   13      -15.848350   1.000000
   14      -15.702877   1.000000
   15      -15.614554   1.000000
   16      -15.547036   1.000000
   17      -15.338271   1.000000
   18      -15.267327   1.000000
   19       -9.363003   1.000000
   20       -9.326634   1.000000
   21       -9.120493   1.000000
   22       -9.057054   1.000000
   23       -8.795492   1.000000
   24       -8.742263   1.000000
   25       -8.627671   1.000000
   26       -8.557271   1.000000
   27       -8.460818   1.000000
   28       -8.359615   1.000000
   29       -8.330400   1.000000
   30       -8.249556   1.000000
   31       -8.147912   1.000000
   32       -8.097449   1.000000
   33       -7.983367   1.000000
   34       -7.899204   1.000000
   35       -7.769869   1.000000
   36       -7.712454   1.000000
   37       -7.577008   1.000000
   38       -7.531396   1.000000
   39       -7.470209   1.000000
   40       -7.363407   1.000000
   41       -7.311553   1.000000
   42       -7.227753   1.000000
   43       -7.150253   1.000000
   44       -6.972842   1.000000
   45       -6.857057   1.000000
   46       -6.780804   1.000000
   47       -6.728347   1.000000
   48       -6.639515   1.000000
   49       -6.620231   1.000000
   50       -6.487497   1.000000
   51       -6.445917   1.000000
   52       -6.382509   1.000000
   53       -6.328927   1.000000
   54       -6.265176   1.000000
   55       -6.144088   1.000000
   56       -6.088829   1.000000
   57       -5.948703   1.000000
   58       -5.851520   1.000000
   59       -5.754847   1.000000
   60       -5.685449   1.000000
   61       -5.577397   1.000000
   62       -5.498081   1.000000
   63       -5.421699   1.000000
   64       -5.332280   1.000000
   65       -5.161801   1.000000
   66       -5.082039   1.000000
   67       -4.945351   1.000000
   68       -4.847051   1.000000
   69       -4.737858   1.000000
   70       -4.607967   1.000000
   71       -4.532176   1.000000
   72       -4.486368   1.000000
   73       -4.364497   1.000000
   74       -4.242428   1.000000
   75       -4.176071   1.000000
   76       -4.078821   1.000000
   77       -3.921224   0.999988
   78       -3.755120   0.998847
   79       -3.536521   0.933457
   80       -3.364992   0.613769
   81       -3.129750   0.084681
   82       -2.782512   0.000064
   83       -2.679601   0.000003
   84       -2.561933   0.000000
   85       -2.429932   0.000000
   86       -2.386861   0.000000
   87       -2.260115   0.000000
   88       -2.142333   0.000000
   89       -2.075892   0.000000
   90       -1.965054   0.000000
   91       -1.797491   0.000000
   92       -1.552612   0.000000
   93       -1.490347   0.000000
   94       -1.376547   0.000000
   95       -1.252979   0.000000
   96       -1.059825   0.000000
   97       -0.975226   0.000000
   98       -0.940576   0.000000
   99       -0.866808   0.000000
  100       -0.807283   0.000000
  101       -0.645148   0.000000
  102       -0.614599   0.000000
  103       -0.541764   0.000000
  104       -0.440520   0.000000
  105       -0.396967   0.000000
  106       -0.245774   0.000000
  107       -0.207652   0.000000
  108        0.007909   0.000000
  109        0.090133   0.000000
  110        0.213306   0.000000
  111        0.389988   0.000000
  112        0.596998   0.000000
  113        0.737847   0.000000
  114        0.922669   0.000000
  115        0.966471   0.000000
  116        1.111391   0.000000
  117        1.202034   0.000000
  118        1.768945   0.000000
  119        1.951444   0.000000
  120        2.254025   0.000000
 
  0.2500000E+00  0.1250000E+00  0.0000000E+00  0.3125000E-01
    1      -17.637634   1.000000
    2      -17.068020   1.000000
    3      -16.916302   1.000000
    4      -16.662658   1.000000
    5      -16.493207   1.000000
    6      -16.432203   1.000000
    7      -16.351632   1.000000
    8      -16.223889   1.000000
    9      -16.143619   1.000000
   10      -16.004168   1.000000
   11      -15.965366   1.000000
   12      -15.839755   1.000000
   13      -15.774701   1.000000
   14      -15.718094   1.000000
   15      -15.625663   1.000000
   16      -15.562639   1.000000
   17      -15.370282   1.000000
   18      -15.260844   1.000000
   19       -9.596316   1.000000
   20       -9.416536   1.000000
   21       -9.214357   1.000000
   22       -9.095140   1.000000
   23       -8.811071   1.000000
   24       -8.704811   1.000000
   25       -8.638417   1.000000
   26       -8.473986   1.000000
   27       -8.396029   1.000000
   28       -8.328241   1.000000
   29       -8.296104   1.000000
   30       -8.241021   1.000000
   31       -8.143710   1.000000
   32       -8.073191   1.000000
   33       -7.996506   1.000000
   34       -7.922791   1.000000
   35       -7.758388   1.000000
   36       -7.630915   1.000000
   37       -7.505839   1.000000
   38       -7.467011   1.000000
   39       -7.383461   1.000000
   40       -7.318449   1.000000
   41       -7.258757   1.000000
   42       -7.175159   1.000000
   43       -7.037881   1.000000
   44       -6.980080   1.000000
   45       -6.893367   1.000000
   46       -6.806143   1.000000
   47       -6.754458   1.000000