       N       E                     dE             d eps       ncg     rms          rms(c)
DAV:   1     0.112371797665E+04    0.11237E+04   -0.35871E+04  8160   0.577E+02
DAV:   2    -0.166497062353E+01   -0.11254E+04   -0.10802E+04 11320   0.173E+02
DAV:   3    -0.199886806748E+03   -0.19822E+03   -0.19047E+03 10880   0.822E+01
DAV:   4    -0.209012311723E+03   -0.91255E+01   -0.88867E+01 12160   0.263E+01
DAV:   5    -0.209320767880E+03   -0.30846E+00   -0.30764E+00 11280   0.358E+00    0.275E+01
DAV:   6    -0.237937906017E+03   -0.28617E+02   -0.10706E+02 12560   0.601E+01    0.595E+01
DAV:   7    -0.196570406829E+03    0.41367E+02   -0.17546E+02 13440   0.152E+02    0.200E+01
DAV:   8    -0.189484347889E+03    0.70861E+01   -0.17846E+01 11800   0.127E+01    0.125E+01
DAV:   9    -0.188161727380E+03    0.13226E+01   -0.31161E+00 13480   0.626E+00    0.922E+00
DAV:  10    -0.186957808766E+03    0.12039E+01   -0.17328E+00 13400   0.769E+00    0.215E+00
DAV:  11    -0.187052256525E+03   -0.94448E-01   -0.58053E-01 13600   0.288E+00    0.370E+00
DAV:  12    -0.186993559032E+03    0.58697E-01   -0.74439E-01 12760   0.427E+00    0.360E+00
DAV:  13    -0.186888637292E+03    0.10492E+00   -0.30581E-01 13240   0.301E+00    0.188E+00
DAV:  14    -0.186850959442E+03    0.37678E-01   -0.10308E-01 13280   0.172E+00    0.845E-01
DAV:  15    -0.186849576011E+03    0.13834E-02   -0.28502E-02 13080   0.903E-01    0.853E-01
DAV:  16    -0.186843636839E+03    0.59392E-02   -0.12059E-02 13280   0.561E-01    0.291E-01
DAV:  17    -0.186842323902E+03    0.13129E-02   -0.46643E-03 12800   0.300E-01    0.185E-01
DAV:  18    -0.186842092206E+03    0.23170E-03   -0.18350E-03 11840   0.149E-01    0.132E-01
DAV:  19    -0.186841886589E+03    0.20562E-03   -0.83246E-04 11160   0.908E-02    0.598E-02
DAV:  20    -0.186842626951E+03   -0.74036E-03   -0.68790E-04  9040   0.760E-02    0.559E-02
DAV:  21    -0.186843404399E+03   -0.77745E-03   -0.23267E-04  8160   0.465E-02    0.338E-02
DAV:  22    -0.186844405005E+03   -0.10006E-02   -0.16940E-04  7440   0.414E-02    0.313E-02
DAV:  23    -0.186845567426E+03   -0.11624E-02   -0.10767E-04  7440   0.373E-02    0.121E-02
DAV:  24    -0.186846124803E+03   -0.55738E-03   -0.24572E-05  6800   0.142E-02    0.473E-03
DAV:  25    -0.186846517738E+03   -0.39293E-03   -0.15749E-05  5440   0.937E-03    0.312E-03
DAV:  26    -0.186846761728E+03   -0.24399E-03   -0.91874E-06  6800   0.687E-03    0.159E-03
DAV:  27    -0.186846848228E+03   -0.86500E-04   -0.32160E-06  7480   0.403E-03
   1 F= -.18684685E+03 E0= -.18667584E+03  d E =-.186847E+03
       N       E                     dE             d eps       ncg     rms          rms(c)
DAV:   1    -0.187499002474E+03   -0.65224E+00   -0.27189E+02  8160   0.350E+01    0.460E+00
DAV:   2    -0.189379892057E+03   -0.18809E+01   -0.19912E+01 12240   0.151E+01    0.911E+00
DAV:   3    -0.189353590348E+03    0.26302E-01   -0.46958E+00 12360   0.124E+01    0.635E+00
DAV:   4    -0.188753808565E+03    0.59978E+00   -0.56595E-01 11880   0.452E+00    0.192E+00
DAV:   5    -0.188868328893E+03   -0.11452E+00   -0.44245E-01 11800   0.374E+00    0.527E+00
DAV:   6    -0.188737505012E+03    0.13082E+00   -0.75582E-01 12640   0.434E+00    0.236E+00
DAV:   7    -0.188686072297E+03    0.51433E-01   -0.18442E-01 11920   0.194E+00    0.175E+00
DAV:   8    -0.188683938863E+03    0.21334E-02   -0.11999E-01 12440   0.196E+00    0.187E+00
DAV:   9    -0.188655745922E+03    0.28193E-01   -0.55944E-02 11720   0.120E+00    0.453E-01
DAV:  10    -0.188654812667E+03    0.93326E-03   -0.58215E-03 12840   0.317E-01    0.208E-01
DAV:  11    -0.188654374990E+03    0.43768E-03   -0.21871E-03 12520   0.157E-01    0.154E-01
DAV:  12    -0.188654389782E+03   -0.14792E-04   -0.86719E-04 11200   0.877E-02
   2 F= -.18865439E+03 E0= -.18851552E+03  d E =-.180754E+01
       N       E                     dE             d eps       ncg     rms          rms(c)
DAV:   1    -0.190575901214E+03   -0.19215E+01   -0.31010E+01  9200   0.142E+01    0.445E+00
DAV:   2    -0.190525234166E+03    0.50667E-01   -0.27682E+00 11520   0.944E+00    0.718E+00
DAV:   3    -0.190059489665E+03    0.46574E+00   -0.12890E+00 12320   0.860E+00    0.423E+00
DAV:   4    -0.189848321098E+03    0.21117E+00   -0.67389E-01 13000   0.429E+00    0.251E+00
DAV:   5    -0.189810869202E+03    0.37452E-01   -0.35542E-01 12240   0.299E+00    0.262E+00
DAV:   6    -0.189747230993E+03    0.63638E-01   -0.13456E-01 12720   0.235E+00    0.676E-01
DAV:   7    -0.189742420446E+03    0.48105E-02   -0.13205E-02 11640   0.548E-01    0.344E-01
DAV:   8    -0.189742702787E+03   -0.28234E-03   -0.55952E-03 12600   0.451E-01    0.368E-01
DAV:   9    -0.189741665816E+03    0.10370E-02   -0.22777E-03 11360   0.268E-01    0.113E-01
DAV:  10    -0.189741922423E+03   -0.25661E-03   -0.63405E-04  9960   0.929E-02    0.741E-02
DAV:  11    -0.189741840778E+03    0.81645E-04   -0.21718E-04  7960   0.511E-02
   3 F= -.18974184E+03 E0= -.18962548E+03  d E =-.108745E+01
       N       E                     dE             d eps       ncg     rms          rms(c)
DAV:   1    -0.191317158142E+03   -0.15752E+01   -0.75022E+01  8160   0.198E+01    0.461E+00
DAV:   2    -0.191117903457E+03    0.19925E+00   -0.53267E+00 13400   0.758E+00    0.444E+00
DAV:   3    -0.191311785899E+03   -0.19388E+00   -0.15050E+00 12240   0.911E+00    0.729E+00
DAV:   4    -0.190900352246E+03    0.41143E+00   -0.16847E+00 11880   0.852E+00    0.342E+00
DAV:   5    -0.190902619112E+03   -0.22669E-02   -0.65000E-01 11120   0.534E+00    0.354E+00
DAV:   6    -0.190732468742E+03    0.17015E+00   -0.20943E-01 12120   0.321E+00    0.652E-01
DAV:   7    -0.190732568316E+03   -0.99574E-04   -0.31369E-02 12480   0.760E-01    0.552E-01
DAV:   8    -0.190730279357E+03    0.22890E-02   -0.12127E-02 11680   0.692E-01    0.492E-01
DAV:   9    -0.190728139307E+03    0.21401E-02   -0.42804E-03 11520   0.448E-01    0.168E-01
DAV:  10    -0.190728405837E+03   -0.26653E-03   -0.13830E-03 10960   0.153E-01    0.113E-01
DAV:  11    -0.190728218956E+03    0.18688E-03   -0.63133E-04 10160   0.945E-02    0.429E-02
DAV:  12    -0.190728222190E+03   -0.32337E-05   -0.10128E-04  7120   0.356E-02
   4 F= -.19072822E+03 E0= -.19063064E+03  d E =-.986381E+00
       N       E                     dE             d eps       ncg     rms          rms(c)
DAV:   1    -0.192166239142E+03   -0.14380E+01   -0.17300E+02  8160   0.293E+01    0.580E+00
DAV:   2    -0.191885373918E+03    0.28087E+00   -0.97278E+00 10960   0.804E+00    0.402E+00
DAV:   3    -0.192364070934E+03   -0.47870E+00   -0.27968E+00 12160   0.109E+01    0.858E+00
DAV:   4    -0.191680935305E+03    0.68314E+00   -0.22615E+00 11560   0.108E+01    0.349E+00
DAV:   5    -0.191627315756E+03    0.53620E-01   -0.57404E-01 12200   0.565E+00    0.435E+00
DAV:   6    -0.191473522304E+03    0.15379E+00   -0.61846E-01 12320   0.519E+00    0.166E+00
DAV:   7    -0.191464750572E+03    0.87717E-02   -0.10940E-01 12640   0.199E+00    0.130E+00
DAV:   8    -0.191445842865E+03    0.18908E-01   -0.35478E-02 12320   0.144E+00    0.439E-01
DAV:   9    -0.191443277274E+03    0.25656E-02   -0.68019E-03 11320   0.450E-01    0.192E-01
DAV:  10    -0.191443441667E+03   -0.16439E-03   -0.27765E-03 11560   0.205E-01    0.102E-01
DAV:  11    -0.191443367149E+03    0.74518E-04   -0.58052E-04 10320   0.914E-02
   5 F= -.19144337E+03 E0= -.19135028E+03  d E =-.715145E+00
       N       E                     dE             d eps       ncg     rms          rms(c)
DAV:   1    -0.191522926998E+03   -0.79485E-01   -0.76944E+00  8160   0.582E+00    0.765E-01
DAV:   2    -0.191604173050E+03   -0.81246E-01   -0.34243E-01 13600   0.357E+00    0.249E+00
DAV:   3    -0.191534293928E+03    0.69879E-01   -0.12375E-01 12600   0.271E+00    0.384E-01
DAV:   4    -0.191537862350E+03   -0.35684E-02   -0.15237E-02 11600   0.836E-01    0.759E-01
DAV:   5    -0.191532439716E+03    0.54226E-02   -0.11160E-02 11520   0.748E-01    0.218E-01
DAV:   6    -0.191533273626E+03   -0.83391E-03   -0.39920E-03 11360   0.361E-01    0.332E-01
DAV:   7    -0.191532548697E+03    0.72493E-03   -0.39894E-03 11280   0.440E-01    0.222E-01
DAV:   8    -0.191531989858E+03    0.55884E-03   -0.10514E-03 10440   0.205E-01    0.367E-02
DAV:   9    -0.191532004429E+03   -0.14570E-04   -0.10563E-04  6560   0.400E-02
   6 F= -.19153200E+03 E0= -.19143714E+03  d E =-.886373E-01
       N       E                     dE             d eps       ncg     rms          rms(c)
DAV:   1    -0.191637901893E+03   -0.10591E+00   -0.19599E+01  8160   0.924E+00    0.108E+00
DAV:   2    -0.191776980175E+03   -0.13908E+00   -0.61312E-01 13120   0.455E+00    0.329E+00
DAV:   3    -0.191657831858E+03    0.11915E+00   -0.24064E-01 12400   0.373E+00    0.658E-01
DAV:   4    -0.191666686480E+03   -0.88546E-02   -0.38492E-02 12120   0.135E+00    0.121E+00
DAV:   5    -0.191652662752E+03    0.14024E-01   -0.28080E-02 11680   0.118E+00    0.331E-01
DAV:   6    -0.191655295784E+03   -0.26330E-02   -0.10852E-02 11560   0.642E-01    0.592E-01
DAV:   7    -0.191652641570E+03    0.26542E-02   -0.10230E-02 11600   0.708E-01    0.295E-01
DAV:   8    -0.191651537090E+03    0.11045E-02   -0.21079E-03 10800   0.271E-01    0.525E-02
DAV:   9    -0.191651533352E+03    0.37374E-05   -0.26168E-04  8240   0.571E-02
   7 F= -.19165153E+03 E0= -.19155585E+03  d E =-.119529E+00
       N       E                     dE             d eps       ncg     rms          rms(c)
DAV:   1    -0.191712909200E+03   -0.61372E-01   -0.65078E+00  8160   0.541E+00    0.713E-01
DAV:   2    -0.191763611529E+03   -0.50702E-01   -0.25407E-01 13560   0.290E+00    0.201E+00
DAV:   3    -0.191718477736E+03    0.45134E-01   -0.87794E-02 12440   0.227E+00    0.377E-01
DAV:   4    -0.191721471653E+03   -0.29939E-02   -0.14613E-02 12360   0.824E-01    0.737E-01
DAV:   5    -0.191716233730E+03    0.52379E-02   -0.11469E-02 10960   0.795E-01    0.255E-01
DAV:   6    -0.191715938281E+03    0.29545E-03   -0.32927E-03 10840   0.275E-01    0.147E-01
DAV:   7    -0.191715565856E+03    0.37243E-03   -0.12051E-03 10800   0.155E-01    0.974E-02
DAV:   8    -0.191715543620E+03    0.22236E-04   -0.49756E-04  8800   0.145E-01
   8 F= -.19171554E+03 E0= -.19161960E+03  d E =-.640103E-01
       N       E                     dE             d eps       ncg     rms          rms(c)
DAV:   1    -0.191781219000E+03   -0.65653E-01   -0.10651E+01  8160   0.692E+00    0.746E-01
DAV:   2    -0.191825496946E+03   -0.44278E-01   -0.34342E-01 12360   0.261E+00    0.166E+00
DAV:   3    -0.191799923671E+03    0.25573E-01   -0.89284E-02 12400   0.208E+00    0.669E-01
DAV:   4    -0.191802205358E+03   -0.22817E-02   -0.27155E-02 12400   0.111E+00    0.894E-01
DAV:   5    -0.191794152259E+03    0.80531E-02   -0.16363E-02 12040   0.940E-01    0.271E-01
DAV:   6    -0.191794580048E+03   -0.42779E-03   -0.57241E-03 10360   0.401E-01    0.298E-01
DAV:   7    -0.191794500356E+03    0.79692E-04   -0.50083E-03 11600   0.501E-01    0.340E-01
DAV:   8    -0.191793313515E+03    0.11868E-02   -0.19622E-03 10120   0.303E-01    0.480E-02
DAV:   9    -0.191793302867E+03    0.10648E-04   -0.13033E-04  6120   0.462E-02
   9 F= -.19179330E+03 E0= -.19169809E+03  d E =-.777592E-01
       N       E                     dE             d eps       ncg     rms          rms(c)
DAV:   1    -0.191791525818E+03    0.17877E-02   -0.20243E-01  8160   0.978E-01    0.143E-01
DAV:   2    -0.191791394089E+03    0.13173E-03   -0.55143E-03 10320   0.217E-01    0.106E-01
DAV:   3    -0.191791514435E+03   -0.12035E-03   -0.13616E-03 11000   0.237E-01    0.186E-01
DAV:   4    -0.191791158584E+03    0.35585E-03   -0.79791E-04  8800   0.217E-01    0.801E-02
DAV:   5    -0.191791280112E+03   -0.12153E-03   -0.63211E-04  8680   0.173E-01    0.142E-01
DAV:   6    -0.191791063491E+03    0.21662E-03   -0.42244E-04  8440   0.145E-01    0.267E-02
DAV:   7    -0.191791067165E+03   -0.36745E-05   -0.56343E-05  6240   0.420E-02
  10 F= -.19179107E+03 E0= -.19169565E+03  d E =0.223570E-02
       N       E                     dE             d eps       ncg     rms          rms(c)
DAV:   1    -0.191832517854E+03   -0.41454E-01   -0.31660E+00  8160   0.380E+00    0.411E-01
DAV:   2    -0.191843854459E+03   -0.11337E-01   -0.10114E-01 12040   0.127E+00    0.877E-01
DAV:   3    -0.191838272133E+03    0.55823E-02   -0.27421E-02 12200   0.107E+00    0.447E-01
DAV:   4    -0.191837521207E+03    0.75093E-03   -0.72843E-03 12320   0.575E-01    0.379E-01
DAV:   5    -0.191835994294E+03    0.15269E-02   -0.36647E-03 11280   0.486E-01    0.182E-01
DAV:   6    -0.191836040354E+03   -0.46061E-04   -0.21648E-03 10360   0.278E-01    0.180E-01
DAV:   7    -0.191836002440E+03    0.37914E-04   -0.16332E-03 10240   0.293E-01    0.194E-01
DAV:   8    -0.191835598473E+03    0.40397E-03   -0.61088E-04  8280   0.175E-01    0.252E-02
DAV:   9    -0.191835601649E+03   -0.31762E-05   -0.47800E-05  5800   0.272E-02
  11 F= -.19183560E+03 E0= -.19174092E+03  d E =-.445345E-01
       N       E                     dE             d eps       ncg     rms          rms(c)
DAV:   1    -0.191850525281E+03   -0.14927E-01   -0.34686E-01  8160   0.127E+00    0.162E-01
DAV:   2    -0.191852058740E+03   -0.15335E-02   -0.13447E-02 11800   0.480E-01    0.357E-01
DAV:   3    -0.191851071044E+03    0.98770E-03   -0.41462E-03 11520   0.423E-01    0.172E-01
DAV:   4    -0.191850920081E+03    0.15096E-03   -0.10252E-03  9680   0.214E-01    0.131E-01
DAV:   5    -0.191850765639E+03    0.15444E-03   -0.53864E-04  8760   0.190E-01    0.819E-02
DAV:   6    -0.191850726552E+03    0.39087E-04   -0.32618E-04  7440   0.116E-01
  12 F= -.19185073E+03 E0= -.19175630E+03  d E =-.151249E-01
       N       E                     dE             d eps       ncg     rms          rms(c)
DAV:   1    -0.191903251354E+03   -0.52486E-01   -0.50137E+00  8160   0.482E+00    0.562E-01
DAV:   2    -0.191924653733E+03   -0.21402E-01   -0.17847E-01 11240   0.167E+00    0.130E+00
DAV:   3    -0.191912460942E+03    0.12193E-01   -0.52444E-02 12440   0.149E+00    0.572E-01
DAV:   4    -0.191909396134E+03    0.30648E-02   -0.90194E-03 12240   0.567E-01    0.311E-01
DAV:   5    -0.191908896430E+03    0.49970E-03   -0.46906E-03 11800   0.525E-01    0.313E-01
DAV:   6    -0.191908693383E+03    0.20305E-03   -0.44318E-03 10920   0.473E-01    0.265E-01
DAV:   7    -0.191908236499E+03    0.45688E-03   -0.23090E-03 11200   0.353E-01    0.202E-01
DAV:   8    -0.191907782785E+03    0.45371E-03   -0.76330E-04  8800   0.205E-01    0.335E-02
DAV:   9    -0.191907775943E+03    0.68422E-05   -0.65679E-05  6560   0.362E-02
  13 F= -.19190778E+03 E0= -.19181420E+03  d E =-.570494E-01
       N       E                     dE             d eps       ncg     rms          rms(c)
DAV:   1    -0.191987316952E+03   -0.79534E-01   -0.16045E+01  8160   0.865E+00    0.102E+00
DAV:   2    -0.192073029669E+03   -0.85713E-01   -0.58985E-01 10960   0.319E+00    0.269E+00
DAV:   3    -0.192017200317E+03    0.55829E-01   -0.19715E-01 12320   0.292E+00    0.947E-01
DAV:   4    -0.192011015248E+03    0.61851E-02   -0.31408E-02 12200   0.110E+00    0.743E-01
DAV:   5    -0.192005890587E+03    0.51247E-02   -0.21514E-02 12040   0.113E+00    0.524E-01
DAV:   6    -0.192005568264E+03    0.32232E-03   -0.11926E-02 12480   0.778E-01    0.495E-01
DAV:   7    -0.192004379765E+03    0.11885E-02   -0.85665E-03 11680   0.717E-01    0.377E-01
DAV:   8    -0.192002592252E+03    0.17875E-02   -0.27261E-03 10800   0.391E-01    0.611E-02
DAV:   9    -0.192002565441E+03    0.26811E-04   -0.27921E-04  8640   0.642E-02
  14 F= -.19200257E+03 E0= -.19191042E+03  d E =-.947895E-01
       N       E                     dE             d eps       ncg     rms          rms(c)
DAV:   1    -0.192060415082E+03   -0.57823E-01   -0.19157E+01  8160   0.942E+00    0.115E+00
DAV:   2    -0.192182828080E+03   -0.12241E+00   -0.77963E-01 11320   0.379E+00    0.315E+00
DAV:   3    -0.192102890985E+03    0.79937E-01   -0.25879E-01 12240   0.346E+00    0.107E+00
DAV:   4    -0.192097735484E+03    0.51555E-02   -0.44233E-02 12200   0.148E+00    0.963E-01
DAV:   5    -0.192086540052E+03    0.11195E-01   -0.26363E-02 12400   0.131E+00    0.404E-01
DAV:   6    -0.192086779758E+03   -0.23971E-03   -0.10452E-02 12560   0.630E-01    0.435E-01
DAV:   7    -0.192086610823E+03    0.16893E-03   -0.92452E-03 12440   0.748E-01    0.470E-01
DAV:   8    -0.192084171313E+03    0.24395E-02   -0.36450E-03 11400   0.463E-01    0.684E-02
DAV:   9    -0.192084129300E+03    0.42013E-04   -0.33952E-04  9000   0.710E-02
  15 F= -.19208413E+03 E0= -.19199329E+03  d E =-.815639E-01
       N       E                     dE             d eps       ncg     rms          rms(c)
DAV:   1    -0.192091828668E+03   -0.76574E-02   -0.17754E+00  8160   0.289E+00    0.357E-01
DAV:   2    -0.192096558673E+03   -0.47300E-02   -0.57244E-02 11320   0.944E-01    0.550E-01
DAV:   3    -0.192094777113E+03    0.17816E-02   -0.11758E-02 12040   0.846E-01    0.413E-01
DAV:   4    -0.192093597840E+03    0.11793E-02   -0.41968E-03 11480   0.514E-01    0.289E-01
DAV:   5    -0.192093008577E+03    0.58926E-03   -0.31349E-03 10760   0.448E-01    0.204E-01
DAV:   6    -0.192092782780E+03    0.22580E-03   -0.17200E-03 12440   0.269E-01    0.150E-01
DAV:   7    -0.192092664793E+03    0.11799E-03   -0.90084E-04  9480   0.229E-01    0.120E-01
DAV:   8    -0.192092505365E+03    0.15943E-03   -0.24227E-04  6800   0.116E-01    0.210E-02
DAV:   9    -0.192092510393E+03   -0.50282E-05   -0.39209E-05  6560   0.246E-02
  16 F= -.19209251E+03 E0= -.19200357E+03  d E =-.838109E-02
       N       E                     dE             d eps       ncg     rms          rms(c)
DAV:   1    -0.192124359897E+03   -0.31855E-01   -0.17244E+01  8160   0.896E+00    0.108E+00
DAV:   2    -0.192217992939E+03   -0.93633E-01   -0.64387E-01 11440   0.341E+00    0.267E+00
DAV:   3    -0.192158667015E+03    0.59326E-01   -0.19314E-01 12240   0.317E+00    0.104E+00
DAV:   4    -0.192153124790E+03    0.55422E-02   -0.37538E-02 12120   0.138E+00    0.889E-01
DAV:   5    -0.192143510669E+03    0.96141E-02   -0.22569E-02 12360   0.124E+00    0.378E-01
DAV:   6    -0.192143005550E+03    0.50512E-03   -0.86842E-03 12200   0.539E-01    0.307E-01
DAV:   7    -0.192142593203E+03    0.41235E-03   -0.52782E-03 12040   0.528E-01    0.343E-01
DAV:   8    -0.192141358258E+03    0.12349E-02   -0.20869E-03 10720   0.371E-01    0.743E-02
DAV:   9    -0.192141291279E+03    0.66979E-04   -0.23679E-04  6800   0.735E-02
  17 F= -.19214129E+03 E0= -.19205298E+03  d E =-.487809E-01
       N       E                     dE             d eps       ncg     rms          rms(c)
DAV:   1    -0.192147431482E+03   -0.60732E-02   -0.47072E-01  8160   0.150E+00    0.187E-01
DAV:   2    -0.192148057647E+03   -0.62616E-03   -0.13448E-02 11440   0.384E-01    0.213E-01
DAV:   3    -0.192148241298E+03   -0.18365E-03   -0.29178E-03 12480   0.418E-01    0.262E-01
DAV:   4    -0.192147567298E+03    0.67400E-03   -0.14995E-03 10080   0.295E-01    0.121E-01
DAV:   5    -0.192147524678E+03    0.42621E-04   -0.66562E-04  9520   0.215E-01
  18 F= -.19214752E+03 E0= -.19206007E+03  d E =-.623340E-02
       N       E                     dE             d eps       ncg     rms          rms(c)
DAV:   1    -0.192149723800E+03   -0.21565E-02   -0.30246E-02  8160   0.401E-01    0.872E-02
DAV:   2    -0.192150991670E+03   -0.12679E-02   -0.28134E-03 12760   0.389E-01    0.345E-01
DAV:   3    -0.192149700139E+03    0.12915E-02   -0.15755E-03 10200   0.345E-01    0.496E-02
DAV:   4    -0.192149710009E+03   -0.98695E-05   -0.11854E-04  6560   0.727E-02
  19 F= -.19214971E+03 E0= -.19206222E+03  d E =-.218533E-02
       N       E                     dE             d eps       ncg     rms          rms(c)
DAV:   1    -0.192156484989E+03   -0.67849E-02   -0.33179E-01  8160   0.124E+00    0.159E-01
DAV:   2    -0.192158475766E+03   -0.19908E-02   -0.12341E-02 11240   0.509E-01    0.386E-01
DAV:   3    -0.192157071249E+03    0.14045E-02   -0.36406E-03 12360   0.472E-01    0.146E-01
DAV:   4    -0.192157005471E+03    0.65778E-04   -0.71096E-04  9360   0.190E-01
  20 F= -.19215701E+03 E0= -.19206959E+03  d E =-.729546E-02
       N       E                     dE             d eps       ncg     rms          rms(c)
DAV:   1    -0.192151317068E+03    0.57542E-02   -0.29223E-01  8160   0.119E+00    0.158E-01
DAV:   2    -0.192153468889E+03   -0.21518E-02   -0.12951E-02 12160   0.532E-01    0.368E-01
DAV:   3    -0.192151875220E+03    0.15937E-02   -0.36238E-03 12200   0.496E-01    0.123E-01
DAV:   4    -0.192151965822E+03   -0.90602E-04   -0.80748E-04  8920   0.211E-01
  21 F= -.19215197E+03 E0= -.19206559E+03  d E =0.503965E-02
       N       E                     dE             d eps       ncg     rms          rms(c)
DAV:   1    -0.192162263033E+03   -0.10388E-01   -0.70956E-01  8160   0.182E+00    0.215E-01
DAV:   2    -0.192164926242E+03   -0.26632E-02   -0.23687E-02 12000   0.636E-01    0.386E-01
DAV:   3    -0.192163509625E+03    0.14166E-02   -0.47964E-03 12360   0.569E-01    0.200E-01
DAV:   4    -0.192163524638E+03   -0.15013E-04   -0.14563E-03 10120   0.308E-01    0.220E-01
DAV:   5    -0.192163054548E+03    0.47009E-03   -0.96713E-04 10000   0.252E-01    0.765E-02
DAV:   6    -0.192163033894E+03    0.20654E-04   -0.32102E-04  9040   0.902E-02
  22 F= -.19216303E+03 E0= -.19207656E+03  d E =-.110681E-01
       N       E                     dE             d eps       ncg     rms          rms(c)
DAV:   1    -0.192163704464E+03   -0.64992E-03   -0.25472E-03  8600   0.117E-01    0.231E-02
DAV:   2    -0.192163729011E+03   -0.24547E-04   -0.12261E-04  7400   0.652E-02
  23 F= -.19216373E+03 E0= -.19207747E+03  d E =-.695116E-03
       N       E                     dE             d eps       ncg     rms          rms(c)
DAV:   1    -0.192172632125E+03   -0.89277E-02   -0.58515E-01  8160   0.166E+00    0.194E-01
DAV:   2    -0.192173328278E+03   -0.69615E-03   -0.11468E-02 11480   0.389E-01    0.251E-01
DAV:   3    -0.192173199281E+03    0.12900E-03   -0.29490E-03 11920   0.446E-01    0.249E-01
DAV:   4    -0.192172735902E+03    0.46338E-03   -0.14055E-03 10200   0.290E-01    0.144E-01
DAV:   5    -0.192172592691E+03    0.14321E-03   -0.86566E-04 10040   0.238E-01    0.110E-01
DAV:   6    -0.192172481319E+03    0.11137E-03   -0.36490E-04  8920   0.146E-01    0.497E-02
DAV:   7    -0.192172475107E+03    0.62120E-05   -0.11796E-04  6760   0.888E-02
  24 F= -.19217248E+03 E0= -.19208649E+03  d E =-.874610E-02
       N       E                     dE             d eps       ncg     rms          rms(c)
DAV:   1    -0.192191892796E+03   -0.19411E-01   -0.22682E+00  8160   0.327E+00    0.383E-01
DAV:   2    -0.192195471273E+03   -0.35785E-02   -0.51929E-02 11080   0.809E-01    0.462E-01
DAV:   3    -0.192194263852E+03    0.12074E-02   -0.10948E-02 12600   0.855E-01    0.382E-01
DAV:   4    -0.192192849471E+03    0.14144E-02   -0.34342E-03 12240   0.477E-01    0.219E-01
DAV:   5    -0.192192907244E+03   -0.57773E-04   -0.24843E-03 10840   0.407E-01    0.265E-01
DAV:   6    -0.192192322963E+03    0.58428E-03   -0.16436E-03 10480   0.314E-01    0.102E-01
DAV:   7    -0.192192149172E+03    0.17379E-03   -0.34154E-04  8760   0.972E-02    0.190E-02
DAV:   8    -0.192192148184E+03    0.98799E-06   -0.45462E-05  7440   0.261E-02
  25 F= -.19219215E+03 E0= -.19210610E+03  d E =-.196731E-01
       N       E                     dE             d eps       ncg     rms          rms(c)
DAV:   1    -0.192171251228E+03    0.20898E-01   -0.32383E+00  8160   0.390E+00    0.472E-01
DAV:   2    -0.192179411578E+03   -0.81603E-02   -0.75073E-02 11840   0.130E+00    0.803E-01
DAV:   3    -0.192173336372E+03    0.60752E-02   -0.19274E-02 12200   0.120E+00    0.414E-01
DAV:   4    -0.192173172896E+03    0.16348E-03   -0.68090E-03 12640   0.649E-01    0.435E-01
DAV:   5    -0.192171421774E+03    0.17511E-02   -0.49051E-03 10920   0.580E-01    0.232E-01
DAV:   6    -0.192170883290E+03    0.53848E-03   -0.17754E-03 10440   0.286E-01    0.106E-01
DAV:   7    -0.192170735469E+03    0.14782E-03   -0.50928E-04 10880   0.135E-01    0.796E-02
DAV:   8    -0.192170682462E+03    0.53007E-04   -0.17004E-04  7720   0.105E-01
  26 F= -.19217068E+03 E0= -.19208429E+03  d E =0.214657E-01
       N       E                     dE             d eps       ncg     rms          rms(c)
DAV:   1    -0.192179273082E+03   -0.85376E-02   -0.37991E-01  8160   0.133E+00    0.179E-01
DAV:   2    -0.192181180635E+03   -0.19076E-02   -0.14034E-02 10680   0.620E-01    0.368E-01
DAV:   3    -0.192179642032E+03    0.15386E-02   -0.35362E-03 12400   0.482E-01    0.128E-01
DAV:   4    -0.192179717954E+03   -0.75922E-04   -0.79403E-04 10000   0.231E-01
  27 F= -.19217972E+03 E0= -.19209369E+03  d E =-.903549E-02
       N       E                     dE             d eps       ncg     rms          rms(c)
DAV:   1    -0.192187733195E+03   -0.80912E-02   -0.32907E-01  8160   0.126E+00    0.177E-01
DAV:   2    -0.192188845202E+03   -0.11120E-02   -0.94807E-03 11400   0.398E-01    0.317E-01
DAV:   3    -0.192188033534E+03    0.81167E-03   -0.30719E-03 12160   0.450E-01    0.185E-01
DAV:   4    -0.192187747148E+03    0.28639E-03   -0.72364E-04  9640   0.180E-01    0.757E-02
DAV:   5    -0.192187668040E+03    0.79108E-04   -0.36805E-04  9440   0.942E-02
  28 F= -.19218767E+03 E0= -.19210151E+03  d E =-.795009E-02
       N       E                     dE             d eps       ncg     rms          rms(c)
DAV:   1    -0.192194774875E+03   -0.70277E-02   -0.26681E-01  8160   0.112E+00    0.165E-01
DAV:   2    -0.192197384220E+03   -0.26093E-02   -0.10756E-02 12320   0.559E-01    0.484E-01
DAV:   3    -0.192195016383E+03    0.23678E-02   -0.38995E-03 12320   0.530E-01    0.111E-01
DAV:   4    -0.192194991953E+03    0.24430E-04   -0.44407E-04  8840   0.145E-01
  29 F= -.19219499E+03 E0= -.19210859E+03  d E =-.732391E-02
       N       E                     dE             d eps       ncg     rms          rms(c)
DAV:   1    -0.192177745118E+03    0.17271E-01   -0.14344E+00  8160   0.260E+00    0.334E-01
DAV:   2    -0.192184819797E+03   -0.70747E-02   -0.47347E-02 12320   0.999E-01    0.688E-01
DAV:   3    -0.192179210741E+03    0.56091E-02   -0.14195E-02 12240   0.964E-01    0.250E-01
DAV:   4    -0.192179273764E+03   -0.63023E-04   -0.25734E-03 11360   0.388E-01    0.285E-01
DAV:   5    -0.192178463328E+03    0.81044E-03   -0.17764E-03 10120   0.378E-01    0.127E-01
DAV:   6    -0.192178352134E+03    0.11119E-03   -0.58788E-04 10120   0.136E-01    0.567E-02
DAV:   7    -0.192178290580E+03    0.61554E-04   -0.14867E-04  7520   0.678E-02
  30 F= -.19217829E+03 E0= -.19209260E+03  d E =0.167014E-01
       N       E                     dE             d eps       ncg     rms          rms(c)
DAV:   1    -0.192201459803E+03   -0.23108E-01   -0.27946E+00  8160   0.364E+00    0.452E-01
DAV:   2    -0.192208158878E+03   -0.66991E-02   -0.80339E-02 10960   0.989E-01    0.649E-01
DAV:   3    -0.192205248493E+03    0.29104E-02   -0.19589E-02 11880   0.109E+00    0.507E-01
DAV:   4    -0.192203541341E+03    0.17072E-02   -0.63336E-03 12040   0.635E-01    0.370E-01
DAV:   5    -0.192202260612E+03    0.12807E-02   -0.35720E-03 10600   0.550E-01    0.200E-01
DAV:   6    -0.192201873423E+03    0.38719E-03   -0.12988E-03 10480   0.220E-01    0.749E-02
DAV:   7    -0.192201798320E+03    0.75102E-04   -0.36638E-04  8880   0.111E-01
  31 F= -.19220180E+03 E0= -.19211526E+03  d E =-.235077E-01
       N       E                     dE             d eps       ncg     rms          rms(c)
DAV:   1    -0.192203332163E+03   -0.14587E-02   -0.24780E-02  8800   0.405E-01    0.115E-01
DAV:   2    -0.192203319745E+03    0.12418E-04   -0.20483E-03 10560   0.246E-01    0.182E-01
DAV:   3    -0.192203098700E+03    0.22104E-03   -0.11470E-03 10120   0.287E-01    0.136E-01
DAV:   4    -0.192202925485E+03    0.17322E-03   -0.40136E-04  8240   0.166E-01    0.686E-02
DAV:   5    -0.192202918400E+03    0.70848E-05   -0.28015E-04  7800   0.131E-01
  32 F= -.19220292E+03 E0= -.19211694E+03  d E =-.112008E-02
       N       E                     dE             d eps       ncg     rms          rms(c)
DAV:   1    -0.192215841357E+03   -0.12916E-01   -0.85713E-01  8160   0.199E+00    0.265E-01
DAV:   2    -0.192219589943E+03   -0.37486E-02   -0.29903E-02 10840   0.816E-01    0.517E-01
DAV:   3    -0.192216693256E+03    0.28967E-02   -0.78609E-03 12320   0.700E-01    0.211E-01
DAV:   4    -0.192216852151E+03   -0.15889E-03   -0.19785E-03 10320   0.366E-01    0.257E-01
DAV:   5    -0.192216169597E+03    0.68255E-03   -0.13155E-03 10040   0.332E-01    0.975E-02
DAV:   6    -0.192216106179E+03    0.63418E-04   -0.40929E-04  9080   0.116E-01
  33 F= -.19221611E+03 E0= -.19212969E+03  d E =-.131878E-01
       N       E                     dE             d eps       ncg     rms          rms(c)
DAV:   1    -0.192219101778E+03   -0.29322E-02   -0.44731E-02  8160   0.476E-01    0.106E-01
DAV:   2    -0.192220665614E+03   -0.15638E-02   -0.38970E-03 11880   0.458E-01    0.381E-01
DAV:   3    -0.192219011948E+03    0.16537E-02   -0.20171E-03 10160   0.393E-01    0.531E-02
DAV:   4    -0.192219048655E+03   -0.36707E-04   -0.16532E-04  6280   0.102E-01
  34 F= -.19221905E+03 E0= -.19213230E+03  d E =-.294248E-02
       N       E                     dE             d eps       ncg     rms          rms(c)
DAV:   1    -0.192221695395E+03   -0.26834E-02   -0.13504E-01  8160   0.854E-01    0.159E-01
DAV:   2    -0.192221708256E+03   -0.12861E-04   -0.80662E-03 11000   0.269E-01    0.149E-01
DAV:   3    -0.192222082227E+03   -0.37397E-03   -0.21083E-03 11080   0.366E-01    0.249E-01
DAV:   4    -0.192221385373E+03    0.69685E-03   -0.11761E-03 10000   0.275E-01    0.767E-02
DAV:   5    -0.192221386747E+03   -0.13742E-05   -0.33918E-04  8720   0.150E-01
  35 F= -.19222139E+03 E0= -.19213543E+03  d E =-.233809E-02
       N       E                     dE             d eps       ncg     rms          rms(c)
DAV:   1    -0.192235840817E+03   -0.14455E-01   -0.12905E+00  8160   0.245E+00    0.336E-01
DAV:   2    -0.192242489976E+03   -0.66492E-02   -0.46498E-02 11720   0.109E+00    0.725E-01
DAV:   3    -0.192236620845E+03    0.58691E-02   -0.14197E-02 12440   0.925E-01    0.256E-01
DAV:   4    -0.192237048433E+03   -0.42759E-03   -0.32063E-03 10800   0.481E-01    0.333E-01
DAV:   5    -0.192235829612E+03    0.12188E-02   -0.21000E-03 10080   0.422E-01    0.115E-01
DAV:   6    -0.192235734278E+03    0.95335E-04   -0.71111E-04 10280   0.145E-01
  36 F= -.19223573E+03 E0= -.19214935E+03  d E =-.143475E-01
       N       E                     dE             d eps       ncg     rms          rms(c)
DAV:   1    -0.192230856375E+03    0.49732E-02   -0.41719E-01  8160   0.144E+00    0.261E-01
DAV:   2    -0.192232505457E+03   -0.16491E-02   -0.21922E-02 11360   0.691E-01    0.457E-01
DAV:   3    -0.192230670378E+03    0.18351E-02   -0.68964E-03 11840   0.663E-01    0.246E-01
DAV:   4    -0.192230310820E+03    0.35956E-03   -0.21169E-03 11400   0.374E-01    0.215E-01
DAV:   5    -0.192229888469E+03    0.42235E-03   -0.13225E-03  9720   0.331E-01    0.124E-01
DAV:   6    -0.192229671532E+03    0.21694E-03   -0.56399E-04  9880   0.155E-01    0.366E-02
DAV:   7    -0.192229667857E+03    0.36751E-05   -0.96409E-05  6800   0.662E-02
  37 F= -.19222967E+03 E0= -.19214294E+03  d E =0.606642E-02
       N       E                     dE             d eps       ncg     rms          rms(c)
DAV:   1    -0.192237052084E+03   -0.73806E-02   -0.32032E-01  8160   0.124E+00    0.179E-01
DAV:   2    -0.192237722430E+03   -0.67035E-03   -0.11716E-02 10680   0.362E-01    0.226E-01
DAV:   3    -0.192237547717E+03    0.17471E-03   -0.31828E-03 12200   0.427E-01    0.221E-01
DAV:   4    -0.192237132572E+03    0.41514E-03   -0.11810E-03  9840   0.269E-01    0.135E-01
DAV:   5    -0.192236969709E+03    0.16286E-03   -0.53072E-04  8880   0.213E-01    0.835E-02
DAV:   6    -0.192236898558E+03    0.71151E-04   -0.20264E-04  6440   0.986E-02
  38 F= -.19223690E+03 E0= -.19214912E+03  d E =-.723070E-02
       N       E                     dE             d eps       ncg     rms          rms(c)
DAV:   1    -0.192251739547E+03   -0.14770E-01   -0.12840E+00  8160   0.244E+00    0.310E-01
DAV:   2    -0.192256285739E+03   -0.45462E-02   -0.41406E-02 11200   0.796E-01    0.560E-01
DAV:   3    -0.192253502487E+03    0.27833E-02   -0.12381E-02 12520   0.819E-01    0.318E-01
DAV:   4    -0.192252977909E+03    0.52458E-03   -0.26077E-03 11240   0.409E-01    0.239E-01
DAV:   5    -0.192252343941E+03    0.63397E-03   -0.14564E-03 10200   0.352E-01    0.120E-01
DAV:   6    -0.192252267421E+03    0.76520E-04   -0.71343E-04 10440   0.166E-01
  39 F= -.19225227E+03 E0= -.19216298E+03  d E =-.153689E-01
       N       E                     dE             d eps       ncg     rms          rms(c)
DAV:   1    -0.192261422760E+03   -0.90788E-02   -0.54344E-01  8160   0.158E+00    0.221E-01
DAV:   2    -0.192264151230E+03   -0.27285E-02   -0.22081E-02 10800   0.722E-01    0.438E-01
DAV:   3    -0.192262044146E+03    0.21071E-02   -0.62515E-03 12320   0.595E-01    0.173E-01
DAV:   4    -0.192262142768E+03   -0.98622E-04   -0.14115E-03 10160   0.303E-01    0.208E-01
DAV:   5    -0.192261704302E+03    0.43847E-03   -0.88386E-04  9920   0.272E-01    0.871E-02
DAV:   6    -0.192261655762E+03    0.48540E-04   -0.36377E-04  8880   0.108E-01
  40 F= -.19226166E+03 E0= -.19217220E+03  d E =-.938834E-02
       N       E                     dE             d eps       ncg     rms          rms(c)
DAV:   1    -0.192288266318E+03   -0.26562E-01   -0.21779E+01  8160   0.100E+01    0.116E+00
DAV:   2    -0.192357485841E+03   -0.69220E-01   -0.68718E-01 11120   0.308E+00    0.187E+00
DAV:   3    -0.192324010095E+03    0.33476E-01   -0.16950E-01 12240   0.287E+00    0.112E+00
DAV:   4    -0.192318965171E+03    0.50449E-02   -0.41969E-02 12480   0.161E+00    0.985E-01
DAV:   5    -0.192308963650E+03    0.10002E-01   -0.23161E-02 11120   0.138E+00    0.455E-01
DAV:   6    -0.192307715400E+03    0.12482E-02   -0.10481E-02 11880   0.589E-01    0.273E-01
DAV:   7    -0.192306056573E+03    0.16588E-02   -0.33842E-03 10680   0.243E-01    0.697E-02
DAV:   8    -0.192306053813E+03    0.27600E-05   -0.46720E-04 11080   0.119E-01
  41 F= -.19230605E+03 E0= -.19221571E+03  d E =-.443981E-01
       N       E                     dE             d eps       ncg     rms          rms(c)
DAV:   1    -0.192305375639E+03    0.68093E-03   -0.39300E-01  8160   0.136E+00    0.179E-01
DAV:   2    -0.192307563695E+03   -0.21881E-02   -0.12722E-02 12320   0.628E-01    0.419E-01
DAV:   3    -0.192305419768E+03    0.21439E-02   -0.44125E-03 12000   0.518E-01    0.117E-01
DAV:   4    -0.192305617847E+03   -0.19808E-03   -0.94955E-04 10320   0.252E-01    0.187E-01
DAV:   5    -0.192305202350E+03    0.41550E-03   -0.66544E-04  9520   0.227E-01    0.545E-02
DAV:   6    -0.192305186502E+03    0.15848E-04   -0.17494E-04  6600   0.698E-02
  42 F= -.19230519E+03 E0= -.19221499E+03  d E =0.867311E-03
       N       E                     dE             d eps       ncg     rms          rms(c)
DAV:   1    -0.192312967886E+03   -0.77655E-02   -0.21482E+00  8160   0.311E+00    0.363E-01
DAV:   2    -0.192320669641E+03   -0.77018E-02   -0.71599E-02 11080   0.109E+00    0.631E-01
DAV:   3    -0.192316577962E+03    0.40917E-02   -0.17546E-02 12400   0.953E-01    0.328E-01
DAV:   4    -0.192316223837E+03    0.35413E-03   -0.40732E-03 11520   0.489E-01    0.294E-01
DAV:   5    -0.192315364503E+03    0.85933E-03   -0.21919E-03 10200   0.418E-01    0.152E-01
DAV:   6    -0.192315224023E+03    0.14048E-03   -0.10967E-03 11080   0.202E-01    0.881E-02
DAV:   7    -0.192315116134E+03    0.10789E-03   -0.39820E-04  9400   0.116E-01    0.612E-02
DAV:   8    -0.192315079009E+03    0.37125E-04   -0.81454E-05  6880   0.882E-02
  43 F= -.19231508E+03 E0= -.19222582E+03  d E =-.989251E-02
       N       E                     dE             d eps       ncg     rms          rms(c)
DAV:   1    -0.192317653688E+03   -0.25376E-02   -0.19644E-01  8160   0.942E-01    0.105E-01
DAV:   2    -0.192318091485E+03   -0.43780E-03   -0.70760E-03 12360   0.236E-01    0.659E-02
DAV:   3    -0.192318106574E+03   -0.15089E-04   -0.47493E-04 10240   0.130E-01
  44 F= -.19231811E+03 E0= -.19222960E+03  d E =-.302757E-02
       N       E                     dE             d eps       ncg     rms          rms(c)
DAV:   1    -0.192319760934E+03   -0.16694E-02   -0.78263E-02  8160   0.606E-01    0.976E-02
DAV:   2    -0.192320402825E+03   -0.64189E-03   -0.33970E-03 13520   0.307E-01    0.221E-01
DAV:   3    -0.192319815227E+03    0.58760E-03   -0.11981E-03 10120   0.284E-01    0.747E-02
DAV:   4    -0.192319814397E+03    0.83033E-06   -0.22508E-04  7520   0.114E-01
  45 F= -.19231981E+03 E0= -.19223170E+03  d E =-.170782E-02
       N       E                     dE             d eps       ncg     rms          rms(c)
DAV:   1    -0.192322511596E+03   -0.26964E-02   -0.24909E-01  8160   0.106E+00    0.129E-01
DAV:   2    -0.192323105025E+03   -0.59343E-03   -0.79741E-03 12360   0.269E-01    0.143E-01
DAV:   3    -0.192323098870E+03    0.61547E-05   -0.16859E-03 11240   0.286E-01    0.170E-01
DAV:   4    -0.192322847093E+03    0.25178E-03   -0.63530E-04  9080   0.204E-01    0.727E-02
DAV:   5    -0.192322783169E+03    0.63924E-04   -0.19699E-04  7520   0.866E-02
  46 F= -.19232278E+03 E0= -.19223539E+03  d E =-.296877E-02
       N       E                     dE             d eps       ncg     rms          rms(c)
DAV:   1    -0.192327084100E+03   -0.42370E-02   -0.27949E+00  8160   0.355E+00    0.376E-01
DAV:   2    -0.192332808672E+03   -0.57246E-02   -0.86700E-02 12080   0.825E-01    0.274E-01
DAV:   3    -0.192334710352E+03   -0.19017E-02   -0.10779E-02 12640   0.714E-01    0.513E-01
DAV:   4    -0.192331865256E+03    0.28451E-02   -0.55141E-03 12280   0.610E-01    0.175E-01
DAV:   5    -0.192331667258E+03    0.19800E-03   -0.14308E-03 10320   0.230E-01    0.125E-01
DAV:   6    -0.192331758812E+03   -0.91554E-04   -0.10797E-03 10720   0.263E-01    0.148E-01
DAV:   7    -0.192331470383E+03    0.28843E-03   -0.46727E-04  9440   0.184E-01    0.368E-02
DAV:   8    -0.192331466778E+03    0.36051E-05   -0.64053E-05  6320   0.650E-02
  47 F= -.19233147E+03 E0= -.19224722E+03  d E =-.868361E-02
       N       E                     dE             d eps       ncg     rms          rms(c)
DAV:   1    -0.192330029217E+03    0.14412E-02   -0.67775E+00  8160   0.554E+00    0.584E-01
DAV:   2    -0.192345266937E+03   -0.15238E-01   -0.20554E-01 12240   0.136E+00    0.558E-01
DAV:   3    -0.192345998684E+03   -0.73175E-03   -0.23758E-02 12360   0.124E+00    0.668E-01
DAV:   4    -0.192341158777E+03    0.48399E-02   -0.85367E-03 12480   0.852E-01    0.300E-01
DAV:   5    -0.192340770541E+03    0.38824E-03   -0.44884E-03 11960   0.512E-01    0.283E-01
DAV:   6    -0.192340506630E+03    0.26391E-03   -0.34057E-03 11880   0.470E-01    0.205E-01
DAV:   7    -0.192339872884E+03    0.63375E-03   -0.12728E-03 10640   0.229E-01    0.572E-02
DAV:   8    -0.192339877121E+03   -0.42369E-05   -0.22301E-04  8240   0.108E-01
  48 F= -.19233988E+03 E0= -.19226170E+03  d E =-.841034E-02
       N       E                     dE             d eps       ncg     rms          rms(c)
DAV:   1    -0.192340071517E+03   -0.19863E-03   -0.31402E-02  8280   0.381E-01    0.547E-02
DAV:   2    -0.192340417253E+03   -0.34574E-03   -0.16296E-03 12160   0.240E-01    0.155E-01
DAV:   3    -0.192340118320E+03    0.29893E-03   -0.42797E-04  9360   0.181E-01    0.300E-02
DAV:   4    -0.192340126404E+03   -0.80837E-05   -0.45380E-05  6120   0.626E-02
  49 F= -.19234013E+03 E0= -.19226168E+03  d E =-.249283E-03
