<?xml version="1.0" encoding="ISO-8859-1"?>
<modeling>
 <generator>
  <i name="program" type="string">vasp </i>
  <i name="version" type="string">5.4.1  </i>
  <i name="subversion" type="string">05Feb16 (build Jul 05 2020 17:13:04) complex                          parallel </i>
  <i name="platform" type="string">IFC91_ompi </i>
  <i name="date" type="string">2024 04 26 </i>
  <i name="time" type="string">11:49:47 </i>
 </generator>
 <incar>
  <i type="int" name="ISTART">     0</i>
  <i type="string" name="PREC">normal</i>
  <i type="string" name="ALGO"> Normal</i>
  <i type="int" name="ISPIN">     1</i>
  <i type="int" name="ICHARG">     2</i>
  <i type="int" name="IBRION">     1</i>
  <i type="int" name="NSW">   100</i>
  <i type="int" name="ISIF">     3</i>
  <i type="int" name="ISYM">     0</i>
  <i name="SYMPREC">      0.00000001</i>
  <i name="POTIM">      0.50000000</i>
  <i type="logical" name="LREAL"> F  </i>
  <i type="logical" name="LPLANE"> F  </i>
  <i type="int" name="ISMEAR">     0</i>
  <i type="logical" name="LWAVE"> F  </i>
  <i type="logical" name="LCHARG"> F  </i>
  <v type="int" name="KPOINT_BSE">    -1     0     0     0</v>
 </incar>
 <kpoints>
  <generation param="Gamma">
   <v type="int" name="divisions">       8        8        1 </v>
   <v name="usershift">      0.00000000       0.00000000       0.00000000 </v>
   <v name="genvec1">      0.12500000       0.00000000       0.00000000 </v>
   <v name="genvec2">     -0.00000000       0.12500000       0.00000000 </v>
   <v name="genvec3">      0.00000000       0.00000000       1.00000000 </v>
   <v name="shift">      0.00000000       0.00000000       0.00000000 </v>
  </generation>
  <varray name="kpointlist" >
   <v>       0.00000000       0.00000000       0.00000000 </v>
   <v>       0.12500000       0.00000000       0.00000000 </v>
   <v>       0.25000000       0.00000000       0.00000000 </v>
   <v>       0.37500000       0.00000000       0.00000000 </v>
   <v>       0.50000000       0.00000000       0.00000000 </v>
   <v>       0.00000000       0.12500000       0.00000000 </v>
   <v>       0.12500000       0.12500000       0.00000000 </v>
   <v>       0.25000000       0.12500000       0.00000000 </v>
   <v>       0.37500000       0.12500000       0.00000000 </v>
   <v>       0.50000000       0.12500000       0.00000000 </v>
   <v>      -0.37500000       0.12500000       0.00000000 </v>
   <v>      -0.25000000       0.12500000       0.00000000 </v>
   <v>      -0.12500000       0.12500000       0.00000000 </v>
   <v>       0.00000000       0.25000000       0.00000000 </v>
   <v>       0.12500000       0.25000000       0.00000000 </v>
   <v>       0.25000000       0.25000000       0.00000000 </v>
   <v>       0.37500000       0.25000000       0.00000000 </v>
   <v>       0.50000000       0.25000000       0.00000000 </v>
   <v>      -0.37500000       0.25000000       0.00000000 </v>
   <v>      -0.25000000       0.25000000       0.00000000 </v>
   <v>      -0.12500000       0.25000000       0.00000000 </v>
   <v>      -0.00000000       0.37500000       0.00000000 </v>
   <v>       0.12500000       0.37500000       0.00000000 </v>
   <v>       0.25000000       0.37500000       0.00000000 </v>
   <v>       0.37500000       0.37500000       0.00000000 </v>
   <v>       0.50000000       0.37500000       0.00000000 </v>
   <v>      -0.37500000       0.37500000       0.00000000 </v>
   <v>      -0.25000000       0.37500000       0.00000000 </v>
   <v>      -0.12500000       0.37500000       0.00000000 </v>
   <v>       0.00000000       0.50000000       0.00000000 </v>
   <v>       0.12500000       0.50000000       0.00000000 </v>
   <v>       0.25000000       0.50000000       0.00000000 </v>
   <v>       0.37500000       0.50000000       0.00000000 </v>
   <v>       0.50000000       0.50000000       0.00000000 </v>
  </varray>
  <varray name="weights" >
   <v>       0.01562500 </v>
   <v>       0.03125000 </v>
   <v>       0.03125000 </v>
   <v>       0.03125000 </v>
   <v>       0.01562500 </v>
   <v>       0.03125000 </v>
   <v>       0.03125000 </v>
   <v>       0.03125000 </v>
   <v>       0.03125000 </v>
   <v>       0.03125000 </v>
   <v>       0.03125000 </v>
   <v>       0.03125000 </v>
   <v>       0.03125000 </v>
   <v>       0.03125000 </v>
   <v>       0.03125000 </v>
   <v>       0.03125000 </v>
   <v>       0.03125000 </v>
   <v>       0.03125000 </v>
   <v>       0.03125000 </v>
   <v>       0.03125000 </v>
   <v>       0.03125000 </v>
   <v>       0.03125000 </v>
   <v>       0.03125000 </v>
   <v>       0.03125000 </v>
   <v>       0.03125000 </v>
   <v>       0.03125000 </v>
   <v>       0.03125000 </v>
   <v>       0.03125000 </v>
   <v>       0.03125000 </v>
   <v>       0.01562500 </v>
   <v>       0.03125000 </v>
   <v>       0.03125000 </v>
   <v>       0.03125000 </v>
   <v>       0.01562500 </v>
  </varray>
 </kpoints>
 <parameters>
  <separator name="general" >
   <i type="string" name="SYSTEM">unknown system</i>
   <i type="logical" name="LCOMPAT"> F  </i>
  </separator>
  <separator name="electronic" >
   <i type="string" name="PREC">normal</i>
   <i name="ENMAX">    280.00000000</i>
   <i name="ENAUG">    373.43800000</i>
   <i name="EDIFF">      0.00010000</i>
   <i type="int" name="IALGO">    38</i>
   <i type="int" name="IWAVPR">    11</i>
   <i type="int" name="NBANDS">   120</i>
   <i name="NELECT">    159.00000000</i>
   <i type="int" name="TURBO">     0</i>
   <i type="int" name="IRESTART">     0</i>
   <i type="int" name="NREBOOT">     0</i>
   <i type="int" name="NMIN">     0</i>
   <i name="EREF">      0.00000000</i>
   <separator name="electronic smearing" >
    <i type="int" name="ISMEAR">     0</i>
    <i name="SIGMA">      0.20000000</i>
    <i name="KSPACING">      0.50000000</i>
    <i type="logical" name="KGAMMA"> T  </i>
   </separator>
   <separator name="electronic projectors" >
    <i type="logical" name="LREAL"> F  </i>
    <v name="ROPT">      0.00000000      0.00000000      0.00000000      0.00000000</v>
    <i type="int" name="LMAXPAW">  -100</i>
    <i type="int" name="LMAXMIX">     2</i>
    <i type="logical" name="NLSPLINE"> F  </i>
   </separator>
   <separator name="electronic startup" >
    <i type="int" name="ISTART">     0</i>
    <i type="int" name="ICHARG">     2</i>
    <i type="int" name="INIWAV">     1</i>
   </separator>
   <separator name="electronic spin" >
    <i type="int" name="ISPIN">     1</i>
    <i type="logical" name="LNONCOLLINEAR"> F  </i>
    <v name="MAGMOM">      1.00000000      1.00000000      1.00000000      1.00000000      1.00000000      1.00000000      1.00000000      1.00000000      1.00000000      1.00000000      1.00000000      1.00000000      1.00000000      1.00000000      1.00000000      1.00000000      1.00000000      1.00000000      1.00000000      1.00000000
      1.00000000      1.00000000      1.00000000      1.00000000      1.00000000      1.00000000      1.00000000</v>
    <i name="NUPDOWN">     -1.00000000</i>
    <i type="logical" name="LSORBIT"> F  </i>
    <v name="SAXIS">      0.00000000      0.00000000      1.00000000</v>
    <i type="logical" name="LSPIRAL"> F  </i>
    <v name="QSPIRAL">      0.00000000      0.00000000      0.00000000</v>
    <i type="logical" name="LZEROZ"> F  </i>
   </separator>
   <separator name="electronic exchange-correlation" >
    <i type="logical" name="LASPH"> F  </i>
    <i type="logical" name="LMETAGGA"> F  </i>
   </separator>
   <separator name="electronic convergence" >
    <i type="int" name="NELM">    60</i>
    <i type="int" name="NELMDL">    -5</i>
    <i type="int" name="NELMIN">     2</i>
    <i name="ENINI">    280.00000000</i>
    <separator name="electronic convergence detail" >
     <i type="logical" name="LDIAG"> T  </i>
     <i type="logical" name="LSUBROT"> F  </i>
     <i name="WEIMIN">      0.00100000</i>
     <i name="EBREAK">      0.00000021</i>
     <i name="DEPER">      0.30000000</i>
     <i type="int" name="NRMM">     4</i>
     <i name="TIME">      0.40000000</i>
    </separator>
   </separator>
   <separator name="electronic mixer" >
    <i name="AMIX">      0.40000000</i>
    <i name="BMIX">      1.00000000</i>
    <i name="AMIN">      0.10000000</i>
    <i name="AMIX_MAG">      1.60000000</i>
    <i name="BMIX_MAG">      1.00000000</i>
    <separator name="electronic mixer details" >
     <i type="int" name="IMIX">     4</i>
     <i type="logical" name="MIXFIRST"> F  </i>
     <i type="int" name="MAXMIX">   -45</i>
     <i name="WC">    100.00000000</i>
     <i type="int" name="INIMIX">     1</i>
     <i type="int" name="MIXPRE">     1</i>
     <i type="int" name="MREMOVE">     5</i>
    </separator>
   </separator>
   <separator name="electronic dipolcorrection" >
    <i type="logical" name="LDIPOL"> F  </i>
    <i type="logical" name="LMONO"> F  </i>
    <i type="int" name="IDIPOL">     0</i>
    <i name="EPSILON">      1.00000000</i>
    <v name="DIPOL">   -100.00000000   -100.00000000   -100.00000000</v>
    <i name="EFIELD">      0.00000000</i>
   </separator>
  </separator>
  <separator name="grids" >
   <i type="int" name="NGX">    42</i>
   <i type="int" name="NGY">    42</i>
   <i type="int" name="NGZ">   126</i>
   <i type="int" name="NGXF">    84</i>
   <i type="int" name="NGYF">    84</i>
   <i type="int" name="NGZF">   252</i>
   <i type="logical" name="ADDGRID"> F  </i>
  </separator>
  <separator name="ionic" >
   <i type="int" name="NSW">   100</i>
   <i type="int" name="IBRION">     1</i>
   <i type="int" name="ISIF">     3</i>
   <i name="PSTRESS">      0.00000000</i>
   <i name="EDIFFG">      0.00100000</i>
   <i type="int" name="NFREE">     0</i>
   <i name="POTIM">      0.50000000</i>
   <i name="SMASS">     -3.00000000</i>
   <i name="SCALEE">      1.00000000</i>
  </separator>
  <separator name="ionic md" >
   <i name="TEBEG">      0.00010000</i>
   <i name="TEEND">      0.00010000</i>
   <i type="int" name="NBLOCK">     1</i>
   <i type="int" name="KBLOCK">   100</i>
   <i type="int" name="NPACO">   256</i>
   <i name="APACO">     16.00000000</i>
  </separator>
  <separator name="symmetry" >
   <i type="int" name="ISYM">     0</i>
   <i name="SYMPREC">      0.00000001</i>
  </separator>
  <separator name="dos" >
   <i type="logical" name="LORBIT"> F  </i>
   <v name="RWIGS">     -1.00000000     -1.00000000     -1.00000000     -1.00000000</v>
   <i type="int" name="NEDOS">   301</i>
   <i name="EMIN">     10.00000000</i>
   <i name="EMAX">    -10.00000000</i>
   <i name="EFERMI">      0.00000000</i>
  </separator>
  <separator name="writing" >
   <i type="int" name="NWRITE">     2</i>
   <i type="logical" name="LWAVE"> F  </i>
   <i type="logical" name="LCHARG"> F  </i>
   <i type="logical" name="LPARD"> F  </i>
   <i type="logical" name="LVTOT"> F  </i>
   <i type="logical" name="LVHAR"> F  </i>
   <i type="logical" name="LELF"> F  </i>
   <i type="logical" name="LOPTICS"> F  </i>
   <v name="STM">      0.00000000      0.00000000      0.00000000      0.00000000      0.00000000      0.00000000      0.00000000</v>
  </separator>
  <separator name="performance" >
   <i type="int" name="NPAR">    40</i>
   <i type="int" name="NSIM">     4</i>
   <i type="int" name="NBLK">    -1</i>
   <i type="logical" name="LPLANE"> F  </i>
   <i type="logical" name="LSCALAPACK"> T  </i>
   <i type="logical" name="LSCAAWARE"> F  </i>
   <i type="logical" name="LSCALU"> F  </i>
   <i type="logical" name="LASYNC"> F  </i>
   <i type="logical" name="LORBITALREAL"> F  </i>
  </separator>
  <separator name="miscellaneous" >
   <i type="int" name="IDIOT">     3</i>
   <i type="logical" name="LMUSIC"> F  </i>
   <v name="POMASS">     50.94100000     95.94000000    183.85000000     32.06600000</v>
   <v name="DARWINR">      0.00000000      0.00000000      0.00000000      0.00000000</v>
   <v name="DARWINV">      1.00000000      1.00000000      1.00000000      1.00000000</v>
   <i type="logical" name="LCORR"> T  </i>
  </separator>
  <i type="logical" name="GGA_COMPAT"> T  </i>
  <i type="logical" name="LBERRY"> F  </i>
  <i type="int" name="ICORELEVEL">     0</i>
  <i type="logical" name="LDAU"> F  </i>
  <i type="int" name="I_CONSTRAINED_M">     0</i>
  <separator name="electronic exchange-correlation" >
   <i type="string" name="GGA">--</i>
   <i type="int" name="VOSKOWN">     0</i>
   <i type="logical" name="LHFCALC"> F  </i>
   <i type="string" name="PRECFOCK"></i>
   <i type="logical" name="LSYMGRAD"> F  </i>
   <i type="logical" name="LHFONE"> F  </i>
   <i type="logical" name="LRHFCALC"> F  </i>
   <i type="logical" name="LTHOMAS"> F  </i>
   <i type="logical" name="LMODELHF"> F  </i>
   <i name="ENCUT4O">     -1.00000000</i>
   <i type="int" name="EXXOEP">     0</i>
   <i type="int" name="FOURORBIT">     0</i>
   <i name="AEXX">      0.00000000</i>
   <i name="HFALPHA">      0.00000000</i>
   <i name="MCALPHA">      0.00000000</i>
   <i name="ALDAX">      1.00000000</i>
   <i name="AGGAX">      1.00000000</i>
   <i name="ALDAC">      1.00000000</i>
   <i name="AGGAC">      1.00000000</i>
   <i type="int" name="NKREDX">     1</i>
   <i type="int" name="NKREDY">     1</i>
   <i type="int" name="NKREDZ">     1</i>
   <i type="logical" name="SHIFTRED"> F  </i>
   <i type="logical" name="ODDONLY"> F  </i>
   <i type="logical" name="EVENONLY"> F  </i>
   <i type="int" name="LMAXFOCK">     0</i>
   <i type="int" name="NMAXFOCKAE">     0</i>
   <i type="logical" name="LFOCKAEDFT"> F  </i>
   <i name="HFSCREEN">      0.00000000</i>
   <i name="HFSCREENC">      0.00000000</i>
   <i type="int" name="NBANDSGWLOW">     0</i>
  </separator>
  <separator name="vdW DFT" >
   <i type="logical" name="LUSE_VDW"> F  </i>
   <i name="Zab_VDW">     -0.84910000</i>
   <i name="PARAM1">      0.12340000</i>
   <i name="PARAM2">      1.00000000</i>
   <i name="PARAM3">      0.00000000</i>
  </separator>
  <separator name="model GW" >
   <i type="int" name="MODEL_GW">     0</i>
   <i name="MODEL_EPS0">     58.26239943</i>
   <i name="MODEL_ALPHA">      1.00000000</i>
  </separator>
  <separator name="linear response parameters" >
   <i type="logical" name="LEPSILON"> F  </i>
   <i type="logical" name="LRPA"> F  </i>
   <i type="logical" name="LNABLA"> F  </i>
   <i type="logical" name="LVEL"> F  </i>
   <i type="int" name="KINTER">     0</i>
   <i name="CSHIFT">      0.10000000</i>
   <i name="OMEGAMAX">     -1.00000000</i>
   <i name="DEG_THRESHOLD">      0.00200000</i>
  </separator>
  <separator name="orbital magnetization" >
   <i type="logical" name="NUCIND"> F  </i>
   <v name="MAGPOS">      0.00000000      0.00000000      0.00000000</v>
   <i type="logical" name="LNICSALL"> T  </i>
   <i type="logical" name="ORBITALMAG"> F  </i>
   <i type="logical" name="LMAGBLOCH"> F  </i>
   <i type="logical" name="LCHIMAG"> F  </i>
   <i type="logical" name="LGAUGE"> T  </i>
   <i type="int" name="MAGATOM">     0</i>
   <v name="MAGDIPOL">      0.00000000      0.00000000      0.00000000</v>
   <v name="AVECCONST">      0.00000000      0.00000000      0.00000000</v>
  </separator>
  <separator name="response functions" >
   <i type="logical" name="LADDER"> F  </i>
   <i type="logical" name="LFXC"> F  </i>
   <i type="logical" name="LHARTREE"> T  </i>
   <i type="int" name="IBSE">     0</i>
   <v type="int" name="KPOINT">    -1     0     0     0</v>
   <i type="logical" name="LTCTE"> F  </i>
   <i type="logical" name="LTETE"> F  </i>
   <i type="logical" name="LTRIPLET"> F  </i>
   <i type="logical" name="LFXCEPS"> F  </i>
   <i type="logical" name="LFXHEG"> F  </i>
   <i type="int" name="NATURALO">     0</i>
   <i type="logical" name="L2ORDER"> F  </i>
   <i type="logical" name="LUSEW"> F  </i>
   <i name="ENCUTGW">     -2.00000000</i>
   <i name="ENCUTGWSOFT">     -2.00000000</i>
   <i name="ENCUTLF">     -1.00000000</i>
   <i type="int" name="LMAXMP2">    -1</i>
   <i name="SCISSOR">      0.00000000</i>
   <i type="int" name="NOMEGA">     0</i>
   <i type="int" name="NOMEGAR">     0</i>
   <i type="int" name="NBANDSGW">    -1</i>
   <i type="int" name="NBANDSO">    -1</i>
   <i type="int" name="NBANDSV">    -1</i>
   <i type="int" name="NELM">     1</i>
   <i type="int" name="NELMHF">     1</i>
   <i type="int" name="DIM">     3</i>
   <i type="int" name="ANTIRES">     0</i>
   <i name="OMEGAMAX">    -30.00000000</i>
   <i name="OMEGAMIN">    -30.00000000</i>
   <i name="OMEGATL">   -200.00000000</i>
   <i type="int" name="OMEGAGRID">     0</i>
   <i name="CSHIFT">     -0.10000000</i>
   <i type="logical" name="SELFENERGY"> F  </i>
   <i type="logical" name="LSPECTRAL"> F  </i>
   <i type="logical" name="LSPECTRALGW"> F  </i>
   <i type="logical" name="LSINGLES"> F  </i>
   <i type="logical" name="LFERMIGW"> F  </i>
   <i type="logical" name="ODDONLYGW"> F  </i>
   <i type="logical" name="EVENONLYGW"> F  </i>
   <i type="int" name="NKREDLFX">     1</i>
   <i type="int" name="NKREDLFY">     1</i>
   <i type="int" name="NKREDLFZ">     1</i>
   <i type="int" name="MAXMEM">  1800</i>
   <i type="int" name="TELESCOPE">     0</i>
   <i type="int" name="TAUPAR">     1</i>
   <i type="int" name="OMEGAPAR">    -1</i>
   <i name="LAMBDA">      1.00000000</i>
  </separator>
  <separator name="External order field" >
   <i name="OFIELD_KAPPA">      0.00000000</i>
   <v name="OFIELD_K">      0.00000000      0.00000000      0.00000000</v>
   <i name="OFIELD_Q6_NEAR">      0.00000000</i>
   <i name="OFIELD_Q6_FAR">      0.00000000</i>
   <i name="OFIELD_A">      0.00000000</i>
  </separator>
 </parameters>
 <atominfo>
  <atoms>      27 </atoms>
  <types>       4 </types>
  <array name="atoms" >
   <dimension dim="1">ion</dimension>
   <field type="string">element</field>
   <field type="int">atomtype</field>
   <set>
    <rc><c>V </c><c>   1</c></rc>
    <rc><c>V </c><c>   1</c></rc>
    <rc><c>V </c><c>   1</c></rc>
    <rc><c>Mo</c><c>   2</c></rc>
    <rc><c>Mo</c><c>   2</c></rc>
    <rc><c>Mo</c><c>   2</c></rc>
    <rc><c>W </c><c>   3</c></rc>
    <rc><c>W </c><c>   3</c></rc>
    <rc><c>W </c><c>   3</c></rc>
    <rc><c>S </c><c>   4</c></rc>
    <rc><c>S </c><c>   4</c></rc>
    <rc><c>S </c><c>   4</c></rc>
    <rc><c>S </c><c>   4</c></rc>
    <rc><c>S </c><c>   4</c></rc>
    <rc><c>S </c><c>   4</c></rc>
    <rc><c>S </c><c>   4</c></rc>
    <rc><c>S </c><c>   4</c></rc>
    <rc><c>S </c><c>   4</c></rc>
    <rc><c>S </c><c>   4</c></rc>
    <rc><c>S </c><c>   4</c></rc>
    <rc><c>S </c><c>   4</c></rc>
    <rc><c>S </c><c>   4</c></rc>
    <rc><c>S </c><c>   4</c></rc>
    <rc><c>S </c><c>   4</c></rc>
    <rc><c>S </c><c>   4</c></rc>
    <rc><c>S </c><c>   4</c></rc>
    <rc><c>S </c><c>   4</c></rc>
   </set>
  </array>
  <array name="atomtypes" >
   <dimension dim="1">type</dimension>
   <field type="int">atomspertype</field>
   <field type="string">element</field>
   <field>mass</field>
   <field>valence</field>
   <field type="string">pseudopotential</field>
   <set>
    <rc><c>   3</c><c>V </c><c>     50.94100000</c><c>      5.00000000</c><c> PAW_PBE V 08Apr2002                    </c></rc>
    <rc><c>   3</c><c>Mo</c><c>     95.94000000</c><c>      6.00000000</c><c> PAW_PBE Mo 08Apr2002                   </c></rc>
    <rc><c>   3</c><c>W </c><c>    183.85000000</c><c>      6.00000000</c><c> PAW_PBE W 08Apr2002                    </c></rc>
    <rc><c>  18</c><c>S </c><c>     32.06600000</c><c>      6.00000000</c><c>  PAW_PBE S 17Jan2003                   </c></rc>
   </set>
  </array>
 </atominfo>
 <structure name="initialpos" >
  <crystal>
   <varray name="basis" >
    <v>       8.66999996       5.03999989       0.00000000 </v>
    <v>      -8.66999982       5.04000013       0.00000000 </v>
    <v>       0.00000000       0.00000000      30.00000000 </v>
   </varray>
   <i name="volume">   2621.80797419 </i>
   <varray name="rec_basis" >
    <v>       0.05767013       0.09920635       0.00000000 </v>
    <v>      -0.05767013       0.09920635       0.00000000 </v>
    <v>       0.00000000       0.00000000       0.03333333 </v>
   </varray>
  </crystal>
  <varray name="positions" >
   <v>       0.66666669       0.33333334       0.00000000 </v>
   <v>       0.66666669       0.00000000       0.00000000 </v>
   <v>       1.00000000       0.33333334       0.00000000 </v>
   <v>       0.33333334       0.00000000       0.00000000 </v>
   <v>       0.66666669       0.66666669       0.00000000 </v>
   <v>       0.33333334       0.66666669       0.00000000 </v>
   <v>       0.00000000       0.00000000       0.00000000 </v>
   <v>       0.00000000       0.66666669       0.00000000 </v>
   <v>       0.33333334       0.33333334       0.00000000 </v>
   <v>       0.11068511       0.22244981       0.95539999 </v>
   <v>       0.22244981       0.11068511       0.04460000 </v>
   <v>       0.11068511       0.55578315       0.95539999 </v>
   <v>       0.22244981       0.44401845       0.04460000 </v>
   <v>       0.11068511       0.88911647       0.95539999 </v>
   <v>       0.22244981       0.77735180       0.04460000 </v>
   <v>       0.44401845       0.22244981       0.95539999 </v>
   <v>       0.55578315       0.11068511       0.04460000 </v>
   <v>       0.44401845       0.55578315       0.95539999 </v>
   <v>       0.55578315       0.44401845       0.04460000 </v>
   <v>       0.44401845       0.88911647       0.95539999 </v>
   <v>       0.55578315       0.77735180       0.04460000 </v>
   <v>       0.77735180       0.22244981       0.95539999 </v>
   <v>       0.88911647       0.11068511       0.04460000 </v>
   <v>       0.77735180       0.55578315       0.95539999 </v>
   <v>       0.88911647       0.44401845       0.04460000 </v>
   <v>       0.77735180       0.88911647       0.95539999 </v>
   <v>       0.88911647       0.77735180       0.04460000 </v>
  </varray>
 </structure>
 <calculation>
  <scstep>
   <time name="dav">   21.89   21.94</time>
   <time name="total">   21.93   21.99</time>
   <energy>
    <i name="alphaZ">     81.65567618 </i>
    <i name="ewald">  41891.17178115 </i>
    <i name="hartreedc"> -47723.81659097 </i>
    <i name="XCdc">   -242.92514266 </i>
    <i name="pawpsdc">   3467.42045192 </i>
    <i name="pawaedc">  -2871.19716117 </i>
    <i name="eentropy">     -0.53572382 </i>
    <i name="bandstr">   -239.49783826 </i>
    <i name="atom">   6761.44252427 </i>
    <i name="e_fr_energy">   1123.71797665 </i>
    <i name="e_wo_entrp">   1124.25370046 </i>
    <i name="e_0_energy">   1123.98583855 </i>
   </energy>
  </scstep>
  <scstep>
   <time name="dav">   28.47   28.54</time>
   <time name="total">   28.47   28.54</time>
   <energy>
    <i name="e_fr_energy">     -1.66497062 </i>
    <i name="e_wo_entrp">     -1.45808912 </i>
    <i name="e_0_energy">     -1.56152987 </i>
   </energy>
  </scstep>
  <scstep>
   <time name="dav">   27.68   27.74</time>
   <time name="total">   27.68   27.75</time>
   <energy>
    <i name="e_fr_energy">   -199.88680675 </i>
    <i name="e_wo_entrp">   -199.62478791 </i>
    <i name="e_0_energy">   -199.75579733 </i>
   </energy>
  </scstep>
  <scstep>
   <time name="dav">   30.23   30.31</time>
   <time name="total">   30.23   30.32</time>
   <energy>
    <i name="e_fr_energy">   -209.01231172 </i>
    <i name="e_wo_entrp">   -208.72684445 </i>
    <i name="e_0_energy">   -208.86957809 </i>
   </energy>
  </scstep>
  <scstep>
   <time name="dav">   28.43   28.50</time>
   <time name="total">   28.90   28.97</time>
   <energy>
    <i name="e_fr_energy">   -209.32076788 </i>
    <i name="e_wo_entrp">   -209.03837090 </i>
    <i name="e_0_energy">   -209.17956939 </i>
   </energy>
  </scstep>
  <scstep>
   <time name="dav">   30.97   31.04</time>
   <time name="total">   31.47   31.55</time>
   <energy>
    <i name="e_fr_energy">   -237.93790602 </i>
    <i name="e_wo_entrp">   -237.67895722 </i>
    <i name="e_0_energy">   -237.80843162 </i>
   </energy>
  </scstep>
  <scstep>
   <time name="dav">   32.85   32.93</time>
   <time name="total">   33.36   33.45</time>
   <energy>
    <i name="e_fr_energy">   -196.57040683 </i>
    <i name="e_wo_entrp">   -196.22910388 </i>
    <i name="e_0_energy">   -196.39975536 </i>
   </energy>
  </scstep>
  <scstep>
   <time name="dav">   29.40   29.47</time>
   <time name="total">   29.90   29.98</time>
   <energy>
    <i name="e_fr_energy">   -189.48434789 </i>
    <i name="e_wo_entrp">   -189.17293065 </i>
    <i name="e_0_energy">   -189.32863927 </i>
   </energy>
  </scstep>
  <scstep>
   <time name="dav">   32.95   33.03</time>
   <time name="total">   33.47   33.56</time>
   <energy>
    <i name="e_fr_energy">   -188.16172738 </i>
    <i name="e_wo_entrp">   -187.84379345 </i>
    <i name="e_0_energy">   -188.00276041 </i>
   </energy>
  </scstep>
  <scstep>
   <time name="dav">   32.75   32.83</time>
   <time name="total">   33.28   33.37</time>
   <energy>
    <i name="e_fr_energy">   -186.95780877 </i>
    <i name="e_wo_entrp">   -186.60546638 </i>
    <i name="e_0_energy">   -186.78163757 </i>
   </energy>
  </scstep>
  <scstep>
   <time name="dav">   33.21   33.29</time>
   <time name="total">   33.75   33.83</time>
   <energy>
    <i name="e_fr_energy">   -187.05225653 </i>
    <i name="e_wo_entrp">   -186.71030486 </i>
    <i name="e_0_energy">   -186.88128069 </i>
   </energy>
  </scstep>
  <scstep>
   <time name="dav">   31.47   31.55</time>
   <time name="total">   32.00   32.09</time>
   <energy>
    <i name="e_fr_energy">   -186.99355903 </i>
    <i name="e_wo_entrp">   -186.66271115 </i>
    <i name="e_0_energy">   -186.82813509 </i>
   </energy>
  </scstep>
  <scstep>
   <time name="dav">   32.49   32.57</time>
   <time name="total">   33.02   33.11</time>
   <energy>
    <i name="e_fr_energy">   -186.88863729 </i>
    <i name="e_wo_entrp">   -186.55398182 </i>
    <i name="e_0_energy">   -186.72130956 </i>
   </energy>
  </scstep>
  <scstep>
   <time name="dav">   32.49   32.57</time>
   <time name="total">   33.02   33.11</time>
   <energy>
    <i name="e_fr_energy">   -186.85095944 </i>
    <i name="e_wo_entrp">   -186.50641666 </i>
    <i name="e_0_energy">   -186.67868805 </i>
   </energy>
  </scstep>
  <scstep>
   <time name="dav">   32.11   32.19</time>
   <time name="total">   32.64   32.73</time>
   <energy>
    <i name="e_fr_energy">   -186.84957601 </i>
    <i name="e_wo_entrp">   -186.50579840 </i>
    <i name="e_0_energy">   -186.67768721 </i>
   </energy>
  </scstep>
  <scstep>
   <time name="dav">   32.49   32.57</time>
   <time name="total">   33.02   33.11</time>
   <energy>
    <i name="e_fr_energy">   -186.84363684 </i>
    <i name="e_wo_entrp">   -186.50037412 </i>
    <i name="e_0_energy">   -186.67200548 </i>
   </energy>
  </scstep>
  <scstep>
   <time name="dav">   31.44   31.51</time>
   <time name="total">   31.97   32.06</time>
   <energy>
    <i name="e_fr_energy">   -186.84232390 </i>
    <i name="e_wo_entrp">   -186.50054015 </i>
    <i name="e_0_energy">   -186.67143203 </i>
   </energy>
  </scstep>
  <scstep>
   <time name="dav">   29.47   29.54</time>
   <time name="total">   30.00   30.08</time>
   <energy>
    <i name="e_fr_energy">   -186.84209221 </i>
    <i name="e_wo_entrp">   -186.49982775 </i>
    <i name="e_0_energy">   -186.67095998 </i>
   </energy>
  </scstep>
  <scstep>
   <time name="dav">   28.04   28.11</time>
   <time name="total">   28.57   28.65</time>
   <energy>
    <i name="e_fr_energy">   -186.84188659 </i>
    <i name="e_wo_entrp">   -186.49951650 </i>
    <i name="e_0_energy">   -186.67070154 </i>
   </energy>
  </scstep>
  <scstep>
   <time name="dav">   23.64   23.70</time>
   <time name="total">   24.17   24.24</time>
   <energy>
    <i name="e_fr_energy">   -186.84262695 </i>
    <i name="e_wo_entrp">   -186.50069369 </i>
    <i name="e_0_energy">   -186.67166032 </i>
   </energy>
  </scstep>
  <scstep>
   <time name="dav">   21.85   21.90</time>
   <time name="total">   22.39   22.45</time>
   <energy>
    <i name="e_fr_energy">   -186.84340440 </i>
    <i name="e_wo_entrp">   -186.50144369 </i>
    <i name="e_0_energy">   -186.67242404 </i>
   </energy>
  </scstep>
  <scstep>
   <time name="dav">   20.39   20.44</time>
   <time name="total">   20.92   20.98</time>
   <energy>
    <i name="e_fr_energy">   -186.84440501 </i>
    <i name="e_wo_entrp">   -186.50233515 </i>
    <i name="e_0_energy">   -186.67337008 </i>
   </energy>
  </scstep>
  <scstep>
   <time name="dav">   20.39   20.44</time>
   <time name="total">   20.93   20.99</time>
   <energy>
    <i name="e_fr_energy">   -186.84556743 </i>
    <i name="e_wo_entrp">   -186.50362002 </i>
    <i name="e_0_energy">   -186.67459372 </i>
   </energy>
  </scstep>
  <scstep>
   <time name="dav">   19.12   19.16</time>
   <time name="total">   19.65   19.70</time>
   <energy>
    <i name="e_fr_energy">   -186.84612480 </i>
    <i name="e_wo_entrp">   -186.50411664 </i>
    <i name="e_0_energy">   -186.67512072 </i>
   </energy>
  </scstep>
  <scstep>
   <time name="dav">   16.38   16.42</time>
   <time name="total">   16.92   16.98</time>
   <energy>
    <i name="e_fr_energy">   -186.84651774 </i>
    <i name="e_wo_entrp">   -186.50449415 </i>
    <i name="e_0_energy">   -186.67550594 </i>
   </energy>
  </scstep>
  <scstep>
   <time name="dav">   19.18   19.22</time>
   <time name="total">   19.71   19.76</time>
   <energy>
    <i name="e_fr_energy">   -186.84676173 </i>
    <i name="e_wo_entrp">   -186.50475516 </i>
    <i name="e_0_energy">   -186.67575844 </i>
   </energy>
  </scstep>
  <scstep>
   <time name="dav">   20.64   20.69</time>
   <time name="total">   20.68   20.74</time>
   <energy>
    <i name="alphaZ">     81.65567618 </i>
    <i name="ewald">  41891.17178115 </i>
    <i name="hartreedc"> -47833.66702964 </i>
    <i name="XCdc">   -231.60454031 </i>
    <i name="pawpsdc">   4192.08690275 </i>
    <i name="pawaedc">  -3610.08847035 </i>
    <i name="eentropy">     -0.34201235 </i>
    <i name="bandstr">  -1437.50167993 </i>
    <i name="atom">   6761.44252427 </i>
    <i name="e_fr_energy">   -186.84684823 </i>
    <i name="e_wo_entrp">   -186.50483588 </i>
    <i name="e_0_energy">   -186.67584205 </i>
   </energy>
  </scstep>
  <structure>
   <crystal>
    <varray name="basis" >
     <v>       8.66999996       5.03999989       0.00000000 </v>
     <v>      -8.66999982       5.04000013       0.00000000 </v>
     <v>       0.00000000       0.00000000      30.00000000 </v>
    </varray>
    <i name="volume">   2621.80797419 </i>
    <varray name="rec_basis" >
     <v>       0.05767013       0.09920635       0.00000000 </v>
     <v>      -0.05767013       0.09920635       0.00000000 </v>
     <v>       0.00000000       0.00000000       0.03333333 </v>
    </varray>
   </crystal>
   <varray name="positions" >
    <v>       0.66666669       0.33333334       0.00000000 </v>
    <v>       0.66666669       0.00000000       0.00000000 </v>
    <v>       1.00000000       0.33333334       0.00000000 </v>
    <v>       0.33333334       0.00000000       0.00000000 </v>
    <v>       0.66666669       0.66666669       0.00000000 </v>
    <v>       0.33333334       0.66666669       0.00000000 </v>
    <v>       0.00000000       0.00000000       0.00000000 </v>
    <v>       0.00000000       0.66666669       0.00000000 </v>
    <v>       0.33333334       0.33333334       0.00000000 </v>
    <v>       0.11068511       0.22244981       0.95539999 </v>
    <v>       0.22244981       0.11068511       0.04460000 </v>
    <v>       0.11068511       0.55578315       0.95539999 </v>
    <v>       0.22244981       0.44401845       0.04460000 </v>
    <v>       0.11068511       0.88911647       0.95539999 </v>
    <v>       0.22244981       0.77735180       0.04460000 </v>
    <v>       0.44401845       0.22244981       0.95539999 </v>
    <v>       0.55578315       0.11068511       0.04460000 </v>
    <v>       0.44401845       0.55578315       0.95539999 </v>
    <v>       0.55578315       0.44401845       0.04460000 </v>
    <v>       0.44401845       0.88911647       0.95539999 </v>
    <v>       0.55578315       0.77735180       0.04460000 </v>
    <v>       0.77735180       0.22244981       0.95539999 </v>
    <v>       0.88911647       0.11068511       0.04460000 </v>
    <v>       0.77735180       0.55578315       0.95539999 </v>
    <v>       0.88911647       0.44401845       0.04460000 </v>
    <v>       0.77735180       0.88911647       0.95539999 </v>
    <v>       0.88911647       0.77735180       0.04460000 </v>
   </varray>
  </structure>
  <varray name="forces" >
   <v>      -0.01259626      -0.12518938      -0.04931408 </v>
   <v>      -0.10663370      -0.32786116      -0.01410010 </v>
   <v>      -0.07856451       0.07944014      -0.02833756 </v>
   <v>       0.28241137      -0.14047131      -0.06595813 </v>
   <v>      -0.26534264      -0.13484946       0.09242794 </v>
   <v>       0.00471691       0.32197624       0.11866290 </v>
   <v>       0.14405606      -0.17921857      -0.06451222 </v>
   <v>       0.06307139       0.21696459      -0.13581626 </v>
   <v>       0.00034774       0.34382025       0.14720549 </v>
   <v>      -0.58930938      -0.02410125      -2.10460814 </v>
   <v>      -0.29214001       0.03018853       2.84037930 </v>
   <v>       0.33998171      -0.70415468      -2.13204426 </v>
   <v>      -0.35052140      -0.68579245       2.15300341 </v>
   <v>       0.04940534      -0.13707007      -2.98404475 </v>
   <v>      -0.17098687      -0.15373045       2.89353848 </v>
   <v>       0.38067209       0.67542441      -2.15184409 </v>
   <v>       0.32798583       0.67280347       1.41980357 </v>
   <v>       0.20129942      -0.15650181      -2.88473791 </v>
   <v>       0.63978291      -0.16291518       2.14768195 </v>
   <v>       0.50495716       0.70506437      -2.17645840 </v>
   <v>      -0.51618462       0.67674644       2.18912856 </v>
   <v>       0.05679713       0.00519603      -0.76265127 </v>
   <v>      -0.74473406       0.00097775       1.44328763 </v>
   <v>       0.62676223      -0.53177725      -2.09957975 </v>
   <v>       0.24011246      -0.53511423       1.41002766 </v>
   <v>      -0.65870464       0.17257818      -2.10517918 </v>
   <v>      -0.07664165       0.09756688       2.90403922 </v>
  </varray>
  <varray name="stress" >
   <v>       7.25787775      -0.04957462      -1.51381433 </v>
   <v>      -0.04957466       4.49774891      -0.05221792 </v>
   <v>      -1.51381439      -0.05221808      30.31642384 </v>
  </varray>
  <energy>
   <i name="e_fr_energy">   -186.84684823 </i>
   <i name="e_wo_entrp">   -186.67584205 </i>
   <i name="e_0_energy">     -0.34201235 </i>
  </energy>
  <time name="totalsc">  794.20  796.34</time>
 </calculation>
 <calculation>
  <scstep>
   <time name="dav">   21.87   21.92</time>
   <time name="total">   22.41   22.46</time>
   <energy>
    <i name="alphaZ">     78.92098877 </i>
    <i name="ewald">  39378.93099146 </i>
    <i name="hartreedc"> -45336.23668145 </i>
    <i name="XCdc">   -239.06933120 </i>
    <i name="pawpsdc">   4192.07232318 </i>
    <i name="pawaedc">  -3610.07403129 </i>
    <i name="eentropy">     -0.27932162 </i>
    <i name="bandstr">  -1413.20646460 </i>
    <i name="atom">   6761.44252427 </i>
    <i name="e_fr_energy">   -187.49900247 </i>
    <i name="e_wo_entrp">   -187.21968085 </i>
    <i name="e_0_energy">   -187.35934166 </i>
   </energy>
  </scstep>
  <scstep>
   <time name="dav">   30.48   30.55</time>
   <time name="total">   31.01   31.10</time>
   <energy>
    <i name="e_fr_energy">   -189.37989206 </i>
    <i name="e_wo_entrp">   -189.05448103 </i>
    <i name="e_0_energy">   -189.21718654 </i>
   </energy>
  </scstep>
  <scstep>
   <time name="dav">   30.47   30.54</time>
   <time name="total">   31.02   31.10</time>
   <energy>
    <i name="e_fr_energy">   -189.35359035 </i>
    <i name="e_wo_entrp">   -189.09654276 </i>
    <i name="e_0_energy">   -189.22506655 </i>
   </energy>
  </scstep>
  <scstep>
   <time name="dav">   29.51   29.58</time>
   <time name="total">   30.05   30.13</time>
   <energy>
    <i name="e_fr_energy">   -188.75380857 </i>
    <i name="e_wo_entrp">   -188.47309942 </i>
    <i name="e_0_energy">   -188.61345399 </i>
   </energy>
  </scstep>
  <scstep>
   <time name="dav">   29.35   29.42</time>
   <time name="total">   29.89   29.97</time>
   <energy>
    <i name="e_fr_energy">   -188.86832889 </i>
    <i name="e_wo_entrp">   -188.58150623 </i>
    <i name="e_0_energy">   -188.72491756 </i>
   </energy>
  </scstep>
  <scstep>
   <time name="dav">   31.21   31.29</time>
   <time name="total">   31.76   31.84</time>
   <energy>
    <i name="e_fr_energy">   -188.73750501 </i>
    <i name="e_wo_entrp">   -188.45600409 </i>
    <i name="e_0_energy">   -188.59675455 </i>
   </energy>
  </scstep>
  <scstep>
   <time name="dav">   29.63   29.70</time>
   <time name="total">   30.18   30.26</time>
   <energy>
    <i name="e_fr_energy">   -188.68607230 </i>
    <i name="e_wo_entrp">   -188.40453355 </i>
    <i name="e_0_energy">   -188.54530292 </i>
   </energy>
  </scstep>
  <scstep>
   <time name="dav">   30.76   30.83</time>
   <time name="total">   31.30   31.39</time>
   <energy>
    <i name="e_fr_energy">   -188.68393886 </i>
    <i name="e_wo_entrp">   -188.40159799 </i>
    <i name="e_0_energy">   -188.54276843 </i>
   </energy>
  </scstep>
  <scstep>
   <time name="dav">   29.20   29.28</time>
   <time name="total">   29.75   29.83</time>
   <energy>
    <i name="e_fr_energy">   -188.65574592 </i>
    <i name="e_wo_entrp">   -188.37649192 </i>
    <i name="e_0_energy">   -188.51611892 </i>
   </energy>
  </scstep>
  <scstep>
   <time name="dav">   31.60   31.68</time>
   <time name="total">   32.15   32.24</time>
   <energy>
    <i name="e_fr_energy">   -188.65481267 </i>
    <i name="e_wo_entrp">   -188.37655018 </i>
    <i name="e_0_energy">   -188.51568142 </i>
   </energy>
  </scstep>
  <scstep>
   <time name="dav">   30.96   31.04</time>
   <time name="total">   31.51   31.59</time>
   <energy>
    <i name="e_fr_energy">   -188.65437499 </i>
    <i name="e_wo_entrp">   -188.37678762 </i>
    <i name="e_0_energy">   -188.51558131 </i>
   </energy>
  </scstep>
  <scstep>
   <time name="dav">   28.17   28.24</time>
   <time name="total">   28.21   28.28</time>
   <energy>
    <i name="alphaZ">     78.92098877 </i>
    <i name="ewald">  39378.93099146 </i>
    <i name="hartreedc"> -45347.21874949 </i>
    <i name="XCdc">   -237.97742805 </i>
    <i name="pawpsdc">   3952.40504196 </i>
    <i name="pawaedc">  -3366.93027953 </i>
    <i name="eentropy">     -0.27773780 </i>
    <i name="bandstr">  -1407.94974137 </i>
    <i name="atom">   6761.44252427 </i>
    <i name="e_fr_energy">   -188.65438978 </i>
    <i name="e_wo_entrp">   -188.37665198 </i>
    <i name="e_0_energy">   -188.51552088 </i>
   </energy>
  </scstep>
  <structure>
   <crystal>
    <varray name="basis" >
     <v>       8.85325613       5.10502333       0.00000000 </v>
     <v>      -8.85471709       5.10753700       0.00000000 </v>
     <v>       0.00000000       0.00000000      30.00000000 </v>
    </varray>
    <i name="volume">   2712.65611674 </i>
    <varray name="rec_basis" >
     <v>       0.05648564       0.09792672       0.00000000 </v>
     <v>      -0.05645784       0.09791056       0.00000000 </v>
     <v>       0.00000000       0.00000000       0.03333333 </v>
    </varray>
   </crystal>
   <varray name="positions" >
    <v>       0.66603249       0.33276923      -0.00007930 </v>
    <v>       0.66480088      -0.00127246      -0.00002267 </v>
    <v>       1.00016162       0.33393212      -0.00004557 </v>
    <v>       0.33344676      -0.00145801      -0.00010607 </v>
    <v>       0.66528307       0.66675953       0.00014863 </v>
    <v>       0.33488744       0.66819453       0.00019082 </v>
    <v>      -0.00045695      -0.00125852      -0.00010374 </v>
    <v>       0.00121386       0.66752960      -0.00021840 </v>
    <v>       0.33497983       0.33497789       0.00023672 </v>
    <v>       0.10893021       0.22397401       0.95201559 </v>
    <v>       0.22178151       0.11164237       0.04916758 </v>
    <v>       0.10826093       0.55146720       0.95197147 </v>
    <v>       0.21819242       0.44171147       0.04806222 </v>
    <v>       0.11016655       0.88832300       0.95060138 </v>
    <v>       0.22123835       0.77709176       0.04925306 </v>
    <v>       0.44831011       0.22462328       0.95193963 </v>
    <v>       0.55991568       0.11299262       0.04688317 </v>
    <v>       0.44382949       0.55447409       0.95076108 </v>
    <v>       0.55678342       0.44145877       0.04805366 </v>
    <v>       0.44879775       0.89108602       0.95190005 </v>
    <v>       0.55758594       0.78202680       0.04812031 </v>
    <v>       0.77753468       0.22231666       0.95417358 </v>
    <v>       0.88704918       0.11276176       0.04692093 </v>
    <v>       0.77655048       0.55149433       0.95202368 </v>
    <v>       0.88722345       0.44078938       0.04686745 </v>
    <v>       0.77634513       0.89177504       0.95201468 </v>
    <v>       0.88937019       0.77803198       0.04926995 </v>
   </varray>
  </structure>
  <varray name="forces" >
   <v>      -0.09947814      -0.11428774      -0.08463669 </v>
   <v>      -0.05016479      -0.32846744       0.01147340 </v>
   <v>      -0.03253361       0.09810939      -0.00334571 </v>
   <v>       0.09279728      -0.43894696       0.03299632 </v>
   <v>      -0.25516089      -0.21683331      -0.03902254 </v>
   <v>       0.05802481       0.27810472       0.03004219 </v>
   <v>       0.42462837      -0.18583460       0.04713568 </v>
   <v>      -0.12768671       0.48683777      -0.05891135 </v>
   <v>      -0.03734049       0.39713807       0.03542414 </v>
   <v>       0.10381124      -0.00497925       0.14559868 </v>
   <v>      -0.11084510      -0.00186719      -0.10017536 </v>
   <v>      -0.11264850      -0.04067065       0.04813589 </v>
   <v>       0.10995291      -0.04116501      -0.00864798 </v>
   <v>      -0.06069236      -0.10706191      -0.18060381 </v>
   <v>      -0.04943390      -0.12020869       0.13722959 </v>
   <v>      -0.10087883       0.04566270       0.06662919 </v>
   <v>       0.02613651       0.05745436      -0.07618793 </v>
   <v>       0.04685395      -0.11245034      -0.09081183 </v>
   <v>      -0.01238971      -0.10312158       0.11104902 </v>
   <v>       0.03675063       0.08616131      -0.15034722 </v>
   <v>      -0.04496314       0.08379220       0.19480205 </v>
   <v>       0.00701458      -0.01139708       0.19566973 </v>
   <v>       0.08426868      -0.00968459      -0.24257819 </v>
   <v>       0.08017943       0.05442224       0.13491202 </v>
   <v>      -0.06030760       0.05473419      -0.15888145 </v>
   <v>       0.00587037       0.10980413       0.01692814 </v>
   <v>       0.07823500       0.08475526      -0.01387597 </v>
  </varray>
  <varray name="stress" >
   <v>     -19.99238891      -0.01073458       0.01092977 </v>
   <v>      -0.01073466     -19.58185891      -0.01021638 </v>
   <v>       0.01092960      -0.01021623      -1.80499062 </v>
  </varray>
  <energy>
   <i name="e_fr_energy">   -188.65438978 </i>
   <i name="e_wo_entrp">   -188.51552088 </i>
   <i name="e_0_energy">     -0.27773780 </i>
  </energy>
  <time name="totalsc">  401.19  402.25</time>
 </calculation>
 <calculation>
  <scstep>
   <time name="dav">   24.03   24.08</time>
   <time name="total">   24.55   24.61</time>
   <energy>
    <i name="alphaZ">     82.34607268 </i>
    <i name="ewald">  41302.42540414 </i>
    <i name="hartreedc"> -47301.30315656 </i>
    <i name="XCdc">   -233.85653950 </i>
    <i name="pawpsdc">   3950.54983127 </i>
    <i name="pawaedc">  -3365.05333150 </i>
    <i name="eentropy">     -0.23210996 </i>
    <i name="bandstr">  -1386.89459605 </i>
    <i name="atom">   6761.44252427 </i>
    <i name="e_fr_energy">   -190.57590121 </i>
    <i name="e_wo_entrp">   -190.34379126 </i>
    <i name="e_0_energy">   -190.45984623 </i>
   </energy>
  </scstep>
  <scstep>
   <time name="dav">   28.84   28.90</time>
   <time name="total">   29.36   29.44</time>
   <energy>
    <i name="e_fr_energy">   -190.52523417 </i>
    <i name="e_wo_entrp">   -190.30798380 </i>
    <i name="e_0_energy">   -190.41660898 </i>
   </energy>
  </scstep>
  <scstep>
   <time name="dav">   30.38   30.45</time>
   <time name="total">   30.90   30.99</time>
   <energy>
    <i name="e_fr_energy">   -190.05948967 </i>
    <i name="e_wo_entrp">   -189.80972626 </i>
    <i name="e_0_energy">   -189.93460796 </i>
   </energy>
  </scstep>
  <scstep>
   <time name="dav">   31.92   31.99</time>
   <time name="total">   32.45   32.53</time>
   <energy>
    <i name="e_fr_energy">   -189.84832110 </i>
    <i name="e_wo_entrp">   -189.62563870 </i>
    <i name="e_0_energy">   -189.73697990 </i>
   </energy>
  </scstep>
  <scstep>
   <time name="dav">   30.20   30.28</time>
   <time name="total">   30.73   30.81</time>
   <energy>
    <i name="e_fr_energy">   -189.81086920 </i>
    <i name="e_wo_entrp">   -189.57011213 </i>
    <i name="e_0_energy">   -189.69049066 </i>
   </energy>
  </scstep>
  <scstep>
   <time name="dav">   31.31   31.38</time>
   <time name="total">   31.84   31.92</time>
   <energy>
    <i name="e_fr_energy">   -189.74723099 </i>
    <i name="e_wo_entrp">   -189.51616619 </i>
    <i name="e_0_energy">   -189.63169859 </i>
   </energy>
  </scstep>
  <scstep>
   <time name="dav">   29.03   29.10</time>
   <time name="total">   29.55   29.63</time>
   <energy>
    <i name="e_fr_energy">   -189.74242045 </i>
    <i name="e_wo_entrp">   -189.50948718 </i>
    <i name="e_0_energy">   -189.62595381 </i>
   </energy>
  </scstep>
  <scstep>
   <time name="dav">   31.02   31.10</time>
   <time name="total">   31.55   31.63</time>
   <energy>
    <i name="e_fr_energy">   -189.74270279 </i>
    <i name="e_wo_entrp">   -189.51033083 </i>
    <i name="e_0_energy">   -189.62651681 </i>
   </energy>
  </scstep>
  <scstep>
   <time name="dav">   28.45   28.52</time>
   <time name="total">   28.98   29.06</time>
   <energy>
    <i name="e_fr_energy">   -189.74166582 </i>
    <i name="e_wo_entrp">   -189.50916111 </i>
    <i name="e_0_energy">   -189.62541346 </i>
   </energy>
  </scstep>
  <scstep>
   <time name="dav">   25.52   25.59</time>
   <time name="total">   26.06   26.13</time>
   <energy>
    <i name="e_fr_energy">   -189.74192242 </i>
    <i name="e_wo_entrp">   -189.50915971 </i>
    <i name="e_0_energy">   -189.62554106 </i>
   </energy>
  </scstep>
  <scstep>
   <time name="dav">   21.63   21.69</time>
   <time name="total">   21.67   21.73</time>
   <energy>
    <i name="alphaZ">     82.34607268 </i>
    <i name="ewald">  41302.42540414 </i>
    <i name="hartreedc"> -47274.39434634 </i>
    <i name="XCdc">   -235.25049726 </i>
    <i name="pawpsdc">   4038.04351860 </i>
    <i name="pawaedc">  -3453.73714893 </i>
    <i name="eentropy">     -0.23272673 </i>
    <i name="bandstr">  -1410.38464121 </i>
    <i name="atom">   6761.44252427 </i>
    <i name="e_fr_energy">   -189.74184078 </i>
    <i name="e_wo_entrp">   -189.50911405 </i>
    <i name="e_0_energy">   -189.62547741 </i>
   </energy>
  </scstep>
  <structure>
   <crystal>
    <varray name="basis" >
     <v>       8.66519225       4.99873940       0.00000000 </v>
     <v>      -8.66673862       5.00140270       0.00000000 </v>
     <v>       0.00000000       0.00000000      30.00000000 </v>
    </varray>
    <i name="volume">   2599.82651239 </i>
    <varray name="rec_basis" >
     <v>       0.05771234       0.10000750       0.00000000 </v>
     <v>      -0.05768161       0.09998966       0.00000000 </v>
     <v>       0.00000000       0.00000000       0.03333333 </v>
    </varray>
   </crystal>
   <varray name="positions" >
    <v>       0.66574773       0.33267482      -0.00012709 </v>
    <v>       0.66420803      -0.00176925      -0.00001620 </v>
    <v>       1.00029323       0.33412595      -0.00004746 </v>
    <v>       0.33280744      -0.00227474      -0.00008744 </v>
    <v>       0.66467926       0.66664393       0.00012660 </v>
    <v>       0.33540427       0.66860028       0.00020778 </v>
    <v>      -0.00035892      -0.00197281      -0.00007713 </v>
    <v>       0.00189924       0.66845912      -0.00025167 </v>
    <v>       0.33560286       0.33567225       0.00025672 </v>
    <v>       0.10902128       0.22386648       0.95209780 </v>
    <v>       0.22167236       0.11174528       0.04911102 </v>
    <v>       0.10808568       0.55150748       0.95199865 </v>
    <v>       0.21822934       0.44153805       0.04805734 </v>
    <v>       0.10993089       0.88820348       0.95049941 </v>
    <v>       0.22099165       0.77693967       0.04933055 </v>
    <v>       0.44828933       0.22479549       0.95197726 </v>
    <v>       0.56003599       0.11306292       0.04684015 </v>
    <v>       0.44368779       0.55424279       0.95070980 </v>
    <v>       0.55660051       0.44129959       0.04811636 </v>
    <v>       0.44897583       0.89119377       0.95181516 </v>
    <v>       0.55768191       0.78220877       0.04823030 </v>
    <v>       0.77752249       0.22229105       0.95428406 </v>
    <v>       0.88711374       0.11266511       0.04678397 </v>
    <v>       0.77671746       0.55150791       0.95209986 </v>
    <v>       0.88725654       0.44093783       0.04677774 </v>
    <v>       0.77653289       0.89195154       0.95202423 </v>
    <v>       0.88958563       0.77809773       0.04926212 </v>
   </varray>
  </structure>
  <varray name="forces" >
   <v>      -0.15897499      -0.10553060      -0.07176771 </v>
   <v>      -0.01070953      -0.35001078       0.01603023 </v>
   <v>       0.00688750       0.13537368       0.00481081 </v>
   <v>       0.02225726      -0.54470553       0.03985816 </v>
   <v>      -0.25746022      -0.25156590      -0.05394241 </v>
   <v>       0.08562225       0.24508234       0.00073623 </v>
   <v>       0.52133772      -0.16184806       0.05977394 </v>
   <v>      -0.18073164       0.57854249      -0.02438481 </v>
   <v>      -0.06723050       0.39816467      -0.00307296 </v>
   <v>      -0.02875560      -0.00122636      -0.33473715 </v>
   <v>      -0.04114543       0.00549083       0.43526968 </v>
   <v>       0.01667744      -0.08808736      -0.44345583 </v>
   <v>      -0.01866187      -0.09753544       0.49338316 </v>
   <v>      -0.02438068      -0.03253202      -0.78800070 </v>
   <v>       0.00021151      -0.06056492       0.69629961 </v>
   <v>       0.01283490       0.09208207      -0.41383195 </v>
   <v>       0.05925858       0.11485490       0.36308833 </v>
   <v>      -0.00426285      -0.04928347      -0.64641250 </v>
   <v>       0.11343121      -0.01877221       0.63227562 </v>
   <v>       0.07712969       0.14702655      -0.64485898 </v>
   <v>      -0.09069949       0.15804030       0.70702857 </v>
   <v>       0.01642773      -0.01458152      -0.21198606 </v>
   <v>      -0.06709553      -0.01218229       0.19321931 </v>
   <v>       0.07431447      -0.06893326      -0.34495717 </v>
   <v>       0.00787241      -0.06599434       0.27977100 </v>
   <v>      -0.10994653       0.04455730      -0.47566821 </v>
   <v>       0.04579218       0.00413894       0.53553179 </v>
  </varray>
  <varray name="stress" >
   <v>     -10.20276935       0.01288868      -0.01838943 </v>
   <v>       0.01288869      -9.88948862       0.00028910 </v>
   <v>      -0.01838945       0.00028915       6.52034292 </v>
  </varray>
  <energy>
   <i name="e_fr_energy">   -189.74184078 </i>
   <i name="e_wo_entrp">   -189.62547741 </i>
   <i name="e_0_energy">     -0.23272673 </i>
  </energy>
  <time name="totalsc">  359.79  360.74</time>
 </calculation>
 <calculation>
  <scstep>
   <time name="dav">   21.84   21.89</time>
   <time name="total">   22.36   22.41</time>
   <energy>
    <i name="alphaZ">     85.83204126 </i>
    <i name="ewald">  42838.10612043 </i>
    <i name="hartreedc"> -48854.70958163 </i>
    <i name="XCdc">   -232.95751585 </i>
    <i name="pawpsdc">   4038.55855765 </i>
    <i name="pawaedc">  -3454.25306336 </i>
    <i name="eentropy">     -0.19037515 </i>
    <i name="bandstr">  -1373.14586577 </i>
    <i name="atom">   6761.44252427 </i>
    <i name="e_fr_energy">   -191.31715814 </i>
    <i name="e_wo_entrp">   -191.12678300 </i>
    <i name="e_0_energy">   -191.22197057 </i>
   </energy>
  </scstep>
  <scstep>
   <time name="dav">   32.73   32.81</time>
   <time name="total">   33.24   33.33</time>
   <energy>
    <i name="e_fr_energy">   -191.11790346 </i>
    <i name="e_wo_entrp">   -190.92918191 </i>
    <i name="e_0_energy">   -191.02354268 </i>
   </energy>
  </scstep>
  <scstep>
   <time name="dav">   30.23   30.30</time>
   <time name="total">   30.75   30.83</time>
   <energy>
    <i name="e_fr_energy">   -191.31178590 </i>
    <i name="e_wo_entrp">   -191.09674243 </i>
    <i name="e_0_energy">   -191.20426417 </i>
   </energy>
  </scstep>
  <scstep>
   <time name="dav">   29.44   29.51</time>
   <time name="total">   29.95   30.03</time>
   <energy>
    <i name="e_fr_energy">   -190.90035225 </i>
    <i name="e_wo_entrp">   -190.70283895 </i>
    <i name="e_0_energy">   -190.80159560 </i>
   </energy>
  </scstep>
  <scstep>
   <time name="dav">   27.88   27.94</time>
   <time name="total">   28.40   28.47</time>
   <energy>
    <i name="e_fr_energy">   -190.90261911 </i>
    <i name="e_wo_entrp">   -190.71883332 </i>
    <i name="e_0_energy">   -190.81072621 </i>
   </energy>
  </scstep>
  <scstep>
   <time name="dav">   29.90   29.97</time>
   <time name="total">   30.41   30.49</time>
   <energy>
    <i name="e_fr_energy">   -190.73246874 </i>
    <i name="e_wo_entrp">   -190.53688073 </i>
    <i name="e_0_energy">   -190.63467474 </i>
   </energy>
  </scstep>
  <scstep>
   <time name="dav">   30.77   30.85</time>
   <time name="total">   31.29   31.38</time>
   <energy>
    <i name="e_fr_energy">   -190.73256832 </i>
    <i name="e_wo_entrp">   -190.53769885 </i>
    <i name="e_0_energy">   -190.63513359 </i>
   </energy>
  </scstep>
  <scstep>
   <time name="dav">   29.07   29.14</time>
   <time name="total">   29.59   29.67</time>
   <energy>
    <i name="e_fr_energy">   -190.73027936 </i>
    <i name="e_wo_entrp">   -190.53537954 </i>
    <i name="e_0_energy">   -190.63282945 </i>
   </energy>
  </scstep>
  <scstep>
   <time name="dav">   28.80   28.87</time>
   <time name="total">   29.32   29.40</time>
   <energy>
    <i name="e_fr_energy">   -190.72813931 </i>
    <i name="e_wo_entrp">   -190.53316523 </i>
    <i name="e_0_energy">   -190.63065227 </i>
   </energy>
  </scstep>
  <scstep>
   <time name="dav">   27.53   27.60</time>
   <time name="total">   28.05   28.12</time>
   <energy>
    <i name="e_fr_energy">   -190.72840584 </i>
    <i name="e_wo_entrp">   -190.53331674 </i>
    <i name="e_0_energy">   -190.63086129 </i>
   </energy>
  </scstep>
  <scstep>
   <time name="dav">   25.99   26.05</time>
   <time name="total">   26.51   26.58</time>
   <energy>
    <i name="e_fr_energy">   -190.72821896 </i>
    <i name="e_wo_entrp">   -190.53308648 </i>
    <i name="e_0_energy">   -190.63065272 </i>
   </energy>
  </scstep>
  <scstep>
   <time name="dav">   19.83   19.87</time>
   <time name="total">   19.86   19.92</time>
   <energy>
    <i name="alphaZ">     85.83204126 </i>
    <i name="ewald">  42838.10612043 </i>
    <i name="hartreedc"> -48826.12376812 </i>
    <i name="XCdc">   -234.29617334 </i>
    <i name="pawpsdc">   4063.50112201 </i>
    <i name="pawaedc">  -3479.36881258 </i>
    <i name="eentropy">     -0.19517369 </i>
    <i name="bandstr">  -1399.62610243 </i>
    <i name="atom">   6761.44252427 </i>
    <i name="e_fr_energy">   -190.72822219 </i>
    <i name="e_wo_entrp">   -190.53304850 </i>
    <i name="e_0_energy">   -190.63063534 </i>
   </energy>
  </scstep>
  <structure>
   <crystal>
    <varray name="basis" >
     <v>       8.48366110       4.89933034       0.00000000 </v>
     <v>      -8.48431683       4.90045292       0.00000000 </v>
     <v>       0.00000000       0.00000000      30.00000000 </v>
    </varray>
    <i name="volume">   2494.23758057 </i>
    <varray name="rec_basis" >
     <v>       0.05894129       0.10204702       0.00000000 </v>
     <v>      -0.05892779       0.10203913       0.00000000 </v>
     <v>       0.00000000       0.00000000       0.03333333 </v>
    </varray>
   </crystal>
   <varray name="positions" >
    <v>       0.66444865       0.33269614      -0.00026461 </v>
    <v>       0.66198114      -0.00403221       0.00002085 </v>
    <v>       1.00131576       0.33498478      -0.00003056 </v>
    <v>       0.32911133      -0.00592743       0.00000087 </v>
    <v>       0.66208379       0.66591553       0.00000229 </v>
    <v>       0.33720519       0.66970268       0.00018435 </v>
    <v>       0.00071126      -0.00494817       0.00005731 </v>
    <v>       0.00502102       0.67303906      -0.00027271 </v>
    <v>       0.33781205       0.33845298       0.00021758 </v>
    <v>       0.10872775       0.22416327       0.95099615 </v>
    <v>       0.22167706       0.11184611       0.05046760 </v>
    <v>       0.10766248       0.55059070       0.95066248 </v>
    <v>       0.21722461       0.44103945       0.04950570 </v>
    <v>       0.10987801       0.88822197       0.94835176 </v>
    <v>       0.22083414       0.77663740       0.05124731 </v>
    <v>       0.44919245       0.22527760       0.95071185 </v>
    <v>       0.56116060       0.11366364       0.04796549 </v>
    <v>       0.44344812       0.55418146       0.94889921 </v>
    <v>       0.55728551       0.44080195       0.04986843 </v>
    <v>       0.45038556       0.89192952       0.95005981 </v>
    <v>       0.55846334       0.78377727       0.05012937 </v>
    <v>       0.77749618       0.22211890       0.95349827 </v>
    <v>       0.88657032       0.11304327       0.04755489 </v>
    <v>       0.77623733       0.55050791       0.95097745 </v>
    <v>       0.88666816       0.44009594       0.04773017 </v>
    <v>       0.77608414       0.89263135       0.95062056 </v>
    <v>       0.88952848       0.77780338       0.05083803 </v>
   </varray>
  </structure>
  <varray name="forces" >
   <v>      -0.16602038      -0.07654222      -0.02040485 </v>
   <v>       0.00078631      -0.29386412       0.02256930 </v>
   <v>      -0.00543112       0.11281470       0.02069116 </v>
   <v>      -0.05386252      -0.67707747       0.02061751 </v>
   <v>      -0.27857701      -0.34461721      -0.02601957 </v>
   <v>       0.15609242       0.18985577      -0.03057685 </v>
   <v>       0.63312635      -0.12831874       0.03726555 </v>
   <v>      -0.19416309       0.66445959       0.02673956 </v>
   <v>      -0.15096520       0.47712869      -0.03212781 </v>
   <v>       0.03613963      -0.00120789      -0.15058929 </v>
   <v>       0.00596339       0.03870295       0.25455631 </v>
   <v>      -0.00699219       0.02809683      -0.28042500 </v>
   <v>      -0.02233509       0.01800069       0.37227769 </v>
   <v>       0.01957887       0.02375710      -0.72149917 </v>
   <v>       0.06203323      -0.02443831       0.52207217 </v>
   <v>       0.03234737      -0.02445966      -0.22582046 </v>
   <v>      -0.00168948      -0.02866842       0.23619024 </v>
   <v>      -0.04752468       0.00882890      -0.50214303 </v>
   <v>       0.03646255       0.02698612       0.46523080 </v>
   <v>       0.01163817       0.04688640      -0.43513990 </v>
   <v>      -0.04978452       0.06251152       0.53216061 </v>
   <v>       0.01521556      -0.03222379      -0.21824401 </v>
   <v>       0.01253531      -0.03429714       0.09061652 </v>
   <v>       0.01638092       0.02192046      -0.18139780 </v>
   <v>      -0.03865218       0.02455020       0.14513835 </v>
   <v>      -0.03589438       0.00911823      -0.27553079 </v>
   <v>       0.01359178      -0.08790317       0.35379278 </v>
  </varray>
  <varray name="stress" >
   <v>      -5.87922289      -0.06823040      -0.01298358 </v>
   <v>      -0.06823051      -5.72983834      -0.08598340 </v>
   <v>      -0.01298348      -0.08598334       4.54936411 </v>
  </varray>
  <energy>
   <i name="e_fr_energy">   -190.72822219 </i>
   <i name="e_wo_entrp">   -190.63063534 </i>
   <i name="e_0_energy">     -0.19517369 </i>
  </energy>
  <time name="totalsc">  381.62  382.63</time>
 </calculation>
 <calculation>
  <scstep>
   <time name="dav">   21.84   21.89</time>
   <time name="total">   22.35   22.41</time>
   <energy>
    <i name="alphaZ">     90.23459631 </i>
    <i name="ewald">  44693.42457995 </i>
    <i name="hartreedc"> -50737.07722719 </i>
    <i name="XCdc">   -231.80477269 </i>
    <i name="pawpsdc">   4063.44122333 </i>
    <i name="pawaedc">  -3479.30553560 </i>
    <i name="eentropy">     -0.17700318 </i>
    <i name="bandstr">  -1352.34462435 </i>
    <i name="atom">   6761.44252427 </i>
    <i name="e_fr_energy">   -192.16623914 </i>
    <i name="e_wo_entrp">   -191.98923596 </i>
    <i name="e_0_energy">   -192.07773755 </i>
   </energy>
  </scstep>
  <scstep>
   <time name="dav">   27.53   27.60</time>
   <time name="total">   28.03   28.11</time>
   <energy>
    <i name="e_fr_energy">   -191.88537392 </i>
    <i name="e_wo_entrp">   -191.69230722 </i>
    <i name="e_0_energy">   -191.78884057 </i>
   </energy>
  </scstep>
  <scstep>
   <time name="dav">   30.10   30.17</time>
   <time name="total">   30.60   30.68</time>
   <energy>
    <i name="e_fr_energy">   -192.36407093 </i>
    <i name="e_wo_entrp">   -192.18023905 </i>
    <i name="e_0_energy">   -192.27215499 </i>
   </energy>
  </scstep>
  <scstep>
   <time name="dav">   28.81   28.88</time>
   <time name="total">   29.31   29.39</time>
   <energy>
    <i name="e_fr_energy">   -191.68093530 </i>
    <i name="e_wo_entrp">   -191.50029234 </i>
    <i name="e_0_energy">   -191.59061382 </i>
   </energy>
  </scstep>
  <scstep>
   <time name="dav">   30.15   30.22</time>
   <time name="total">   30.66   30.74</time>
   <energy>
    <i name="e_fr_energy">   -191.62731576 </i>
    <i name="e_wo_entrp">   -191.43110083 </i>
    <i name="e_0_energy">   -191.52920830 </i>
   </energy>
  </scstep>
  <scstep>
   <time name="dav">   30.34   30.41</time>
   <time name="total">   30.84   30.93</time>
   <energy>
    <i name="e_fr_energy">   -191.47352230 </i>
    <i name="e_wo_entrp">   -191.28811855 </i>
    <i name="e_0_energy">   -191.38082043 </i>
   </energy>
  </scstep>
  <scstep>
   <time name="dav">   31.15   31.23</time>
   <time name="total">   31.66   31.75</time>
   <energy>
    <i name="e_fr_energy">   -191.46475057 </i>
    <i name="e_wo_entrp">   -191.28237259 </i>
    <i name="e_0_energy">   -191.37356158 </i>
   </energy>
  </scstep>
  <scstep>
   <time name="dav">   30.33   30.40</time>
   <time name="total">   30.83   30.91</time>
   <energy>
    <i name="e_fr_energy">   -191.44584286 </i>
    <i name="e_wo_entrp">   -191.25931603 </i>
    <i name="e_0_energy">   -191.35257945 </i>
   </energy>
  </scstep>
  <scstep>
   <time name="dav">   28.33   28.40</time>
   <time name="total">   28.84   28.92</time>
   <energy>
    <i name="e_fr_energy">   -191.44327727 </i>
    <i name="e_wo_entrp">   -191.25761873 </i>
    <i name="e_0_energy">   -191.35044800 </i>
   </energy>
  </scstep>
  <scstep>
   <time name="dav">   28.84   28.91</time>
   <time name="total">   29.34   29.42</time>
   <energy>
    <i name="e_fr_energy">   -191.44344167 </i>
    <i name="e_wo_entrp">   -191.25727496 </i>
    <i name="e_0_energy">   -191.35035831 </i>
   </energy>
  </scstep>
  <scstep>
   <time name="dav">   26.33   26.40</time>
   <time name="total">   26.37   26.44</time>
   <energy>
    <i name="alphaZ">     90.23459631 </i>
    <i name="ewald">  44693.42457995 </i>
    <i name="hartreedc"> -50702.73763207 </i>
    <i name="XCdc">   -233.32802082 </i>
    <i name="pawpsdc">   4086.82407230 </i>
    <i name="pawaedc">  -3502.79560619 </i>
    <i name="eentropy">     -0.18617648 </i>
    <i name="bandstr">  -1384.32170441 </i>
    <i name="atom">   6761.44252427 </i>
    <i name="e_fr_energy">   -191.44336715 </i>
    <i name="e_wo_entrp">   -191.25719067 </i>
    <i name="e_0_energy">   -191.35027891 </i>
   </energy>
  </scstep>
  <structure>
   <crystal>
    <varray name="basis" >
     <v>       8.26833438       4.77765253       0.00000000 </v>
     <v>      -8.27244178       4.78475208       0.00000000 </v>
     <v>       0.00000000       0.00000000      30.00000000 </v>
    </varray>
    <i name="volume">   2372.54347780 </i>
    <varray name="rec_basis" >
     <v>       0.06050155       0.10460219       0.00000000 </v>
     <v>      -0.06041178       0.10455026       0.00000000 </v>
     <v>       0.00000000       0.00000000       0.03333333 </v>
    </varray>
   </crystal>
   <varray name="positions" >
    <v>       0.66220864       0.33300434      -0.00036130 </v>
    <v>       0.65826561      -0.00786880       0.00011246 </v>
    <v>       1.00289091       0.33648100       0.00005207 </v>
    <v>       0.32025619      -0.01392549       0.00010074 </v>
    <v>       0.65592764       0.66369017      -0.00013190 </v>
    <v>       0.34062887       0.67094862       0.00004936 </v>
    <v>       0.00370343      -0.01107256       0.00023148 </v>
    <v>       0.01187172       0.68280351      -0.00015858 </v>
    <v>       0.34251697       0.34524406       0.00006605 </v>
    <v>       0.10869580       0.22418717       0.94981721 </v>
    <v>       0.22223374       0.11217483       0.05211662 </v>
    <v>       0.10786674       0.55041481       0.94896253 </v>
    <v>       0.21671816       0.44127536       0.05156223 </v>
    <v>       0.11045138       0.88847964       0.94481831 </v>
    <v>       0.22111138       0.77598469       0.05399010 </v>
    <v>       0.44962301       0.22490391       0.94922873 </v>
    <v>       0.56131649       0.11361485       0.04941669 </v>
    <v>       0.44326145       0.55475905       0.94625590 </v>
    <v>       0.55833179       0.44075873       0.05234172 </v>
    <v>       0.45152116       0.89263763       0.94771090 </v>
    <v>       0.55913850       0.78539297       0.05286660 </v>
    <v>       0.77724466       0.22161702       0.95222179 </v>
    <v>       0.88593585       0.11289201       0.04840527 </v>
    <v>       0.77615927       0.55010483       0.94968634 </v>
    <v>       0.88635238       0.44001162       0.04881940 </v>
    <v>       0.77554460       0.89313397       0.94891937 </v>
    <v>       0.88843811       0.77656653       0.05289978 </v>
   </varray>
  </structure>
  <varray name="forces" >
   <v>      -0.04966292      -0.02363517      -0.03179210 </v>
   <v>      -0.05801878      -0.13431794      -0.00596379 </v>
   <v>      -0.10338357       0.03238097      -0.01810325 </v>
   <v>      -0.04745035      -0.40385754      -0.01953868 </v>
   <v>      -0.21013079      -0.32593014       0.04364793 </v>
   <v>       0.22380054       0.00173893       0.00297279 </v>
   <v>       0.45966319      -0.03381580      -0.05851172 </v>
   <v>      -0.01320325       0.35102511       0.04773901 </v>
   <v>      -0.28647927       0.43984458      -0.02713487 </v>
   <v>       0.14014110       0.00219328       0.16036788 </v>
   <v>       0.03527715       0.10997124      -0.07586311 </v>
   <v>      -0.09725020       0.12501360       0.01404745 </v>
   <v>       0.03651674       0.12792355       0.09647986 </v>
   <v>       0.03079686       0.03712455      -0.44308866 </v>
   <v>       0.15775357      -0.00691421       0.21084341 </v>
   <v>      -0.01999070      -0.16670194       0.14154496 </v>
   <v>      -0.09980202      -0.21642661      -0.04183072 </v>
   <v>      -0.09337951       0.05499220      -0.31708185 </v>
   <v>      -0.07760209       0.04723488       0.13838819 </v>
   <v>      -0.08509225      -0.06930147      -0.05389354 </v>
   <v>       0.01998352      -0.04641822       0.14991304 </v>
   <v>      -0.01020353      -0.03826871      -0.00834152 </v>
   <v>       0.22343014      -0.04607151      -0.13408930 </v>
   <v>      -0.04912226       0.18269371       0.15708415 </v>
   <v>      -0.12053209       0.18110457      -0.07848352 </v>
   <v>       0.09367074      -0.00770571       0.08642000 </v>
   <v>       0.00027005      -0.17387621       0.06426796 </v>
  </varray>
  <varray name="stress" >
   <v>      -0.09324750      -0.04195685       0.29388710 </v>
   <v>      -0.04195680       0.45432832      -0.15557674 </v>
   <v>       0.29388715      -0.15557680      -0.35527445 </v>
  </varray>
  <energy>
   <i name="e_fr_energy">   -191.44336715 </i>
   <i name="e_wo_entrp">   -191.35027891 </i>
   <i name="e_0_energy">     -0.18617648 </i>
  </energy>
  <time name="totalsc">  361.13  362.08</time>
 </calculation>
 <calculation>
  <scstep>
   <time name="dav">   21.86   21.91</time>
   <time name="total">   22.36   22.42</time>
   <energy>
    <i name="alphaZ">     90.14164975 </i>
    <i name="ewald">  44627.01689958 </i>
    <i name="hartreedc"> -50636.24162224 </i>
    <i name="XCdc">   -233.49527459 </i>
    <i name="pawpsdc">   4087.27574998 </i>
    <i name="pawaedc">  -3503.24570664 </i>
    <i name="eentropy">     -0.18745816 </i>
    <i name="bandstr">  -1384.22968895 </i>
    <i name="atom">   6761.44252427 </i>
    <i name="e_fr_energy">   -191.52292700 </i>
    <i name="e_wo_entrp">   -191.33546884 </i>
    <i name="e_0_energy">   -191.42919792 </i>
   </energy>
  </scstep>
  <scstep>
   <time name="dav">   33.23   33.31</time>
   <time name="total">   33.74   33.83</time>
   <energy>
    <i name="e_fr_energy">   -191.60417305 </i>
    <i name="e_wo_entrp">   -191.40420514 </i>
    <i name="e_0_energy">   -191.50418909 </i>
   </energy>
  </scstep>
  <scstep>
   <time name="dav">   30.98   31.05</time>
   <time name="total">   31.48   31.57</time>
   <energy>
    <i name="e_fr_energy">   -191.53429393 </i>
    <i name="e_wo_entrp">   -191.34569126 </i>
    <i name="e_0_energy">   -191.43999259 </i>
   </energy>
  </scstep>
  <scstep>
   <time name="dav">   28.97   29.04</time>
   <time name="total">   29.48   29.56</time>
   <energy>
    <i name="e_fr_energy">   -191.53786235 </i>
    <i name="e_wo_entrp">   -191.34700992 </i>
    <i name="e_0_energy">   -191.44243614 </i>
   </energy>
  </scstep>
  <scstep>
   <time name="dav">   28.73   28.80</time>
   <time name="total">   29.23   29.31</time>
   <energy>
    <i name="e_fr_energy">   -191.53243972 </i>
    <i name="e_wo_entrp">   -191.34263375 </i>
    <i name="e_0_energy">   -191.43753673 </i>
   </energy>
  </scstep>
  <scstep>
   <time name="dav">   28.44   28.51</time>
   <time name="total">   28.94   29.02</time>
   <energy>
    <i name="e_fr_energy">   -191.53327363 </i>
    <i name="e_wo_entrp">   -191.34332979 </i>
    <i name="e_0_energy">   -191.43830171 </i>
   </energy>
  </scstep>
  <scstep>
   <time name="dav">   28.30   28.37</time>
   <time name="total">   28.80   28.88</time>
   <energy>
    <i name="e_fr_energy">   -191.53254870 </i>
    <i name="e_wo_entrp">   -191.34268909 </i>
    <i name="e_0_energy">   -191.43761889 </i>
   </energy>
  </scstep>
  <scstep>
   <time name="dav">   26.56   26.62</time>
   <time name="total">   27.06   27.14</time>
   <energy>
    <i name="e_fr_energy">   -191.53198986 </i>
    <i name="e_wo_entrp">   -191.34226022 </i>
    <i name="e_0_energy">   -191.43712504 </i>
   </energy>
  </scstep>
  <scstep>
   <time name="dav">   18.69   18.73</time>
   <time name="total">   18.72   18.78</time>
   <energy>
    <i name="alphaZ">     90.14164975 </i>
    <i name="ewald">  44627.01689958 </i>
    <i name="hartreedc"> -50638.29533232 </i>
    <i name="XCdc">   -233.42533672 </i>
    <i name="pawpsdc">   4084.21242542 </i>
    <i name="pawaedc">  -3500.13540331 </i>
    <i name="eentropy">     -0.18973424 </i>
    <i name="bandstr">  -1382.29969687 </i>
    <i name="atom">   6761.44252427 </i>
    <i name="e_fr_energy">   -191.53200443 </i>
    <i name="e_wo_entrp">   -191.34227019 </i>
    <i name="e_0_energy">   -191.43713731 </i>
   </energy>
  </scstep>
  <structure>
   <crystal>
    <varray name="basis" >
     <v>       8.26612248       4.78264812       0.00000000 </v>
     <v>      -8.27127821       4.79157128       0.00000000 </v>
     <v>       0.00000000       0.00000000      30.00000000 </v>
    </varray>
    <i name="volume">   2374.98984697 </i>
    <varray name="rec_basis" >
     <v>       0.06052537       0.10447975       0.00000000 </v>
     <v>      -0.06041266       0.10441463       0.00000000 </v>
     <v>       0.00000000       0.00000000       0.03333333 </v>
    </varray>
   </crystal>
   <varray name="positions" >
    <v>       0.66195200       0.33302877      -0.00041190 </v>
    <v>       0.65743275      -0.00836391       0.00010266 </v>
    <v>       1.00274845       0.33693925       0.00002286 </v>
    <v>       0.31811429      -0.01579339       0.00006916 </v>
    <v>       0.65369674       0.66266944      -0.00006161 </v>
    <v>       0.34127846       0.67030463       0.00005451 </v>
    <v>       0.00486071      -0.01255893       0.00013729 </v>
    <v>       0.01357769       0.68457697      -0.00008249 </v>
    <v>       0.34388129       0.34826508       0.00002307 </v>
    <v>       0.10911457       0.22379102       0.95007821 </v>
    <v>       0.22288703       0.11262390       0.05198951 </v>
    <v>       0.10821177       0.55132612       0.94899074 </v>
    <v>       0.21746928       0.44181130       0.05170998 </v>
    <v>       0.11072550       0.88857578       0.94411992 </v>
    <v>       0.22153397       0.77549395       0.05431888 </v>
    <v>       0.44872546       0.22412569       0.94946044 </v>
    <v>       0.55993799       0.11281737       0.04934482 </v>
    <v>       0.44326681       0.55530422       0.94575676 </v>
    <v>       0.55833988       0.44122135       0.05255534 </v>
    <v>       0.45092183       0.89253421       0.94763219 </v>
    <v>       0.55896106       0.78509660       0.05309795 </v>
    <v>       0.77702341       0.22145586       0.95221268 </v>
    <v>       0.88635587       0.11201227       0.04818741 </v>
    <v>       0.77693532       0.55116671       0.94994237 </v>
    <v>       0.88691341       0.44127200       0.04868985 </v>
    <v>       0.77578025       0.89282190       0.94906347 </v>
    <v>       0.88756867       0.77569628       0.05299582 </v>
   </varray>
  </structure>
  <varray name="forces" >
   <v>      -0.01734599      -0.02460963      -0.04605762 </v>
   <v>      -0.09771650      -0.12611298       0.01276571 </v>
   <v>      -0.14734133       0.02692018       0.00191562 </v>
   <v>       0.02423928      -0.40987621      -0.00210224 </v>
   <v>      -0.22690961      -0.32583103       0.01283681 </v>
   <v>       0.23559977       0.00402840      -0.00508778 </v>
   <v>       0.44868800      -0.07657043       0.00660737 </v>
   <v>      -0.01272306       0.37938861       0.02442581 </v>
   <v>      -0.30285536       0.44128602      -0.03178262 </v>
   <v>       0.10344740       0.01405708       0.16478156 </v>
   <v>       0.00468307       0.10385872      -0.13734265 </v>
   <v>      -0.04852624       0.07827949       0.01077408 </v>
   <v>       0.01628623       0.07717310       0.08568594 </v>
   <v>       0.05999604       0.00064970      -0.30282304 </v>
   <v>       0.12232290      -0.00043565       0.13372190 </v>
   <v>      -0.03844796      -0.11081096       0.17504990 </v>
   <v>      -0.07745736      -0.14756259      -0.06781974 </v>
   <v>      -0.06823846       0.05216004      -0.27274620 </v>
   <v>      -0.05918823       0.02891204       0.10194336 </v>
   <v>      -0.04184894      -0.05265057      -0.02048603 </v>
   <v>       0.00033020      -0.02476645       0.10601739 </v>
   <v>      -0.00729883      -0.02386235       0.03015773 </v>
   <v>       0.17102159      -0.02270833      -0.18852228 </v>
   <v>      -0.03637117       0.12851218       0.18782423 </v>
   <v>      -0.07709070       0.11813868      -0.06782005 </v>
   <v>       0.07375435      -0.00334328       0.11078670 </v>
   <v>      -0.00100910      -0.10422378      -0.02270386 </v>
  </varray>
  <varray name="stress" >
   <v>      -0.01870973       0.02140122       0.10785902 </v>
   <v>       0.02140133       0.11879283      -0.05617741 </v>
   <v>       0.10785900      -0.05617737      -1.34531261 </v>
  </varray>
  <energy>
   <i name="e_fr_energy">   -191.53200443 </i>
   <i name="e_wo_entrp">   -191.43713731 </i>
   <i name="e_0_energy">     -0.18973424 </i>
  </energy>
  <time name="totalsc">  292.31  293.08</time>
 </calculation>
 <calculation>
  <scstep>
   <time name="dav">   21.77   21.82</time>
   <time name="total">   22.28   22.33</time>
   <energy>
    <i name="alphaZ">     90.09297156 </i>
    <i name="ewald">  44609.05034938 </i>
    <i name="hartreedc"> -50619.30432101 </i>
    <i name="XCdc">   -233.45295310 </i>
    <i name="pawpsdc">   4084.08099203 </i>
    <i name="pawaedc">  -3500.00226326 </i>
    <i name="eentropy">     -0.18681216 </i>
    <i name="bandstr">  -1383.35838960 </i>
    <i name="atom">   6761.44252427 </i>
    <i name="e_fr_energy">   -191.63790189 </i>
    <i name="e_wo_entrp">   -191.45108973 </i>
    <i name="e_0_energy">   -191.54449581 </i>
   </energy>
  </scstep>
  <scstep>
   <time name="dav">   32.16   32.24</time>
   <time name="total">   32.66   32.75</time>
   <energy>
    <i name="e_fr_energy">   -191.77698017 </i>
    <i name="e_wo_entrp">   -191.56587475 </i>
    <i name="e_0_energy">   -191.67142746 </i>
   </energy>
  </scstep>
  <scstep>
   <time name="dav">   30.58   30.65</time>
   <time name="total">   31.08   31.17</time>
   <energy>
    <i name="e_fr_energy">   -191.65783186 </i>
    <i name="e_wo_entrp">   -191.46897334 </i>
    <i name="e_0_energy">   -191.56340260 </i>
   </energy>
  </scstep>
  <scstep>
   <time name="dav">   29.97   30.04</time>
   <time name="total">   30.47   30.56</time>
   <energy>
    <i name="e_fr_energy">   -191.66668648 </i>
    <i name="e_wo_entrp">   -191.47412719 </i>
    <i name="e_0_energy">   -191.57040683 </i>
   </energy>
  </scstep>
  <scstep>
   <time name="dav">   29.12   29.19</time>
   <time name="total">   29.62   29.70</time>
   <energy>
    <i name="e_fr_energy">   -191.65266275 </i>
    <i name="e_wo_entrp">   -191.46156131 </i>
    <i name="e_0_energy">   -191.55711203 </i>
   </energy>
  </scstep>
  <scstep>
   <time name="dav">   28.82   28.89</time>
   <time name="total">   29.33   29.41</time>
   <energy>
    <i name="e_fr_energy">   -191.65529578 </i>
    <i name="e_wo_entrp">   -191.46345407 </i>
    <i name="e_0_energy">   -191.55937493 </i>
   </energy>
  </scstep>
  <scstep>
   <time name="dav">   29.02   29.09</time>
   <time name="total">   29.52   29.60</time>
   <energy>
    <i name="e_fr_energy">   -191.65264157 </i>
    <i name="e_wo_entrp">   -191.46101901 </i>
    <i name="e_0_energy">   -191.55683029 </i>
   </energy>
  </scstep>
  <scstep>
   <time name="dav">   27.24   27.31</time>
   <time name="total">   27.75   27.82</time>
   <energy>
    <i name="e_fr_energy">   -191.65153709 </i>
    <i name="e_wo_entrp">   -191.46009711 </i>
    <i name="e_0_energy">   -191.55581710 </i>
   </energy>
  </scstep>
  <scstep>
   <time name="dav">   22.10   22.16</time>
   <time name="total">   22.14   22.20</time>
   <energy>
    <i name="alphaZ">     90.09297156 </i>
    <i name="ewald">  44609.05034938 </i>
    <i name="hartreedc"> -50620.97066043 </i>
    <i name="XCdc">   -233.36839144 </i>
    <i name="pawpsdc">   4089.15901109 </i>
    <i name="pawaedc">  -3505.15277592 </i>
    <i name="eentropy">     -0.19137055 </i>
    <i name="bandstr">  -1381.71319131 </i>
    <i name="atom">   6761.44252427 </i>
    <i name="e_fr_energy">   -191.65153335 </i>
    <i name="e_wo_entrp">   -191.46016280 </i>
[...]
      <set comment="kpoint 31">
       <r>  -17.5027    1.0000 </r>
       <r>  -17.2932    1.0000 </r>
       <r>  -16.9269    1.0000 </r>
       <r>  -16.6513    1.0000 </r>
       <r>  -16.5232    1.0000 </r>
       <r>  -16.4225    1.0000 </r>
       <r>  -16.2731    1.0000 </r>
       <r>  -16.1996    1.0000 </r>
       <r>  -16.0914    1.0000 </r>
       <r>  -16.0441    1.0000 </r>
       <r>  -15.9421    1.0000 </r>
       <r>  -15.8658    1.0000 </r>
       <r>  -15.8119    1.0000 </r>
       <r>  -15.6957    1.0000 </r>
       <r>  -15.6117    1.0000 </r>
       <r>  -15.5260    1.0000 </r>
       <r>  -15.3716    1.0000 </r>
       <r>  -15.2796    1.0000 </r>
       <r>   -9.7404    1.0000 </r>
       <r>   -9.4441    1.0000 </r>
       <r>   -9.3173    1.0000 </r>
       <r>   -9.0029    1.0000 </r>
       <r>   -8.8310    1.0000 </r>
       <r>   -8.7529    1.0000 </r>
       <r>   -8.5125    1.0000 </r>
       <r>   -8.4678    1.0000 </r>
       <r>   -8.4420    1.0000 </r>
       <r>   -8.3718    1.0000 </r>
       <r>   -8.2468    1.0000 </r>
       <r>   -8.1951    1.0000 </r>
       <r>   -8.1182    1.0000 </r>
       <r>   -8.0659    1.0000 </r>
       <r>   -8.0125    1.0000 </r>
       <r>   -7.9095    1.0000 </r>
       <r>   -7.7744    1.0000 </r>
       <r>   -7.7204    1.0000 </r>
       <r>   -7.5616    1.0000 </r>
       <r>   -7.4044    1.0000 </r>
       <r>   -7.3355    1.0000 </r>
       <r>   -7.2533    1.0000 </r>
       <r>   -7.1673    1.0000 </r>
       <r>   -7.0925    1.0000 </r>
       <r>   -7.0475    1.0000 </r>
       <r>   -6.9228    1.0000 </r>
       <r>   -6.8996    1.0000 </r>
       <r>   -6.7508    1.0000 </r>
       <r>   -6.6816    1.0000 </r>
       <r>   -6.5887    1.0000 </r>
       <r>   -6.5539    1.0000 </r>
       <r>   -6.4895    1.0000 </r>
       <r>   -6.4062    1.0000 </r>
       <r>   -6.3354    1.0000 </r>
       <r>   -6.2780    1.0000 </r>
       <r>   -6.2231    1.0000 </r>
       <r>   -6.1255    1.0000 </r>
       <r>   -6.0607    1.0000 </r>
       <r>   -6.0026    1.0000 </r>
       <r>   -5.9043    1.0000 </r>
       <r>   -5.8866    1.0000 </r>
       <r>   -5.8045    1.0000 </r>
       <r>   -5.7338    1.0000 </r>
       <r>   -5.6271    1.0000 </r>
       <r>   -5.5677    1.0000 </r>
       <r>   -5.5024    1.0000 </r>
       <r>   -5.2521    1.0000 </r>
       <r>   -5.0718    1.0000 </r>
       <r>   -4.9874    1.0000 </r>
       <r>   -4.8441    1.0000 </r>
       <r>   -4.7410    1.0000 </r>
       <r>   -4.6391    1.0000 </r>
       <r>   -4.5592    1.0000 </r>
       <r>   -4.4131    1.0000 </r>
       <r>   -4.3389    1.0000 </r>
       <r>   -4.2552    1.0000 </r>
       <r>   -4.1968    1.0000 </r>
       <r>   -4.1027    1.0000 </r>
       <r>   -3.8924    1.0000 </r>
       <r>   -3.7703    0.9992 </r>
       <r>   -3.5535    0.9476 </r>
       <r>   -3.3217    0.4933 </r>
       <r>   -3.0836    0.0445 </r>
       <r>   -2.7199    0.0000 </r>
       <r>   -2.5602    0.0000 </r>
       <r>   -2.4464    0.0000 </r>
       <r>   -2.4185    0.0000 </r>
       <r>   -2.2947    0.0000 </r>
       <r>   -2.1777    0.0000 </r>
       <r>   -2.0943    0.0000 </r>
       <r>   -1.9355    0.0000 </r>
       <r>   -1.8754    0.0000 </r>
       <r>   -1.7716    0.0000 </r>
       <r>   -1.6117    0.0000 </r>
       <r>   -1.5127    0.0000 </r>
       <r>   -1.4086    0.0000 </r>
       <r>   -1.3008    0.0000 </r>
       <r>   -1.2198    0.0000 </r>
       <r>   -1.0914    0.0000 </r>
       <r>   -1.0632    0.0000 </r>
       <r>   -0.9542    0.0000 </r>
       <r>   -0.8601    0.0000 </r>
       <r>   -0.7916    0.0000 </r>
       <r>   -0.7374    0.0000 </r>
       <r>   -0.6659    0.0000 </r>
       <r>   -0.5875    0.0000 </r>
       <r>   -0.4919    0.0000 </r>
       <r>   -0.3517    0.0000 </r>
       <r>   -0.2869    0.0000 </r>
       <r>   -0.0286    0.0000 </r>
       <r>    0.0928    0.0000 </r>
       <r>    0.2373    0.0000 </r>
       <r>    0.3759    0.0000 </r>
       <r>    0.5072    0.0000 </r>
       <r>    0.8068    0.0000 </r>
       <r>    0.8772    0.0000 </r>
       <r>    1.0564    0.0000 </r>
       <r>    1.2221    0.0000 </r>
       <r>    1.3506    0.0000 </r>
       <r>    2.1183    0.0000 </r>
       <r>    2.2971    0.0000 </r>
       <r>    2.3692    0.0000 </r>
      </set>
      <set comment="kpoint 32">
       <r>  -17.5162    1.0000 </r>
       <r>  -17.2225    1.0000 </r>
       <r>  -17.0341    1.0000 </r>
       <r>  -16.6438    1.0000 </r>
       <r>  -16.4650    1.0000 </r>
       <r>  -16.3843    1.0000 </r>
       <r>  -16.2668    1.0000 </r>
       <r>  -16.2237    1.0000 </r>
       <r>  -16.1426    1.0000 </r>
       <r>  -16.0399    1.0000 </r>
       <r>  -15.9661    1.0000 </r>
       <r>  -15.8621    1.0000 </r>
       <r>  -15.7913    1.0000 </r>
       <r>  -15.6690    1.0000 </r>
       <r>  -15.6279    1.0000 </r>
       <r>  -15.5259    1.0000 </r>
       <r>  -15.3730    1.0000 </r>
       <r>  -15.2767    1.0000 </r>
       <r>   -9.6599    1.0000 </r>
       <r>   -9.5541    1.0000 </r>
       <r>   -9.3924    1.0000 </r>
       <r>   -8.9428    1.0000 </r>
       <r>   -8.7265    1.0000 </r>
       <r>   -8.6901    1.0000 </r>
       <r>   -8.5534    1.0000 </r>
       <r>   -8.4737    1.0000 </r>
       <r>   -8.4317    1.0000 </r>
       <r>   -8.3596    1.0000 </r>
       <r>   -8.2583    1.0000 </r>
       <r>   -8.1878    1.0000 </r>
       <r>   -8.1361    1.0000 </r>
       <r>   -8.0821    1.0000 </r>
       <r>   -8.0268    1.0000 </r>
       <r>   -7.9510    1.0000 </r>
       <r>   -7.8495    1.0000 </r>
       <r>   -7.7355    1.0000 </r>
       <r>   -7.5426    1.0000 </r>
       <r>   -7.4339    1.0000 </r>
       <r>   -7.3179    1.0000 </r>
       <r>   -7.2450    1.0000 </r>
       <r>   -7.1966    1.0000 </r>
       <r>   -7.1153    1.0000 </r>
       <r>   -7.0221    1.0000 </r>
       <r>   -6.9273    1.0000 </r>
       <r>   -6.8545    1.0000 </r>
       <r>   -6.7710    1.0000 </r>
       <r>   -6.7032    1.0000 </r>
       <r>   -6.6265    1.0000 </r>
       <r>   -6.5555    1.0000 </r>
       <r>   -6.4620    1.0000 </r>
       <r>   -6.3618    1.0000 </r>
       <r>   -6.3271    1.0000 </r>
       <r>   -6.2617    1.0000 </r>
       <r>   -6.2125    1.0000 </r>
       <r>   -6.1445    1.0000 </r>
       <r>   -6.0638    1.0000 </r>
       <r>   -5.9536    1.0000 </r>
       <r>   -5.8931    1.0000 </r>
       <r>   -5.8435    1.0000 </r>
       <r>   -5.7572    1.0000 </r>
       <r>   -5.7093    1.0000 </r>
       <r>   -5.5797    1.0000 </r>
       <r>   -5.5158    1.0000 </r>
       <r>   -5.4201    1.0000 </r>
       <r>   -5.3222    1.0000 </r>
       <r>   -5.1267    1.0000 </r>
       <r>   -5.0495    1.0000 </r>
       <r>   -4.9769    1.0000 </r>
       <r>   -4.7850    1.0000 </r>
       <r>   -4.6735    1.0000 </r>
       <r>   -4.5543    1.0000 </r>
       <r>   -4.4051    1.0000 </r>
       <r>   -4.3338    1.0000 </r>
       <r>   -4.2865    1.0000 </r>
       <r>   -4.1506    1.0000 </r>
       <r>   -4.0910    1.0000 </r>
       <r>   -3.8864    1.0000 </r>
       <r>   -3.7317    0.9980 </r>
       <r>   -3.5337    0.9309 </r>
       <r>   -3.3133    0.4695 </r>
       <r>   -3.0012    0.0112 </r>
       <r>   -2.7634    0.0000 </r>
       <r>   -2.6027    0.0000 </r>
       <r>   -2.5051    0.0000 </r>
       <r>   -2.4054    0.0000 </r>
       <r>   -2.3036    0.0000 </r>
       <r>   -2.1953    0.0000 </r>
       <r>   -2.0823    0.0000 </r>
       <r>   -1.9816    0.0000 </r>
       <r>   -1.8815    0.0000 </r>
       <r>   -1.8180    0.0000 </r>
       <r>   -1.6315    0.0000 </r>
       <r>   -1.4714    0.0000 </r>
       <r>   -1.3749    0.0000 </r>
       <r>   -1.2768    0.0000 </r>
       <r>   -1.1802    0.0000 </r>
       <r>   -1.1127    0.0000 </r>
       <r>   -1.0265    0.0000 </r>
       <r>   -0.9436    0.0000 </r>
       <r>   -0.8599    0.0000 </r>
       <r>   -0.8216    0.0000 </r>
       <r>   -0.7487    0.0000 </r>
       <r>   -0.6326    0.0000 </r>
       <r>   -0.5442    0.0000 </r>
       <r>   -0.4580    0.0000 </r>
       <r>   -0.3223    0.0000 </r>
       <r>   -0.2809    0.0000 </r>
       <r>   -0.1110    0.0000 </r>
       <r>    0.0537    0.0000 </r>
       <r>    0.1703    0.0000 </r>
       <r>    0.4496    0.0000 </r>
       <r>    0.4924    0.0000 </r>
       <r>    0.8102    0.0000 </r>
       <r>    0.8329    0.0000 </r>
       <r>    1.0001    0.0000 </r>
       <r>    1.2471    0.0000 </r>
       <r>    1.4132    0.0000 </r>
       <r>    2.0923    0.0000 </r>
       <r>    2.2645    0.0000 </r>
       <r>    2.5582    0.0000 </r>
      </set>
      <set comment="kpoint 33">
       <r>  -17.4909    1.0000 </r>
       <r>  -17.3090    1.0000 </r>
       <r>  -16.9194    1.0000 </r>
       <r>  -16.6437    1.0000 </r>
       <r>  -16.5008    1.0000 </r>
       <r>  -16.4631    1.0000 </r>
       <r>  -16.2779    1.0000 </r>
       <r>  -16.1878    1.0000 </r>
       <r>  -16.1508    1.0000 </r>
       <r>  -16.0672    1.0000 </r>
       <r>  -15.8977    1.0000 </r>
       <r>  -15.8496    1.0000 </r>
       <r>  -15.7709    1.0000 </r>
       <r>  -15.6647    1.0000 </r>
       <r>  -15.6384    1.0000 </r>
       <r>  -15.5211    1.0000 </r>
       <r>  -15.3920    1.0000 </r>
       <r>  -15.2850    1.0000 </r>
       <r>   -9.7144    1.0000 </r>
       <r>   -9.4585    1.0000 </r>
       <r>   -9.3378    1.0000 </r>
       <r>   -8.9071    1.0000 </r>
       <r>   -8.8246    1.0000 </r>
       <r>   -8.7652    1.0000 </r>
       <r>   -8.6509    1.0000 </r>
       <r>   -8.5779    1.0000 </r>
       <r>   -8.3861    1.0000 </r>
       <r>   -8.3076    1.0000 </r>
       <r>   -8.2500    1.0000 </r>
       <r>   -8.1652    1.0000 </r>
       <r>   -8.1231    1.0000 </r>
       <r>   -8.0683    1.0000 </r>
       <r>   -7.9944    1.0000 </r>
       <r>   -7.8974    1.0000 </r>
       <r>   -7.8094    1.0000 </r>
       <r>   -7.7246    1.0000 </r>
       <r>   -7.5712    1.0000 </r>
       <r>   -7.5072    1.0000 </r>
       <r>   -7.3239    1.0000 </r>
       <r>   -7.2842    1.0000 </r>
       <r>   -7.1161    1.0000 </r>
       <r>   -7.0791    1.0000 </r>
       <r>   -6.9940    1.0000 </r>
       <r>   -6.9217    1.0000 </r>
       <r>   -6.8429    1.0000 </r>
       <r>   -6.7782    1.0000 </r>
       <r>   -6.6963    1.0000 </r>
       <r>   -6.6236    1.0000 </r>
       <r>   -6.5732    1.0000 </r>
       <r>   -6.4975    1.0000 </r>
       <r>   -6.4054    1.0000 </r>
       <r>   -6.2910    1.0000 </r>
       <r>   -6.2605    1.0000 </r>
       <r>   -6.1627    1.0000 </r>
       <r>   -6.1417    1.0000 </r>
       <r>   -6.0406    1.0000 </r>
       <r>   -5.9732    1.0000 </r>
       <r>   -5.9215    1.0000 </r>
       <r>   -5.8647    1.0000 </r>
       <r>   -5.7880    1.0000 </r>
       <r>   -5.6968    1.0000 </r>
       <r>   -5.6700    1.0000 </r>
       <r>   -5.5140    1.0000 </r>
       <r>   -5.3635    1.0000 </r>
       <r>   -5.2294    1.0000 </r>
       <r>   -5.1627    1.0000 </r>
       <r>   -5.0866    1.0000 </r>
       <r>   -4.8972    1.0000 </r>
       <r>   -4.7766    1.0000 </r>
       <r>   -4.7090    1.0000 </r>
       <r>   -4.5421    1.0000 </r>
       <r>   -4.4632    1.0000 </r>
       <r>   -4.3789    1.0000 </r>
       <r>   -4.2524    1.0000 </r>
       <r>   -4.1553    1.0000 </r>
       <r>   -4.0365    1.0000 </r>
       <r>   -3.8891    1.0000 </r>
       <r>   -3.7201    0.9974 </r>
       <r>   -3.5752    0.9621 </r>
       <r>   -3.2564    0.3161 </r>
       <r>   -2.9481    0.0039 </r>
       <r>   -2.7905    0.0001 </r>
       <r>   -2.6478    0.0000 </r>
       <r>   -2.5826    0.0000 </r>
       <r>   -2.3829    0.0000 </r>
       <r>   -2.3214    0.0000 </r>
       <r>   -2.2529    0.0000 </r>
       <r>   -2.0712    0.0000 </r>
       <r>   -2.0006    0.0000 </r>
       <r>   -1.8715    0.0000 </r>
       <r>   -1.8157    0.0000 </r>
       <r>   -1.6387    0.0000 </r>
       <r>   -1.4436    0.0000 </r>
       <r>   -1.3188    0.0000 </r>
       <r>   -1.2499    0.0000 </r>
       <r>   -1.1842    0.0000 </r>
       <r>   -1.1219    0.0000 </r>
       <r>   -1.0350    0.0000 </r>
       <r>   -0.9378    0.0000 </r>
       <r>   -0.8620    0.0000 </r>
       <r>   -0.8093    0.0000 </r>
       <r>   -0.7398    0.0000 </r>
       <r>   -0.6450    0.0000 </r>
       <r>   -0.5376    0.0000 </r>
       <r>   -0.4578    0.0000 </r>
       <r>   -0.2952    0.0000 </r>
       <r>   -0.2513    0.0000 </r>
       <r>   -0.0991    0.0000 </r>
       <r>   -0.0255    0.0000 </r>
       <r>    0.1385    0.0000 </r>
       <r>    0.3882    0.0000 </r>
       <r>    0.4863    0.0000 </r>
       <r>    0.7999    0.0000 </r>
       <r>    0.8439    0.0000 </r>
       <r>    1.0093    0.0000 </r>
       <r>    1.2738    0.0000 </r>
       <r>    1.5116    0.0000 </r>
       <r>    2.1272    0.0000 </r>
       <r>    2.2926    0.0000 </r>
       <r>    2.3947    0.0000 </r>
      </set>
      <set comment="kpoint 34">
       <r>  -17.4436    1.0000 </r>
       <r>  -17.3917    1.0000 </r>
       <r>  -16.7669    1.0000 </r>
       <r>  -16.6892    1.0000 </r>
       <r>  -16.6145    1.0000 </r>
       <r>  -16.4662    1.0000 </r>
       <r>  -16.2606    1.0000 </r>
       <r>  -16.1993    1.0000 </r>
       <r>  -16.1398    1.0000 </r>
       <r>  -16.0737    1.0000 </r>
       <r>  -15.8764    1.0000 </r>
       <r>  -15.8125    1.0000 </r>
       <r>  -15.7708    1.0000 </r>
       <r>  -15.6694    1.0000 </r>
       <r>  -15.6392    1.0000 </r>
       <r>  -15.5123    1.0000 </r>
       <r>  -15.4143    1.0000 </r>
       <r>  -15.2895    1.0000 </r>
       <r>   -9.7528    1.0000 </r>
       <r>   -9.3291    1.0000 </r>
       <r>   -9.2950    1.0000 </r>
       <r>   -8.9823    1.0000 </r>
       <r>   -8.8988    1.0000 </r>
       <r>   -8.7783    1.0000 </r>
       <r>   -8.7144    1.0000 </r>
       <r>   -8.6412    1.0000 </r>
       <r>   -8.3670    1.0000 </r>
       <r>   -8.2640    1.0000 </r>
       <r>   -8.2426    1.0000 </r>
       <r>   -8.1941    1.0000 </r>
       <r>   -8.0711    1.0000 </r>
       <r>   -8.0446    1.0000 </r>
       <r>   -7.9519    1.0000 </r>
       <r>   -7.9038    1.0000 </r>
       <r>   -7.7694    1.0000 </r>
       <r>   -7.7551    1.0000 </r>
       <r>   -7.5675    1.0000 </r>
       <r>   -7.4463    1.0000 </r>
       <r>   -7.4047    1.0000 </r>
       <r>   -7.3160    1.0000 </r>
       <r>   -7.0817    1.0000 </r>
       <r>   -7.0496    1.0000 </r>
       <r>   -7.0043    1.0000 </r>
       <r>   -6.8596    1.0000 </r>
       <r>   -6.8533    1.0000 </r>
       <r>   -6.7248    1.0000 </r>
       <r>   -6.6843    1.0000 </r>
       <r>   -6.6495    1.0000 </r>
       <r>   -6.5876    1.0000 </r>
       <r>   -6.5100    1.0000 </r>
       <r>   -6.3878    1.0000 </r>
       <r>   -6.3525    1.0000 </r>
       <r>   -6.2862    1.0000 </r>
       <r>   -6.1912    1.0000 </r>
       <r>   -6.1067    1.0000 </r>
       <r>   -6.0215    1.0000 </r>
       <r>   -6.0063    1.0000 </r>
       <r>   -5.9572    1.0000 </r>
       <r>   -5.8332    1.0000 </r>
       <r>   -5.7913    1.0000 </r>
       <r>   -5.7229    1.0000 </r>
       <r>   -5.7053    1.0000 </r>
       <r>   -5.5398    1.0000 </r>
       <r>   -5.3296    1.0000 </r>
       <r>   -5.2591    1.0000 </r>
       <r>   -5.1393    1.0000 </r>
       <r>   -5.0467    1.0000 </r>
       <r>   -4.8810    1.0000 </r>
       <r>   -4.7279    1.0000 </r>
       <r>   -4.6152    1.0000 </r>
       <r>   -4.5693    1.0000 </r>
       <r>   -4.5293    1.0000 </r>
       <r>   -4.4027    1.0000 </r>
       <r>   -4.2585    1.0000 </r>
       <r>   -4.1615    1.0000 </r>
       <r>   -4.0105    1.0000 </r>
       <r>   -3.8936    1.0000 </r>
       <r>   -3.7253    0.9977 </r>
       <r>   -3.5966    0.9730 </r>
       <r>   -3.2138    0.2176 </r>
       <r>   -2.9608    0.0051 </r>
       <r>   -2.7573    0.0000 </r>
       <r>   -2.6936    0.0000 </r>
       <r>   -2.6147    0.0000 </r>
       <r>   -2.3727    0.0000 </r>
       <r>   -2.3259    0.0000 </r>
       <r>   -2.2881    0.0000 </r>
       <r>   -2.0705    0.0000 </r>
       <r>   -1.9989    0.0000 </r>
       <r>   -1.8840    0.0000 </r>
       <r>   -1.7799    0.0000 </r>
       <r>   -1.6428    0.0000 </r>
       <r>   -1.4365    0.0000 </r>
       <r>   -1.2761    0.0000 </r>
       <r>   -1.2460    0.0000 </r>
       <r>   -1.1912    0.0000 </r>
       <r>   -1.1450    0.0000 </r>
       <r>   -1.0468    0.0000 </r>
       <r>   -0.9222    0.0000 </r>
       <r>   -0.8697    0.0000 </r>
       <r>   -0.7900    0.0000 </r>
       <r>   -0.6986    0.0000 </r>
       <r>   -0.6649    0.0000 </r>
       <r>   -0.6000    0.0000 </r>
       <r>   -0.4656    0.0000 </r>
       <r>   -0.2776    0.0000 </r>
       <r>   -0.2191    0.0000 </r>
       <r>   -0.0910    0.0000 </r>
       <r>    0.0124    0.0000 </r>
       <r>    0.0757    0.0000 </r>
       <r>    0.3263    0.0000 </r>
       <r>    0.4818    0.0000 </r>
       <r>    0.8234    0.0000 </r>
       <r>    0.8389    0.0000 </r>
       <r>    1.0287    0.0000 </r>
       <r>    1.2914    0.0000 </r>
       <r>    1.5567    0.0000 </r>
       <r>    2.2012    0.0000 </r>
       <r>    2.2572    0.0000 </r>
       <r>    2.3822    0.0000 </r>
      </set>
     </set>
    </set>
   </array>
  </eigenvalues>
  <separator name="orbital magnetization" >
   <v name="MAGDIPOLOUT">      0.00000000      0.00000000      0.00000000</v>
  </separator>
 </calculation>
 <structure name="finalpos" >
  <crystal>
   <varray name="basis" >
    <v>       8.34233072       4.81853695       0.00000000 </v>
    <v>      -8.35945494       4.84790581       0.00000000 </v>
    <v>       0.00000000       0.00000000      30.00000000 </v>
   </varray>
   <i name="volume">   2421.69528198 </i>
   <varray name="rec_basis" >
    <v>       0.06005593       0.10355706       0.00000000 </v>
    <v>      -0.05969211       0.10334493       0.00000000 </v>
    <v>       0.00000000       0.00000000       0.03333333 </v>
   </varray>
  </crystal>
  <varray name="positions" >
   <v>       0.64722095       0.29388467      -0.00259753 </v>
   <v>       0.64410804      -0.02028041      -0.00008532 </v>
   <v>       1.01712658       0.36710333       0.00176525 </v>
   <v>       0.32293827      -0.02915826      -0.00091052 </v>
   <v>       0.65258466       0.68483180       0.00072571 </v>
   <v>       0.33729622       0.67145185       0.00050035 </v>
   <v>      -0.00928973      -0.03791778      -0.00276258 </v>
   <v>       0.02771383       0.68444473       0.00034663 </v>
   <v>       0.35065540       0.37731827       0.00183013 </v>
   <v>       0.11238772       0.22438094       0.95579486 </v>
   <v>       0.22458474       0.11789110       0.04388384 </v>
   <v>       0.11227404       0.55630654       0.94679831 </v>
   <v>       0.22058564       0.45016020       0.05486977 </v>
   <v>       0.11312015       0.88158727       0.94221501 </v>
   <v>       0.22367605       0.77590212       0.05683024 </v>
   <v>       0.43766857       0.22191256       0.95206556 </v>
   <v>       0.55352900       0.10269789       0.05121747 </v>
   <v>       0.44829216       0.56699027       0.94470832 </v>
   <v>       0.56308265       0.44638965       0.05001120 </v>
   <v>       0.45011232       0.89101463       0.94521452 </v>
   <v>       0.55520157       0.78691865       0.05578567 </v>
   <v>       0.78133241       0.21787656       0.95321641 </v>
   <v>       0.89183278       0.11308978       0.04091398 </v>
   <v>       0.77333597       0.54756644       0.95970763 </v>
   <v>       0.88404317       0.44057200       0.04842464 </v>
   <v>       0.77592575       0.89467140       0.94657934 </v>
   <v>       0.88687553       0.77060826       0.05295097 </v>
  </varray>
 </structure>
</modeling>
