unknown system                          
           1
     8.853256    5.105023    0.000000
    -8.854717    5.107537    0.000000
     0.000000    0.000000   30.000000
   V    Mo   W    S 
   3   3   3  18
Direct configuration=     1
   0.66666669  0.33333334  0.00000000
   0.66666669  0.00000000  0.00000000
   1.00000000  0.33333334  0.00000000
   0.33333334  0.00000000  0.00000000
   0.66666669  0.66666669  0.00000000
   0.33333334  0.66666669  0.00000000
   0.00000000  0.00000000  0.00000000
   0.00000000  0.66666669  0.00000000
   0.33333334  0.33333334  0.00000000
   0.11068511  0.22244981  0.95539999
   0.22244981  0.11068511  0.04460000
   0.11068511  0.55578315  0.95539999
   0.22244981  0.44401845  0.04460000
   0.11068511  0.88911647  0.95539999
   0.22244981  0.77735180  0.04460000
   0.44401845  0.22244981  0.95539999
   0.55578315  0.11068511  0.04460000
   0.44401845  0.55578315  0.95539999
   0.55578315  0.44401845  0.04460000
   0.44401845  0.88911647  0.95539999
   0.55578315  0.77735180  0.04460000
   0.77735180  0.22244981  0.95539999
   0.88911647  0.11068511  0.04460000
   0.77735180  0.55578315  0.95539999
   0.88911647  0.44401845  0.04460000
   0.77735180  0.88911647  0.95539999
   0.88911647  0.77735180  0.04460000
unknown system                          
           1
     8.665192    4.998739    0.000000
    -8.666739    5.001403    0.000000
     0.000000    0.000000   30.000000
   V    Mo   W    S 
   3   3   3  18
Direct configuration=     2
   0.66603249  0.33276923 -0.00007930
   0.66480088 -0.00127246 -0.00002267
   1.00016162  0.33393212 -0.00004557
   0.33344676 -0.00145801 -0.00010607
   0.66528307  0.66675953  0.00014863
   0.33488744  0.66819453  0.00019082
  -0.00045695 -0.00125852 -0.00010374
   0.00121386  0.66752960 -0.00021840
   0.33497983  0.33497789  0.00023672
   0.10893021  0.22397401  0.95201559
   0.22178151  0.11164237  0.04916758
   0.10826093  0.55146720  0.95197147
   0.21819242  0.44171147  0.04806222
   0.11016655  0.88832300  0.95060138
   0.22123835  0.77709176  0.04925306
   0.44831011  0.22462328  0.95193963
   0.55991568  0.11299262  0.04688317
   0.44382949  0.55447409  0.95076108
   0.55678342  0.44145877  0.04805366
   0.44879775  0.89108602  0.95190005
   0.55758594  0.78202680  0.04812031
   0.77753468  0.22231666  0.95417358
   0.88704918  0.11276176  0.04692093
   0.77655048  0.55149433  0.95202368
   0.88722345  0.44078938  0.04686745
   0.77634513  0.89177504  0.95201468
   0.88937019  0.77803198  0.04926995
unknown system                          
           1
     8.483661    4.899330    0.000000
    -8.484317    4.900453    0.000000
     0.000000    0.000000   30.000000
   V    Mo   W    S 
   3   3   3  18
Direct configuration=     3
   0.66574773  0.33267482 -0.00012709
   0.66420803 -0.00176925 -0.00001620
   1.00029323  0.33412595 -0.00004746
   0.33280744 -0.00227474 -0.00008744
   0.66467926  0.66664393  0.00012660
   0.33540427  0.66860028  0.00020778
  -0.00035892 -0.00197281 -0.00007713
   0.00189924  0.66845912 -0.00025167
   0.33560286  0.33567225  0.00025672
   0.10902128  0.22386648  0.95209780
   0.22167236  0.11174528  0.04911102
   0.10808568  0.55150748  0.95199865
   0.21822934  0.44153805  0.04805734
   0.10993089  0.88820348  0.95049941
   0.22099165  0.77693967  0.04933055
   0.44828933  0.22479549  0.95197726
   0.56003599  0.11306292  0.04684015
   0.44368779  0.55424279  0.95070980
   0.55660051  0.44129959  0.04811636
   0.44897583  0.89119377  0.95181516
   0.55768191  0.78220877  0.04823030
   0.77752249  0.22229105  0.95428406
   0.88711374  0.11266511  0.04678397
   0.77671746  0.55150791  0.95209986
   0.88725654  0.44093783  0.04677774
   0.77653289  0.89195154  0.95202423
   0.88958563  0.77809773  0.04926212
unknown system                          
           1
     8.268334    4.777653    0.000000
    -8.272442    4.784752    0.000000
     0.000000    0.000000   30.000000
   V    Mo   W    S 
   3   3   3  18
Direct configuration=     4
   0.66444865  0.33269614 -0.00026461
   0.66198114 -0.00403221  0.00002085
   1.00131576  0.33498478 -0.00003056
   0.32911133 -0.00592743  0.00000087
   0.66208379  0.66591553  0.00000229
   0.33720519  0.66970268  0.00018435
   0.00071126 -0.00494817  0.00005731
   0.00502102  0.67303906 -0.00027271
   0.33781205  0.33845298  0.00021758
   0.10872775  0.22416327  0.95099615
   0.22167706  0.11184611  0.05046760
   0.10766248  0.55059070  0.95066248
   0.21722461  0.44103945  0.04950570
   0.10987801  0.88822197  0.94835176
   0.22083414  0.77663740  0.05124731
   0.44919245  0.22527760  0.95071185
   0.56116060  0.11366364  0.04796549
   0.44344812  0.55418146  0.94889921
   0.55728551  0.44080195  0.04986843
   0.45038556  0.89192952  0.95005981
   0.55846334  0.78377727  0.05012937
   0.77749618  0.22211890  0.95349827
   0.88657032  0.11304327  0.04755489
   0.77623733  0.55050791  0.95097745
   0.88666816  0.44009594  0.04773017
   0.77608414  0.89263135  0.95062056
   0.88952848  0.77780338  0.05083803
unknown system                          
           1
     8.266122    4.782648    0.000000
    -8.271278    4.791571    0.000000
     0.000000    0.000000   30.000000
   V    Mo   W    S 
   3   3   3  18
Direct configuration=     5
   0.66220864  0.33300434 -0.00036130
   0.65826561 -0.00786880  0.00011246
   1.00289091  0.33648100  0.00005207
   0.32025619 -0.01392549  0.00010074
   0.65592764  0.66369017 -0.00013190
   0.34062887  0.67094862  0.00004936
   0.00370343 -0.01107256  0.00023148
   0.01187172  0.68280351 -0.00015858
   0.34251697  0.34524406  0.00006605
   0.10869580  0.22418717  0.94981721
   0.22223374  0.11217483  0.05211662
   0.10786674  0.55041481  0.94896253
   0.21671816  0.44127536  0.05156223
   0.11045138  0.88847964  0.94481831
   0.22111138  0.77598469  0.05399010
   0.44962301  0.22490391  0.94922873
   0.56131649  0.11361485  0.04941669
   0.44326145  0.55475905  0.94625590
   0.55833179  0.44075873  0.05234172
   0.45152116  0.89263763  0.94771090
   0.55913850  0.78539297  0.05286660
   0.77724466  0.22161702  0.95222179
   0.88593585  0.11289201  0.04840527
   0.77615927  0.55010483  0.94968634
   0.88635238  0.44001162  0.04881940
   0.77554460  0.89313397  0.94891937
   0.88843811  0.77656653  0.05289978
unknown system                          
           1
     8.266388    4.786126    0.000000
    -8.270635    4.793484    0.000000
     0.000000    0.000000   30.000000
   V    Mo   W    S 
   3   3   3  18
Direct configuration=     6
   0.66195200  0.33302877 -0.00041190
   0.65743275 -0.00836391  0.00010266
   1.00274845  0.33693925  0.00002286
   0.31811429 -0.01579339  0.00006916
   0.65369674  0.66266944 -0.00006161
   0.34127846  0.67030463  0.00005451
   0.00486071 -0.01255893  0.00013729
   0.01357769  0.68457697 -0.00008249
   0.34388129  0.34826508  0.00002307
   0.10911457  0.22379102  0.95007821
   0.22288703  0.11262390  0.05198951
   0.10821177  0.55132612  0.94899074
   0.21746928  0.44181130  0.05170998
   0.11072550  0.88857578  0.94411992
   0.22153397  0.77549395  0.05431888
   0.44872546  0.22412569  0.94946044
   0.55993799  0.11281737  0.04934482
   0.44326681  0.55530422  0.94575676
   0.55833988  0.44122135  0.05255534
   0.45092183  0.89253421  0.94763219
   0.55896106  0.78509660  0.05309795
   0.77702341  0.22145586  0.95221268
   0.88635587  0.11201227  0.04818741
   0.77693532  0.55116671  0.94994237
   0.88691341  0.44127200  0.04868985
   0.77578025  0.89282190  0.94906347
   0.88756867  0.77569628  0.05299582
unknown system                          
           1
     8.275474    4.795313    0.000000
    -8.280930    4.804767    0.000000
     0.000000    0.000000   30.000000
   V    Mo   W    S 
   3   3   3  18
Direct configuration=     7
   0.66167530  0.33290660 -0.00053292
   0.65593859 -0.00892171  0.00013611
   1.00225866  0.33785923  0.00002780
   0.31488241 -0.01926084  0.00006338
   0.64994555  0.66107348 -0.00002754
   0.34242552  0.66920862  0.00004158
   0.00636092 -0.01530957  0.00015463
   0.01662286  0.68773030 -0.00001886
   0.34605748  0.35332512 -0.00006003
   0.10972569  0.22341351  0.95051805
   0.22376363  0.11345757  0.05161942
   0.10862468  0.55220308  0.94902696
   0.21818543  0.44236834  0.05192630
   0.11101456  0.88829189  0.94333895
   0.22211337  0.77490972  0.05465820
   0.44762564  0.22339833  0.94992877
   0.55835050  0.11197114  0.04915922
   0.44337202  0.55605701  0.94505062
   0.55829016  0.44174181  0.05281251
   0.45028304  0.89229617  0.94758899
   0.55875535  0.78488444  0.05336479
   0.77679295  0.22129617  0.95229832
   0.88698907  0.11101019  0.04768601
   0.77782203  0.55240123  0.95044355
   0.88752070  0.44261349  0.04850598
   0.77610810  0.89244062  0.94936337
   0.88671026  0.77484853  0.05292573
unknown system                          
           1
     8.279756    4.802850    0.000000
    -8.286540    4.814605    0.000000
     0.000000    0.000000   30.000000
   V    Mo   W    S 
   3   3   3  18
Direct configuration=     8
   0.66157051  0.33277482 -0.00062292
   0.65487111 -0.00914535  0.00016819
   1.00190388  0.33873752  0.00003630
   0.31349618 -0.02118880  0.00004585
   0.64784451  0.66030613 -0.00000622
   0.34303968  0.66846418  0.00002826
   0.00705624 -0.01690129  0.00011426
   0.01822160  0.68898889  0.00002889
   0.34716215  0.35628672 -0.00008271
   0.11006056  0.22326964  0.95082827
   0.22442246  0.11411176  0.05134097
   0.10880161  0.55253068  0.94901659
   0.21846283  0.44260912  0.05208321
   0.11122170  0.88810294  0.94289555
   0.22248962  0.77448028  0.05489402
   0.44695722  0.22306509  0.95025465
   0.55754274  0.11155236  0.04906326
   0.44347621  0.55660555  0.94454991
   0.55828089  0.44203437  0.05295165
   0.45000529  0.89215663  0.94753961
   0.55868551  0.78482633  0.05353121
   0.77667864  0.22123911  0.95235556
   0.88738296  0.11047206  0.04732512
   0.77828772  0.55307612  0.95078208
   0.88781961  0.44325429  0.04842307
   0.77630677  0.89229960  0.94956491
   0.88616626  0.77420570  0.05289037
unknown system                          
           1
     8.285328    4.804913    0.000000
    -8.292475    4.817290    0.000000
     0.000000    0.000000   30.000000
   V    Mo   W    S 
   3   3   3  18
Direct configuration=     9
   0.66157702  0.33244836 -0.00079165
   0.65305812 -0.00932202  0.00024965
   1.00150686  0.34073084  0.00007147
   0.31249281 -0.02358299  0.00002739
   0.64545896  0.65975348  0.00001865
   0.34361288  0.66742988  0.00001281
   0.00756115 -0.01911643  0.00005978
   0.02011477  0.68981073  0.00008488
   0.34815921  0.35992767 -0.00008421
   0.11045088  0.22314589  0.95139931
   0.22534488  0.11505924  0.05074633
   0.10897806  0.55265044  0.94901119
   0.21868968  0.44289424  0.05223417
   0.11151229  0.88763202  0.94255094
   0.22300161  0.77389078  0.05510061
   0.44599121  0.22277422  0.95081840
   0.55669723  0.11111869  0.04892440
   0.44365836  0.55736037  0.94396923
   0.55821510  0.44246846  0.05299453
   0.44976590  0.89186655  0.94750794
   0.55858385  0.78478770  0.05364530
   0.77658785  0.22121706  0.95249109
   0.88798720  0.10988388  0.04664011
   0.77881676  0.55390259  0.95135666
   0.88813536  0.44384269  0.04832978
   0.77661048  0.89224330  0.94993079
   0.88564596  0.77339680  0.05270034
unknown system                          
           1
     8.290326    4.808544    0.000000
    -8.298302    4.822353    0.000000
     0.000000    0.000000   30.000000
   V    Mo   W    S 
   3   3   3  18
Direct configuration=    10
   0.66156675  0.33242037 -0.00079384
   0.65303493 -0.00928139  0.00025448
   1.00158115  0.34090027  0.00007925
   0.31289453 -0.02330513  0.00002166
   0.64582004  0.65994552  0.00001159
   0.34349370  0.66756132  0.00001299
   0.00737145 -0.01896650  0.00004733
   0.01987563  0.68940798  0.00007926
   0.34799150  0.35950240 -0.00007632
   0.11037913  0.22316096  0.95137452
   0.22531900  0.11502383  0.05076095
   0.10896254  0.55255608  0.94896410
   0.21860207  0.44286775  0.05224520
   0.11152120  0.88760330  0.94261030
   0.22297837  0.77392494  0.05509419
   0.44606103  0.22282018  0.95078494
   0.55684658  0.11122049  0.04896437
   0.44367229  0.55731853  0.94401895
   0.55824176  0.44244083  0.05297121
   0.44983608  0.89186989  0.94748193
   0.55860037  0.78483048  0.05363842
   0.77658658  0.22122550  0.95247429
   0.88793651  0.10996299  0.04665243
   0.77873460  0.55379194  0.95132443
   0.88802703  0.44370164  0.04838262
   0.77657856  0.89230550  0.94989890
   0.88570109  0.77340476  0.05272173
unknown system                          
           1
     8.293567    4.810533    0.000000
    -8.301993    4.825118    0.000000
     0.000000    0.000000   30.000000
   V    Mo   W    S 
   3   3   3  18
Direct configuration=    11
   0.66151796  0.33210002 -0.00091104
   0.65172221 -0.00935152  0.00031932
   1.00153907  0.34270605  0.00012632
   0.31278778 -0.02452265  0.00000843
   0.64486293  0.65992137  0.00001744
   0.34363386  0.66715270  0.00001133
   0.00737644 -0.02035308  0.00000864
   0.02085685  0.68943369  0.00010267
   0.34844304  0.36126191 -0.00006698
   0.11048055  0.22307129  0.95172513
   0.22581778  0.11548011  0.05037260
   0.10908443  0.55250495  0.94886928
   0.21865723  0.44303799  0.05233298
   0.11171910  0.88719161  0.94253188
   0.22326001  0.77364845  0.05518158
   0.44555005  0.22269218  0.95109637
   0.55657448  0.11113079  0.04894773
   0.44380799  0.55767201  0.94380295
   0.55823536  0.44269589  0.05292431
   0.44979401  0.89165986  0.94741813
   0.55854104  0.78485162  0.05367187
   0.77650319  0.22123010  0.95254629
   0.88823968  0.10972085  0.04619510
   0.77894182  0.55413178  0.95165434
   0.88800557  0.44382465  0.04842170
   0.77671496  0.89238519  0.95008509
   0.88554707  0.77293665  0.05260643
unknown system                          
           1
     8.301902    4.815019    0.000000
    -8.312022    4.832524    0.000000
     0.000000    0.000000   30.000000
   V    Mo   W    S 
   3   3   3  18
Direct configuration=    12
   0.66149102  0.33197531 -0.00095519
   0.65124742 -0.00939506  0.00034242
   1.00157520  0.34339107  0.00014469
   0.31282665 -0.02487930  0.00000134
   0.64460761  0.65997263  0.00001755
   0.34366385  0.66704529  0.00000862
   0.00734340 -0.02080545 -0.00000837
   0.02114607  0.68934690  0.00011108
   0.34854787  0.36176984 -0.00006042
   0.11049466  0.22303267  0.95184388
   0.22598359  0.11562370  0.05024723
   0.10912795  0.55248820  0.94882110
   0.21866645  0.44309673  0.05237150
   0.11179498  0.88704862  0.94249375
   0.22336091  0.77355430  0.05522558
   0.44536687  0.22263438  0.95118885
   0.55648485  0.11109980  0.04895546
   0.44385672  0.55780105  0.94372597
   0.55824726  0.44278430  0.05291682
   0.44977975  0.89158979  0.94738410
   0.55852557  0.78487181  0.05369161
   0.77648048  0.22122925  0.95256772
   0.88834226  0.10965063  0.04603538
   0.77901301  0.55424564  0.95175800
   0.88798866  0.44386174  0.04844979
   0.77675579  0.89242603  0.95013781
   0.88549559  0.77275457  0.05258360
unknown system                          
           1
     8.313776    4.821283    0.000000
    -8.326587    4.843426    0.000000
     0.000000    0.000000   30.000000
   V    Mo   W    S 
   3   3   3  18
Direct configuration=    13
   0.66132174  0.33142648 -0.00113387
   0.64930199 -0.00964994  0.00043503
   1.00180945  0.34614776  0.00022566
   0.31303403 -0.02621610 -0.00002324
   0.64378056  0.66030333  0.00001933
   0.34383002  0.66681092  0.00000295
   0.00713994 -0.02262093 -0.00007052
   0.02223884  0.68901986  0.00013782
   0.34894770  0.36360770 -0.00002739
   0.11050779  0.22286412  0.95232569
   0.22656262  0.11609941  0.04973463
   0.10929381  0.55241315  0.94861895
   0.21872907  0.44333726  0.05249894
   0.11207567  0.88643449  0.94240902
   0.22373022  0.77323969  0.05535896
   0.44465649  0.22241999  0.95154129
   0.55620063  0.11098256  0.04898881
   0.44404820  0.55824520  0.94350587
   0.55827678  0.44315142  0.05284475
   0.44976155  0.89132124  0.94725583
   0.55846123  0.78494935  0.05373685
   0.77637426  0.22122301  0.95267069
   0.88870479  0.10939736  0.04537904
   0.77925932  0.55465580  0.95217117
   0.88788549  0.44395717  0.04857266
   0.77689110  0.89262312  0.95034541
   0.88539116  0.77207102  0.05247557
unknown system                          
           1
     8.327331    4.824659    0.000000
    -8.344951    4.855075    0.000000
     0.000000    0.000000   30.000000
   V    Mo   W    S 
   3   3   3  18
Direct configuration=    14
   0.66093487  0.33025244 -0.00147026
   0.64570795 -0.01017399  0.00060584
   1.00284272  0.35167577  0.00040317
   0.31377861 -0.02837454 -0.00006890
   0.64273789  0.66122288  0.00001482
   0.34366893  0.66641584 -0.00001551
   0.00648389 -0.02587750 -0.00019855
   0.02413441  0.68792174  0.00017938
   0.34935674  0.36650390  0.00005669
   0.11033863  0.22255331  0.95320072
   0.22749926  0.11679139  0.04884244
   0.10961474  0.55227034  0.94819578
   0.21877234  0.44377521  0.05271337
   0.11257447  0.88526638  0.94228901
   0.22439570  0.77274386  0.05560687
   0.44340637  0.22203522  0.95208627
   0.55579809  0.11091896  0.04914025
   0.44437155  0.55897769  0.94319918
   0.55843625  0.44378420  0.05269039
   0.44967926  0.89079760  0.94694065
   0.55837812  0.78514659  0.05385249
   0.77629079  0.22127267  0.95287647
   0.88938174  0.10919628  0.04415759
   0.77962021  0.55525767  0.95288115
   0.88756947  0.44400502  0.04884769
   0.77708892  0.89304762  0.95062361
   0.88535255  0.77080790  0.05234931
unknown system                          
           1
     8.321143    4.819412    0.000000
    -8.339065    4.850337    0.000000
     0.000000    0.000000   30.000000
   V    Mo   W    S 
   3   3   3  18
Direct configuration=    15
   0.66012075  0.32853798 -0.00189483
   0.64172283 -0.01103808  0.00079103
   1.00484121  0.35755313  0.00065307
   0.31501507 -0.03033227 -0.00016792
   0.64220760  0.66278613  0.00001607
   0.34329937  0.66652999 -0.00003857
   0.00540686 -0.02935065 -0.00034494
   0.02610741  0.68637685  0.00021161
   0.34954100  0.36904559  0.00019449
   0.10995803  0.22224802  0.95418675
   0.22834143  0.11738131  0.04781035
   0.11003012  0.55227451  0.94757509
   0.21869565  0.44435347  0.05302682
   0.11316098  0.88372993  0.94221806
   0.22516341  0.77227005  0.05592293
   0.44197166  0.22159507  0.95261145
   0.55539373  0.11089282  0.04940081
   0.44475965  0.55979708  0.94297200
   0.55867343  0.44452708  0.05245578
   0.44955185  0.89021095  0.94652311
   0.55824381  0.78542567  0.05397658
   0.77635855  0.22137340  0.95318571
   0.88998692  0.10932586  0.04269943
   0.77993691  0.55581131  0.95369446
   0.88710578  0.44407313  0.04923177
   0.77713339  0.89358122  0.95082915
   0.88548705  0.76923489  0.05225962
unknown system                          
           1
     8.334982    4.824704    0.000000
    -8.357336    4.863263    0.000000
     0.000000    0.000000   30.000000
   V    Mo   W    S 
   3   3   3  18
Direct configuration=    16
   0.65944948  0.32748864 -0.00191867
   0.64209253 -0.01157230  0.00075618
   1.00633069  0.35672079  0.00079646
   0.31547094 -0.02977357 -0.00016264
   0.64304799  0.66372858  0.00001287
   0.34273594  0.66717956 -0.00008942
   0.00493015 -0.02933835 -0.00044922
   0.02621180  0.68603548  0.00020092
   0.34910481  0.36861130  0.00031215
   0.10975094  0.22232386  0.95418871
   0.22797000  0.11711689  0.04767142
   0.11017177  0.55265104  0.94746169
   0.21873677  0.44466258  0.05310455
   0.11308600  0.88335597  0.94233543
   0.22527585  0.77256949  0.05592238
   0.44164282  0.22154900  0.95245771
   0.55538788  0.11099133  0.04952274
   0.44476568  0.55981899  0.94321658
   0.55876577  0.44465155  0.05233180
   0.44943954  0.89020954  0.94641200
   0.55821014  0.78561239  0.05402102
   0.77658543  0.22144365  0.95335437
   0.88959125  0.10987134  0.04255520
   0.77978659  0.55560443  0.95382322
   0.88705956  0.44411439  0.04920237
   0.77686372  0.89361770  0.95064790
   0.88575041  0.76897020  0.05231219
unknown system                          
           1
     8.332385    4.821526    0.000000
    -8.355121    4.860730    0.000000
     0.000000    0.000000   30.000000
   V    Mo   W    S 
   3   3   3  18
Direct configuration=    17
   0.65842450  0.32531314 -0.00227616
   0.63839750 -0.01260866  0.00089709
   1.00856343  0.36229350  0.00106187
   0.31675915 -0.03148796 -0.00026235
   0.64267267  0.66541331  0.00004559
   0.34220844  0.66729190 -0.00012127
   0.00360703 -0.03287871 -0.00061486
   0.02816735  0.68464682  0.00024340
   0.34935621  0.37117082  0.00045818
   0.10940353  0.22202261  0.95503871
   0.22863833  0.11768635  0.04673212
   0.11052647  0.55258505  0.94691265
   0.21879978  0.44536311  0.05344897
   0.11357116  0.88196524  0.94225063
   0.22602269  0.77226830  0.05622852
   0.44018757  0.22119685  0.95288079
   0.55505562  0.11097813  0.04977622
   0.44508070  0.56056702  0.94303983
   0.55899566  0.44537724  0.05211399
   0.44933990  0.88976460  0.94601315
   0.55807332  0.78592678  0.05416686
   0.77667413  0.22150147  0.95365200
   0.89009056  0.10998438  0.04125043
   0.78007067  0.55604786  0.95460894
   0.88670627  0.44408541  0.04947208
   0.77688103  0.89412467  0.95075322
   0.88594079  0.76761522  0.05222930
unknown system                          
           1
     8.331801    4.821015    0.000000
    -8.354677    4.860460    0.000000
     0.000000    0.000000   30.000000
   V    Mo   W    S 
   3   3   3  18
Direct configuration=    18
   0.65790971  0.32434926 -0.00227818
   0.63886801 -0.01285519  0.00085080
   1.00907763  0.36168860  0.00109803
   0.31692998 -0.03098570 -0.00027807
   0.64302618  0.66581378  0.00005121
   0.34196833  0.66747234 -0.00012568
   0.00340777 -0.03267581 -0.00066063
   0.02809778  0.68465312  0.00022806
   0.34925855  0.37097102  0.00050152
   0.10945258  0.22208421  0.95496177
   0.22827421  0.11755085  0.04672016
   0.11057582  0.55265162  0.94694378
   0.21896391  0.44562536  0.05351609
   0.11351598  0.88194121  0.94227014
   0.22607223  0.77250649  0.05623897
   0.44009312  0.22131207  0.95277982
   0.55509246  0.11099379  0.04980740
   0.44508926  0.56061726  0.94313065
   0.55900995  0.44542508  0.05208469
   0.44930540  0.88985173  0.94599206
   0.55800705  0.78601952  0.05419625
   0.77677972  0.22147593  0.95369353
   0.88987829  0.11011319  0.04133231
   0.77998314  0.55583904  0.95469103
   0.88680050  0.44405752  0.04937874
   0.77676492  0.89406285  0.95061983
   0.88601195  0.76765530  0.05225564
unknown system                          
           1
     8.332689    4.820787    0.000000
    -8.356095    4.861142    0.000000
     0.000000    0.000000   30.000000
   V    Mo   W    S 
   3   3   3  18
Direct configuration=    19
   0.65773416  0.32401786 -0.00228184
   0.63886152 -0.01294172  0.00084297
   1.00925348  0.36173789  0.00111581
   0.31699578 -0.03093910 -0.00028198
   0.64308952  0.66595605  0.00005714
   0.34190534  0.66750380 -0.00012531
   0.00329595 -0.03277653 -0.00067790
   0.02816090  0.68465807  0.00022862
   0.34926487  0.37103246  0.00051670
   0.10945453  0.22208257  0.95496650
   0.22822449  0.11755576  0.04669565
   0.11059702  0.55266023  0.94693191
   0.21901492  0.44570836  0.05354135
   0.11351168  0.88190394  0.94226923
   0.22610253  0.77256481  0.05624526
   0.44002431  0.22133365  0.95276210
   0.55509940  0.11100168  0.04982405
   0.44509527  0.56064973  0.94314380
   0.55902591  0.44545648  0.05207291
   0.44929117  0.88985943  0.94597579
   0.55798665  0.78604376  0.05420900
   0.77680326  0.22146262  0.95370282
   0.88986511  0.11013338  0.04131836
   0.77997000  0.55579782  0.95473554
   0.88680209  0.44404522  0.04936457
   0.77674636  0.89406491  0.95058953
   0.88603826  0.76764132  0.05225732
unknown system                          
           1
     8.329158    4.820143    0.000000
    -8.351835    4.859249    0.000000
     0.000000    0.000000   30.000000
   V    Mo   W    S 
   3   3   3  18
Direct configuration=    20
   0.65730399  0.32317460 -0.00232345
   0.63857745 -0.01319061  0.00083827
   1.00977182  0.36221466  0.00117184
   0.31726168 -0.03094032 -0.00029593
   0.64319817  0.66638642  0.00006573
   0.34174132  0.66759621 -0.00012693
   0.00300470 -0.03317852 -0.00072777
   0.02841269  0.68452066  0.00022989
   0.34925813  0.37131216  0.00056090
   0.10943383  0.22206763  0.95504663
   0.22816313  0.11759687  0.04656715
   0.11066626  0.55268001  0.94687022
   0.21910962  0.44592236  0.05361320
   0.11354180  0.88171839  0.94226465
   0.22622194  0.77265707  0.05628112
   0.43978347  0.22135069  0.95276182
   0.55508460  0.11100549  0.04987488
   0.44514070  0.56078063  0.94315898
   0.55908017  0.44557433  0.05202902
   0.44926003  0.88983883  0.94591544
   0.55793816  0.78612878  0.05424426
   0.77686318  0.22144084  0.95374964
   0.88986087  0.11019829  0.04118483
   0.77995601  0.55573615  0.95489178
   0.88678408  0.44402891  0.04935603
   0.77670099  0.89410209  0.95054012
   0.88609565  0.76749184  0.05225755
unknown system                          
           1
     8.327878    4.818036    0.000000
    -8.351628    4.858987    0.000000
     0.000000    0.000000   30.000000
   V    Mo   W    S 
   3   3   3  18
Direct configuration=    21
   0.65752739  0.32365934 -0.00225651
   0.63894131 -0.01309340  0.00082449
   1.00947579  0.36159229  0.00113119
   0.31707361 -0.03081744 -0.00028295
   0.64320481  0.66611019  0.00007061
   0.34187794  0.66758386 -0.00011907
   0.00311891 -0.03283827 -0.00069914
   0.02817964  0.68475241  0.00023361
   0.34926489  0.37103702  0.00053514
   0.10946449  0.22207493  0.95492836
   0.22812288  0.11755922  0.04670561
   0.11058918  0.55264771  0.94692436
   0.21910618  0.44579947  0.05357201
   0.11346242  0.88191202  0.94226411
   0.22611064  0.77266535  0.05624783
   0.43995225  0.22138048  0.95270981
   0.55512923  0.11100890  0.04983787
   0.44508926  0.56065054  0.94316650
   0.55904216  0.44548556  0.05207171
   0.44928699  0.88991056  0.94596322
   0.55797255  0.78606079  0.05422492
   0.77683190  0.22143589  0.95369841
   0.88983029  0.11013150  0.04135668
   0.77994342  0.55575085  0.95475557
   0.88681692  0.44401668  0.04933449
   0.77673064  0.89405558  0.95053505
   0.88606878  0.76768243  0.05226604
unknown system                          
           1
     8.328174    4.818109    0.000000
    -8.351976    4.859148    0.000000
     0.000000    0.000000   30.000000
   V    Mo   W    S 
   3   3   3  18
Direct configuration=    22
   0.65679059  0.32219232 -0.00228305
   0.63877130 -0.01354728  0.00079347
   1.01038136  0.36217967  0.00120550
   0.31741252 -0.03061783 -0.00031002
   0.64347118  0.66680570  0.00008043
   0.34151115  0.66762724 -0.00012530
   0.00263563 -0.03328383 -0.00077922
   0.02847798  0.68457511  0.00021788
   0.34921933  0.37138026  0.00059993
   0.10945743  0.22207764  0.95499017
   0.22792783  0.11759953  0.04656409
   0.11064592  0.55262602  0.94687728
   0.21927631  0.44615493  0.05369204
   0.11348786  0.88173162  0.94225025
   0.22627973  0.77291111  0.05629961
   0.43957304  0.22143202  0.95263668
   0.55512201  0.11094885  0.04993374
   0.44515014  0.56084398  0.94321212
   0.55912865  0.44565260  0.05202810
   0.44923641  0.88993019  0.94588167
   0.55788916  0.78619957  0.05429847
   0.77700628  0.22134386  0.95374345
   0.88981577  0.11025987  0.04124334
   0.77989728  0.55559619  0.95496861
   0.88687859  0.44396177  0.04928160
   0.77662586  0.89407515  0.95040483
   0.88614515  0.76755820  0.05229422
unknown system                          
           1
     8.329026    4.817137    0.000000
    -8.355250    4.862350    0.000000
     0.000000    0.000000   30.000000
   V    Mo   W    S 
   3   3   3  18
Direct configuration=    23
   0.65673808  0.32209113 -0.00228551
   0.63876359 -0.01356876  0.00079141
   1.01042270  0.36220107  0.00121004
   0.31744165 -0.03059863 -0.00031156
   0.64348931  0.66684770  0.00008186
   0.34149724  0.66763661 -0.00012469
   0.00260557 -0.03330698 -0.00078331
   0.02849007  0.68457035  0.00021798
   0.34922086  0.37139276  0.00060372
   0.10945913  0.22207874  0.95499223
   0.22791566  0.11760349  0.04655733
   0.11065003  0.55262687  0.94687321
   0.21928708  0.44617479  0.05369952
   0.11348810  0.88172366  0.94224886
   0.22628725  0.77292739  0.05630203
   0.43955838  0.22144007  0.95263211
   0.55512510  0.11094619  0.04993865
   0.44515380  0.56085453  0.94321397
   0.55913430  0.44566034  0.05202496
   0.44923460  0.88993324  0.94587772
   0.55788455  0.78620764  0.05430254
   0.77701273  0.22133718  0.95374572
   0.88981431  0.11026558  0.04123910
   0.77989129  0.55558017  0.95498206
   0.88687909  0.44395911  0.04927817
   0.77661957  0.89407549  0.95039631
   0.88615039  0.76755471  0.05229547
unknown system                          
           1
     8.330109    4.814985    0.000000
    -8.358876    4.864566    0.000000
     0.000000    0.000000   30.000000
   V    Mo   W    S 
   3   3   3  18
Direct configuration=    24
   0.65595011  0.32058987 -0.00232873
   0.63874427 -0.01400654  0.00076741
   1.01127588  0.36289527  0.00128427
   0.31751365 -0.03047836 -0.00032709
   0.64372690  0.66756297  0.00010559
   0.34108042  0.66754471 -0.00011082
   0.00215399 -0.03373764 -0.00084832
   0.02885565  0.68454347  0.00019910
   0.34924614  0.37180055  0.00065865
   0.10939942  0.22206238  0.95502197
   0.22779057  0.11759342  0.04648543
   0.11068269  0.55264639  0.94688602
   0.21937815  0.44640694  0.05371551
   0.11346416  0.88167181  0.94227232
   0.22635410  0.77304085  0.05628394
   0.43953434  0.22152979  0.95260254
   0.55513825  0.11099538  0.04998084
   0.44520681  0.56104273  0.94326617
   0.55922512  0.44573385  0.05198046
   0.44911238  0.88984401  0.94586331