   27   27  100    1
  0.9710400E+02  0.1002848E-08  0.1002848E-08  0.3000000E-08  0.5000000E-15
  1.000000000000000E-004
  CAR 
 unknown system                          
    159     34    120
 
  0.0000000E+00  0.0000000E+00  0.0000000E+00  0.1562500E-01
    1      -17.797867   1.000000
    2      -16.703616   1.000000
    3      -16.629032   1.000000
    4      -16.576301   1.000000
    5      -16.530507   1.000000
    6      -16.495853   1.000000
    7      -16.419867   1.000000
    8      -16.276579   1.000000
    9      -16.159041   1.000000
   10      -16.086850   1.000000
   11      -16.032043   1.000000
   12      -15.988696   1.000000
   13      -15.865119   1.000000
   14      -15.705013   1.000000
   15      -15.619157   1.000000
   16      -15.492676   1.000000
   17      -15.439068   1.000000
   18      -15.263213   1.000000
   19       -9.262565   1.000000
   20       -8.982039   1.000000
   21       -8.943153   1.000000
   22       -8.848467   1.000000
   23       -8.772935   1.000000
   24       -8.695095   1.000000
   25       -8.592442   1.000000
   26       -8.564568   1.000000
   27       -8.512208   1.000000
   28       -8.503922   1.000000
   29       -8.411077   1.000000
   30       -8.326907   1.000000
   31       -8.294880   1.000000
   32       -8.139919   1.000000
   33       -8.033369   1.000000
   34       -7.901172   1.000000
   35       -7.869025   1.000000
   36       -7.791247   1.000000
   37       -7.759078   1.000000
   38       -7.520791   1.000000
   39       -7.489510   1.000000
   40       -7.398642   1.000000
   41       -7.390456   1.000000
   42       -7.354762   1.000000
   43       -7.054995   1.000000
   44       -6.916484   1.000000
   45       -6.809243   1.000000
   46       -6.798900   1.000000
   47       -6.727689   1.000000
   48       -6.594922   1.000000
   49       -6.536296   1.000000
   50       -6.475479   1.000000
   51       -6.413455   1.000000
   52       -6.395880   1.000000
   53       -6.336427   1.000000
   54       -6.291687   1.000000
   55       -6.256138   1.000000
   56       -6.159238   1.000000
   57       -5.981469   1.000000
   58       -5.867236   1.000000
   59       -5.727489   1.000000
   60       -5.632206   1.000000
   61       -5.520888   1.000000
   62       -5.441077   1.000000
   63       -5.235415   1.000000
   64       -5.165201   1.000000
   65       -5.082153   1.000000
   66       -4.984560   1.000000
   67       -4.958535   1.000000
   68       -4.821782   1.000000
   69       -4.799680   1.000000
   70       -4.730424   1.000000
   71       -4.667735   1.000000
   72       -4.609200   1.000000
   73       -4.560536   1.000000
   74       -4.233231   1.000000
   75       -3.946318   0.999989
   76       -3.933811   0.999984
   77       -3.806109   0.999428
   78       -3.705484   0.994476
   79       -3.560351   0.935102
   80       -3.421565   0.703173
   81       -3.301339   0.375782
   82       -2.799920   0.000056
   83       -2.657967   0.000001
   84       -2.553493   0.000000
   85       -2.443103   0.000000
   86       -2.385988   0.000000
   87       -2.259279   0.000000
   88       -2.206433   0.000000
   89       -2.123326   0.000000
   90       -2.069849   0.000000
   91       -1.835892   0.000000
   92       -1.662453   0.000000
   93       -1.492436   0.000000
   94       -1.399977   0.000000
   95       -1.203835   0.000000
   96       -1.026773   0.000000
   97       -0.934262   0.000000
   98       -0.847881   0.000000
   99       -0.770398   0.000000
  100       -0.626532   0.000000
  101       -0.544684   0.000000
  102       -0.504128   0.000000
  103       -0.487896   0.000000
  104       -0.417118   0.000000
  105       -0.326155   0.000000
  106       -0.133281   0.000000
  107       -0.079444   0.000000
  108        0.036690   0.000000
  109        0.119702   0.000000
  110        0.191783   0.000000
  111        0.338420   0.000000
  112        0.445243   0.000000
  113        0.665919   0.000000
  114        0.923701   0.000000
  115        0.990243   0.000000
  116        1.048804   0.000000
  117        1.168928   0.000000
  118        1.644944   0.000000
  119        1.833148   0.000000
  120        2.143423   0.000000
 
  0.1250000E+00  0.2775558E-16  0.0000000E+00  0.3125000E-01
    1      -17.772801   1.000000
    2      -16.777336   1.000000
    3      -16.688886   1.000000
    4      -16.614018   1.000000
    5      -16.548219   1.000000
    6      -16.424997   1.000000
    7      -16.386550   1.000000
    8      -16.274301   1.000000
    9      -16.156208   1.000000
   10      -16.081087   1.000000
   11      -16.013525   1.000000
   12      -15.932953   1.000000
   13      -15.853986   1.000000
   14      -15.701144   1.000000
   15      -15.634560   1.000000
   16      -15.493899   1.000000
   17      -15.438955   1.000000
   18      -15.275414   1.000000
   19       -9.256817   1.000000
   20       -9.172262   1.000000
   21       -9.028797   1.000000
   22       -8.925740   1.000000
   23       -8.784719   1.000000
   24       -8.682909   1.000000
   25       -8.640776   1.000000
   26       -8.579917   1.000000
   27       -8.513966   1.000000
   28       -8.432881   1.000000
   29       -8.367262   1.000000
   30       -8.294683   1.000000
   31       -8.170986   1.000000
   32       -8.030034   1.000000
   33       -7.993468   1.000000
   34       -7.910581   1.000000
   35       -7.825044   1.000000
   36       -7.725878   1.000000
   37       -7.692593   1.000000
   38       -7.548615   1.000000
   39       -7.507885   1.000000
   40       -7.438427   1.000000
   41       -7.347937   1.000000
   42       -7.285350   1.000000
   43       -7.059510   1.000000
   44       -6.936619   1.000000
   45       -6.896581   1.000000
   46       -6.846153   1.000000
   47       -6.721192   1.000000
   48       -6.653240   1.000000
   49       -6.523425   1.000000
   50       -6.467421   1.000000
   51       -6.421243   1.000000
   52       -6.365780   1.000000
   53       -6.294453   1.000000
   54       -6.278167   1.000000
   55       -6.209481   1.000000
   56       -6.144396   1.000000
   57       -6.019022   1.000000
   58       -5.857784   1.000000
   59       -5.719362   1.000000
   60       -5.599616   1.000000
   61       -5.557865   1.000000
   62       -5.490665   1.000000
   63       -5.351181   1.000000
   64       -5.176364   1.000000
   65       -5.107349   1.000000
   66       -5.006278   1.000000
   67       -4.928063   1.000000
   68       -4.882286   1.000000
   69       -4.804710   1.000000
   70       -4.677291   1.000000
   71       -4.656051   1.000000
   72       -4.578670   1.000000
   73       -4.498663   1.000000
   74       -4.219669   1.000000
   75       -3.977666   0.999996
   76       -3.925978   0.999979
   77       -3.802796   0.999379
   78       -3.718215   0.995746
   79       -3.630575   0.977862
   80       -3.488023   0.842185
   81       -3.169200   0.105478
   82       -2.800424   0.000057
   83       -2.656376   0.000001
   84       -2.531120   0.000000
   85       -2.451697   0.000000
   86       -2.365391   0.000000
   87       -2.277543   0.000000
   88       -2.180001   0.000000
   89       -2.116461   0.000000
   90       -2.036765   0.000000
   91       -1.834878   0.000000
   92       -1.677668   0.000000
   93       -1.495526   0.000000
   94       -1.383789   0.000000
   95       -1.201724   0.000000
   96       -1.034470   0.000000
   97       -0.942195   0.000000
   98       -0.840821   0.000000
   99       -0.784244   0.000000
  100       -0.737291   0.000000
  101       -0.597715   0.000000
  102       -0.571276   0.000000
  103       -0.500973   0.000000
  104       -0.392449   0.000000
  105       -0.331410   0.000000
  106       -0.217730   0.000000
  107       -0.163323   0.000000
  108        0.036440   0.000000
  109        0.143205   0.000000
  110        0.263295   0.000000
  111        0.365952   0.000000
  112        0.449623   0.000000
  113        0.659357   0.000000
  114        0.953198   0.000000
  115        0.986869   0.000000
  116        1.063660   0.000000
  117        1.166678   0.000000
  118        1.688939   0.000000
  119        1.871491   0.000000
  120        2.178554   0.000000
 
  0.2500000E+00  0.5551115E-16  0.0000000E+00  0.3125000E-01
    1      -17.698881   1.000000
    2      -16.984374   1.000000
    3      -16.712876   1.000000
    4      -16.650718   1.000000
    5      -16.586219   1.000000
    6      -16.391161   1.000000
    7      -16.340917   1.000000
    8      -16.234791   1.000000
    9      -16.145548   1.000000
   10      -16.062064   1.000000
   11      -15.962990   1.000000
   12      -15.842545   1.000000
   13      -15.831015   1.000000
   14      -15.693012   1.000000
   15      -15.654168   1.000000
   16      -15.517052   1.000000
   17      -15.430436   1.000000
   18      -15.301625   1.000000
   19       -9.499126   1.000000
   20       -9.229553   1.000000
   21       -9.123582   1.000000
   22       -9.037102   1.000000
   23       -8.857456   1.000000
   24       -8.766905   1.000000
   25       -8.664673   1.000000
   26       -8.525769   1.000000
   27       -8.487405   1.000000
   28       -8.402328   1.000000
   29       -8.254820   1.000000
   30       -8.151287   1.000000
   31       -8.066983   1.000000
   32       -8.012681   1.000000
   33       -7.939496   1.000000
   34       -7.886643   1.000000
   35       -7.771176   1.000000
   36       -7.667943   1.000000
   37       -7.577677   1.000000
   38       -7.547094   1.000000
   39       -7.413218   1.000000
   40       -7.363370   1.000000
   41       -7.305185   1.000000
   42       -7.154485   1.000000
   43       -7.116586   1.000000
   44       -6.978910   1.000000
   45       -6.927976   1.000000
   46       -6.840524   1.000000
   47       -6.778274   1.000000
   48       -6.675366   1.000000
   49       -6.567903   1.000000
   50       -6.508006   1.000000
   51       -6.375716   1.000000
   52       -6.317591   1.000000
   53       -6.264283   1.000000
   54       -6.241293   1.000000
   55       -6.176745   1.000000
   56       -6.101622   1.000000
   57       -6.007916   1.000000
   58       -5.877172   1.000000
   59       -5.766708   1.000000
   60       -5.694488   1.000000
   61       -5.621554   1.000000
   62       -5.536681   1.000000
   63       -5.501082   1.000000
   64       -5.329360   1.000000
   65       -5.129219   1.000000
   66       -5.015172   1.000000
   67       -4.949140   1.000000
   68       -4.879580   1.000000
   69       -4.744522   1.000000
   70       -4.664301   1.000000
   71       -4.575259   1.000000
   72       -4.504378   1.000000
   73       -4.367152   1.000000
   74       -4.313325   1.000000
   75       -4.116432   1.000000
   76       -4.019939   0.999999
   77       -3.812880   0.999518
   78       -3.721721   0.996046
   79       -3.544631   0.919804
   80       -3.459778   0.789232
   81       -3.055362   0.019896
   82       -2.824707   0.000114
   83       -2.656793   0.000001
   84       -2.517046   0.000000
   85       -2.434118   0.000000
   86       -2.341849   0.000000
   87       -2.266768   0.000000
   88       -2.182248   0.000000
   89       -2.042784   0.000000
   90       -1.973440   0.000000
   91       -1.831137   0.000000
   92       -1.700356   0.000000
   93       -1.514287   0.000000
   94       -1.345423   0.000000
   95       -1.196539   0.000000
   96       -1.068623   0.000000
   97       -0.981673   0.000000
   98       -0.918354   0.000000
   99       -0.847757   0.000000
  100       -0.806623   0.000000
  101       -0.711271   0.000000
  102       -0.632068   0.000000
  103       -0.580405   0.000000
  104       -0.455518   0.000000
  105       -0.386725   0.000000
  106       -0.288403   0.000000
  107       -0.190734   0.000000
  108       -0.023379   0.000000
  109        0.084894   0.000000
  110        0.204866   0.000000
  111        0.448593   0.000000
  112        0.527648   0.000000
  113        0.697042   0.000000
  114        0.969207   0.000000
  115        1.023504   0.000000
  116        1.088703   0.000000
  117        1.219101   0.000000
  118        1.811134   0.000000
  119        1.981724   0.000000
  120        2.282784   0.000000
 
  0.3750000E+00  0.0000000E+00  0.0000000E+00  0.3125000E-01
    1      -17.581513   1.000000
    2      -17.196589   1.000000
    3      -16.745951   1.000000
    4      -16.654255   1.000000
    5      -16.619010   1.000000
    6      -16.396493   1.000000
    7      -16.311095   1.000000
    8      -16.208649   1.000000
    9      -16.114031   1.000000
   10      -16.033498   1.000000
   11      -15.890882   1.000000
   12      -15.830215   1.000000
   13      -15.790562   1.000000
   14      -15.700884   1.000000
   15      -15.641410   1.000000
   16      -15.552510   1.000000
   17      -15.432041   1.000000
   18      -15.311614   1.000000
   19       -9.711228   1.000000
   20       -9.338865   1.000000
   21       -9.137181   1.000000
   22       -9.065350   1.000000
   23       -8.893906   1.000000
   24       -8.822010   1.000000
   25       -8.647990   1.000000
   26       -8.505546   1.000000
   27       -8.443912   1.000000
   28       -8.289174   1.000000
   29       -8.239511   1.000000
   30       -8.194769   1.000000
   31       -8.058543   1.000000
   32       -7.961150   1.000000
   33       -7.920172   1.000000
   34       -7.869638   1.000000
   35       -7.779460   1.000000
   36       -7.723164   1.000000
   37       -7.520953   1.000000
   38       -7.426142   1.000000
   39       -7.341244   1.000000
   40       -7.301283   1.000000
   41       -7.211441   1.000000
   42       -7.110723   1.000000
   43       -7.032478   1.000000
   44       -6.929424   1.000000
   45       -6.875518   1.000000
   46       -6.838720   1.000000
   47       -6.729148   1.000000
   48       -6.637171   1.000000
   49       -6.563910   1.000000
   50       -6.451856   1.000000
   51       -6.400510   1.000000
   52       -6.353079   1.000000
   53       -6.309938   1.000000
   54       -6.182185   1.000000
   55       -6.156591   1.000000
   56       -6.087438   1.000000
   57       -6.006035   1.000000
   58       -5.900845   1.000000
   59       -5.876348   1.000000
   60       -5.810967   1.000000
   61       -5.725629   1.000000
   62       -5.685864   1.000000
   63       -5.562822   1.000000
   64       -5.325005   1.000000
   65       -5.116740   1.000000
   66       -5.062642   1.000000
   67       -4.952568   1.000000
   68       -4.885458   1.000000
   69       -4.790376   1.000000
   70       -4.670218   1.000000
   71       -4.558717   1.000000
   72       -4.469080   1.000000
   73       -4.381722   1.000000
   74       -4.284873   1.000000
   75       -4.253768   1.000000
   76       -3.992234   0.999998
   77       -3.778216   0.998876
   78       -3.715822   0.995529
   79       -3.525457   0.897633
   80       -3.317035   0.418557
   81       -2.982246   0.005042
   82       -2.861059   0.000302
   83       -2.679689   0.000001
   84       -2.554162   0.000000
   85       -2.382203   0.000000
   86       -2.335584   0.000000
   87       -2.227133   0.000000
   88       -2.188488   0.000000
   89       -1.969321   0.000000
   90       -1.917980   0.000000
   91       -1.810361   0.000000
   92       -1.706130   0.000000
   93       -1.545227   0.000000
   94       -1.310325   0.000000
   95       -1.194960   0.000000
   96       -1.143123   0.000000
   97       -1.066267   0.000000
   98       -0.975738   0.000000
   99       -0.946207   0.000000
  100       -0.838011   0.000000
  101       -0.758608   0.000000
  102       -0.699360   0.000000
  103       -0.607098   0.000000
  104       -0.486085   0.000000
  105       -0.448195   0.000000
  106       -0.368623   0.000000
  107       -0.225086   0.000000
  108       -0.096788   0.000000
  109       -0.021822   0.000000
  110        0.206640   0.000000
  111        0.453814   0.000000
  112        0.536439   0.000000
  113        0.797744   0.000000
  114        0.949301   0.000000
  115        1.063547   0.000000
  116        1.168597   0.000000
  117        1.286903   0.000000
  118        1.993501   0.000000
  119        2.154834   0.000000
  120        2.452837   0.000000
 
  0.5000000E+00  0.1110223E-15  0.0000000E+00  0.1562500E-01
    1      -17.470466   1.000000
    2      -17.341091   1.000000
    3      -16.759157   1.000000
    4      -16.655866   1.000000
    5      -16.628061   1.000000
    6      -16.400326   1.000000
    7      -16.306804   1.000000
    8      -16.198116   1.000000
    9      -16.099000   1.000000
   10      -16.014276   1.000000
   11      -15.879037   1.000000
   12      -15.805331   1.000000
   13      -15.767063   1.000000
   14      -15.712112   1.000000
   15      -15.660771   1.000000
   16      -15.550564   1.000000
   17      -15.444500   1.000000
   18      -15.306369   1.000000
   19       -9.787788   1.000000
   20       -9.380543   1.000000
   21       -9.171460   1.000000
   22       -9.063550   1.000000
   23       -8.867653   1.000000
   24       -8.819018   1.000000
   25       -8.636161   1.000000
   26       -8.574384   1.000000
   27       -8.390101   1.000000
   28       -8.280866   1.000000
   29       -8.200969   1.000000
   30       -8.157557   1.000000
   31       -8.071705   1.000000
   32       -8.000497   1.000000
   33       -7.913709   1.000000
   34       -7.892391   1.000000
   35       -7.803539   1.000000
   36       -7.706862   1.000000
   37       -7.551850   1.000000
   38       -7.427536   1.000000
   39       -7.312009   1.000000
   40       -7.279101   1.000000
   41       -7.072340   1.000000
   42       -7.057709   1.000000
   43       -7.018070   1.000000
   44       -6.871188   1.000000
   45       -6.819193   1.000000
   46       -6.770157   1.000000
   47       -6.702779   1.000000
   48       -6.636628   1.000000
   49       -6.610703   1.000000
   50       -6.518127   1.000000
   51       -6.440443   1.000000
   52       -6.365049   1.000000
   53       -6.284463   1.000000
   54       -6.209481   1.000000
   55       -6.046243   1.000000
   56       -6.031410   1.000000
   57       -6.026725   1.000000
   58       -6.004054   1.000000
   59       -5.926107   1.000000
   60       -5.842632   1.000000
   61       -5.773277   1.000000
   62       -5.705100   1.000000
   63       -5.492959   1.000000
   64       -5.293327   1.000000
   65       -5.261794   1.000000
   66       -5.101167   1.000000
   67       -5.021025   1.000000
   68       -4.937178   1.000000
   69       -4.801251   1.000000
   70       -4.592700   1.000000
   71       -4.542923   1.000000
   72       -4.458048   1.000000
   73       -4.375998   1.000000
   74       -4.310764   1.000000
   75       -4.277491   1.000000
   76       -3.923280   0.999978
   77       -3.798820   0.999316
   78       -3.691136   0.992650
   79       -3.539787   0.914579
   80       -3.240815   0.228273
   81       -2.918952   0.001262
   82       -2.915020   0.001151
   83       -2.693051   0.000002
   84       -2.577185   0.000000
   85       -2.368102   0.000000
   86       -2.329379   0.000000
   87       -2.216777   0.000000
   88       -2.176715   0.000000
   89       -1.947043   0.000000
   90       -1.901182   0.000000
   91       -1.780189   0.000000
   92       -1.712402   0.000000
   93       -1.560911   0.000000
   94       -1.298372   0.000000
   95       -1.204169   0.000000
   96       -1.183020   0.000000
   97       -1.080029   0.000000
   98       -1.023231   0.000000
   99       -0.965375   0.000000
  100       -0.855410   0.000000
  101       -0.795621   0.000000
  102       -0.709563   0.000000
  103       -0.600095   0.000000
  104       -0.513044   0.000000
  105       -0.451954   0.000000
  106       -0.413777   0.000000
  107       -0.249412   0.000000
  108       -0.127340   0.000000
  109       -0.056032   0.000000
  110        0.206122   0.000000
  111        0.455895   0.000000
  112        0.527032   0.000000
  113        0.844102   0.000000
  114        0.932090   0.000000
  115        1.085229   0.000000
  116        1.204942   0.000000
  117        1.315428   0.000000
  118        2.197590   0.000000
  119        2.260021   0.000000
  120        2.367184   0.000000
 
  0.0000000E+00  0.1250000E+00  0.0000000E+00  0.3125000E-01
    1      -17.773885   1.000000
    2      -16.749341   1.000000
    3      -16.690184   1.000000
    4      -16.644911   1.000000
    5      -16.549915   1.000000
    6      -16.442444   1.000000
    7      -16.377399   1.000000
    8      -16.259413   1.000000
    9      -16.154947   1.000000
   10      -16.050081   1.000000
   11      -16.013134   1.000000
   12      -15.968965   1.000000
   13      -15.851158   1.000000
   14      -15.702904   1.000000
   15      -15.628777   1.000000
   16      -15.502164   1.000000
   17      -15.437300   1.000000
   18      -15.272624   1.000000
   19       -9.273752   1.000000
   20       -9.087664   1.000000
   21       -9.023042   1.000000
   22       -8.942157   1.000000
   23       -8.823615   1.000000
   24       -8.693533   1.000000
   25       -8.651478   1.000000
   26       -8.579767   1.000000
   27       -8.518739   1.000000
   28       -8.498002   1.000000
   29       -8.384674   1.000000
   30       -8.211034   1.000000
   31       -8.153755   1.000000
   32       -8.062074   1.000000
   33       -7.984196   1.000000
   34       -7.882100   1.000000
   35       -7.793849   1.000000
   36       -7.754088   1.000000
   37       -7.670337   1.000000
   38       -7.574250   1.000000
   39       -7.517716   1.000000
   40       -7.447846   1.000000
   41       -7.350578   1.000000
   42       -7.268069   1.000000
   43       -7.104702   1.000000
   44       -6.965743   1.000000
   45       -6.839757   1.000000
   46       -6.818376   1.000000
   47       -6.708866   1.000000
   48       -6.668231   1.000000
   49       -6.532749   1.000000
   50       -6.485562   1.000000
   51       -6.427011   1.000000
   52       -6.336682   1.000000
   53       -6.309847   1.000000
   54       -6.289638   1.000000
   55       -6.240115   1.000000
   56       -6.138459   1.000000
   57       -5.986600   1.000000
   58       -5.871094   1.000000
   59       -5.688486   1.000000
   60       -5.613151   1.000000
   61       -5.524413   1.000000
   62       -5.466370   1.000000
   63       -5.339029   1.000000
   64       -5.230631   1.000000
   65       -5.107986   1.000000
   66       -5.055481   1.000000
   67       -4.962939   1.000000
   68       -4.918965   1.000000
   69       -4.773639   1.000000
   70       -4.671936   1.000000
   71       -4.635616   1.000000
   72       -4.555610   1.000000
   73       -4.480167   1.000000
   74       -4.184816   1.000000
   75       -3.992478   0.999998
   76       -3.918534   0.999974
   77       -3.790856   0.999169
   78       -3.721855   0.996057
   79       -3.615857   0.971766
   80       -3.517418   0.887116
   81       -3.145879   0.078410
   82       -2.801717   0.000059
   83       -2.658376   0.000001
   84       -2.538396   0.000000
   85       -2.449227   0.000000
   86       -2.385214   0.000000
   87       -2.283385   0.000000
   88       -2.188808   0.000000
   89       -2.116513   0.000000
   90       -2.039994   0.000000
   91       -1.834326   0.000000
   92       -1.665432   0.000000
   93       -1.486998   0.000000
   94       -1.392141   0.000000
   95       -1.201059   0.000000
   96       -1.022825   0.000000
   97       -0.951262   0.000000
   98       -0.850744   0.000000
   99       -0.795574   0.000000
  100       -0.659647   0.000000
  101       -0.610905   0.000000
  102       -0.582161   0.000000
  103       -0.548632   0.000000
  104       -0.434626   0.000000
  105       -0.329564   0.000000
  106       -0.238400   0.000000
  107       -0.153065   0.000000
  108        0.082969   0.000000
  109        0.175864   0.000000
  110        0.222934   0.000000
  111        0.330010   0.000000
  112        0.442354   0.000000
  113        0.631300   0.000000
  114        0.918957   0.000000
  115        1.042181   0.000000
  116        1.105113   0.000000
  117        1.200764   0.000000
  118        1.689630   0.000000
  119        1.872190   0.000000
  120        2.178497   0.000000
 
  0.1250000E+00  0.1250000E+00  0.0000000E+00  0.3125000E-01
    1      -17.725386   1.000000
    2      -16.874242   1.000000
    3      -16.783501   1.000000
    4      -16.669661   1.000000
    5      -16.499142   1.000000
    6      -16.415012   1.000000
    7      -16.363730   1.000000
    8      -16.242373   1.000000
    9      -16.123032   1.000000
   10      -16.062762   1.000000
   11      -16.012316   1.000000
   12      -15.879835   1.000000
   13      -15.820559   1.000000
   14      -15.693139   1.000000
   15      -15.645526   1.000000
   16      -15.510247   1.000000
   17      -15.432194   1.000000
   18      -15.296713   1.000000
   19       -9.358574   1.000000
   20       -9.270569   1.000000
   21       -9.129833   1.000000
   22       -9.019763   1.000000
   23       -8.826865   1.000000
   24       -8.746115   1.000000
   25       -8.624881   1.000000
   26       -8.518306   1.000000
   27       -8.478082   1.000000
   28       -8.449265   1.000000
   29       -8.336452   1.000000
   30       -8.233224   1.000000
   31       -8.087388   1.000000
   32       -8.048204   1.000000
   33       -7.915895   1.000000
   34       -7.819960   1.000000
   35       -7.738250   1.000000
   36       -7.694150   1.000000
   37       -7.577134   1.000000
   38       -7.549036   1.000000
   39       -7.444087   1.000000
   40       -7.409135   1.000000
   41       -7.304954   1.000000
   42       -7.226567   1.000000
   43       -7.143129   1.000000
   44       -6.991256   1.000000
   45       -6.904104   1.000000
   46       -6.842587   1.000000
   47       -6.779662   1.000000
   48       -6.669555   1.000000
   49       -6.544028   1.000000
   50       -6.495041   1.000000
   51       -6.437488   1.000000
   52       -6.338354   1.000000
   53       -6.283725   1.000000
   54       -6.201109   1.000000
   55       -6.184391   1.000000
   56       -6.098779   1.000000
   57       -5.999994   1.000000
   58       -5.855217   1.000000
   59       -5.690968   1.000000
   60       -5.671564   1.000000
   61       -5.584055   1.000000
   62       -5.504699   1.000000
   63       -5.454082   1.000000
   64       -5.312275   1.000000
   65       -5.200929   1.000000
   66       -5.095451   1.000000
   67       -4.974975   1.000000
   68       -4.842012   1.000000
   69       -4.763576   1.000000
   70       -4.654671   1.000000
   71       -4.595335   1.000000
   72       -4.497851   1.000000
   73       -4.389104   1.000000
   74       -4.188359   1.000000
   75       -4.104674   1.000000
   76       -4.023693   0.999999
   77       -3.841263   0.999768
   78       -3.696257   0.993355
   79       -3.526566   0.899025
   80       -3.499713   0.861291
   81       -3.024044   0.011383
   82       -2.827817   0.000124
   83       -2.681298   0.000001
   84       -2.533794   0.000000
   85       -2.436823   0.000000
   86       -2.375006   0.000000
   87       -2.303429   0.000000
   88       -2.179417   0.000000
   89       -2.062552   0.000000
   90       -2.007257   0.000000
   91       -1.827931   0.000000
   92       -1.696229   0.000000
   93       -1.489402   0.000000
   94       -1.363487   0.000000
   95       -1.189546   0.000000
   96       -1.032090   0.000000
   97       -0.989974   0.000000
   98       -0.883881   0.000000
   99       -0.827316   0.000000
  100       -0.763651   0.000000
  101       -0.693548   0.000000
  102       -0.654130   0.000000
  103       -0.537659   0.000000
  104       -0.481495   0.000000
  105       -0.372326   0.000000
  106       -0.293483   0.000000
  107       -0.210551   0.000000
  108        0.042591   0.000000
  109        0.114919   0.000000
  110        0.245578   0.000000
  111        0.380017   0.000000
  112        0.489037   0.000000
  113        0.652181   0.000000
  114        0.935316   0.000000
  115        1.065169   0.000000
  116        1.130293   0.000000
  117        1.240657   0.000000
  118        1.774290   0.000000
  119        1.945481   0.000000
  120        2.248339   0.000000
 
  0.2500000E+00  0.1250000E+00  0.0000000E+00  0.3125000E-01
    1      -17.630629   1.000000
    2      -17.073764   1.000000
    3      -16.872307   1.000000
    4      -16.654710   1.000000
    5      -16.477959   1.000000
    6      -16.390500   1.000000
    7      -16.344591   1.000000
    8      -16.219792   1.000000
    9      -16.099678   1.000000
   10      -16.071623   1.000000
   11      -15.946737   1.000000
   12      -15.845271   1.000000
   13      -15.780000   1.000000
   14      -15.704413   1.000000
   15      -15.629465   1.000000
   16      -15.531273   1.000000
   17      -15.434625   1.000000
   18      -15.312924   1.000000
   19       -9.591599   1.000000
   20       -9.400682   1.000000
   21       -9.203534   1.000000
   22       -9.039790   1.000000
   23       -8.837041   1.000000
   24       -8.736335   1.000000
   25       -8.616554   1.000000
   26       -8.460000   1.000000
   27       -8.449960   1.000000
   28       -8.361912   1.000000
   29       -8.251287   1.000000
   30       -8.215181   1.000000
   31       -8.099196   1.000000
   32       -8.032248   1.000000
   33       -7.946552   1.000000
   34       -7.893312   1.000000
   35       -7.771048   1.000000
   36       -7.656150   1.000000
   37       -7.488734   1.000000
   38       -7.431686   1.000000
   39       -7.346158   1.000000
   40       -7.298970   1.000000
   41       -7.254697   1.000000
   42       -7.198865   1.000000
   43       -7.053712   1.000000
   44       -6.962639   1.000000
   45       -6.900173   1.000000
   46       -6.839976   1.000000
   47       -6.723645   1.000000