       N       E                     dE             d eps       ncg     rms          rms(c)
DAV:   1     0.112601751301E+04    0.11260E+04   -0.35976E+04  8160   0.577E+02
DAV:   2    -0.183931377805E+01   -0.11279E+04   -0.10870E+04 11400   0.173E+02
DAV:   3    -0.199747946852E+03   -0.19791E+03   -0.19010E+03 10880   0.821E+01
DAV:   4    -0.208985439157E+03   -0.92375E+01   -0.89801E+01 12240   0.263E+01
DAV:   5    -0.209288322251E+03   -0.30288E+00   -0.30201E+00 11280   0.345E+00    0.275E+01
DAV:   6    -0.236784683360E+03   -0.27496E+02   -0.11048E+02 12720   0.604E+01    0.594E+01
DAV:   7    -0.196674152280E+03    0.40111E+02   -0.17918E+02 13120   0.152E+02    0.203E+01
DAV:   8    -0.190027734676E+03    0.66464E+01   -0.20750E+01 11880   0.134E+01    0.136E+01
DAV:   9    -0.188240322498E+03    0.17874E+01   -0.30890E+00 11880   0.626E+00    0.919E+00
DAV:  10    -0.187056369138E+03    0.11840E+01   -0.18269E+00 13440   0.772E+00    0.300E+00
DAV:  11    -0.186996134843E+03    0.60234E-01   -0.62102E-01 12520   0.238E+00    0.248E+00
DAV:  12    -0.187072463968E+03   -0.76329E-01   -0.59306E-01 12720   0.413E+00    0.452E+00
DAV:  13    -0.186905860472E+03    0.16660E+00   -0.42135E-01 13040   0.362E+00    0.185E+00
DAV:  14    -0.186893807982E+03    0.12052E-01   -0.11914E-01 12960   0.209E+00    0.177E+00
DAV:  15    -0.186870060970E+03    0.23747E-01   -0.57938E-02 12920   0.147E+00    0.735E-01
DAV:  16    -0.186865572534E+03    0.44884E-02   -0.88461E-03 12920   0.372E-01    0.413E-01
DAV:  17    -0.186863622410E+03    0.19501E-02   -0.74547E-03 12880   0.367E-01    0.222E-01
DAV:  18    -0.186862978127E+03    0.64428E-03   -0.17455E-03 11560   0.126E-01    0.131E-01
DAV:  19    -0.186862857112E+03    0.12102E-03   -0.59279E-04 10040   0.995E-02    0.449E-02
DAV:  20    -0.186863704352E+03   -0.84724E-03   -0.76640E-04  9040   0.508E-02    0.375E-02
DAV:  21    -0.186864385597E+03   -0.68125E-03   -0.19184E-04  8320   0.394E-02    0.338E-02
DAV:  22    -0.186865416774E+03   -0.10312E-02   -0.16131E-04  7600   0.460E-02    0.404E-02
DAV:  23    -0.186866564642E+03   -0.11479E-02   -0.13685E-04  7440   0.488E-02    0.163E-02
DAV:  24    -0.186867140044E+03   -0.57540E-03   -0.28936E-05  6760   0.171E-02    0.453E-03
DAV:  25    -0.186867504961E+03   -0.36492E-03   -0.16904E-05  5560   0.964E-03    0.440E-03
DAV:  26    -0.186867748732E+03   -0.24377E-03   -0.93784E-06  6800   0.725E-03    0.158E-03
DAV:  27    -0.186867839563E+03   -0.90832E-04   -0.32748E-06  7280   0.417E-03
   1 F= -.18686784E+03 E0= -.18669573E+03  d E =-.186868E+03
       N       E                     dE             d eps       ncg     rms          rms(c)
DAV:   1    -0.187506858327E+03   -0.63911E+00   -0.27185E+02  8160   0.350E+01    0.467E+00
DAV:   2    -0.189514029489E+03   -0.20072E+01   -0.20434E+01 12240   0.156E+01    0.986E+00
DAV:   3    -0.189363195510E+03    0.15083E+00   -0.50270E+00 12400   0.126E+01    0.648E+00
DAV:   4    -0.188791556495E+03    0.57164E+00   -0.60330E-01 12440   0.458E+00    0.230E+00
DAV:   5    -0.188886412379E+03   -0.94856E-01   -0.45009E-01 11240   0.375E+00    0.524E+00
DAV:   6    -0.188758636538E+03    0.12778E+00   -0.73496E-01 12640   0.410E+00    0.223E+00
DAV:   7    -0.188704686515E+03    0.53950E-01   -0.19646E-01 10520   0.140E+00    0.136E+00
DAV:   8    -0.188696114527E+03    0.85720E-02   -0.91251E-02 12960   0.146E+00    0.150E+00
DAV:   9    -0.188681086258E+03    0.15028E-01   -0.32685E-02 11880   0.106E+00    0.625E-01
DAV:  10    -0.188677438872E+03    0.36474E-02   -0.71371E-03 12480   0.380E-01    0.330E-01
DAV:  11    -0.188676737400E+03    0.70147E-03   -0.37506E-03 12880   0.280E-01    0.128E-01
DAV:  12    -0.188676834768E+03   -0.97369E-04   -0.95320E-04 12000   0.988E-02
   2 F= -.18867683E+03 E0= -.18853551E+03  d E =-.180900E+01
       N       E                     dE             d eps       ncg     rms          rms(c)
DAV:   1    -0.190607402212E+03   -0.19307E+01   -0.31416E+01  9120   0.143E+01    0.446E+00
DAV:   2    -0.190567001658E+03    0.40401E-01   -0.28186E+00 11120   0.953E+00    0.734E+00
DAV:   3    -0.190088001320E+03    0.47900E+00   -0.14096E+00 12320   0.862E+00    0.425E+00
DAV:   4    -0.189880732736E+03    0.20727E+00   -0.76866E-01 12640   0.423E+00    0.265E+00
DAV:   5    -0.189920106433E+03   -0.39374E-01   -0.47534E-01 12240   0.405E+00    0.375E+00
DAV:   6    -0.189775655622E+03    0.14445E+00   -0.21616E-01 12280   0.316E+00    0.655E-01
DAV:   7    -0.189769470503E+03    0.61851E-02   -0.16163E-02 12480   0.511E-01    0.266E-01
DAV:   8    -0.189770498347E+03   -0.10278E-02   -0.51858E-03 11640   0.419E-01    0.412E-01
DAV:   9    -0.189769283058E+03    0.12153E-02   -0.27010E-03 11160   0.331E-01    0.133E-01
DAV:  10    -0.189769570419E+03   -0.28736E-03   -0.90006E-04 10200   0.115E-01    0.129E-01
DAV:  11    -0.189769354538E+03    0.21588E-03   -0.46670E-04  8880   0.742E-02    0.198E-02
DAV:  12    -0.189769376836E+03   -0.22297E-04   -0.68096E-05  7000   0.269E-02
   3 F= -.18976938E+03 E0= -.18964926E+03  d E =-.109254E+01
       N       E                     dE             d eps       ncg     rms          rms(c)
DAV:   1    -0.191314320043E+03   -0.15450E+01   -0.75287E+01  8160   0.198E+01    0.456E+00
DAV:   2    -0.191164834487E+03    0.14949E+00   -0.53461E+00 13160   0.782E+00    0.478E+00
DAV:   3    -0.191269147650E+03   -0.10431E+00   -0.15782E+00 12240   0.905E+00    0.643E+00
DAV:   4    -0.190873256942E+03    0.39589E+00   -0.12258E+00 12960   0.722E+00    0.263E+00
DAV:   5    -0.190789652825E+03    0.83604E-01   -0.31511E-01 12280   0.272E+00    0.182E+00
DAV:   6    -0.190772170010E+03    0.17483E-01   -0.15923E-01 12640   0.258E+00    0.166E+00
DAV:   7    -0.190751090728E+03    0.21079E-01   -0.64250E-02 11800   0.154E+00    0.494E-01
DAV:   8    -0.190748000606E+03    0.30901E-02   -0.89864E-03 11560   0.474E-01    0.320E-01
DAV:   9    -0.190747402673E+03    0.59793E-03   -0.28300E-03 11440   0.364E-01    0.211E-01
DAV:  10    -0.190747517590E+03   -0.11492E-03   -0.14940E-03 11160   0.206E-01    0.138E-01
DAV:  11    -0.190747303699E+03    0.21389E-03   -0.92643E-04 10040   0.111E-01    0.463E-02
DAV:  12    -0.190747299018E+03    0.46811E-05   -0.14093E-04  7280   0.441E-02
   4 F= -.19074730E+03 E0= -.19064226E+03  d E =-.977922E+00
       N       E                     dE             d eps       ncg     rms          rms(c)
DAV:   1    -0.192157218638E+03   -0.14099E+01   -0.16448E+02  8160   0.287E+01    0.576E+00
DAV:   2    -0.191865811547E+03    0.29141E+00   -0.95592E+00 11320   0.819E+00    0.388E+00
DAV:   3    -0.192011209343E+03   -0.14540E+00   -0.20522E+00 12080   0.868E+00    0.742E+00
DAV:   4    -0.191753033572E+03    0.25818E+00   -0.25204E+00 11480   0.108E+01    0.452E+00
DAV:   5    -0.191587095055E+03    0.16594E+00   -0.77201E-01 12280   0.583E+00    0.347E+00
DAV:   6    -0.191436110053E+03    0.15099E+00   -0.28089E-01 12240   0.382E+00    0.122E+00
DAV:   7    -0.191427878902E+03    0.82312E-02   -0.72392E-02 12320   0.143E+00    0.833E-01
DAV:   8    -0.191426053508E+03    0.18254E-02   -0.34069E-02 12040   0.122E+00    0.775E-01
DAV:   9    -0.191419490486E+03    0.65630E-02   -0.10699E-02 12440   0.701E-01    0.186E-01
DAV:  10    -0.191419781296E+03   -0.29081E-03   -0.23750E-03 11240   0.183E-01    0.109E-01
DAV:  11    -0.191419636089E+03    0.14521E-03   -0.64252E-04 11200   0.971E-02    0.554E-02
DAV:  12    -0.191419617622E+03    0.18467E-04   -0.10718E-04  7040   0.461E-02
   5 F= -.19141962E+03 E0= -.19131715E+03  d E =-.672319E+00
       N       E                     dE             d eps       ncg     rms          rms(c)
DAV:   1    -0.191483865541E+03   -0.64229E-01   -0.46198E+00  8160   0.456E+00    0.674E-01
DAV:   2    -0.191546677345E+03   -0.62812E-01   -0.28234E-01 12960   0.300E+00    0.231E+00
DAV:   3    -0.191493421543E+03    0.53256E-01   -0.10860E-01 12440   0.232E+00    0.455E-01
DAV:   4    -0.191495948789E+03   -0.25272E-02   -0.18474E-02 11120   0.880E-01    0.737E-01
DAV:   5    -0.191490738184E+03    0.52106E-02   -0.12123E-02 11280   0.734E-01    0.255E-01
DAV:   6    -0.191490448400E+03    0.28978E-03   -0.35478E-03 10960   0.283E-01    0.209E-01
DAV:   7    -0.191490828261E+03   -0.37986E-03   -0.37327E-03 11480   0.403E-01    0.317E-01
DAV:   8    -0.191489851199E+03    0.97706E-03   -0.18898E-03  9640   0.284E-01    0.474E-02
DAV:   9    -0.191489839564E+03    0.11635E-04   -0.10582E-04  5760   0.444E-02
   6 F= -.19148984E+03 E0= -.19138499E+03  d E =-.702219E-01
       N       E                     dE             d eps       ncg     rms          rms(c)
DAV:   1    -0.191535838633E+03   -0.45987E-01   -0.22491E+00  8160   0.316E+00    0.366E-01
DAV:   2    -0.191549589151E+03   -0.13751E-01   -0.72926E-02 13400   0.118E+00    0.103E+00
DAV:   3    -0.191538958592E+03    0.10631E-01   -0.28783E-02 12160   0.116E+00    0.346E-01
DAV:   4    -0.191539281679E+03   -0.32309E-03   -0.63589E-03 11080   0.492E-01    0.400E-01
DAV:   5    -0.191537747955E+03    0.15337E-02   -0.38346E-03 11040   0.417E-01    0.139E-01
DAV:   6    -0.191537657245E+03    0.90709E-04   -0.91111E-04  9960   0.137E-01
   7 F= -.19153766E+03 E0= -.19143193E+03  d E =-.478177E-01
       N       E                     dE             d eps       ncg     rms          rms(c)
DAV:   1    -0.191594402876E+03   -0.56655E-01   -0.33644E+00  8160   0.386E+00    0.447E-01
DAV:   2    -0.191620780653E+03   -0.26378E-01   -0.11839E-01 13600   0.164E+00    0.151E+00
DAV:   3    -0.191598994948E+03    0.21786E-01   -0.56665E-02 12200   0.154E+00    0.404E-01
DAV:   4    -0.191599682060E+03   -0.68711E-03   -0.10369E-02 11360   0.640E-01    0.478E-01
DAV:   5    -0.191597340825E+03    0.23412E-02   -0.49660E-03 11240   0.476E-01    0.145E-01
DAV:   6    -0.191597380727E+03   -0.39903E-04   -0.13671E-03 10400   0.178E-01    0.149E-01
DAV:   7    -0.191597626015E+03   -0.24529E-03   -0.17464E-03 10240   0.283E-01    0.235E-01
DAV:   8    -0.191597083981E+03    0.54203E-03   -0.88631E-04  8320   0.198E-01    0.274E-02
DAV:   9    -0.191597103060E+03   -0.19079E-04   -0.60329E-05  5640   0.308E-02
   8 F= -.19159710E+03 E0= -.19149088E+03  d E =-.594458E-01
       N       E                     dE             d eps       ncg     rms          rms(c)
DAV:   1    -0.191625542878E+03   -0.28459E-01   -0.77072E-01  8160   0.185E+00    0.218E-01
DAV:   2    -0.191631757808E+03   -0.62149E-02   -0.29241E-02 13480   0.898E-01    0.709E-01
DAV:   3    -0.191626648949E+03    0.51089E-02   -0.11519E-02 11320   0.728E-01    0.178E-01
DAV:   4    -0.191626948838E+03   -0.29989E-03   -0.23153E-03  9760   0.304E-01    0.246E-01
DAV:   5    -0.191626345230E+03    0.60361E-03   -0.12729E-03  9400   0.238E-01    0.634E-02
DAV:   6    -0.191626362884E+03   -0.17654E-04   -0.23325E-04  6680   0.640E-02
   9 F= -.19162636E+03 E0= -.19152014E+03  d E =-.292598E-01
       N       E                     dE             d eps       ncg     rms          rms(c)
DAV:   1    -0.191606472815E+03    0.19872E-01   -0.33295E-01  8160   0.122E+00    0.140E-01
DAV:   2    -0.191609196942E+03   -0.27241E-02   -0.12593E-02 12760   0.564E-01    0.466E-01
DAV:   3    -0.191606894976E+03    0.23020E-02   -0.47781E-03 11400   0.467E-01    0.109E-01
DAV:   4    -0.191607027462E+03   -0.13249E-03   -0.90558E-04  8720   0.190E-01    0.151E-01
DAV:   5    -0.191606784813E+03    0.24265E-03   -0.48655E-04  8560   0.152E-01    0.386E-02
DAV:   6    -0.191606792827E+03   -0.80141E-05   -0.10188E-04  6200   0.488E-02
  10 F= -.19160679E+03 E0= -.19150048E+03  d E =0.195701E-01
       N       E                     dE             d eps       ncg     rms          rms(c)
DAV:   1    -0.191568085368E+03    0.38699E-01   -0.17649E+00  8160   0.287E+00    0.406E-01
DAV:   2    -0.191581302341E+03   -0.13217E-01   -0.81716E-02 11400   0.135E+00    0.105E+00
DAV:   3    -0.191570397389E+03    0.10905E-01   -0.28249E-02 11920   0.113E+00    0.376E-01
DAV:   4    -0.191570566833E+03   -0.16944E-03   -0.80006E-03 11280   0.546E-01    0.407E-01
DAV:   5    -0.191569070541E+03    0.14963E-02   -0.52492E-03 10760   0.491E-01    0.208E-01
DAV:   6    -0.191568674340E+03    0.39620E-03   -0.17999E-03 11640   0.237E-01    0.896E-02
DAV:   7    -0.191568551765E+03    0.12258E-03   -0.60114E-04 11360   0.940E-02    0.448E-02
DAV:   8    -0.191568559065E+03   -0.73000E-05   -0.14671E-04  6520   0.812E-02
  11 F= -.19156856E+03 E0= -.19146227E+03  d E =0.382338E-01
       N       E                     dE             d eps       ncg     rms          rms(c)
DAV:   1    -0.191350386545E+03    0.21817E+00   -0.44039E+01  8160   0.142E+01    0.157E+00
DAV:   2    -0.191578801764E+03   -0.22842E+00   -0.14243E+00 12560   0.528E+00    0.361E+00
DAV:   3    -0.191413850450E+03    0.16495E+00   -0.28213E-01 11760   0.413E+00    0.115E+00
DAV:   4    -0.191414391227E+03   -0.54078E-03   -0.70963E-02 12400   0.165E+00    0.136E+00
DAV:   5    -0.191399083053E+03    0.15308E-01   -0.53093E-02 11560   0.160E+00    0.636E-01
DAV:   6    -0.191396835091E+03    0.22480E-02   -0.15912E-02 11480   0.670E-01    0.369E-01
DAV:   7    -0.191396431281E+03    0.40381E-03   -0.10897E-02 12200   0.661E-01    0.510E-01
DAV:   8    -0.191393996294E+03    0.24350E-02   -0.48974E-03 11320   0.468E-01    0.957E-02
DAV:   9    -0.191393963517E+03    0.32776E-04   -0.50426E-04  9960   0.977E-02
  12 F= -.19139396E+03 E0= -.19129299E+03  d E =0.174596E+00
       N       E                     dE             d eps       ncg     rms          rms(c)
DAV:   1    -0.191432634434E+03   -0.38638E-01   -0.24554E+00  8160   0.333E+00    0.441E-01
DAV:   2    -0.191454802232E+03   -0.22168E-01   -0.13596E-01 13400   0.175E+00    0.119E+00
DAV:   3    -0.191439914770E+03    0.14887E-01   -0.35534E-02 12320   0.135E+00    0.336E-01
DAV:   4    -0.191440144732E+03   -0.22996E-03   -0.67159E-03 11440   0.519E-01    0.421E-01
DAV:   5    -0.191438615305E+03    0.15294E-02   -0.48006E-03 11480   0.481E-01    0.200E-01
DAV:   6    -0.191438271275E+03    0.34403E-03   -0.15482E-03 11320   0.201E-01    0.887E-02
DAV:   7    -0.191438303160E+03   -0.31885E-04   -0.85493E-04 10840   0.151E-01
  13 F= -.19143830E+03 E0= -.19133566E+03  d E =-.443396E-01
       N       E                     dE             d eps       ncg     rms          rms(c)
DAV:   1    -0.191437299384E+03    0.97189E-03   -0.88350E+00  8160   0.643E+00    0.695E-01
DAV:   2    -0.191465109619E+03   -0.27810E-01   -0.22047E-01 13440   0.192E+00    0.151E+00
DAV:   3    -0.191448558673E+03    0.16551E-01   -0.69304E-02 11960   0.181E+00    0.736E-01
DAV:   4    -0.191444057967E+03    0.45007E-02   -0.13216E-02 12360   0.728E-01    0.389E-01
DAV:   5    -0.191443388442E+03    0.66952E-03   -0.84971E-03 11160   0.656E-01    0.440E-01
DAV:   6    -0.191442504817E+03    0.88363E-03   -0.75985E-03 10480   0.584E-01    0.300E-01
DAV:   7    -0.191442001275E+03    0.50354E-03   -0.35488E-03 11280   0.398E-01    0.249E-01
DAV:   8    -0.191441338486E+03    0.66279E-03   -0.12276E-03  9760   0.251E-01    0.482E-02
DAV:   9    -0.191441327594E+03    0.10892E-04   -0.96415E-05  6480   0.490E-02
  14 F= -.19144133E+03 E0= -.19133951E+03  d E =-.302443E-02
       N       E                     dE             d eps       ncg     rms          rms(c)
DAV:   1    -0.191499057927E+03   -0.57719E-01   -0.58261E+00  8160   0.510E+00    0.614E-01
DAV:   2    -0.191546044116E+03   -0.46986E-01   -0.21949E-01 13600   0.253E+00    0.199E+00
DAV:   3    -0.191508387098E+03    0.37657E-01   -0.89001E-02 12160   0.210E+00    0.535E-01
DAV:   4    -0.191508882254E+03   -0.49516E-03   -0.15634E-02 11440   0.850E-01    0.609E-01
DAV:   5    -0.191505175049E+03    0.37072E-02   -0.86649E-03 11560   0.659E-01    0.236E-01
DAV:   6    -0.191504585848E+03    0.58920E-03   -0.23547E-03 10640   0.222E-01    0.118E-01
DAV:   7    -0.191504679053E+03   -0.93205E-04   -0.13282E-03 11800   0.199E-01    0.169E-01
DAV:   8    -0.191504397430E+03    0.28162E-03   -0.67296E-04  8800   0.184E-01    0.575E-02
DAV:   9    -0.191504369287E+03    0.28144E-04   -0.95302E-05  5960   0.565E-02
  15 F= -.19150437E+03 E0= -.19140143E+03  d E =-.630417E-01
       N       E                     dE             d eps       ncg     rms          rms(c)
DAV:   1    -0.191446578676E+03    0.57819E-01   -0.42657E+00  8160   0.437E+00    0.500E-01
DAV:   2    -0.191470758780E+03   -0.24180E-01   -0.13851E-01 13600   0.186E+00    0.129E+00
DAV:   3    -0.191452080626E+03    0.18678E-01   -0.38433E-02 11840   0.146E+00    0.412E-01
DAV:   4    -0.191452451031E+03   -0.37040E-03   -0.97798E-03 11240   0.620E-01    0.476E-01
DAV:   5    -0.191450510030E+03    0.19410E-02   -0.64588E-03 11280   0.573E-01    0.251E-01
DAV:   6    -0.191449857179E+03    0.65285E-03   -0.20264E-03 10960   0.249E-01    0.101E-01
DAV:   7    -0.191449756099E+03    0.10108E-03   -0.57388E-04 10760   0.977E-02    0.557E-02
DAV:   8    -0.191449745359E+03    0.10741E-04   -0.16368E-04  6760   0.905E-02
  16 F= -.19144975E+03 E0= -.19134714E+03  d E =0.546239E-01
       N       E                     dE             d eps       ncg     rms          rms(c)
DAV:   1    -0.191385591835E+03    0.64164E-01   -0.68721E+00  8160   0.553E+00    0.598E-01
DAV:   2    -0.191421047012E+03   -0.35455E-01   -0.19873E-01 12800   0.205E+00    0.155E+00
DAV:   3    -0.191395003657E+03    0.26043E-01   -0.57485E-02 11840   0.176E+00    0.556E-01
DAV:   4    -0.191394576232E+03    0.42743E-03   -0.13252E-02 11240   0.728E-01    0.516E-01
DAV:   5    -0.191392211141E+03    0.23651E-02   -0.76762E-03 10960   0.639E-01    0.286E-01
DAV:   6    -0.191391453452E+03    0.75769E-03   -0.27061E-03 11920   0.306E-01    0.137E-01
DAV:   7    -0.191391548324E+03   -0.94872E-04   -0.13367E-03 11240   0.220E-01    0.185E-01
DAV:   8    -0.191391212483E+03    0.33584E-03   -0.72131E-04  8600   0.191E-01    0.482E-02
DAV:   9    -0.191391204215E+03    0.82680E-05   -0.64038E-05  6080   0.459E-02
  17 F= -.19139120E+03 E0= -.19128991E+03  d E =0.585411E-01
       N       E                     dE             d eps       ncg     rms          rms(c)
DAV:   1    -0.191389034750E+03    0.21777E-02   -0.11282E+00  8160   0.225E+00    0.255E-01
DAV:   2    -0.191392829741E+03   -0.37950E-02   -0.35105E-02 12720   0.720E-01    0.496E-01
DAV:   3    -0.191391281014E+03    0.15487E-02   -0.10440E-02 12280   0.693E-01    0.363E-01
DAV:   4    -0.191390055726E+03    0.12253E-02   -0.27796E-03 11320   0.331E-01    0.117E-01
DAV:   5    -0.191389899737E+03    0.15599E-03   -0.80832E-04 10040   0.134E-01    0.916E-02
DAV:   6    -0.191390035654E+03   -0.13592E-03   -0.72583E-04 10000   0.203E-01    0.138E-01
DAV:   7    -0.191389829429E+03    0.20623E-03   -0.40450E-04  8400   0.150E-01    0.411E-02
DAV:   8    -0.191389833728E+03   -0.42995E-05   -0.10875E-04  5800   0.680E-02
  18 F= -.19138983E+03 E0= -.19128873E+03  d E =0.137049E-02
       N       E                     dE             d eps       ncg     rms          rms(c)
DAV:   1    -0.191430272444E+03   -0.40443E-01   -0.39962E+00  8160   0.424E+00    0.520E-01
DAV:   2    -0.191457075397E+03   -0.26803E-01   -0.13873E-01 13600   0.195E+00    0.152E+00
DAV:   3    -0.191435280783E+03    0.21795E-01   -0.53517E-02 12200   0.164E+00    0.461E-01
DAV:   4    -0.191435510529E+03   -0.22975E-03   -0.11343E-02 11440   0.705E-01    0.511E-01
DAV:   5    -0.191433118461E+03    0.23921E-02   -0.71369E-03 11040   0.605E-01    0.261E-01
DAV:   6    -0.191432367057E+03    0.75140E-03   -0.23572E-03 11000   0.255E-01    0.108E-01
DAV:   7    -0.191432560509E+03   -0.19345E-03   -0.12770E-03 10840   0.221E-01    0.191E-01
DAV:   8    -0.191432192740E+03    0.36777E-03   -0.71598E-04  8880   0.190E-01    0.406E-02
DAV:   9    -0.191432185521E+03    0.72182E-05   -0.60721E-05  6040   0.405E-02
  19 F= -.19143219E+03 E0= -.19132952E+03  d E =-.423518E-01
       N       E                     dE             d eps       ncg     rms          rms(c)
DAV:   1    -0.191462103355E+03   -0.29911E-01   -0.17120E+00  8160   0.278E+00    0.348E-01
DAV:   2    -0.191475635732E+03   -0.13532E-01   -0.67111E-02 13600   0.140E+00    0.105E+00
DAV:   3    -0.191464503576E+03    0.11132E-01   -0.24582E-02 12240   0.112E+00    0.274E-01
DAV:   4    -0.191465027192E+03   -0.52362E-03   -0.50018E-03 11400   0.475E-01    0.374E-01
DAV:   5    -0.191463687419E+03    0.13398E-02   -0.31969E-03 11160   0.398E-01    0.139E-01
DAV:   6    -0.191463504940E+03    0.18248E-03   -0.82313E-04  9800   0.131E-01    0.660E-02
DAV:   7    -0.191463445346E+03    0.59595E-04   -0.27948E-04  8120   0.596E-02
  20 F= -.19146345E+03 E0= -.19136003E+03  d E =-.312598E-01
       N       E                     dE             d eps       ncg     rms          rms(c)
DAV:   1    -0.191425870670E+03    0.37634E-01   -0.21845E+00  8160   0.313E+00    0.369E-01
DAV:   2    -0.191440244735E+03   -0.14374E-01   -0.79114E-02 13600   0.143E+00    0.100E+00
DAV:   3    -0.191428953576E+03    0.11291E-01   -0.22060E-02 12080   0.111E+00    0.274E-01
DAV:   4    -0.191429398154E+03   -0.44458E-03   -0.50040E-03 10880   0.452E-01    0.371E-01
DAV:   5    -0.191428129146E+03    0.12690E-02   -0.34051E-03 10960   0.412E-01    0.156E-01
DAV:   6    -0.191427924313E+03    0.20483E-03   -0.97209E-04 10200   0.156E-01    0.760E-02
DAV:   7    -0.191427857633E+03    0.66680E-04   -0.34006E-04  9080   0.794E-02
  21 F= -.19142786E+03 E0= -.19132511E+03  d E =0.355877E-01
       N       E                     dE             d eps       ncg     rms          rms(c)
DAV:   1    -0.191368826864E+03    0.59097E-01   -0.60480E+00  8160   0.520E+00    0.573E-01
DAV:   2    -0.191399159852E+03   -0.30333E-01   -0.19081E-01 13320   0.196E+00    0.137E+00
DAV:   3    -0.191378161889E+03    0.20998E-01   -0.48206E-02 11840   0.162E+00    0.501E-01
DAV:   4    -0.191378202516E+03   -0.40627E-04   -0.12379E-02 11560   0.694E-01    0.532E-01
DAV:   5    -0.191375689336E+03    0.25132E-02   -0.73693E-03 11400   0.615E-01    0.261E-01
DAV:   6    -0.191375107104E+03    0.58223E-03   -0.24429E-03 11480   0.280E-01    0.128E-01
DAV:   7    -0.191374935064E+03    0.17204E-03   -0.87879E-04 10920   0.123E-01    0.600E-02
DAV:   8    -0.191374914805E+03    0.20259E-04   -0.21846E-04  7240   0.101E-01
  22 F= -.19137491E+03 E0= -.19127291E+03  d E =0.529428E-01
       N       E                     dE             d eps       ncg     rms          rms(c)
DAV:   1    -0.191355018694E+03    0.19916E-01   -0.24783E+00  8160   0.332E+00    0.363E-01
DAV:   2    -0.191365493984E+03   -0.10475E-01   -0.72310E-02 13240   0.119E+00    0.818E-01
DAV:   3    -0.191358661827E+03    0.68322E-02   -0.20051E-02 11360   0.100E+00    0.378E-01
DAV:   4    -0.191357990702E+03    0.67112E-03   -0.54174E-03 11320   0.470E-01    0.300E-01
DAV:   5    -0.191357390678E+03    0.60002E-03   -0.29843E-03 10800   0.394E-01    0.209E-01
DAV:   6    -0.191356942292E+03    0.44839E-03   -0.11910E-03 10760   0.224E-01    0.712E-02
DAV:   7    -0.191356942469E+03   -0.17689E-06   -0.40573E-04  9280   0.793E-02
  23 F= -.19135694E+03 E0= -.19125458E+03  d E =0.179723E-01
       N       E                     dE             d eps       ncg     rms          rms(c)
DAV:   1    -0.191394953599E+03   -0.38011E-01   -0.43854E+00  8160   0.445E+00    0.547E-01
DAV:   2    -0.191426193585E+03   -0.31240E-01   -0.16189E-01 13600   0.212E+00    0.158E+00
DAV:   3    -0.191401046631E+03    0.25147E-01   -0.58856E-02 12200   0.173E+00    0.444E-01
DAV:   4    -0.191401731589E+03   -0.68496E-03   -0.11876E-02 11480   0.717E-01    0.564E-01
DAV:   5    -0.191398825865E+03    0.29057E-02   -0.78336E-03 11200   0.623E-01    0.248E-01
DAV:   6    -0.191398131792E+03    0.69407E-03   -0.22922E-03 11160   0.245E-01    0.105E-01
DAV:   7    -0.191398291143E+03   -0.15935E-03   -0.12429E-03 11080   0.202E-01    0.176E-01
DAV:   8    -0.191397986123E+03    0.30502E-03   -0.66762E-04  8840   0.184E-01    0.533E-02
DAV:   9    -0.191397961948E+03    0.24175E-04   -0.79056E-05  5920   0.523E-02
  24 F= -.19139796E+03 E0= -.19129414E+03  d E =-.410195E-01
       N       E                     dE             d eps       ncg     rms          rms(c)
DAV:   1    -0.191410739285E+03   -0.12753E-01   -0.50160E-01  8160   0.150E+00    0.176E-01
DAV:   2    -0.191413760162E+03   -0.30209E-02   -0.16983E-02 13600   0.678E-01    0.470E-01
DAV:   3    -0.191411412098E+03    0.23481E-02   -0.54043E-03 11680   0.538E-01    0.141E-01
DAV:   4    -0.191411466604E+03   -0.54506E-04   -0.11377E-03  9720   0.211E-01    0.169E-01
DAV:   5    -0.191411241072E+03    0.22553E-03   -0.76911E-04  8520   0.198E-01    0.911E-02
DAV:   6    -0.191411159298E+03    0.81774E-04   -0.22143E-04  5880   0.889E-02
  25 F= -.19141116E+03 E0= -.19130661E+03  d E =-.131974E-01
       N       E                     dE             d eps       ncg     rms          rms(c)
DAV:   1    -0.191399953952E+03    0.11287E-01   -0.15618E+00  8160   0.269E+00    0.386E-01
DAV:   2    -0.191406108440E+03   -0.61545E-02   -0.54286E-02 12640   0.118E+00    0.772E-01
DAV:   3    -0.191400060216E+03    0.60482E-02   -0.16629E-02 12080   0.984E-01    0.316E-01
DAV:   4    -0.191399540210E+03    0.52001E-03   -0.50358E-03 10960   0.428E-01    0.310E-01
DAV:   5    -0.191399333139E+03    0.20707E-03   -0.45850E-03 11560   0.478E-01    0.308E-01
DAV:   6    -0.191398327509E+03    0.10056E-02   -0.22827E-03 10920   0.302E-01    0.756E-02
DAV:   7    -0.191398300088E+03    0.27421E-04   -0.39812E-04  8080   0.796E-02
  26 F= -.19139830E+03 E0= -.19129550E+03  d E =0.128592E-01
       N       E                     dE             d eps       ncg     rms          rms(c)
DAV:   1    -0.191449540513E+03   -0.51213E-01   -0.75078E+00  8160   0.583E+00    0.730E-01
DAV:   2    -0.191491704709E+03   -0.42164E-01   -0.25594E-01 13600   0.262E+00    0.186E+00
DAV:   3    -0.191456999526E+03    0.34705E-01   -0.85784E-02 12240   0.216E+00    0.559E-01
DAV:   4    -0.191457724183E+03   -0.72466E-03   -0.19174E-02 12320   0.867E-01    0.726E-01
DAV:   5    -0.191453815238E+03    0.39089E-02   -0.15597E-02 10840   0.879E-01    0.448E-01
DAV:   6    -0.191451743117E+03    0.20721E-02   -0.58302E-03 11320   0.433E-01    0.160E-01
DAV:   7    -0.191451692757E+03    0.50361E-04   -0.19903E-03 11680   0.225E-01    0.168E-01
DAV:   8    -0.191451464930E+03    0.22783E-03   -0.10469E-03  9200   0.223E-01    0.106E-01
DAV:   9    -0.191451344374E+03    0.12056E-03   -0.24703E-04  6840   0.989E-02    0.251E-02
DAV:  10    -0.191451341910E+03    0.24636E-05   -0.61189E-05  6560   0.288E-02
  27 F= -.19145134E+03 E0= -.19134596E+03  d E =-.530418E-01
       N       E                     dE             d eps       ncg     rms          rms(c)
DAV:   1    -0.191481634382E+03   -0.30290E-01   -0.18262E+00  8160   0.286E+00    0.336E-01
DAV:   2    -0.191493099427E+03   -0.11465E-01   -0.61031E-02 13600   0.127E+00    0.965E-01
DAV:   3    -0.191484092259E+03    0.90072E-02   -0.22332E-02 11960   0.105E+00    0.306E-01
DAV:   4    -0.191484200609E+03   -0.10835E-03   -0.47622E-03 11120   0.457E-01    0.339E-01
DAV:   5    -0.191483179315E+03    0.10213E-02   -0.29611E-03 10840   0.388E-01    0.161E-01
DAV:   6    -0.191482894986E+03    0.28433E-03   -0.88297E-04 10400   0.154E-01    0.620E-02
DAV:   7    -0.191482854609E+03    0.40377E-04   -0.25315E-04  7360   0.563E-02
  28 F= -.19148285E+03 E0= -.19137755E+03  d E =-.315127E-01
       N       E                     dE             d eps       ncg     rms          rms(c)
DAV:   1    -0.191451240477E+03    0.31655E-01   -0.20490E+00  8160   0.301E+00    0.307E-01
DAV:   2    -0.191459084931E+03   -0.78445E-02   -0.53977E-02 12320   0.922E-01    0.716E-01
DAV:   3    -0.191454466087E+03    0.46188E-02   -0.15856E-02 12000   0.872E-01    0.364E-01
DAV:   4    -0.191453667813E+03    0.79827E-03   -0.38694E-03 11000   0.384E-01    0.227E-01
DAV:   5    -0.191453279989E+03    0.38782E-03   -0.18365E-03 10240   0.314E-01    0.167E-01
DAV:   6    -0.191453039457E+03    0.24053E-03   -0.92252E-04 10080   0.201E-01    0.811E-02
DAV:   7    -0.191453014010E+03    0.25447E-04   -0.33312E-04  8160   0.983E-02
  29 F= -.19145301E+03 E0= -.19134727E+03  d E =0.298406E-01
       N       E                     dE             d eps       ncg     rms          rms(c)
DAV:   1    -0.191437444188E+03    0.15595E-01   -0.34199E+00  8160   0.388E+00    0.401E-01
DAV:   2    -0.191448936052E+03   -0.11492E-01   -0.94241E-02 12600   0.128E+00    0.844E-01
DAV:   3    -0.191443027392E+03    0.59087E-02   -0.22639E-02 11960   0.105E+00    0.463E-01
DAV:   4    -0.191441743828E+03    0.12836E-02   -0.66151E-03 11280   0.526E-01    0.310E-01
DAV:   5    -0.191441242252E+03    0.50158E-03   -0.37868E-03 10360   0.452E-01    0.256E-01
DAV:   6    -0.191440686667E+03    0.55558E-03   -0.19496E-03 12680   0.286E-01    0.987E-02
DAV:   7    -0.191440618239E+03    0.68428E-04   -0.61006E-04 10040   0.126E-01
  30 F= -.19144062E+03 E0= -.19133482E+03  d E =0.123958E-01
       N       E                     dE             d eps       ncg     rms          rms(c)
DAV:   1    -0.191487322463E+03   -0.46636E-01   -0.60440E+00  8160   0.520E+00    0.597E-01
DAV:   2    -0.191522561636E+03   -0.35239E-01   -0.19707E-01 13520   0.219E+00    0.170E+00
DAV:   3    -0.191496606996E+03    0.25955E-01   -0.67998E-02 12200   0.186E+00    0.576E-01
DAV:   4    -0.191496153404E+03    0.45359E-03   -0.13944E-02 11400   0.791E-01    0.564E-01
DAV:   5    -0.191493201150E+03    0.29523E-02   -0.85706E-03 10800   0.673E-01    0.293E-01
DAV:   6    -0.191492359356E+03    0.84179E-03   -0.31615E-03 11560   0.304E-01    0.139E-01
DAV:   7    -0.191492796824E+03   -0.43747E-03   -0.22844E-03 12080   0.305E-01    0.266E-01
DAV:   8    -0.191492095050E+03    0.70177E-03   -0.13099E-03  9360   0.256E-01    0.515E-02
DAV:   9    -0.191492075471E+03    0.19579E-04   -0.94575E-05  5800   0.506E-02
  31 F= -.19149208E+03 E0= -.19138646E+03  d E =-.514572E-01
       N       E                     dE             d eps       ncg     rms          rms(c)
DAV:   1    -0.191516910134E+03   -0.24815E-01   -0.13076E+00  8160   0.243E+00    0.277E-01
DAV:   2    -0.191522408535E+03   -0.54984E-02   -0.37363E-02 13600   0.945E-01    0.641E-01
DAV:   3    -0.191518141062E+03    0.42675E-02   -0.10553E-02 12120   0.764E-01    0.212E-01
DAV:   4    -0.191518209886E+03   -0.68824E-04   -0.25087E-03 11280   0.303E-01    0.257E-01
DAV:   5    -0.191517796347E+03    0.41354E-03   -0.23189E-03 10200   0.335E-01    0.183E-01
DAV:   6    -0.191517483141E+03    0.31321E-03   -0.92061E-04  9680   0.183E-01    0.641E-02
DAV:   7    -0.191517451702E+03    0.31439E-04   -0.18280E-04  6440   0.742E-02
  32 F= -.19151745E+03 E0= -.19141204E+03  d E =-.253762E-01
       N       E                     dE             d eps       ncg     rms          rms(c)
DAV:   1    -0.191510680440E+03    0.68027E-02   -0.13160E+00  8160   0.243E+00    0.242E-01
DAV:   2    -0.191513413705E+03   -0.27333E-02   -0.29517E-02 13240   0.671E-01    0.415E-01
DAV:   3    -0.191512412281E+03    0.10014E-02   -0.74141E-03 12240   0.598E-01    0.302E-01
DAV:   4    -0.191511809003E+03    0.60328E-03   -0.27178E-03  9880   0.344E-01    0.196E-01
DAV:   5    -0.191511623193E+03    0.18581E-03   -0.15864E-03  9880   0.292E-01    0.158E-01
DAV:   6    -0.191511395981E+03    0.22721E-03   -0.74876E-04 10320   0.164E-01    0.629E-02
DAV:   7    -0.191511448890E+03   -0.52909E-04   -0.33607E-04  7880   0.123E-01
  33 F= -.19151145E+03 E0= -.19140602E+03  d E =0.600281E-02
       N       E                     dE             d eps       ncg     rms          rms(c)
DAV:   1    -0.191486093825E+03    0.25302E-01   -0.46637E+00  8160   0.452E+00    0.460E-01
DAV:   2    -0.191505162509E+03   -0.19069E-01   -0.11733E-01 12080   0.148E+00    0.119E+00
DAV:   3    -0.191492444876E+03    0.12718E-01   -0.33849E-02 12480   0.133E+00    0.463E-01
DAV:   4    -0.191491582170E+03    0.86271E-03   -0.67981E-03 10960   0.540E-01    0.368E-01
DAV:   5    -0.191490425809E+03    0.11564E-02   -0.42608E-03 12120   0.498E-01    0.230E-01
DAV:   6    -0.191490084025E+03    0.34178E-03   -0.19352E-03 11720   0.272E-01    0.131E-01
DAV:   7    -0.191490304096E+03   -0.22007E-03   -0.15030E-03 10240   0.263E-01    0.213E-01
DAV:   8    -0.191489844208E+03    0.45989E-03   -0.81839E-04  8400   0.201E-01    0.360E-02
DAV:   9    -0.191489843541E+03    0.66688E-06   -0.52418E-05  5600   0.346E-02
  34 F= -.19148984E+03 E0= -.19138440E+03  d E =0.216053E-01
       N       E                     dE             d eps       ncg     rms          rms(c)
DAV:   1    -0.191544255264E+03   -0.54411E-01   -0.59881E+00  8160   0.519E+00    0.591E-01
DAV:   2    -0.191575525529E+03   -0.31270E-01   -0.19031E-01 13600   0.212E+00    0.157E+00
DAV:   3    -0.191553263918E+03    0.22262E-01   -0.61701E-02 12120   0.178E+00    0.581E-01
DAV:   4    -0.191552891227E+03    0.37269E-03   -0.14456E-02 11520   0.815E-01    0.586E-01
DAV:   5    -0.191549837485E+03    0.30537E-02   -0.91428E-03 11240   0.696E-01    0.305E-01
DAV:   6    -0.191548831915E+03    0.10056E-02   -0.31827E-03 11440   0.306E-01    0.123E-01
DAV:   7    -0.191548798741E+03    0.33175E-04   -0.12010E-03 11840   0.171E-01    0.132E-01
DAV:   8    -0.191548645476E+03    0.15326E-03   -0.55524E-04  8800   0.169E-01    0.746E-02
DAV:   9    -0.191548587789E+03    0.57686E-04   -0.11975E-04  6040   0.733E-02
  35 F= -.19154859E+03 E0= -.19144415E+03  d E =-.587442E-01
       N       E                     dE             d eps       ncg     rms          rms(c)
DAV:   1    -0.191557827492E+03   -0.91820E-02   -0.46668E-01  8160   0.145E+00    0.139E-01
DAV:   2    -0.191559017994E+03   -0.11905E-02   -0.10570E-02 13040   0.397E-01    0.274E-01
DAV:   3    -0.191558469047E+03    0.54895E-03   -0.23534E-03 10680   0.347E-01    0.159E-01
DAV:   4    -0.191558381148E+03    0.87900E-04   -0.71278E-04  8360   0.191E-01
  36 F= -.19155838E+03 E0= -.19145440E+03  d E =-.979336E-02
       N       E                     dE             d eps       ncg     rms          rms(c)
DAV:   1    -0.191586755971E+03   -0.28287E-01   -0.48441E+00  8160   0.460E+00    0.448E-01
DAV:   2    -0.191601077556E+03   -0.14322E-01   -0.11297E-01 12160   0.135E+00    0.990E-01
DAV:   3    -0.191594101604E+03    0.69760E-02   -0.32784E-02 12560   0.124E+00    0.549E-01
DAV:   4    -0.191591382630E+03    0.27190E-02   -0.64326E-03 10840   0.497E-01    0.215E-01
DAV:   5    -0.191591232797E+03    0.14983E-03   -0.27886E-03 11840   0.344E-01    0.245E-01
DAV:   6    -0.191590960211E+03    0.27259E-03   -0.22943E-03 11880   0.359E-01    0.170E-01
DAV:   7    -0.191590741918E+03    0.21829E-03   -0.96960E-04  9880   0.203E-01    0.115E-01
DAV:   8    -0.191590639631E+03    0.10229E-03   -0.41047E-04  8600   0.146E-01    0.644E-02
DAV:   9    -0.191590596950E+03    0.42681E-04   -0.83644E-05  5880   0.627E-02
  37 F= -.19159060E+03 E0= -.19148737E+03  d E =-.322158E-01
       N       E                     dE             d eps       ncg     rms          rms(c)
DAV:   1    -0.191614673181E+03   -0.24034E-01   -0.47068E+00  8160   0.463E+00    0.460E-01
DAV:   2    -0.191627907150E+03   -0.13234E-01   -0.11288E-01 13560   0.139E+00    0.948E-01
DAV:   3    -0.191620964497E+03    0.69427E-02   -0.25716E-02 11640   0.118E+00    0.488E-01
DAV:   4    -0.191620465152E+03    0.49935E-03   -0.83326E-03 11760   0.657E-01    0.464E-01
DAV:   5    -0.191618608952E+03    0.18562E-02   -0.55658E-03 10400   0.588E-01    0.259E-01
DAV:   6    -0.191618087436E+03    0.52152E-03   -0.22932E-03 10960   0.263E-01    0.121E-01
DAV:   7    -0.191617968402E+03    0.11903E-03   -0.83189E-04 10840   0.159E-01    0.117E-01
DAV:   8    -0.191617840141E+03    0.12826E-03   -0.37253E-04  8680   0.137E-01    0.479E-02
DAV:   9    -0.191617818526E+03    0.21614E-04   -0.59286E-05  6040   0.472E-02
  38 F= -.19161782E+03 E0= -.19151584E+03  d E =-.272216E-01
       N       E                     dE             d eps       ncg     rms          rms(c)
DAV:   1    -0.191700778886E+03   -0.82939E-01   -0.13860E+01  8160   0.798E+00    0.826E-01
DAV:   2    -0.191741764022E+03   -0.40985E-01   -0.36294E-01 13440   0.247E+00    0.161E+00
DAV:   3    -0.191720292302E+03    0.21472E-01   -0.79326E-02 12240   0.213E+00    0.842E-01
DAV:   4    -0.191718042637E+03    0.22497E-02   -0.25254E-02 12200   0.114E+00    0.813E-01
DAV:   5    -0.191713119072E+03    0.49236E-02   -0.17331E-02 12080   0.105E+00    0.536E-01
DAV:   6    -0.191710308626E+03    0.28104E-02   -0.83414E-03 11120   0.566E-01    0.216E-01
DAV:   7    -0.191710026270E+03    0.28236E-03   -0.26675E-03 12360   0.279E-01    0.206E-01
DAV:   8    -0.191709627152E+03    0.39912E-03   -0.11580E-03 10560   0.244E-01    0.808E-02
DAV:   9    -0.191709557995E+03    0.69157E-04   -0.15071E-04  6120   0.775E-02
  39 F= -.19170956E+03 E0= -.19161110E+03  d E =-.917395E-01
       N       E                     dE             d eps       ncg     rms          rms(c)
DAV:   1    -0.191787395602E+03   -0.77768E-01   -0.99970E+00  8160   0.675E+00    0.686E-01
DAV:   2    -0.191813394285E+03   -0.25999E-01   -0.28068E-01 12280   0.192E+00    0.107E+00
DAV:   3    -0.191806103709E+03    0.72906E-02   -0.50112E-02 12080   0.167E+00    0.794E-01
DAV:   4    -0.191801567282E+03    0.45364E-02   -0.16696E-02 11760   0.957E-01    0.549E-01
DAV:   5    -0.191799671763E+03    0.18955E-02   -0.90802E-03 11960   0.780E-01    0.456E-01
DAV:   6    -0.191797975018E+03    0.16967E-02   -0.59264E-03 12360   0.552E-01    0.223E-01
DAV:   7    -0.191797951809E+03    0.23210E-04   -0.26913E-03 11840   0.319E-01    0.247E-01
DAV:   8    -0.191797357253E+03    0.59456E-03   -0.13836E-03 10040   0.273E-01    0.753E-02
DAV:   9    -0.191797293756E+03    0.63497E-04   -0.13738E-04  5800   0.721E-02
  40 F= -.19179729E+03 E0= -.19170204E+03  d E =-.877358E-01
       N       E                     dE             d eps       ncg     rms          rms(c)
DAV:   1    -0.191849920949E+03   -0.52564E-01   -0.42865E+00  8160   0.442E+00    0.488E-01
DAV:   2    -0.191861904656E+03   -0.11984E-01   -0.13623E-01 12400   0.136E+00    0.748E-01
DAV:   3    -0.191858377195E+03    0.35275E-02   -0.25185E-02 12200   0.119E+00    0.561E-01
DAV:   4    -0.191856027518E+03    0.23497E-02   -0.94418E-03 12320   0.709E-01    0.372E-01
DAV:   5    -0.191855173812E+03    0.85371E-03   -0.51101E-03 10560   0.553E-01    0.322E-01
DAV:   6    -0.191854266600E+03    0.90721E-03   -0.30016E-03 11440   0.393E-01    0.140E-01
DAV:   7    -0.191854044748E+03    0.22185E-03   -0.77297E-04 10000   0.129E-01    0.621E-02
DAV:   8    -0.191854029218E+03    0.15529E-04   -0.24461E-04  8240   0.107E-01
  41 F= -.19185403E+03 E0= -.19176005E+03  d E =-.567355E-01
       N       E                     dE             d eps       ncg     rms          rms(c)
DAV:   1    -0.191920772075E+03   -0.66727E-01   -0.11120E+01  8160   0.706E+00    0.697E-01
DAV:   2    -0.191946100999E+03   -0.25329E-01   -0.31411E-01 12120   0.178E+00    0.878E-01
DAV:   3    -0.191947394680E+03   -0.12937E-02   -0.58220E-02 12200   0.170E+00    0.103E+00
DAV:   4    -0.191937435424E+03    0.99593E-02   -0.22105E-02 12320   0.111E+00    0.391E-01
DAV:   5    -0.191936118604E+03    0.13168E-02   -0.67688E-03 11120   0.599E-01    0.346E-01
DAV:   6    -0.191935903365E+03    0.21524E-03   -0.53118E-03 12800   0.582E-01    0.288E-01
DAV:   7    -0.191934839551E+03    0.10638E-02   -0.19996E-03 11320   0.278E-01    0.672E-02
DAV:   8    -0.191934758936E+03    0.80615E-04   -0.27912E-04  8120   0.689E-02
  42 F= -.19193476E+03 E0= -.19184205E+03  d E =-.807297E-01
       N       E                     dE             d eps       ncg     rms          rms(c)
DAV:   1    -0.191957100748E+03   -0.22261E-01   -0.96187E-01  8160   0.216E+00    0.333E-01
DAV:   2    -0.191960143209E+03   -0.30425E-02   -0.44075E-02 11600   0.853E-01    0.522E-01
DAV:   3    -0.191958491883E+03    0.16513E-02   -0.98655E-03 12080   0.802E-01    0.372E-01
DAV:   4    -0.191957630502E+03    0.86138E-03   -0.44395E-03 11680   0.494E-01    0.298E-01
DAV:   5    -0.191957102247E+03    0.52826E-03   -0.31291E-03 10720   0.438E-01    0.231E-01
DAV:   6    -0.191956509326E+03    0.59292E-03   -0.13130E-03  9880   0.232E-01    0.626E-02
DAV:   7    -0.191956464143E+03    0.45183E-04   -0.22546E-04  6560   0.813E-02
  43 F= -.19195646E+03 E0= -.19186324E+03  d E =-.217052E-01
       N       E                     dE             d eps       ncg     rms          rms(c)
DAV:   1    -0.191980910901E+03   -0.24402E-01   -0.19557E+00  8160   0.296E+00    0.304E-01
DAV:   2    -0.191986417100E+03   -0.55062E-02   -0.61949E-02 12080   0.818E-01    0.448E-01
DAV:   3    -0.191985987636E+03    0.42946E-03   -0.11979E-02 11960   0.775E-01    0.437E-01
DAV:   4    -0.191984154736E+03    0.18329E-02   -0.38673E-03 11360   0.452E-01    0.151E-01
DAV:   5    -0.191984110398E+03    0.44338E-04   -0.11059E-03 10080   0.231E-01    0.159E-01
DAV:   6    -0.191983999746E+03    0.11065E-03   -0.92763E-04 10600   0.251E-01    0.112E-01
DAV:   7    -0.191983837934E+03    0.16181E-03   -0.35090E-04  8800   0.130E-01    0.311E-02
DAV:   8    -0.191983844048E+03   -0.61141E-05   -0.77877E-05  6520   0.632E-02
  44 F= -.19198384E+03 E0= -.19189063E+03  d E =-.273799E-01
       N       E                     dE             d eps       ncg     rms          rms(c)
DAV:   1    -0.191999842701E+03   -0.16005E-01   -0.81039E-01  8160   0.195E+00    0.253E-01
DAV:   2    -0.192001581860E+03   -0.17392E-02   -0.31387E-02 12280   0.583E-01    0.290E-01
DAV:   3    -0.192001759725E+03   -0.17787E-03   -0.56172E-03 12160   0.569E-01    0.332E-01
DAV:   4    -0.192000712110E+03    0.10476E-02   -0.30011E-03 11720   0.410E-01    0.180E-01
DAV:   5    -0.192000594907E+03    0.11720E-03   -0.14819E-03  9560   0.291E-01    0.168E-01
DAV:   6    -0.192000324473E+03    0.27043E-03   -0.81429E-04  9880   0.202E-01    0.635E-02
DAV:   7    -0.192000275986E+03    0.48487E-04   -0.14380E-04  5720   0.722E-02
  45 F= -.19200028E+03 E0= -.19190656E+03  d E =-.164319E-01
       N       E                     dE             d eps       ncg     rms          rms(c)
DAV:   1    -0.192018656308E+03   -0.18332E-01   -0.19899E+00  8160   0.299E+00    0.302E-01
DAV:   2    -0.192023702004E+03   -0.50457E-02   -0.64426E-02 12040   0.761E-01    0.338E-01
DAV:   3    -0.192024628045E+03   -0.92604E-03   -0.97751E-03 11120   0.705E-01    0.472E-01
DAV:   4    -0.192022424359E+03    0.22037E-02   -0.43449E-03 10920   0.494E-01    0.160E-01
DAV:   5    -0.192022420313E+03    0.40465E-05   -0.11770E-03  9960   0.262E-01    0.167E-01
DAV:   6    -0.192022250048E+03    0.17027E-03   -0.96331E-04 10600   0.241E-01    0.962E-02
DAV:   7    -0.192022116233E+03    0.13381E-03   -0.32545E-04  8560   0.110E-01    0.276E-02
DAV:   8    -0.192022118239E+03   -0.20058E-05   -0.61600E-05  7040   0.536E-02
  46 F= -.19202212E+03 E0= -.19192794E+03  d E =-.218423E-01
       N       E                     dE             d eps       ncg     rms          rms(c)
DAV:   1    -0.192030799199E+03   -0.86830E-02   -0.36026E-01  8160   0.133E+00    0.207E-01
DAV:   2    -0.192031251777E+03   -0.45258E-03   -0.16550E-02 10720   0.423E-01    0.207E-01
DAV:   3    -0.192031491657E+03   -0.23988E-03   -0.31331E-03 11480   0.440E-01    0.265E-01
DAV:   4    -0.192030763775E+03    0.72788E-03   -0.19446E-03 10280   0.338E-01    0.147E-01
DAV:   5    -0.192030772305E+03   -0.85305E-05   -0.11300E-03  9640   0.248E-01    0.159E-01
DAV:   6    -0.192030489664E+03    0.28264E-03   -0.57647E-04  8280   0.173E-01    0.366E-02
DAV:   7    -0.192030489220E+03    0.44379E-06   -0.90992E-05  5560   0.590E-02
  47 F= -.19203049E+03 E0= -.19193578E+03  d E =-.837098E-02
       N       E                     dE             d eps       ncg     rms          rms(c)
DAV:   1    -0.192039489591E+03   -0.89999E-02   -0.65659E-01  8160   0.172E+00    0.184E-01
DAV:   2    -0.192041547140E+03   -0.20575E-02   -0.22861E-02 11080   0.532E-01    0.265E-01
DAV:   3    -0.192041247253E+03    0.29989E-03   -0.34912E-03 12240   0.450E-01    0.218E-01
DAV:   4    -0.192040809344E+03    0.43791E-03   -0.12176E-03 10840   0.257E-01    0.128E-01
DAV:   5    -0.192040736480E+03    0.72864E-04   -0.57305E-04  8600   0.189E-01
  48 F= -.19204074E+03 E0= -.19194609E+03  d E =-.102473E-01
       N       E                     dE             d eps       ncg     rms          rms(c)
DAV:   1    -0.192049864581E+03   -0.90552E-02   -0.82081E-01  8160   0.195E+00    0.224E-01
DAV:   2    -0.192051738091E+03   -0.18735E-02   -0.28771E-02 11440   0.475E-01    0.219E-01
DAV:   3    -0.192052612793E+03   -0.87470E-03   -0.50627E-03 11720   0.516E-01    0.376E-01
DAV:   4    -0.192051140171E+03    0.14726E-02   -0.25884E-03 10320   0.378E-01    0.102E-01
DAV:   5    -0.192051231205E+03   -0.91034E-04   -0.76070E-04  9000   0.212E-01
  49 F= -.19205123E+03 E0= -.19195626E+03  d E =-.104947E-01
       N       E                     dE             d eps       ncg     rms          rms(c)
DAV:   1    -0.192063067240E+03   -0.11927E-01   -0.34856E+00  8160   0.399E+00    0.434E-01
DAV:   2    -0.192071761914E+03   -0.86947E-02   -0.11692E-01 11160   0.939E-01    0.427E-01
DAV:   3    -0.192073514711E+03   -0.17528E-02   -0.15904E-02 12360   0.970E-01    0.606E-01
DAV:   4    -0.192069400086E+03    0.41146E-02   -0.65959E-03 12200   0.637E-01    0.225E-01
DAV:   5    -0.192069770365E+03   -0.37028E-03   -0.32127E-03 10880   0.437E-01    0.297E-01
DAV:   6    -0.192069009375E+03    0.76099E-03   -0.20121E-03 10960   0.307E-01    0.878E-02
DAV:   7    -0.192068882999E+03    0.12638E-03   -0.44692E-04 10400   0.109E-01    0.522E-02
DAV:   8    -0.192068870805E+03    0.12193E-04   -0.10886E-04  7040   0.790E-02
  50 F= -.19206887E+03 E0= -.19197304E+03  d E =-.176396E-01
       N       E                     dE             d eps       ncg     rms          rms(c)
DAV:   1    -0.192068345791E+03    0.53721E-03   -0.72069E-02  8160   0.581E-01    0.750E-02
DAV:   2    -0.192068536991E+03   -0.19120E-03   -0.28083E-03 10480   0.176E-01    0.103E-01
DAV:   3    -0.192068487814E+03    0.49177E-04   -0.73021E-04 10400   0.185E-01
  51 F= -.19206849E+03 E0= -.19197254E+03  d E =0.382991E-03
       N       E                     dE             d eps       ncg     rms          rms(c)
DAV:   1    -0.192074161640E+03   -0.56246E-02   -0.46391E-01  8160   0.146E+00    0.187E-01
DAV:   2    -0.192075443818E+03   -0.12822E-02   -0.15725E-02 10960   0.430E-01    0.258E-01
DAV:   3    -0.192075068188E+03    0.37563E-03   -0.34846E-03 12240   0.460E-01    0.224E-01
DAV:   4    -0.192074641144E+03    0.42704E-03   -0.12479E-03 10040   0.255E-01    0.128E-01
DAV:   5    -0.192074544000E+03    0.97144E-04   -0.76441E-04  8360   0.202E-01
  52 F= -.19207454E+03 E0= -.19197890E+03  d E =-.605619E-02
       N       E                     dE             d eps       ncg     rms          rms(c)
DAV:   1    -0.192078371557E+03   -0.37304E-02   -0.23556E-01  8160   0.104E+00    0.152E-01
DAV:   2    -0.192079788222E+03   -0.14167E-02   -0.97478E-03 10280   0.508E-01    0.323E-01
DAV:   3    -0.192078607730E+03    0.11805E-02   -0.25383E-03 12240   0.410E-01    0.100E-01
DAV:   4    -0.192078588541E+03    0.19189E-04   -0.50189E-04  8240   0.152E-01
  53 F= -.19207859E+03 E0= -.19198296E+03  d E =-.404454E-02
       N       E                     dE             d eps       ncg     rms          rms(c)
DAV:   1    -0.192083214103E+03   -0.46064E-02   -0.26427E-01  8160   0.111E+00    0.160E-01
DAV:   2    -0.192084994658E+03   -0.17806E-02   -0.88410E-03 12280   0.461E-01    0.409E-01
DAV:   3    -0.192083371689E+03    0.16230E-02   -0.37247E-03 12000   0.466E-01    0.143E-01
DAV:   4    -0.192083269544E+03    0.10214E-03   -0.58143E-04  9600   0.159E-01    0.918E-02
DAV:   5    -0.192083248021E+03    0.21523E-04   -0.45995E-04 10120   0.171E-01
  54 F= -.19208325E+03 E0= -.19198847E+03  d E =-.465948E-02
       N       E                     dE             d eps       ncg     rms          rms(c)
DAV:   1    -0.192085070439E+03   -0.18009E-02   -0.40802E-02  8160   0.453E-01    0.745E-02
DAV:   2    -0.192085660734E+03   -0.59030E-03   -0.21359E-03 12400   0.264E-01    0.233E-01
DAV:   3    -0.192085068826E+03    0.59191E-03   -0.11140E-03 10000   0.247E-01    0.503E-02
DAV:   4    -0.192085105561E+03   -0.36734E-04   -0.11048E-04  5760   0.848E-02
  55 F= -.19208511E+03 E0= -.19199008E+03  d E =-.185754E-02
       N       E                     dE             d eps       ncg     rms          rms(c)
DAV:   1    -0.192088529788E+03   -0.34610E-02   -0.14455E-01  8160   0.820E-01    0.107E-01
DAV:   2    -0.192089089376E+03   -0.55959E-03   -0.47824E-03 10960   0.298E-01    0.209E-01
DAV:   3    -0.192088737861E+03    0.35151E-03   -0.14853E-03 10960   0.281E-01    0.120E-01
DAV:   4    -0.192088641805E+03    0.96056E-04   -0.32664E-04  7960   0.133E-01
  56 F= -.19208864E+03 E0= -.19199412E+03  d E =-.353624E-02
       N       E                     dE             d eps       ncg     rms          rms(c)
DAV:   1    -0.192085944181E+03    0.27937E-02   -0.22979E-01  8160   0.107E+00    0.221E-01
DAV:   2    -0.192087824936E+03   -0.18808E-02   -0.14003E-02 11360   0.707E-01    0.482E-01
DAV:   3    -0.192085218780E+03    0.26062E-02   -0.59759E-03 11360   0.597E-01    0.146E-01
DAV:   4    -0.192085292034E+03   -0.73254E-04   -0.16330E-03 10440   0.271E-01    0.209E-01
DAV:   5    -0.192084965564E+03    0.32647E-03   -0.13717E-03 10080   0.293E-01    0.138E-01
DAV:   6    -0.192084729593E+03    0.23597E-03   -0.47846E-04  8800   0.140E-01    0.330E-02
DAV:   7    -0.192084714545E+03    0.15048E-04   -0.90466E-05  6400   0.416E-02
  57 F= -.19208471E+03 E0= -.19198941E+03  d E =0.392726E-02
       N       E                     dE             d eps       ncg     rms          rms(c)
DAV:   1    -0.192078604262E+03    0.61253E-02   -0.47384E-01  8160   0.148E+00    0.183E-01
DAV:   2    -0.192079736524E+03   -0.11323E-02   -0.13828E-02 11320   0.406E-01    0.261E-01
DAV:   3    -0.192079360115E+03    0.37641E-03   -0.44166E-03 12440   0.453E-01    0.239E-01
DAV:   4    -0.192078919633E+03    0.44048E-03   -0.14019E-03 10400   0.267E-01    0.122E-01
DAV:   5    -0.192078847580E+03    0.72053E-04   -0.58344E-04  9160   0.199E-01
  58 F= -.19207885E+03 E0= -.19198278E+03  d E =0.586696E-02
       N       E                     dE             d eps       ncg     rms          rms(c)
DAV:   1    -0.192080663308E+03   -0.17437E-02   -0.77565E-02  8160   0.603E-01    0.702E-02
DAV:   2    -0.192081073522E+03   -0.41021E-03   -0.33326E-03 11560   0.195E-01    0.125E-01
DAV:   3    -0.192080899278E+03    0.17424E-03   -0.86999E-04 10160   0.187E-01    0.978E-02
DAV:   4    -0.192080807226E+03    0.92053E-04   -0.21496E-04  6880   0.107E-01
  59 F= -.19208081E+03 E0= -.19198504E+03  d E =-.195965E-02
       N       E                     dE             d eps       ncg     rms          rms(c)
DAV:   1    -0.192080775941E+03    0.12334E-03   -0.68851E-05  6280   0.355E-02    0.147E-02
DAV:   2    -0.192080797819E+03   -0.21878E-04   -0.59217E-05  7280   0.584E-02
  60 F= -.19208080E+03 E0= -.19198500E+03  d E =0.940624E-05
       N       E                     dE             d eps       ncg     rms          rms(c)
DAV:   1    -0.192079199124E+03    0.15768E-02   -0.34962E-02  8160   0.403E-01    0.587E-02
DAV:   2    -0.192079728665E+03   -0.52954E-03   -0.19255E-03 12560   0.237E-01    0.218E-01
DAV:   3    -0.192079237643E+03    0.49102E-03   -0.73407E-04  8640   0.212E-01    0.319E-02
DAV:   4    -0.192079243546E+03   -0.59032E-05   -0.47358E-05  5560   0.429E-02
  61 F= -.19207924E+03 E0= -.19198343E+03  d E =0.155427E-02
       N       E                     dE             d eps       ncg     rms          rms(c)
DAV:   1    -0.192084850831E+03   -0.56132E-02   -0.42237E-01  8160   0.140E+00    0.196E-01
DAV:   2    -0.192087558926E+03   -0.27081E-02   -0.18085E-02 11200   0.697E-01    0.463E-01
DAV:   3    -0.192085286617E+03    0.22723E-02   -0.57524E-03 11880   0.551E-01    0.164E-01
DAV:   4    -0.192085266847E+03    0.19770E-04   -0.11263E-03  9960   0.259E-01    0.173E-01
DAV:   5    -0.192085015227E+03    0.25162E-03   -0.72949E-04  9760   0.236E-01    0.974E-02
DAV:   6    -0.192084919666E+03    0.95561E-04   -0.29515E-04  8720   0.108E-01
  62 F= -.19208492E+03 E0= -.19198971E+03  d E =-.567612E-02
       N       E                     dE             d eps       ncg     rms          rms(c)
DAV:   1    -0.192084991533E+03    0.23693E-04   -0.52942E-02  8160   0.496E-01    0.674E-02
DAV:   2    -0.192085326961E+03   -0.33543E-03   -0.26849E-03 12600   0.207E-01    0.149E-01
DAV:   3    -0.192085121796E+03    0.20516E-03   -0.63810E-04  8640   0.188E-01    0.648E-02
DAV:   4    -0.192085081138E+03    0.40658E-04   -0.84763E-05  5560   0.625E-02
  63 F= -.19208508E+03 E0= -.19199029E+03  d E =-.161472E-03
       N       E                     dE             d eps       ncg     rms          rms(c)
DAV:   1    -0.192091266552E+03   -0.61448E-02   -0.44355E-01  8160   0.143E+00    0.186E-01
DAV:   2    -0.192093392881E+03   -0.21263E-02   -0.14081E-02 11480   0.534E-01    0.388E-01
DAV:   3    -0.192091605627E+03    0.17873E-02   -0.50374E-03 12280   0.519E-01    0.163E-01
DAV:   4    -0.192091557399E+03    0.48228E-04   -0.10079E-03 10360   0.219E-01    0.153E-01
DAV:   5    -0.192091406451E+03    0.15095E-03   -0.65829E-04  9040   0.220E-01    0.109E-01
DAV:   6    -0.192091288782E+03    0.11767E-03   -0.28046E-04  7880   0.119E-01    0.385E-02
DAV:   7    -0.192091296135E+03   -0.73524E-05   -0.94992E-05  6800   0.622E-02
  64 F= -.19209130E+03 E0= -.19199718E+03  d E =-.621500E-02
       N       E                     dE             d eps       ncg     rms          rms(c)
DAV:   1    -0.192086867741E+03    0.44210E-02   -0.20257E-01  8160   0.964E-01    0.123E-01
DAV:   2    -0.192088005548E+03   -0.11378E-02   -0.66799E-03 11440   0.383E-01    0.300E-01
DAV:   3    -0.192087073220E+03    0.93233E-03   -0.24708E-03 12320   0.374E-01    0.115E-01
DAV:   4    -0.192087043101E+03    0.30120E-04   -0.49791E-04  8400   0.161E-01
  65 F= -.19208704E+03 E0= -.19199259E+03  d E =0.425303E-02
       N       E                     dE             d eps       ncg     rms          rms(c)
DAV:   1    -0.192074501894E+03    0.12571E-01   -0.22677E+00  8160   0.323E+00    0.429E-01
DAV:   2    -0.192080278993E+03   -0.57771E-02   -0.62246E-02 11760   0.913E-01    0.687E-01
DAV:   3    -0.192077241554E+03    0.30374E-02   -0.24123E-02 12200   0.110E+00    0.562E-01
DAV:   4    -0.192074951969E+03    0.22896E-02   -0.70668E-03 12120   0.613E-01    0.306E-01
DAV:   5    -0.192074461629E+03    0.49034E-03   -0.36176E-03 10360   0.503E-01    0.277E-01
DAV:   6    -0.192073683724E+03    0.77791E-03   -0.18591E-03 12640   0.328E-01    0.107E-01
DAV:   7    -0.192073652125E+03    0.31600E-04   -0.62806E-04 10320   0.153E-01
  66 F= -.19207365E+03 E0= -.19197759E+03  d E =0.133910E-01
       N       E                     dE             d eps       ncg     rms          rms(c)
DAV:   1    -0.192089793549E+03   -0.16110E-01   -0.33260E+00  8160   0.392E+00    0.493E-01
DAV:   2    -0.192103672231E+03   -0.13879E-01   -0.99677E-02 12400   0.133E+00    0.102E+00
DAV:   3    -0.192093631016E+03    0.10041E-01   -0.34891E-02 12360   0.139E+00    0.528E-01
DAV:   4    -0.192092235225E+03    0.13958E-02   -0.85634E-03 12120   0.657E-01    0.397E-01
DAV:   5    -0.192090852827E+03    0.13824E-02   -0.46960E-03 11680   0.570E-01    0.240E-01
DAV:   6    -0.192090225686E+03    0.62714E-03   -0.17746E-03 12040   0.278E-01    0.103E-01
DAV:   7    -0.192090173642E+03    0.52044E-04   -0.73653E-04 10240   0.139E-01
  67 F= -.19209017E+03 E0= -.19199582E+03  d E =-.165215E-01
       N       E                     dE             d eps       ncg     rms          rms(c)
DAV:   1    -0.192093498707E+03   -0.32730E-02   -0.13879E-01  8160   0.814E-01    0.115E-01
DAV:   2    -0.192094061052E+03   -0.56234E-03   -0.44846E-03 12320   0.283E-01    0.214E-01
DAV:   3    -0.192093640638E+03    0.42041E-03   -0.15997E-03 10760   0.307E-01    0.134E-01
DAV:   4    -0.192093525635E+03    0.11500E-03   -0.59285E-04  8400   0.155E-01    0.722E-02
DAV:   5    -0.192093488277E+03    0.37358E-04   -0.28386E-04  9160   0.117E-01
  68 F= -.19209349E+03 E0= -.19199949E+03  d E =-.331463E-02
       N       E                     dE             d eps       ncg     rms          rms(c)
DAV:   1    -0.192098204243E+03   -0.46786E-02   -0.22317E-01  8160   0.102E+00    0.142E-01
DAV:   2    -0.192099608664E+03   -0.14044E-02   -0.75818E-03 11440   0.470E-01    0.334E-01
DAV:   3    -0.192098280048E+03    0.13286E-02   -0.28250E-03 12160   0.409E-01    0.100E-01
DAV:   4    -0.192098376363E+03   -0.96315E-04   -0.54193E-04  8560   0.176E-01
  69 F= -.19209838E+03 E0= -.19200477E+03  d E =-.488809E-02
       N       E                     dE             d eps       ncg     rms          rms(c)
DAV:   1    -0.192099958295E+03   -0.16782E-02   -0.35782E-02  8160   0.449E-01    0.978E-02
DAV:   2    -0.192101113106E+03   -0.11548E-02   -0.30974E-03 12600   0.364E-01    0.336E-01
DAV:   3    -0.192099924729E+03    0.11884E-02   -0.18840E-03 10120   0.349E-01    0.758E-02
DAV:   4    -0.192099883179E+03    0.41550E-04   -0.15351E-04  5600   0.751E-02
  70 F= -.19209988E+03 E0= -.19200678E+03  d E =-.150682E-02
       N       E                     dE             d eps       ncg     rms          rms(c)
DAV:   1    -0.192108075356E+03   -0.81506E-02   -0.59947E-01  8160   0.167E+00    0.229E-01
DAV:   2    -0.192111196906E+03   -0.31215E-02   -0.19370E-02 12280   0.656E-01    0.484E-01
DAV:   3    -0.192108378586E+03    0.28183E-02   -0.75195E-03 12240   0.649E-01    0.194E-01
DAV:   4    -0.192108341586E+03    0.37000E-04   -0.15097E-03 10960   0.270E-01    0.192E-01
DAV:   5    -0.192108105366E+03    0.23622E-03   -0.10851E-03 10480   0.275E-01    0.133E-01
DAV:   6    -0.192107915658E+03    0.18971E-03   -0.41264E-04  9000   0.138E-01    0.424E-02
DAV:   7    -0.192107910269E+03    0.53893E-05   -0.10007E-04  6480   0.519E-02
  71 F= -.19210791E+03 E0= -.19201567E+03  d E =-.802709E-02
       N       E                     dE             d eps       ncg     rms          rms(c)
DAV:   1    -0.192113048972E+03   -0.51333E-02   -0.23660E-01  8160   0.104E+00    0.132E-01
DAV:   2    -0.192114219572E+03   -0.11706E-02   -0.79648E-03 10840   0.401E-01    0.298E-01
DAV:   3    -0.192113282523E+03    0.93705E-03   -0.28636E-03 11720   0.374E-01    0.123E-01
DAV:   4    -0.192113233567E+03    0.48956E-04   -0.48391E-04  8280   0.166E-01
  72 F= -.19211323E+03 E0= -.19202164E+03  d E =-.532330E-02
       N       E                     dE             d eps       ncg     rms          rms(c)
DAV:   1    -0.192109613817E+03    0.36687E-02   -0.11690E-01  8160   0.764E-01    0.106E-01
DAV:   2    -0.192110770533E+03   -0.11567E-02   -0.44201E-03 12920   0.391E-01    0.295E-01
DAV:   3    -0.192109634495E+03    0.11360E-02   -0.17572E-03 11120   0.358E-01    0.617E-02
DAV:   4    -0.192109667685E+03   -0.33189E-04   -0.23966E-04  7040   0.102E-01
  73 F= -.19210967E+03 E0= -.19201781E+03  d E =0.356588E-02
       N       E                     dE             d eps       ncg     rms          rms(c)
DAV:   1    -0.192108742802E+03    0.89169E-03   -0.83616E-02  8160   0.619E-01    0.833E-02
DAV:   2    -0.192109130451E+03   -0.38765E-03   -0.36688E-03 13200   0.235E-01    0.150E-01
DAV:   3    -0.192108941895E+03    0.18856E-03   -0.84935E-04  9640   0.221E-01    0.958E-02
DAV:   4    -0.192108864695E+03    0.77200E-04   -0.27442E-04  6880   0.112E-01
  74 F= -.19210886E+03 E0= -.19201706E+03  d E =0.802990E-03
       N       E                     dE             d eps       ncg     rms          rms(c)
DAV:   1    -0.192095051335E+03    0.13891E-01   -0.25799E+00  8160   0.347E+00    0.497E-01
DAV:   2    -0.192100319786E+03   -0.52685E-02   -0.70871E-02 12200   0.101E+00    0.764E-01
DAV:   3    -0.192096385909E+03    0.39339E-02   -0.31424E-02 11760   0.125E+00    0.638E-01
DAV:   4    -0.192093297878E+03    0.30880E-02   -0.96156E-03 12240   0.713E-01    0.354E-01
DAV:   5    -0.192092654902E+03    0.64298E-03   -0.52872E-03 10520   0.605E-01    0.337E-01
DAV:   6    -0.192091435591E+03    0.12193E-02   -0.26098E-03 11720   0.397E-01    0.115E-01
DAV:   7    -0.192091360583E+03    0.75008E-04   -0.79085E-04 11520   0.166E-01
  75 F= -.19209136E+03 E0= -.19199796E+03  d E =0.175041E-01
       N       E                     dE             d eps       ncg     rms          rms(c)
DAV:   1    -0.192091111634E+03    0.32396E-03   -0.83948E-04 10560   0.156E-01    0.714E-02
DAV:   2    -0.192092298354E+03   -0.11867E-02   -0.23418E-03 11080   0.374E-01    0.332E-01
DAV:   3    -0.192091048292E+03    0.12501E-02   -0.16423E-03 10000   0.318E-01    0.262E-02
DAV:   4    -0.192091063816E+03   -0.15524E-04   -0.33466E-05  5880   0.365E-02
  76 F= -.19209106E+03 E0= -.19199767E+03  d E =0.296767E-03
       N       E                     dE             d eps       ncg     rms          rms(c)
DAV:   1    -0.192088679803E+03    0.23685E-02   -0.63922E-02  8160   0.552E-01    0.883E-02
DAV:   2    -0.192089358573E+03   -0.67877E-03   -0.28907E-03 11880   0.308E-01    0.259E-01
DAV:   3    -0.192088643807E+03    0.71477E-03   -0.15713E-03  9960   0.291E-01    0.655E-02
DAV:   4    -0.192088633046E+03    0.10761E-04   -0.16729E-04  5600   0.863E-02
  77 F= -.19208863E+03 E0= -.19199521E+03  d E =0.243077E-02
       N       E                     dE             d eps       ncg     rms          rms(c)
DAV:   1    -0.192072041312E+03    0.16602E-01   -0.45320E+00  8160   0.459E+00    0.743E-01
DAV:   2    -0.192125954893E+03   -0.53914E-01   -0.22007E-01 12440   0.281E+00    0.225E+00
DAV:   3    -0.192071694081E+03    0.54261E-01   -0.10761E-01 12440   0.249E+00    0.490E-01
DAV:   4    -0.192069161538E+03    0.25325E-02   -0.96598E-03 10960   0.517E-01    0.282E-01
DAV:   5    -0.192068726345E+03    0.43519E-03   -0.48363E-03 12720   0.469E-01    0.317E-01
DAV:   6    -0.192067759874E+03    0.96647E-03   -0.32242E-03 11960   0.465E-01    0.159E-01
DAV:   7    -0.192067454408E+03    0.30547E-03   -0.85133E-04 10440   0.197E-01    0.483E-02
DAV:   8    -0.192067421260E+03    0.33148E-04   -0.11247E-04  7120   0.653E-02
  78 F= -.19206742E+03 E0= -.19197305E+03  d E =0.212118E-01
       N       E                     dE             d eps       ncg     rms          rms(c)
DAV:   1    -0.192098762692E+03   -0.31308E-01   -0.69372E+00  8160   0.571E+00    0.840E-01
DAV:   2    -0.192167850432E+03   -0.69088E-01   -0.28955E-01 12480   0.306E+00    0.254E+00
DAV:   3    -0.192100010957E+03    0.67839E-01   -0.14319E-01 12280   0.278E+00    0.603E-01
DAV:   4    -0.192099431495E+03    0.57946E-03   -0.18884E-02 11200   0.957E-01    0.662E-01
DAV:   5    -0.192095503754E+03    0.39277E-02   -0.13862E-02 12240   0.933E-01    0.386E-01
DAV:   6    -0.192094785734E+03    0.71802E-03   -0.62483E-03 11880   0.577E-01    0.357E-01
DAV:   7    -0.192093826917E+03    0.95882E-03   -0.34132E-03 11000   0.478E-01    0.187E-01
DAV:   8    -0.192093397895E+03    0.42902E-03   -0.82329E-04 10400   0.190E-01    0.494E-02
DAV:   9    -0.192093354948E+03    0.42947E-04   -0.10749E-04  7520   0.446E-02
  79 F= -.19209335E+03 E0= -.19200033E+03  d E =-.259337E-01
       N       E                     dE             d eps       ncg     rms          rms(c)
DAV:   1    -0.192122121774E+03   -0.28724E-01   -0.50821E+00  8160   0.491E+00    0.662E-01
DAV:   2    -0.192135486738E+03   -0.13365E-01   -0.14813E-01 12280   0.150E+00    0.109E+00
DAV:   3    -0.192125321807E+03    0.10165E-01   -0.59072E-02 11480   0.165E+00    0.788E-01
DAV:   4    -0.192120831374E+03    0.44904E-02   -0.15934E-02 12400   0.896E-01    0.457E-01
DAV:   5    -0.192119410037E+03    0.14213E-02   -0.82537E-03 10920   0.783E-01    0.393E-01
DAV:   6    -0.192117731611E+03    0.16784E-02   -0.38179E-03 11920   0.481E-01    0.152E-01
DAV:   7    -0.192117528362E+03    0.20325E-03   -0.13034E-03 10600   0.207E-01    0.114E-01
DAV:   8    -0.192117476462E+03    0.51899E-04   -0.57179E-04  9800   0.186E-01
  80 F= -.19211748E+03 E0= -.19202647E+03  d E =-.241215E-01
       N       E                     dE             d eps       ncg     rms          rms(c)
DAV:   1    -0.192120520053E+03   -0.29917E-02   -0.16512E-01  8160   0.872E-01    0.107E-01
DAV:   2    -0.192121376803E+03   -0.85675E-03   -0.72069E-03 11680   0.336E-01    0.213E-01
DAV:   3    -0.192120976126E+03    0.40068E-03   -0.15413E-03 11440   0.296E-01    0.111E-01
DAV:   4    -0.192120877384E+03    0.98742E-04   -0.35842E-04  8240   0.133E-01
  81 F= -.19212088E+03 E0= -.19203032E+03  d E =-.340092E-02
       N       E                     dE             d eps       ncg     rms          rms(c)
DAV:   1    -0.192128169933E+03   -0.71938E-02   -0.44259E-01  8160   0.142E+00    0.175E-01
DAV:   2    -0.192129134610E+03   -0.96468E-03   -0.10872E-02 11320   0.397E-01    0.270E-01
DAV:   3    -0.192128719825E+03    0.41479E-03   -0.34566E-03 12320   0.430E-01    0.225E-01
DAV:   4    -0.192128319358E+03    0.40047E-03   -0.10618E-03 10080   0.240E-01    0.953E-02
DAV:   5    -0.192128189197E+03    0.13016E-03   -0.39908E-04  9480   0.110E-01    0.518E-02
DAV:   6    -0.192128236431E+03   -0.47235E-04   -0.24900E-04  9240   0.124E-01
  82 F= -.19212824E+03 E0= -.19203841E+03  d E =-.735905E-02
       N       E                     dE             d eps       ncg     rms          rms(c)
DAV:   1    -0.192129806536E+03   -0.16173E-02   -0.34749E-02  8160   0.407E-01    0.741E-02
DAV:   2    -0.192130145055E+03   -0.33852E-03   -0.18710E-03 11920   0.247E-01    0.187E-01
DAV:   3    -0.192129769961E+03    0.37509E-03   -0.88231E-04  8720   0.226E-01    0.605E-02
DAV:   4    -0.192129747433E+03    0.22529E-04   -0.15653E-04  5880   0.807E-02
  83 F= -.19212975E+03 E0= -.19204027E+03  d E =-.151100E-02
       N       E                     dE             d eps       ncg     rms          rms(c)
DAV:   1    -0.192138923060E+03   -0.91531E-02   -0.77772E-01  8160   0.190E+00    0.230E-01
DAV:   2    -0.192141369105E+03   -0.24460E-02   -0.22676E-02 11720   0.577E-01    0.397E-01
DAV:   3    -0.192139893898E+03    0.14752E-02   -0.67657E-03 12280   0.597E-01    0.244E-01
DAV:   4    -0.192139588320E+03    0.30558E-03   -0.17522E-03 11880   0.307E-01    0.180E-01
DAV:   5    -0.192139328663E+03    0.25966E-03   -0.10265E-03 10440   0.268E-01    0.123E-01
DAV:   6    -0.192139184802E+03    0.14386E-03   -0.42467E-04  9320   0.150E-01    0.522E-02
DAV:   7    -0.192139155053E+03    0.29749E-04   -0.11187E-04  6080   0.557E-02
  84 F= -.19213916E+03 E0= -.19205063E+03  d E =-.940762E-02
       N       E                     dE             d eps       ncg     rms          rms(c)
DAV:   1    -0.192143988714E+03   -0.48039E-02   -0.22669E-01  8160   0.102E+00    0.129E-01
DAV:   2    -0.192144960340E+03   -0.97163E-03   -0.82784E-03 10920   0.428E-01    0.244E-01
DAV:   3    -0.192144284330E+03    0.67601E-03   -0.20154E-03 12320   0.342E-01    0.101E-01
DAV:   4    -0.192144258778E+03    0.25552E-04   -0.42744E-04  8560   0.147E-01
  85 F= -.19214426E+03 E0= -.19205656E+03  d E =-.510372E-02
       N       E                     dE             d eps       ncg     rms          rms(c)
DAV:   1    -0.192149925031E+03   -0.56407E-02   -0.31848E-01  8160   0.121E+00    0.166E-01
DAV:   2    -0.192151466115E+03   -0.15411E-02   -0.98527E-03 12160   0.458E-01    0.361E-01
DAV:   3    -0.192150209129E+03    0.12570E-02   -0.36770E-03 12360   0.469E-01    0.166E-01
DAV:   4    -0.192149989899E+03    0.21923E-03   -0.73810E-04  9640   0.172E-01    0.776E-02
DAV:   5    -0.192149890100E+03    0.99798E-04   -0.28134E-04  8080   0.754E-02
  86 F= -.19214989E+03 E0= -.19206287E+03  d E =-.563132E-02
       N       E                     dE             d eps       ncg     rms          rms(c)
DAV:   1    -0.192159058786E+03   -0.90689E-02   -0.11509E+00  8160   0.231E+00    0.267E-01
DAV:   2    -0.192162681079E+03   -0.36223E-02   -0.36112E-02 12200   0.672E-01    0.437E-01
DAV:   3    -0.192161162278E+03    0.15188E-02   -0.83541E-03 12400   0.688E-01    0.294E-01
DAV:   4    -0.192160557292E+03    0.60499E-03   -0.22690E-03 11520   0.357E-01    0.187E-01
DAV:   5    -0.192160254818E+03    0.30247E-03   -0.12219E-03 10600   0.284E-01    0.127E-01
DAV:   6    -0.192160148072E+03    0.10675E-03   -0.56249E-04 10320   0.173E-01    0.719E-02
DAV:   7    -0.192160094247E+03    0.53825E-04   -0.22452E-04  7040   0.902E-02
  87 F= -.19216009E+03 E0= -.19207417E+03  d E =-.102041E-01
       N       E                     dE             d eps       ncg     rms          rms(c)
DAV:   1    -0.192168087854E+03   -0.79398E-02   -0.13959E+01  8160   0.802E+00    0.860E-01
DAV:   2    -0.192204229682E+03   -0.36142E-01   -0.40878E-01 11920   0.220E+00    0.122E+00
DAV:   3    -0.192196842480E+03    0.73872E-02   -0.75701E-02 12320   0.212E+00    0.103E+00
DAV:   4    -0.192186705586E+03    0.10137E-01   -0.23294E-02 12280   0.118E+00    0.463E-01
DAV:   5    -0.192184860919E+03    0.18447E-02   -0.10100E-02 11920   0.769E-01    0.395E-01
DAV:   6    -0.192184207738E+03    0.65318E-03   -0.64835E-03 12360   0.660E-01    0.295E-01
DAV:   7    -0.192183157600E+03    0.10501E-02   -0.24690E-03 11480   0.342E-01    0.144E-01
DAV:   8    -0.192182965855E+03    0.19175E-03   -0.77265E-04  9680   0.208E-01    0.782E-02
DAV:   9    -0.192182894279E+03    0.71576E-04   -0.14327E-04  6600   0.894E-02
  88 F= -.19218289E+03 E0= -.19210042E+03  d E =-.228000E-01
       N       E                     dE             d eps       ncg     rms          rms(c)
DAV:   1    -0.192183864594E+03   -0.89874E-03   -0.99611E-02  8160   0.668E-01    0.723E-02
DAV:   2    -0.192184360363E+03   -0.49577E-03   -0.51150E-03 11280   0.248E-01    0.110E-01
DAV:   3    -0.192184305257E+03    0.55106E-04   -0.51549E-04  9400   0.181E-01
  89 F= -.19218431E+03 E0= -.19210184E+03  d E =-.141098E-02
       N       E                     dE             d eps       ncg     rms          rms(c)
DAV:   1    -0.192185385332E+03   -0.10250E-02   -0.57297E-01  8160   0.162E+00    0.182E-01
DAV:   2    -0.192186823318E+03   -0.14380E-02   -0.19311E-02 11320   0.418E-01    0.184E-01
DAV:   3    -0.192187008263E+03   -0.18495E-03   -0.28549E-03 12520   0.403E-01    0.250E-01
DAV:   4    -0.192186380570E+03    0.62769E-03   -0.12283E-03 10920   0.288E-01    0.898E-02
DAV:   5    -0.192186277481E+03    0.10309E-03   -0.35346E-04  8960   0.934E-02    0.485E-02
DAV:   6    -0.192186344184E+03   -0.66703E-04   -0.23507E-04  8160   0.117E-01
  90 F= -.19218634E+03 E0= -.19210443E+03  d E =-.203893E-02
       N       E                     dE             d eps       ncg     rms          rms(c)
DAV:   1    -0.192186737077E+03   -0.45960E-03   -0.40622E-02  8160   0.441E-01    0.561E-02
DAV:   2    -0.192186949617E+03   -0.21254E-03   -0.20593E-03 11640   0.167E-01    0.924E-02
DAV:   3    -0.192186876390E+03    0.73228E-04   -0.32664E-04  9720   0.149E-01
  91 F= -.19218688E+03 E0= -.19210511E+03  d E =-.532205E-03
