<?xml version="1.0" encoding="ISO-8859-1"?>
<modeling>
 <generator>
  <i name="program" type="string">vasp </i>
  <i name="version" type="string">5.4.1  </i>
  <i name="subversion" type="string">05Feb16 (build Jul 05 2020 17:13:04) complex                          parallel </i>
  <i name="platform" type="string">IFC91_ompi </i>
  <i name="date" type="string">2024 04 29 </i>
  <i name="time" type="string">19:48:13 </i>
 </generator>
 <incar>
  <i type="int" name="ISTART">     0</i>
  <i type="string" name="PREC">normal</i>
  <i type="string" name="ALGO"> Normal</i>
  <i type="int" name="ISPIN">     1</i>
  <i type="int" name="ICHARG">     2</i>
  <i type="int" name="IBRION">     1</i>
  <i type="int" name="NSW">   100</i>
  <i type="int" name="ISIF">     3</i>
  <i type="int" name="ISYM">     0</i>
  <i name="SYMPREC">      0.00000001</i>
  <i name="POTIM">      0.50000000</i>
  <i type="logical" name="LREAL"> F  </i>
  <i type="logical" name="LPLANE"> F  </i>
  <i type="int" name="ISMEAR">     0</i>
  <i type="logical" name="LWAVE"> F  </i>
  <i type="logical" name="LCHARG"> F  </i>
  <v type="int" name="KPOINT_BSE">    -1     0     0     0</v>
 </incar>
 <kpoints>
  <generation param="Gamma">
   <v type="int" name="divisions">       8        8        1 </v>
   <v name="usershift">      0.00000000       0.00000000       0.00000000 </v>
   <v name="genvec1">      0.12500000       0.00000000       0.00000000 </v>
   <v name="genvec2">     -0.00000000       0.12500000       0.00000000 </v>
   <v name="genvec3">      0.00000000       0.00000000       1.00000000 </v>
   <v name="shift">      0.00000000       0.00000000       0.00000000 </v>
  </generation>
  <varray name="kpointlist" >
   <v>       0.00000000       0.00000000       0.00000000 </v>
   <v>       0.12500000       0.00000000       0.00000000 </v>
   <v>       0.25000000       0.00000000       0.00000000 </v>
   <v>       0.37500000       0.00000000       0.00000000 </v>
   <v>       0.50000000       0.00000000       0.00000000 </v>
   <v>       0.00000000       0.12500000       0.00000000 </v>
   <v>       0.12500000       0.12500000       0.00000000 </v>
   <v>       0.25000000       0.12500000       0.00000000 </v>
   <v>       0.37500000       0.12500000       0.00000000 </v>
   <v>       0.50000000       0.12500000       0.00000000 </v>
   <v>      -0.37500000       0.12500000       0.00000000 </v>
   <v>      -0.25000000       0.12500000       0.00000000 </v>
   <v>      -0.12500000       0.12500000       0.00000000 </v>
   <v>       0.00000000       0.25000000       0.00000000 </v>
   <v>       0.12500000       0.25000000       0.00000000 </v>
   <v>       0.25000000       0.25000000       0.00000000 </v>
   <v>       0.37500000       0.25000000       0.00000000 </v>
   <v>       0.50000000       0.25000000       0.00000000 </v>
   <v>      -0.37500000       0.25000000       0.00000000 </v>
   <v>      -0.25000000       0.25000000       0.00000000 </v>
   <v>      -0.12500000       0.25000000       0.00000000 </v>
   <v>      -0.00000000       0.37500000       0.00000000 </v>
   <v>       0.12500000       0.37500000       0.00000000 </v>
   <v>       0.25000000       0.37500000       0.00000000 </v>
   <v>       0.37500000       0.37500000       0.00000000 </v>
   <v>       0.50000000       0.37500000       0.00000000 </v>
   <v>      -0.37500000       0.37500000       0.00000000 </v>
   <v>      -0.25000000       0.37500000       0.00000000 </v>
   <v>      -0.12500000       0.37500000       0.00000000 </v>
   <v>       0.00000000       0.50000000       0.00000000 </v>
   <v>       0.12500000       0.50000000       0.00000000 </v>
   <v>       0.25000000       0.50000000       0.00000000 </v>
   <v>       0.37500000       0.50000000       0.00000000 </v>
   <v>       0.50000000       0.50000000       0.00000000 </v>
  </varray>
  <varray name="weights" >
   <v>       0.01562500 </v>
   <v>       0.03125000 </v>
   <v>       0.03125000 </v>
   <v>       0.03125000 </v>
   <v>       0.01562500 </v>
   <v>       0.03125000 </v>
   <v>       0.03125000 </v>
   <v>       0.03125000 </v>
   <v>       0.03125000 </v>
   <v>       0.03125000 </v>
   <v>       0.03125000 </v>
   <v>       0.03125000 </v>
   <v>       0.03125000 </v>
   <v>       0.03125000 </v>
   <v>       0.03125000 </v>
   <v>       0.03125000 </v>
   <v>       0.03125000 </v>
   <v>       0.03125000 </v>
   <v>       0.03125000 </v>
   <v>       0.03125000 </v>
   <v>       0.03125000 </v>
   <v>       0.03125000 </v>
   <v>       0.03125000 </v>
   <v>       0.03125000 </v>
   <v>       0.03125000 </v>
   <v>       0.03125000 </v>
   <v>       0.03125000 </v>
   <v>       0.03125000 </v>
   <v>       0.03125000 </v>
   <v>       0.01562500 </v>
   <v>       0.03125000 </v>
   <v>       0.03125000 </v>
   <v>       0.03125000 </v>
   <v>       0.01562500 </v>
  </varray>
 </kpoints>
 <parameters>
  <separator name="general" >
   <i type="string" name="SYSTEM">unknown system</i>
   <i type="logical" name="LCOMPAT"> F  </i>
  </separator>
  <separator name="electronic" >
   <i type="string" name="PREC">normal</i>
   <i name="ENMAX">    280.00000000</i>
   <i name="ENAUG">    373.43800000</i>
   <i name="EDIFF">      0.00010000</i>
   <i type="int" name="IALGO">    38</i>
   <i type="int" name="IWAVPR">    11</i>
   <i type="int" name="NBANDS">   120</i>
   <i name="NELECT">    159.00000000</i>
   <i type="int" name="TURBO">     0</i>
   <i type="int" name="IRESTART">     0</i>
   <i type="int" name="NREBOOT">     0</i>
   <i type="int" name="NMIN">     0</i>
   <i name="EREF">      0.00000000</i>
   <separator name="electronic smearing" >
    <i type="int" name="ISMEAR">     0</i>
    <i name="SIGMA">      0.20000000</i>
    <i name="KSPACING">      0.50000000</i>
    <i type="logical" name="KGAMMA"> T  </i>
   </separator>
   <separator name="electronic projectors" >
    <i type="logical" name="LREAL"> F  </i>
    <v name="ROPT">      0.00000000      0.00000000      0.00000000      0.00000000</v>
    <i type="int" name="LMAXPAW">  -100</i>
    <i type="int" name="LMAXMIX">     2</i>
    <i type="logical" name="NLSPLINE"> F  </i>
   </separator>
   <separator name="electronic startup" >
    <i type="int" name="ISTART">     0</i>
    <i type="int" name="ICHARG">     2</i>
    <i type="int" name="INIWAV">     1</i>
   </separator>
   <separator name="electronic spin" >
    <i type="int" name="ISPIN">     1</i>
    <i type="logical" name="LNONCOLLINEAR"> F  </i>
    <v name="MAGMOM">      1.00000000      1.00000000      1.00000000      1.00000000      1.00000000      1.00000000      1.00000000      1.00000000      1.00000000      1.00000000      1.00000000      1.00000000      1.00000000      1.00000000      1.00000000      1.00000000      1.00000000      1.00000000      1.00000000      1.00000000
      1.00000000      1.00000000      1.00000000      1.00000000      1.00000000      1.00000000      1.00000000</v>
    <i name="NUPDOWN">     -1.00000000</i>
    <i type="logical" name="LSORBIT"> F  </i>
    <v name="SAXIS">      0.00000000      0.00000000      1.00000000</v>
    <i type="logical" name="LSPIRAL"> F  </i>
    <v name="QSPIRAL">      0.00000000      0.00000000      0.00000000</v>
    <i type="logical" name="LZEROZ"> F  </i>
   </separator>
   <separator name="electronic exchange-correlation" >
    <i type="logical" name="LASPH"> F  </i>
    <i type="logical" name="LMETAGGA"> F  </i>
   </separator>
   <separator name="electronic convergence" >
    <i type="int" name="NELM">    60</i>
    <i type="int" name="NELMDL">    -5</i>
    <i type="int" name="NELMIN">     2</i>
    <i name="ENINI">    280.00000000</i>
    <separator name="electronic convergence detail" >
     <i type="logical" name="LDIAG"> T  </i>
     <i type="logical" name="LSUBROT"> F  </i>
     <i name="WEIMIN">      0.00100000</i>
     <i name="EBREAK">      0.00000021</i>
     <i name="DEPER">      0.30000000</i>
     <i type="int" name="NRMM">     4</i>
     <i name="TIME">      0.40000000</i>
    </separator>
   </separator>
   <separator name="electronic mixer" >
    <i name="AMIX">      0.40000000</i>
    <i name="BMIX">      1.00000000</i>
    <i name="AMIN">      0.10000000</i>
    <i name="AMIX_MAG">      1.60000000</i>
    <i name="BMIX_MAG">      1.00000000</i>
    <separator name="electronic mixer details" >
     <i type="int" name="IMIX">     4</i>
     <i type="logical" name="MIXFIRST"> F  </i>
     <i type="int" name="MAXMIX">   -45</i>
     <i name="WC">    100.00000000</i>
     <i type="int" name="INIMIX">     1</i>
     <i type="int" name="MIXPRE">     1</i>
     <i type="int" name="MREMOVE">     5</i>
    </separator>
   </separator>
   <separator name="electronic dipolcorrection" >
    <i type="logical" name="LDIPOL"> F  </i>
    <i type="logical" name="LMONO"> F  </i>
    <i type="int" name="IDIPOL">     0</i>
    <i name="EPSILON">      1.00000000</i>
    <v name="DIPOL">   -100.00000000   -100.00000000   -100.00000000</v>
    <i name="EFIELD">      0.00000000</i>
   </separator>
  </separator>
  <separator name="grids" >
   <i type="int" name="NGX">    42</i>
   <i type="int" name="NGY">    42</i>
   <i type="int" name="NGZ">   126</i>
   <i type="int" name="NGXF">    84</i>
   <i type="int" name="NGYF">    84</i>
   <i type="int" name="NGZF">   252</i>
   <i type="logical" name="ADDGRID"> F  </i>
  </separator>
  <separator name="ionic" >
   <i type="int" name="NSW">   100</i>
   <i type="int" name="IBRION">     1</i>
   <i type="int" name="ISIF">     3</i>
   <i name="PSTRESS">      0.00000000</i>
   <i name="EDIFFG">      0.00100000</i>
   <i type="int" name="NFREE">     0</i>
   <i name="POTIM">      0.50000000</i>
   <i name="SMASS">     -3.00000000</i>
   <i name="SCALEE">      1.00000000</i>
  </separator>
  <separator name="ionic md" >
   <i name="TEBEG">      0.00010000</i>
   <i name="TEEND">      0.00010000</i>
   <i type="int" name="NBLOCK">     1</i>
   <i type="int" name="KBLOCK">   100</i>
   <i type="int" name="NPACO">   256</i>
   <i name="APACO">     16.00000000</i>
  </separator>
  <separator name="symmetry" >
   <i type="int" name="ISYM">     0</i>
   <i name="SYMPREC">      0.00000001</i>
  </separator>
  <separator name="dos" >
   <i type="logical" name="LORBIT"> F  </i>
   <v name="RWIGS">     -1.00000000     -1.00000000     -1.00000000     -1.00000000</v>
   <i type="int" name="NEDOS">   301</i>
   <i name="EMIN">     10.00000000</i>
   <i name="EMAX">    -10.00000000</i>
   <i name="EFERMI">      0.00000000</i>
  </separator>
  <separator name="writing" >
   <i type="int" name="NWRITE">     2</i>
   <i type="logical" name="LWAVE"> F  </i>
   <i type="logical" name="LCHARG"> F  </i>
   <i type="logical" name="LPARD"> F  </i>
   <i type="logical" name="LVTOT"> F  </i>
   <i type="logical" name="LVHAR"> F  </i>
   <i type="logical" name="LELF"> F  </i>
   <i type="logical" name="LOPTICS"> F  </i>
   <v name="STM">      0.00000000      0.00000000      0.00000000      0.00000000      0.00000000      0.00000000      0.00000000</v>
  </separator>
  <separator name="performance" >
   <i type="int" name="NPAR">    40</i>
   <i type="int" name="NSIM">     4</i>
   <i type="int" name="NBLK">    -1</i>
   <i type="logical" name="LPLANE"> F  </i>
   <i type="logical" name="LSCALAPACK"> T  </i>
   <i type="logical" name="LSCAAWARE"> F  </i>
   <i type="logical" name="LSCALU"> F  </i>
   <i type="logical" name="LASYNC"> F  </i>
   <i type="logical" name="LORBITALREAL"> F  </i>
  </separator>
  <separator name="miscellaneous" >
   <i type="int" name="IDIOT">     3</i>
   <i type="logical" name="LMUSIC"> F  </i>
   <v name="POMASS">     50.94100000     95.94000000    183.85000000     32.06600000</v>
   <v name="DARWINR">      0.00000000      0.00000000      0.00000000      0.00000000</v>
   <v name="DARWINV">      1.00000000      1.00000000      1.00000000      1.00000000</v>
   <i type="logical" name="LCORR"> T  </i>
  </separator>
  <i type="logical" name="GGA_COMPAT"> T  </i>
  <i type="logical" name="LBERRY"> F  </i>
  <i type="int" name="ICORELEVEL">     0</i>
  <i type="logical" name="LDAU"> F  </i>
  <i type="int" name="I_CONSTRAINED_M">     0</i>
  <separator name="electronic exchange-correlation" >
   <i type="string" name="GGA">--</i>
   <i type="int" name="VOSKOWN">     0</i>
   <i type="logical" name="LHFCALC"> F  </i>
   <i type="string" name="PRECFOCK"></i>
   <i type="logical" name="LSYMGRAD"> F  </i>
   <i type="logical" name="LHFONE"> F  </i>
   <i type="logical" name="LRHFCALC"> F  </i>
   <i type="logical" name="LTHOMAS"> F  </i>
   <i type="logical" name="LMODELHF"> F  </i>
   <i name="ENCUT4O">     -1.00000000</i>
   <i type="int" name="EXXOEP">     0</i>
   <i type="int" name="FOURORBIT">     0</i>
   <i name="AEXX">      0.00000000</i>
   <i name="HFALPHA">      0.00000000</i>
   <i name="MCALPHA">      0.00000000</i>
   <i name="ALDAX">      1.00000000</i>
   <i name="AGGAX">      1.00000000</i>
   <i name="ALDAC">      1.00000000</i>
   <i name="AGGAC">      1.00000000</i>
   <i type="int" name="NKREDX">     1</i>
   <i type="int" name="NKREDY">     1</i>
   <i type="int" name="NKREDZ">     1</i>
   <i type="logical" name="SHIFTRED"> F  </i>
   <i type="logical" name="ODDONLY"> F  </i>
   <i type="logical" name="EVENONLY"> F  </i>
   <i type="int" name="LMAXFOCK">     0</i>
   <i type="int" name="NMAXFOCKAE">     0</i>
   <i type="logical" name="LFOCKAEDFT"> F  </i>
   <i name="HFSCREEN">      0.00000000</i>
   <i name="HFSCREENC">      0.00000000</i>
   <i type="int" name="NBANDSGWLOW">     0</i>
  </separator>
  <separator name="vdW DFT" >
   <i type="logical" name="LUSE_VDW"> F  </i>
   <i name="Zab_VDW">     -0.84910000</i>
   <i name="PARAM1">      0.12340000</i>
   <i name="PARAM2">      1.00000000</i>
   <i name="PARAM3">      0.00000000</i>
  </separator>
  <separator name="model GW" >
   <i type="int" name="MODEL_GW">     0</i>
   <i name="MODEL_EPS0">     58.26239943</i>
   <i name="MODEL_ALPHA">      1.00000000</i>
  </separator>
  <separator name="linear response parameters" >
   <i type="logical" name="LEPSILON"> F  </i>
   <i type="logical" name="LRPA"> F  </i>
   <i type="logical" name="LNABLA"> F  </i>
   <i type="logical" name="LVEL"> F  </i>
   <i type="int" name="KINTER">     0</i>
   <i name="CSHIFT">      0.10000000</i>
   <i name="OMEGAMAX">     -1.00000000</i>
   <i name="DEG_THRESHOLD">      0.00200000</i>
  </separator>
  <separator name="orbital magnetization" >
   <i type="logical" name="NUCIND"> F  </i>
   <v name="MAGPOS">      0.00000000      0.00000000      0.00000000</v>
   <i type="logical" name="LNICSALL"> T  </i>
   <i type="logical" name="ORBITALMAG"> F  </i>
   <i type="logical" name="LMAGBLOCH"> F  </i>
   <i type="logical" name="LCHIMAG"> F  </i>
   <i type="logical" name="LGAUGE"> T  </i>
   <i type="int" name="MAGATOM">     0</i>
   <v name="MAGDIPOL">      0.00000000      0.00000000      0.00000000</v>
   <v name="AVECCONST">      0.00000000      0.00000000      0.00000000</v>
  </separator>
  <separator name="response functions" >
   <i type="logical" name="LADDER"> F  </i>
   <i type="logical" name="LFXC"> F  </i>
   <i type="logical" name="LHARTREE"> T  </i>
   <i type="int" name="IBSE">     0</i>
   <v type="int" name="KPOINT">    -1     0     0     0</v>
   <i type="logical" name="LTCTE"> F  </i>
   <i type="logical" name="LTETE"> F  </i>
   <i type="logical" name="LTRIPLET"> F  </i>
   <i type="logical" name="LFXCEPS"> F  </i>
   <i type="logical" name="LFXHEG"> F  </i>
   <i type="int" name="NATURALO">     0</i>
   <i type="logical" name="L2ORDER"> F  </i>
   <i type="logical" name="LUSEW"> F  </i>
   <i name="ENCUTGW">     -2.00000000</i>
   <i name="ENCUTGWSOFT">     -2.00000000</i>
   <i name="ENCUTLF">     -1.00000000</i>
   <i type="int" name="LMAXMP2">    -1</i>
   <i name="SCISSOR">      0.00000000</i>
   <i type="int" name="NOMEGA">     0</i>
   <i type="int" name="NOMEGAR">     0</i>
   <i type="int" name="NBANDSGW">    -1</i>
   <i type="int" name="NBANDSO">    -1</i>
   <i type="int" name="NBANDSV">    -1</i>
   <i type="int" name="NELM">     1</i>
   <i type="int" name="NELMHF">     1</i>
   <i type="int" name="DIM">     3</i>
   <i type="int" name="ANTIRES">     0</i>
   <i name="OMEGAMAX">    -30.00000000</i>
   <i name="OMEGAMIN">    -30.00000000</i>
   <i name="OMEGATL">   -200.00000000</i>
   <i type="int" name="OMEGAGRID">     0</i>
   <i name="CSHIFT">     -0.10000000</i>
   <i type="logical" name="SELFENERGY"> F  </i>
   <i type="logical" name="LSPECTRAL"> F  </i>
   <i type="logical" name="LSPECTRALGW"> F  </i>
   <i type="logical" name="LSINGLES"> F  </i>
   <i type="logical" name="LFERMIGW"> F  </i>
   <i type="logical" name="ODDONLYGW"> F  </i>
   <i type="logical" name="EVENONLYGW"> F  </i>
   <i type="int" name="NKREDLFX">     1</i>
   <i type="int" name="NKREDLFY">     1</i>
   <i type="int" name="NKREDLFZ">     1</i>
   <i type="int" name="MAXMEM">  1800</i>
   <i type="int" name="TELESCOPE">     0</i>
   <i type="int" name="TAUPAR">     1</i>
   <i type="int" name="OMEGAPAR">    -1</i>
   <i name="LAMBDA">      1.00000000</i>
  </separator>
  <separator name="External order field" >
   <i name="OFIELD_KAPPA">      0.00000000</i>
   <v name="OFIELD_K">      0.00000000      0.00000000      0.00000000</v>
   <i name="OFIELD_Q6_NEAR">      0.00000000</i>
   <i name="OFIELD_Q6_FAR">      0.00000000</i>
   <i name="OFIELD_A">      0.00000000</i>
  </separator>
 </parameters>
 <atominfo>
  <atoms>      27 </atoms>
  <types>       4 </types>
  <array name="atoms" >
   <dimension dim="1">ion</dimension>
   <field type="string">element</field>
   <field type="int">atomtype</field>
   <set>
    <rc><c>V </c><c>   1</c></rc>
    <rc><c>V </c><c>   1</c></rc>
    <rc><c>V </c><c>   1</c></rc>
    <rc><c>Mo</c><c>   2</c></rc>
    <rc><c>Mo</c><c>   2</c></rc>
    <rc><c>Mo</c><c>   2</c></rc>
    <rc><c>W </c><c>   3</c></rc>
    <rc><c>W </c><c>   3</c></rc>
    <rc><c>W </c><c>   3</c></rc>
    <rc><c>S </c><c>   4</c></rc>
    <rc><c>S </c><c>   4</c></rc>
    <rc><c>S </c><c>   4</c></rc>
    <rc><c>S </c><c>   4</c></rc>
    <rc><c>S </c><c>   4</c></rc>
    <rc><c>S </c><c>   4</c></rc>
    <rc><c>S </c><c>   4</c></rc>
    <rc><c>S </c><c>   4</c></rc>
    <rc><c>S </c><c>   4</c></rc>
    <rc><c>S </c><c>   4</c></rc>
    <rc><c>S </c><c>   4</c></rc>
    <rc><c>S </c><c>   4</c></rc>
    <rc><c>S </c><c>   4</c></rc>
    <rc><c>S </c><c>   4</c></rc>
    <rc><c>S </c><c>   4</c></rc>
    <rc><c>S </c><c>   4</c></rc>
    <rc><c>S </c><c>   4</c></rc>
    <rc><c>S </c><c>   4</c></rc>
   </set>
  </array>
  <array name="atomtypes" >
   <dimension dim="1">type</dimension>
   <field type="int">atomspertype</field>
   <field type="string">element</field>
   <field>mass</field>
   <field>valence</field>
   <field type="string">pseudopotential</field>
   <set>
    <rc><c>   3</c><c>V </c><c>     50.94100000</c><c>      5.00000000</c><c> PAW_PBE V 08Apr2002                    </c></rc>
    <rc><c>   3</c><c>Mo</c><c>     95.94000000</c><c>      6.00000000</c><c> PAW_PBE Mo 08Apr2002                   </c></rc>
    <rc><c>   3</c><c>W </c><c>    183.85000000</c><c>      6.00000000</c><c> PAW_PBE W 08Apr2002                    </c></rc>
    <rc><c>  18</c><c>S </c><c>     32.06600000</c><c>      6.00000000</c><c>  PAW_PBE S 17Jan2003                   </c></rc>
   </set>
  </array>
 </atominfo>
 <structure name="initialpos" >
  <crystal>
   <varray name="basis" >
    <v>       8.66999996       5.03999989       0.00000000 </v>
    <v>      -8.66999982       5.04000013       0.00000000 </v>
    <v>       0.00000000       0.00000000      30.00000000 </v>
   </varray>
   <i name="volume">   2621.80797419 </i>
   <varray name="rec_basis" >
    <v>       0.05767013       0.09920635       0.00000000 </v>
    <v>      -0.05767013       0.09920635       0.00000000 </v>
    <v>       0.00000000       0.00000000       0.03333333 </v>
   </varray>
  </crystal>
  <varray name="positions" >
   <v>       0.66666669       0.33333334       0.00000000 </v>
   <v>       0.00000000       0.00000000       0.00000000 </v>
   <v>       0.33333334       0.33333334       0.00000000 </v>
   <v>       0.33333334       0.66666669       0.00000000 </v>
   <v>       1.00000000       0.33333334       0.00000000 </v>
   <v>       0.33333334       0.00000000       0.00000000 </v>
   <v>       0.00000000       0.66666669       0.00000000 </v>
   <v>       0.66666669       0.00000000       0.00000000 </v>
   <v>       0.66666669       0.66666669       0.00000000 </v>
   <v>       0.11068511       0.22244981       0.95539999 </v>
   <v>       0.22244981       0.11068511       0.04460000 </v>
   <v>       0.11068511       0.55578315       0.95539999 </v>
   <v>       0.22244981       0.44401845       0.04460000 </v>
   <v>       0.11068511       0.88911647       0.95539999 </v>
   <v>       0.22244981       0.77735180       0.04460000 </v>
   <v>       0.44401845       0.22244981       0.95539999 </v>
   <v>       0.55578315       0.11068511       0.04460000 </v>
   <v>       0.44401845       0.55578315       0.95539999 </v>
   <v>       0.55578315       0.44401845       0.04460000 </v>
   <v>       0.44401845       0.88911647       0.95539999 </v>
   <v>       0.55578315       0.77735180       0.04460000 </v>
   <v>       0.77735180       0.22244981       0.95539999 </v>
   <v>       0.88911647       0.11068511       0.04460000 </v>
   <v>       0.77735180       0.55578315       0.95539999 </v>
   <v>       0.88911647       0.44401845       0.04460000 </v>
   <v>       0.77735180       0.88911647       0.95539999 </v>
   <v>       0.88911647       0.77735180       0.04460000 </v>
  </varray>
 </structure>
 <calculation>
  <scstep>
   <time name="dav">   21.92   21.98</time>
   <time name="total">   21.97   22.03</time>
   <energy>
    <i name="alphaZ">     81.65567618 </i>
    <i name="ewald">  41890.23011081 </i>
    <i name="hartreedc"> -47722.86557371 </i>
    <i name="XCdc">   -242.92861154 </i>
    <i name="pawpsdc">   3467.42045192 </i>
    <i name="pawaedc">  -2871.19716117 </i>
    <i name="eentropy">     -0.53602902 </i>
    <i name="bandstr">   -237.20387473 </i>
    <i name="atom">   6761.44252427 </i>
    <i name="e_fr_energy">   1126.01751301 </i>
    <i name="e_wo_entrp">   1126.55354202 </i>
    <i name="e_0_energy">   1126.28552751 </i>
   </energy>
  </scstep>
  <scstep>
   <time name="dav">   28.80   28.87</time>
   <time name="total">   28.81   28.88</time>
   <energy>
    <i name="e_fr_energy">     -1.83931378 </i>
    <i name="e_wo_entrp">     -1.62608811 </i>
    <i name="e_0_energy">     -1.73270095 </i>
   </energy>
  </scstep>
  <scstep>
   <time name="dav">   27.75   27.82</time>
   <time name="total">   27.75   27.82</time>
   <energy>
    <i name="e_fr_energy">   -199.74794685 </i>
    <i name="e_wo_entrp">   -199.45815670 </i>
    <i name="e_0_energy">   -199.60305178 </i>
   </energy>
  </scstep>
  <scstep>
   <time name="dav">   30.58   30.66</time>
   <time name="total">   30.59   30.67</time>
   <energy>
    <i name="e_fr_energy">   -208.98543916 </i>
    <i name="e_wo_entrp">   -208.66863468 </i>
    <i name="e_0_energy">   -208.82703692 </i>
   </energy>
  </scstep>
  <scstep>
   <time name="dav">   28.50   28.58</time>
   <time name="total">   28.97   29.05</time>
   <energy>
    <i name="e_fr_energy">   -209.28832225 </i>
    <i name="e_wo_entrp">   -208.97437320 </i>
    <i name="e_0_energy">   -209.13134773 </i>
   </energy>
  </scstep>
  <scstep>
   <time name="dav">   31.47   31.54</time>
   <time name="total">   31.96   32.04</time>
   <energy>
    <i name="e_fr_energy">   -236.78468336 </i>
    <i name="e_wo_entrp">   -236.49628228 </i>
    <i name="e_0_energy">   -236.64048282 </i>
   </energy>
  </scstep>
  <scstep>
   <time name="dav">   32.32   32.40</time>
   <time name="total">   32.83   32.92</time>
   <energy>
    <i name="e_fr_energy">   -196.67415228 </i>
    <i name="e_wo_entrp">   -196.35216629 </i>
    <i name="e_0_energy">   -196.51315929 </i>
   </energy>
  </scstep>
  <scstep>
   <time name="dav">   29.72   29.79</time>
   <time name="total">   30.23   30.31</time>
   <energy>
    <i name="e_fr_energy">   -190.02773468 </i>
    <i name="e_wo_entrp">   -189.75432811 </i>
    <i name="e_0_energy">   -189.89103139 </i>
   </energy>
  </scstep>
  <scstep>
   <time name="dav">   29.72   29.79</time>
   <time name="total">   30.24   30.32</time>
   <energy>
    <i name="e_fr_energy">   -188.24032250 </i>
    <i name="e_wo_entrp">   -187.90233593 </i>
    <i name="e_0_energy">   -188.07132922 </i>
   </energy>
  </scstep>
  <scstep>
   <time name="dav">   33.00   33.08</time>
   <time name="total">   33.53   33.62</time>
   <energy>
    <i name="e_fr_energy">   -187.05636914 </i>
    <i name="e_wo_entrp">   -186.71290083 </i>
    <i name="e_0_energy">   -186.88463499 </i>
   </energy>
  </scstep>
  <scstep>
   <time name="dav">   31.10   31.18</time>
   <time name="total">   31.65   31.73</time>
   <energy>
    <i name="e_fr_energy">   -186.99613484 </i>
    <i name="e_wo_entrp">   -186.64499088 </i>
    <i name="e_0_energy">   -186.82056286 </i>
   </energy>
  </scstep>
  <scstep>
   <time name="dav">   31.56   31.64</time>
   <time name="total">   32.09   32.18</time>
   <energy>
    <i name="e_fr_energy">   -187.07246397 </i>
    <i name="e_wo_entrp">   -186.73873100 </i>
    <i name="e_0_energy">   -186.90559748 </i>
   </energy>
  </scstep>
  <scstep>
   <time name="dav">   32.19   32.27</time>
   <time name="total">   32.73   32.82</time>
   <energy>
    <i name="e_fr_energy">   -186.90586047 </i>
    <i name="e_wo_entrp">   -186.56789260 </i>
    <i name="e_0_energy">   -186.73687654 </i>
   </energy>
  </scstep>
  <scstep>
   <time name="dav">   31.98   32.06</time>
   <time name="total">   32.51   32.60</time>
   <energy>
    <i name="e_fr_energy">   -186.89380798 </i>
    <i name="e_wo_entrp">   -186.54967531 </i>
    <i name="e_0_energy">   -186.72174165 </i>
   </energy>
  </scstep>
  <scstep>
   <time name="dav">   32.14   32.22</time>
   <time name="total">   32.69   32.99</time>
   <energy>
    <i name="e_fr_energy">   -186.87006097 </i>
    <i name="e_wo_entrp">   -186.52347290 </i>
    <i name="e_0_energy">   -186.69676694 </i>
   </energy>
  </scstep>
  <scstep>
   <time name="dav">   32.04   32.12</time>
   <time name="total">   32.58   32.66</time>
   <energy>
    <i name="e_fr_energy">   -186.86557253 </i>
    <i name="e_wo_entrp">   -186.51988460 </i>
    <i name="e_0_energy">   -186.69272857 </i>
   </energy>
  </scstep>
  <scstep>
   <time name="dav">   31.94   32.02</time>
   <time name="total">   32.48   32.57</time>
   <energy>
    <i name="e_fr_energy">   -186.86362241 </i>
    <i name="e_wo_entrp">   -186.51963679 </i>
    <i name="e_0_energy">   -186.69162960 </i>
   </energy>
  </scstep>
  <scstep>
   <time name="dav">   29.20   29.27</time>
   <time name="total">   29.74   29.81</time>
   <energy>
    <i name="e_fr_energy">   -186.86297813 </i>
    <i name="e_wo_entrp">   -186.51879983 </i>
    <i name="e_0_energy">   -186.69088898 </i>
   </energy>
  </scstep>
  <scstep>
   <time name="dav">   26.02   26.08</time>
   <time name="total">   26.56   26.63</time>
   <energy>
    <i name="e_fr_energy">   -186.86285711 </i>
    <i name="e_wo_entrp">   -186.51844270 </i>
    <i name="e_0_energy">   -186.69064990 </i>
   </energy>
  </scstep>
  <scstep>
   <time name="dav">   23.87   23.93</time>
   <time name="total">   24.41   24.47</time>
   <energy>
    <i name="e_fr_energy">   -186.86370435 </i>
    <i name="e_wo_entrp">   -186.51947778 </i>
    <i name="e_0_energy">   -186.69159107 </i>
   </energy>
  </scstep>
  <scstep>
   <time name="dav">   22.47   22.53</time>
   <time name="total">   23.01   23.08</time>
   <energy>
    <i name="e_fr_energy">   -186.86438560 </i>
    <i name="e_wo_entrp">   -186.52023951 </i>
    <i name="e_0_energy">   -186.69231255 </i>
   </energy>
  </scstep>
  <scstep>
   <time name="dav">   20.96   21.01</time>
   <time name="total">   21.50   21.56</time>
   <energy>
    <i name="e_fr_energy">   -186.86541677 </i>
    <i name="e_wo_entrp">   -186.52112558 </i>
    <i name="e_0_energy">   -186.69327118 </i>
   </energy>
  </scstep>
  <scstep>
   <time name="dav">   20.61   20.66</time>
   <time name="total">   21.15   21.21</time>
   <energy>
    <i name="e_fr_energy">   -186.86656464 </i>
    <i name="e_wo_entrp">   -186.52241387 </i>
    <i name="e_0_energy">   -186.69448926 </i>
   </energy>
  </scstep>
  <scstep>
   <time name="dav">   19.27   19.32</time>
   <time name="total">   19.81   19.86</time>
   <energy>
    <i name="e_fr_energy">   -186.86714004 </i>
    <i name="e_wo_entrp">   -186.52294103 </i>
    <i name="e_0_energy">   -186.69504054 </i>
   </energy>
  </scstep>
  <scstep>
   <time name="dav">   16.80   16.84</time>
   <time name="total">   17.34   17.39</time>
   <energy>
    <i name="e_fr_energy">   -186.86750496 </i>
    <i name="e_wo_entrp">   -186.52328284 </i>
    <i name="e_0_energy">   -186.69539390 </i>
   </energy>
  </scstep>
  <scstep>
   <time name="dav">   19.32   19.36</time>
   <time name="total">   19.85   19.91</time>
   <energy>
    <i name="e_fr_energy">   -186.86774873 </i>
    <i name="e_wo_entrp">   -186.52354445 </i>
    <i name="e_0_energy">   -186.69564659 </i>
   </energy>
  </scstep>
  <scstep>
   <time name="dav">   20.44   20.49</time>
   <time name="total">   20.48   20.53</time>
   <energy>
    <i name="alphaZ">     81.65567618 </i>
    <i name="ewald">  41890.23011081 </i>
    <i name="hartreedc"> -47832.97523269 </i>
    <i name="XCdc">   -231.60457578 </i>
    <i name="pawpsdc">   4192.11561792 </i>
    <i name="pawaedc">  -3610.12945688 </i>
    <i name="eentropy">     -0.34420947 </i>
    <i name="bandstr">  -1437.25829392 </i>
    <i name="atom">   6761.44252427 </i>
    <i name="e_fr_energy">   -186.86783956 </i>
    <i name="e_wo_entrp">   -186.52363009 </i>
    <i name="e_0_energy">   -186.69573483 </i>
   </energy>
  </scstep>
  <structure>
   <crystal>
    <varray name="basis" >
     <v>       8.66999996       5.03999989       0.00000000 </v>
     <v>      -8.66999982       5.04000013       0.00000000 </v>
     <v>       0.00000000       0.00000000      30.00000000 </v>
    </varray>
    <i name="volume">   2621.80797419 </i>
    <varray name="rec_basis" >
     <v>       0.05767013       0.09920635       0.00000000 </v>
     <v>      -0.05767013       0.09920635       0.00000000 </v>
     <v>       0.00000000       0.00000000       0.03333333 </v>
    </varray>
   </crystal>
   <varray name="positions" >
    <v>       0.66666669       0.33333334       0.00000000 </v>
    <v>       0.00000000       0.00000000       0.00000000 </v>
    <v>       0.33333334       0.33333334       0.00000000 </v>
    <v>       0.33333334       0.66666669       0.00000000 </v>
    <v>       1.00000000       0.33333334       0.00000000 </v>
    <v>       0.33333334       0.00000000       0.00000000 </v>
    <v>       0.00000000       0.66666669       0.00000000 </v>
    <v>       0.66666669       0.00000000       0.00000000 </v>
    <v>       0.66666669       0.66666669       0.00000000 </v>
    <v>       0.11068511       0.22244981       0.95539999 </v>
    <v>       0.22244981       0.11068511       0.04460000 </v>
    <v>       0.11068511       0.55578315       0.95539999 </v>
    <v>       0.22244981       0.44401845       0.04460000 </v>
    <v>       0.11068511       0.88911647       0.95539999 </v>
    <v>       0.22244981       0.77735180       0.04460000 </v>
    <v>       0.44401845       0.22244981       0.95539999 </v>
    <v>       0.55578315       0.11068511       0.04460000 </v>
    <v>       0.44401845       0.55578315       0.95539999 </v>
    <v>       0.55578315       0.44401845       0.04460000 </v>
    <v>       0.44401845       0.88911647       0.95539999 </v>
    <v>       0.55578315       0.77735180       0.04460000 </v>
    <v>       0.77735180       0.22244981       0.95539999 </v>
    <v>       0.88911647       0.11068511       0.04460000 </v>
    <v>       0.77735180       0.55578315       0.95539999 </v>
    <v>       0.88911647       0.44401845       0.04460000 </v>
    <v>       0.77735180       0.88911647       0.95539999 </v>
    <v>       0.88911647       0.77735180       0.04460000 </v>
   </varray>
  </structure>
  <varray name="forces" >
   <v>       0.13170692      -0.16529336       0.06641191 </v>
   <v>       0.00418348       0.31385033      -0.07697633 </v>
   <v>      -0.13112416      -0.15831523      -0.01947760 </v>
   <v>      -0.24575145      -0.14359948       0.01563786 </v>
   <v>       0.03355968       0.29932762       0.01898904 </v>
   <v>       0.17757437      -0.10621350      -0.03558689 </v>
   <v>       0.55112710       0.30179688       0.12954580 </v>
   <v>      -0.28458856      -0.11056941      -0.10238006 </v>
   <v>      -0.24083269      -0.23909562       0.02127347 </v>
   <v>       0.90842743      -0.01734524      -1.48926959 </v>
   <v>      -0.89440973      -0.00132355       1.46057361 </v>
   <v>      -0.01986652       0.00503399      -2.94118143 </v>
   <v>       0.74139744       0.00436350       2.11190775 </v>
   <v>      -0.70210309      -0.14051487      -2.11755034 </v>
   <v>      -0.21394700      -0.17342181       2.93875023 </v>
   <v>      -0.31874228       0.66300378      -1.39725706 </v>
   <v>      -0.39051501       0.72165436       2.19458999 </v>
   <v>       0.61269803      -0.54059944      -2.14939939 </v>
   <v>       0.25782889      -0.50960972       1.43453708 </v>
   <v>       0.22840957       0.16217022      -2.89883510 </v>
   <v>      -0.05131909       0.10868365       2.89360559 </v>
   <v>      -0.63918952      -0.16026110      -2.09978550 </v>
   <v>       0.65981635      -0.13838015       2.06444973 </v>
   <v>       0.45547769      -0.57197834      -2.10851902 </v>
   <v>      -0.64336330      -0.55852378       2.16699511 </v>
   <v>       0.46934286       0.59484115      -2.20090622 </v>
   <v>      -0.45579741       0.56031912       2.11985737 </v>
  </varray>
  <varray name="stress" >
   <v>       7.44388774      -0.01328089      -1.61977023 </v>
   <v>      -0.01328099       4.31454659       0.01594344 </v>
   <v>      -1.61977030       0.01594350      30.30396589 </v>
  </varray>
  <energy>
   <i name="e_fr_energy">   -186.86783956 </i>
   <i name="e_wo_entrp">   -186.69573483 </i>
   <i name="e_0_energy">     -0.34420947 </i>
  </energy>
  <time name="totalsc">  790.46  792.76</time>
 </calculation>
 <calculation>
  <scstep>
   <time name="dav">   22.10   22.15</time>
   <time name="total">   22.64   22.70</time>
   <energy>
    <i name="alphaZ">     78.92070488 </i>
    <i name="ewald">  39379.58624488 </i>
    <i name="hartreedc"> -45337.06830759 </i>
    <i name="XCdc">   -239.06178621 </i>
    <i name="pawpsdc">   4192.09686323 </i>
    <i name="pawaedc">  -3610.11083129 </i>
    <i name="eentropy">     -0.28386743 </i>
    <i name="bandstr">  -1413.02840307 </i>
    <i name="atom">   6761.44252427 </i>
    <i name="e_fr_energy">   -187.50685833 </i>
    <i name="e_wo_entrp">   -187.22299089 </i>
    <i name="e_0_energy">   -187.36492461 </i>
   </energy>
  </scstep>
  <scstep>
   <time name="dav">   30.72   30.79</time>
   <time name="total">   31.26   31.34</time>
   <energy>
    <i name="e_fr_energy">   -189.51402949 </i>
    <i name="e_wo_entrp">   -189.17894423 </i>
    <i name="e_0_energy">   -189.34648686 </i>
   </energy>
  </scstep>
  <scstep>
   <time name="dav">   30.85   30.92</time>
   <time name="total">   31.40   31.48</time>
   <energy>
    <i name="e_fr_energy">   -189.36319551 </i>
    <i name="e_wo_entrp">   -189.08450146 </i>
    <i name="e_0_energy">   -189.22384849 </i>
   </energy>
  </scstep>
  <scstep>
   <time name="dav">   30.96   31.03</time>
   <time name="total">   31.51   31.59</time>
   <energy>
    <i name="e_fr_energy">   -188.79155649 </i>
    <i name="e_wo_entrp">   -188.50793748 </i>
    <i name="e_0_energy">   -188.64974699 </i>
   </energy>
  </scstep>
  <scstep>
   <time name="dav">   28.50   28.57</time>
   <time name="total">   29.05   29.12</time>
   <energy>
    <i name="e_fr_energy">   -188.88641238 </i>
    <i name="e_wo_entrp">   -188.59515912 </i>
    <i name="e_0_energy">   -188.74078575 </i>
   </energy>
  </scstep>
  <scstep>
   <time name="dav">   31.44   31.51</time>
   <time name="total">   31.99   32.07</time>
   <energy>
    <i name="e_fr_energy">   -188.75863654 </i>
    <i name="e_wo_entrp">   -188.47078306 </i>
    <i name="e_0_energy">   -188.61470980 </i>
   </energy>
  </scstep>
  <scstep>
   <time name="dav">   26.98   27.04</time>
   <time name="total">   27.53   27.60</time>
   <energy>
    <i name="e_fr_energy">   -188.70468651 </i>
    <i name="e_wo_entrp">   -188.41966346 </i>
    <i name="e_0_energy">   -188.56217499 </i>
   </energy>
  </scstep>
  <scstep>
   <time name="dav">   32.10   32.18</time>
   <time name="total">   32.65   32.74</time>
   <energy>
    <i name="e_fr_energy">   -188.69611453 </i>
    <i name="e_wo_entrp">   -188.41250956 </i>
    <i name="e_0_energy">   -188.55431204 </i>
   </energy>
  </scstep>
  <scstep>
   <time name="dav">   29.86   29.93</time>
   <time name="total">   30.41   30.49</time>
   <energy>
    <i name="e_fr_energy">   -188.68108626 </i>
    <i name="e_wo_entrp">   -188.39727455 </i>
    <i name="e_0_energy">   -188.53918040 </i>
   </energy>
  </scstep>
  <scstep>
   <time name="dav">   31.10   31.17</time>
   <time name="total">   31.65   31.73</time>
   <energy>
    <i name="e_fr_energy">   -188.67743887 </i>
    <i name="e_wo_entrp">   -188.39380037 </i>
    <i name="e_0_energy">   -188.53561962 </i>
   </energy>
  </scstep>
  <scstep>
   <time name="dav">   31.98   32.06</time>
   <time name="total">   32.53   32.62</time>
   <energy>
    <i name="e_fr_energy">   -188.67673740 </i>
    <i name="e_wo_entrp">   -188.39391142 </i>
    <i name="e_0_energy">   -188.53532441 </i>
   </energy>
  </scstep>
  <scstep>
   <time name="dav">   30.15   30.23</time>
   <time name="total">   30.19   30.27</time>
   <energy>
    <i name="alphaZ">     78.92070488 </i>
    <i name="ewald">  39379.58624488 </i>
    <i name="hartreedc"> -45347.98658970 </i>
    <i name="XCdc">   -237.96993203 </i>
    <i name="pawpsdc">   3952.76267241 </i>
    <i name="pawaedc">  -3367.30106992 </i>
    <i name="eentropy">     -0.28264860 </i>
    <i name="bandstr">  -1407.84874096 </i>
    <i name="atom">   6761.44252427 </i>
    <i name="e_fr_energy">   -188.67683477 </i>
    <i name="e_wo_entrp">   -188.39418617 </i>
    <i name="e_0_energy">   -188.53551047 </i>
   </energy>
  </scstep>
  <structure>
   <crystal>
    <varray name="basis" >
     <v>       8.85850631       5.10324365       0.00000000 </v>
     <v>      -8.85889759       5.10391723       0.00000000 </v>
     <v>       0.00000000       0.00000000      30.00000000 </v>
    </varray>
    <i name="volume">   2712.66587484 </i>
    <varray name="rec_basis" >
     <v>       0.05644540       0.09797260       0.00000000 </v>
     <v>      -0.05643795       0.09796827       0.00000000 </v>
     <v>       0.00000000       0.00000000       0.03333333 </v>
    </varray>
   </crystal>
   <varray name="positions" >
    <v>       0.66624203       0.33217582       0.00010680 </v>
    <v>       0.00151372       0.00149044      -0.00012378 </v>
    <v>       0.33221084       0.33294046      -0.00003132 </v>
    <v>       0.33196236       0.66666314       0.00002515 </v>
    <v>       1.00152594       0.33467255       0.00003054 </v>
    <v>       0.33331905      -0.00100238      -0.00005723 </v>
    <v>       0.00297772       0.66657776       0.00020832 </v>
    <v>       0.66534573       0.00026259      -0.00016464 </v>
    <v>       0.66485235       0.66619242       0.00003421 </v>
    <v>       0.11312949       0.21983941       0.95300511 </v>
    <v>       0.21995508       0.11316717       0.04694873 </v>
    <v>       0.11065393       0.55586252       0.95067031 </v>
    <v>       0.22453338       0.44197665       0.04799613 </v>
    <v>       0.10805925       0.89039733       0.95199478 </v>
    <v>       0.22102458       0.77711704       0.04932577 </v>
    <v>       0.44630478       0.22650972       0.95315308 </v>
    <v>       0.55815050       0.11522541       0.04812909 </v>
    <v>       0.44313578       0.55149123       0.95194357 </v>
    <v>       0.55406149       0.44086215       0.04690686 </v>
    <v>       0.44543007       0.88925714       0.95073841 </v>
    <v>       0.55616053       0.77801473       0.04925317 </v>
    <v>       0.77480646       0.22346113       0.95202335 </v>
    <v>       0.89028990       0.10818711       0.04791982 </v>
    <v>       0.77588153       0.55177847       0.95200930 </v>
    <v>       0.88465344       0.44313531       0.04808472 </v>
    <v>       0.78150448       0.89065758       0.95186074 </v>
    <v>       0.89053004       0.78130157       0.04800892 </v>
   </varray>
  </structure>
  <varray name="forces" >
   <v>       0.15057958      -0.14216337      -0.07258621 </v>
   <v>      -0.03108115       0.21129446       0.05515940 </v>
   <v>      -0.12761359      -0.11053771      -0.00549463 </v>
   <v>      -0.40589674      -0.10121756       0.01253371 </v>
   <v>      -0.13332042       0.38418183       0.08627394 </v>
   <v>       0.42537607      -0.23858863      -0.08267018 </v>
   <v>       0.64402332       0.34259247       0.02879213 </v>
   <v>      -0.18377067      -0.23771554      -0.03630815 </v>
   <v>      -0.33637421      -0.11342654      -0.01253350 </v>
   <v>       0.03980861       0.01674713      -0.01723706 </v>
   <v>      -0.02838453       0.01835297      -0.10068278 </v>
   <v>      -0.13436056       0.00951734      -0.22413686 </v>
   <v>       0.07101893      -0.00303230       0.08453365 </v>
   <v>       0.02600418      -0.11493231       0.01001973 </v>
   <v>      -0.04321374      -0.11140369       0.28444708 </v>
   <v>      -0.00913796       0.03345676       0.14873217 </v>
   <v>       0.09340770       0.06246122       0.05680376 </v>
   <v>       0.07439889       0.04755051       0.02191466 </v>
   <v>      -0.06160201       0.05909998      -0.10060448 </v>
   <v>       0.06914984       0.10312741      -0.18092399 </v>
   <v>       0.05584575       0.08789214       0.00561939 </v>
   <v>       0.01657294      -0.09920599       0.03132314 </v>
   <v>      -0.02662231      -0.10478661      -0.15002117 </v>
   <v>      -0.05573127       0.06663592       0.29059837 </v>
   <v>      -0.08544183       0.05662015       0.01306922 </v>
   <v>      -0.06170821      -0.05379859       0.10401194 </v>
   <v>       0.05807340      -0.06872146      -0.25063329 </v>
  </varray>
  <varray name="stress" >
   <v>     -19.98944566       0.00555576       0.07029069 </v>
   <v>       0.00555569     -19.53838697      -0.01009394 </v>
   <v>       0.07029072      -0.01009413      -1.74867964 </v>
  </varray>
  <energy>
   <i name="e_fr_energy">   -188.67683477 </i>
   <i name="e_wo_entrp">   -188.53551047 </i>
   <i name="e_0_energy">     -0.28264860 </i>
  </energy>
  <time name="totalsc">  405.49  406.54</time>
 </calculation>
 <calculation>
  <scstep>
   <time name="dav">   24.00   24.06</time>
   <time name="total">   24.53   24.59</time>
   <energy>
    <i name="alphaZ">     82.35575835 </i>
    <i name="ewald">  41308.79858687 </i>
    <i name="hartreedc"> -47307.84828314 </i>
    <i name="XCdc">   -233.83878403 </i>
    <i name="pawpsdc">   3950.50112346 </i>
    <i name="pawaedc">  -3365.01328678 </i>
    <i name="eentropy">     -0.23715249 </i>
    <i name="bandstr">  -1386.76788871 </i>
    <i name="atom">   6761.44252427 </i>
    <i name="e_fr_energy">   -190.60740221 </i>
    <i name="e_wo_entrp">   -190.37024973 </i>
    <i name="e_0_energy">   -190.48882597 </i>
   </energy>
  </scstep>
  <scstep>
   <time name="dav">   28.22   28.28</time>
   <time name="total">   28.74   28.82</time>
   <energy>
    <i name="e_fr_energy">   -190.56700166 </i>
    <i name="e_wo_entrp">   -190.32369714 </i>
    <i name="e_0_energy">   -190.44534940 </i>
   </energy>
  </scstep>
  <scstep>
   <time name="dav">   30.73   30.81</time>
   <time name="total">   31.26   31.34</time>
   <energy>
    <i name="e_fr_energy">   -190.08800132 </i>
    <i name="e_wo_entrp">   -189.83704183 </i>
    <i name="e_0_energy">   -189.96252158 </i>
   </energy>
  </scstep>
  <scstep>
   <time name="dav">   31.38   31.45</time>
   <time name="total">   31.92   32.00</time>
   <energy>
    <i name="e_fr_energy">   -189.88073274 </i>
    <i name="e_wo_entrp">   -189.64169620 </i>
    <i name="e_0_energy">   -189.76121447 </i>
   </energy>
  </scstep>
  <scstep>
   <time name="dav">   30.52   30.59</time>
   <time name="total">   31.05   31.13</time>
   <energy>
    <i name="e_fr_energy">   -189.92010643 </i>
    <i name="e_wo_entrp">   -189.67351193 </i>
    <i name="e_0_energy">   -189.79680918 </i>
   </energy>
  </scstep>
  <scstep>
   <time name="dav">   30.60   30.68</time>
   <time name="total">   31.14   31.22</time>
   <energy>
    <i name="e_fr_energy">   -189.77565562 </i>
    <i name="e_wo_entrp">   -189.53548497 </i>
    <i name="e_0_energy">   -189.65557030 </i>
   </energy>
  </scstep>
  <scstep>
   <time name="dav">   31.11   31.18</time>
   <time name="total">   31.64   31.73</time>
   <energy>
    <i name="e_fr_energy">   -189.76947050 </i>
    <i name="e_wo_entrp">   -189.52931582 </i>
    <i name="e_0_energy">   -189.64939316 </i>
   </energy>
  </scstep>
  <scstep>
   <time name="dav">   29.28   29.35</time>
   <time name="total">   29.82   29.90</time>
   <energy>
    <i name="e_fr_energy">   -189.77049835 </i>
    <i name="e_wo_entrp">   -189.53029690 </i>
    <i name="e_0_energy">   -189.65039762 </i>
   </energy>
  </scstep>
  <scstep>
   <time name="dav">   28.31   28.37</time>
   <time name="total">   28.84   28.92</time>
   <energy>
    <i name="e_fr_energy">   -189.76928306 </i>
    <i name="e_wo_entrp">   -189.52914217 </i>
    <i name="e_0_energy">   -189.64921261 </i>
   </energy>
  </scstep>
  <scstep>
   <time name="dav">   26.27   26.34</time>
   <time name="total">   26.81   26.88</time>
   <energy>
    <i name="e_fr_energy">   -189.76957042 </i>
    <i name="e_wo_entrp">   -189.52931294 </i>
    <i name="e_0_energy">   -189.64944168 </i>
   </energy>
  </scstep>
  <scstep>
   <time name="dav">   23.51   23.57</time>
   <time name="total">   24.05   24.11</time>
   <energy>
    <i name="e_fr_energy">   -189.76935454 </i>
    <i name="e_wo_entrp">   -189.52911598 </i>
    <i name="e_0_energy">   -189.64923526 </i>
   </energy>
  </scstep>
  <scstep>
   <time name="dav">   19.88   19.93</time>
   <time name="total">   19.92   19.97</time>
   <energy>
    <i name="alphaZ">     82.35575835 </i>
    <i name="ewald">  41308.79858687 </i>
    <i name="hartreedc"> -47281.09552688 </i>
    <i name="XCdc">   -235.23625051 </i>
    <i name="pawpsdc">   4039.07237298 </i>
    <i name="pawaedc">  -3454.78260913 </i>
    <i name="eentropy">     -0.24022740 </i>
    <i name="bandstr">  -1410.08400538 </i>
    <i name="atom">   6761.44252427 </i>
    <i name="e_fr_energy">   -189.76937684 </i>
    <i name="e_wo_entrp">   -189.52914944 </i>
    <i name="e_0_energy">   -189.64926314 </i>
   </energy>
  </scstep>
  <structure>
   <crystal>
    <varray name="basis" >
     <v>       8.66969467       4.99696216       0.00000000 </v>
     <v>      -8.67001714       4.99751673       0.00000000 </v>
     <v>       0.00000000       0.00000000      30.00000000 </v>
    </varray>
    <i name="volume">   2599.52075286 </i>
    <varray name="rec_basis" >
     <v>       0.05767429       0.10005710       0.00000000 </v>
     <v>      -0.05766789       0.10005338       0.00000000 </v>
     <v>       0.00000000       0.00000000       0.03333333 </v>
    </varray>
   </crystal>
   <varray name="positions" >
    <v>       0.66614970       0.33179444       0.00006565 </v>
    <v>       0.00183594       0.00187231      -0.00009252 </v>
    <v>       0.33190417       0.33287878      -0.00003444 </v>
    <v>       0.33140408       0.66688409       0.00003225 </v>
    <v>       1.00203808       0.33544060       0.00007944 </v>
    <v>       0.33332985      -0.00180817      -0.00010409 </v>
    <v>       0.00416676       0.66653041       0.00022464 </v>
    <v>       0.66477325       0.00004292      -0.00018522 </v>
    <v>       0.66434046       0.66632629       0.00002710 </v>
    <v>       0.11319560       0.21982910       0.95299534 </v>
    <v>       0.21995842       0.11322499       0.04689165 </v>
    <v>       0.11054081       0.55600733       0.95054325 </v>
    <v>       0.22459650       0.44190343       0.04804405 </v>
    <v>       0.10789271       0.89018088       0.95200046 </v>
    <v>       0.22079748       0.77697291       0.04948702 </v>
    <v>       0.44635176       0.22657424       0.95323739 </v>
    <v>       0.55834424       0.11523982       0.04816129 </v>
    <v>       0.44328643       0.55149905       0.95195599 </v>
    <v>       0.55410083       0.44101974       0.04684983 </v>
    <v>       0.44566828       0.88936259       0.95063584 </v>
    <v>       0.55636058       0.77810757       0.04925636 </v>
    <v>       0.77465708       0.22327994       0.95204111 </v>
    <v>       0.89008975       0.10803808       0.04783477 </v>
    <v>       0.77593906       0.55194298       0.95217404 </v>
    <v>       0.88466576       0.44331165       0.04809213 </v>
    <v>       0.78135561       0.89062717       0.95191970 </v>
    <v>       0.89047128       0.78113134       0.04786684 </v>
   </varray>
  </structure>
  <varray name="forces" >
   <v>       0.17306826      -0.12733441      -0.08571045 </v>
   <v>      -0.04381984       0.14209604       0.07443922 </v>
   <v>      -0.13314420      -0.07839948      -0.00074848 </v>
   <v>      -0.45369316      -0.06776338       0.00668221 </v>
   <v>      -0.18499636       0.38486782       0.07869189 </v>
   <v>       0.49692211      -0.28182200      -0.06528219 </v>
   <v>       0.64951769       0.34600403      -0.00511520 </v>
   <v>      -0.13721340      -0.28081169      -0.00541194 </v>
   <v>      -0.36554663      -0.05957504      -0.01992819 </v>
   <v>       0.10687993       0.01957737      -0.47226218 </v>
   <v>      -0.08342689       0.02249160       0.33282169 </v>
   <v>      -0.04951441       0.00988769      -0.80042996 </v>
   <v>       0.14970302       0.01104744       0.58065258 </v>
   <v>      -0.07961798      -0.05656982      -0.48330053 </v>
   <v>      -0.00196865      -0.02518505       0.87705744 </v>
   <v>      -0.04681507       0.08384867      -0.28798640 </v>
   <v>      -0.02527196       0.11241682       0.56127792 </v>
   <v>       0.05431657      -0.09617701      -0.47961882 </v>
   <v>       0.01501369      -0.08344801       0.35963328 </v>
   <v>       0.03596499       0.02660948      -0.75485115 </v>
   <v>      -0.00080119       0.02348917       0.56847509 </v>
   <v>      -0.08443854      -0.01891087      -0.45933760 </v>
   <v>       0.07165512      -0.04133183       0.32016989 </v>
   <v>       0.01970775      -0.02992312      -0.17889926 </v>
   <v>      -0.08902393      -0.07020187       0.52244941 </v>
   <v>       0.00605040       0.08186032      -0.40772632 </v>
   <v>       0.00049270       0.05325712       0.22425803 </v>
  </varray>
  <varray name="stress" >
   <v>     -10.15760271      -0.00289561       0.07215707 </v>
   <v>      -0.00289551      -9.76230895      -0.00830724 </v>
   <v>       0.07215709      -0.00830738       6.51488405 </v>
  </varray>
  <energy>
   <i name="e_fr_energy">   -189.76937684 </i>
   <i name="e_wo_entrp">   -189.64926314 </i>
   <i name="e_0_energy">     -0.24022740 </i>
  </energy>
  <time name="totalsc">  382.25  383.25</time>
 </calculation>
 <calculation>
  <scstep>
   <time name="dav">   22.04   22.09</time>
   <time name="total">   22.56   22.62</time>
   <energy>
    <i name="alphaZ">     85.79577823 </i>
    <i name="ewald">  42819.73395356 </i>
    <i name="hartreedc"> -48836.15564035 </i>
    <i name="XCdc">   -232.99004389 </i>
    <i name="pawpsdc">   4039.15511193 </i>
    <i name="pawaedc">  -3454.86297162 </i>
    <i name="eentropy">     -0.20402938 </i>
    <i name="bandstr">  -1373.22900280 </i>
    <i name="atom">   6761.44252427 </i>
    <i name="e_fr_energy">   -191.31432004 </i>
    <i name="e_wo_entrp">   -191.11029066 </i>
    <i name="e_0_energy">   -191.21230535 </i>
   </energy>
  </scstep>
  <scstep>
   <time name="dav">   32.55   32.62</time>
   <time name="total">   33.06   33.15</time>
   <energy>
    <i name="e_fr_energy">   -191.16483449 </i>
    <i name="e_wo_entrp">   -190.95532584 </i>
    <i name="e_0_energy">   -191.06008016 </i>
   </energy>
  </scstep>
  <scstep>
   <time name="dav">   30.52   30.60</time>
   <time name="total">   31.04   31.13</time>
   <energy>
    <i name="e_fr_energy">   -191.26914765 </i>
    <i name="e_wo_entrp">   -191.04775886 </i>
    <i name="e_0_energy">   -191.15845325 </i>
   </energy>
  </scstep>
  <scstep>
   <time name="dav">   32.10   32.18</time>
   <time name="total">   32.63   32.71</time>
   <energy>
    <i name="e_fr_energy">   -190.87325694 </i>
    <i name="e_wo_entrp">   -190.66584943 </i>
    <i name="e_0_energy">   -190.76955319 </i>
   </energy>
  </scstep>
  <scstep>
   <time name="dav">   30.63   30.71</time>
   <time name="total">   31.15   31.24</time>
   <energy>
    <i name="e_fr_energy">   -190.78965282 </i>
    <i name="e_wo_entrp">   -190.57894687 </i>
    <i name="e_0_energy">   -190.68429985 </i>
   </energy>
  </scstep>
  <scstep>
   <time name="dav">   31.38   31.46</time>
   <time name="total">   31.91   31.99</time>
   <energy>
    <i name="e_fr_energy">   -190.77217001 </i>
    <i name="e_wo_entrp">   -190.56123855 </i>
    <i name="e_0_energy">   -190.66670428 </i>
   </energy>
  </scstep>
  <scstep>
   <time name="dav">   29.66   29.73</time>
   <time name="total">   30.18   30.26</time>
   <energy>
    <i name="e_fr_energy">   -190.75109073 </i>
    <i name="e_wo_entrp">   -190.54098756 </i>
    <i name="e_0_energy">   -190.64603915 </i>
   </energy>
  </scstep>
  <scstep>
   <time name="dav">   29.13   29.20</time>
   <time name="total">   29.65   29.73</time>
   <energy>
    <i name="e_fr_energy">   -190.74800061 </i>
    <i name="e_wo_entrp">   -190.53789955 </i>
    <i name="e_0_energy">   -190.64295008 </i>
   </energy>
  </scstep>
  <scstep>
   <time name="dav">   28.92   28.99</time>
   <time name="total">   29.44   29.52</time>
   <energy>
    <i name="e_fr_energy">   -190.74740267 </i>
    <i name="e_wo_entrp">   -190.53735511 </i>
    <i name="e_0_energy">   -190.64237889 </i>
   </energy>
  </scstep>
  <scstep>
   <time name="dav">   28.27   28.34</time>
   <time name="total">   28.79   28.87</time>
   <energy>
    <i name="e_fr_energy">   -190.74751759 </i>
    <i name="e_wo_entrp">   -190.53719555 </i>
    <i name="e_0_energy">   -190.64235657 </i>
   </energy>
  </scstep>
  <scstep>
   <time name="dav">   25.98   26.04</time>
   <time name="total">   26.49   26.56</time>
   <energy>
    <i name="e_fr_energy">   -190.74730370 </i>
    <i name="e_wo_entrp">   -190.53723916 </i>
    <i name="e_0_energy">   -190.64227143 </i>
   </energy>
  </scstep>
  <scstep>
   <time name="dav">   20.39   20.44</time>
   <time name="total">   20.43   20.48</time>
   <energy>
    <i name="alphaZ">     85.79577823 </i>
    <i name="ewald">  42819.73395356 </i>
    <i name="hartreedc"> -48807.83782416 </i>
    <i name="XCdc">   -234.30458761 </i>
    <i name="pawpsdc">   4063.19303164 </i>
    <i name="pawaedc">  -3479.07344548 </i>
    <i name="eentropy">     -0.21008490 </i>
    <i name="bandstr">  -1399.48664457 </i>
    <i name="atom">   6761.44252427 </i>
    <i name="e_fr_energy">   -190.74729902 </i>
    <i name="e_wo_entrp">   -190.53721412 </i>
    <i name="e_0_energy">   -190.64225657 </i>
   </energy>
  </scstep>
  <structure>
   <crystal>
    <varray name="basis" >
     <v>       8.48823729       4.89886492       0.00000000 </v>
     <v>      -8.48879637       4.89983085       0.00000000 </v>
     <v>       0.00000000       0.00000000      30.00000000 </v>
    </varray>
    <i name="volume">   2495.29181209 </i>
    <varray name="rec_basis" >
     <v>       0.05890891       0.10205776       0.00000000 </v>
     <v>      -0.05889730       0.10205104       0.00000000 </v>
     <v>       0.00000000       0.00000000       0.03333333 </v>
    </varray>
   </crystal>
   <varray name="positions" >
    <v>       0.66604605       0.33037874      -0.00012247 </v>
    <v>       0.00237742       0.00276605       0.00007750 </v>
    <v>       0.33100533       0.33295582      -0.00003199 </v>
    <v>       0.32935900       0.66824679       0.00004114 </v>
    <v>       1.00370619       0.33858985       0.00023565 </v>
    <v>       0.33335406      -0.00557105      -0.00022434 </v>
    <v>       0.00868900       0.66635319       0.00018555 </v>
    <v>       0.66248199      -0.00139143      -0.00017041 </v>
    <v>       0.66274138       0.66744631      -0.00002029 </v>
    <v>       0.11380596       0.21947767       0.95163689 </v>
    <v>       0.21973010       0.11375506       0.04794391 </v>
    <v>       0.11054588       0.55612777       0.94840479 </v>
    <v>       0.22535226       0.44135554       0.04966101 </v>
    <v>       0.10724567       0.89040884       0.95058700 </v>
    <v>       0.22090477       0.77697690       0.05179752 </v>
    <v>       0.44677828       0.22744565       0.95227506 </v>
    <v>       0.55891066       0.11632651       0.04974525 </v>
    <v>       0.44249683       0.55037501       0.95054322 </v>
    <v>       0.55338977       0.43998222       0.04797997 </v>
    <v>       0.44572794       0.88925744       0.94859354 </v>
    <v>       0.55626470       0.77817882       0.05090429 </v>
    <v>       0.77428898       0.22380845       0.95067939 </v>
    <v>       0.89038647       0.10753815       0.04889175 </v>
    <v>       0.77569171       0.55133864       0.95140952 </v>
    <v>       0.88358707       0.44288515       0.04959998 </v>
    <v>       0.78232129       0.89135618       0.95064688 </v>
    <v>       0.89102569       0.78184618       0.04872961 </v>
   </varray>
  </structure>
  <varray name="forces" >
   <v>       0.19556557      -0.14260785      -0.08127882 </v>
   <v>      -0.07126376       0.07259384       0.08062219 </v>
   <v>      -0.11317937      -0.03538531       0.00622830 </v>
   <v>      -0.46724992      -0.00979128      -0.00601437 </v>
   <v>      -0.20638605       0.39460458       0.04085896 </v>
   <v>       0.52954905      -0.28176055      -0.00488249 </v>
   <v>       0.65268676       0.34965589      -0.02662350 </v>
   <v>      -0.10149853      -0.34134343       0.02908008 </v>
   <v>      -0.43398105      -0.05487378      -0.03608729 </v>
   <v>      -0.00264512       0.03686898      -0.35864427 </v>
   <v>       0.04897450       0.02805514       0.21660289 </v>
   <v>       0.03894558       0.02734714      -0.61116560 </v>
   <v>       0.01878187       0.03923323       0.40145086 </v>
   <v>       0.03885348      -0.01096205      -0.30964602 </v>
   <v>       0.02164234       0.01778065       0.69720009 </v>
   <v>       0.01991960      -0.05516947      -0.19271004 </v>
   <v>      -0.02732615      -0.00731868       0.37811932 </v>
   <v>      -0.05388966      -0.06972051      -0.31145067 </v>
   <v>      -0.01773049      -0.04977814       0.23456010 </v>
   <v>       0.03133280      -0.03532821      -0.59495309 </v>
   <v>      -0.08013474      -0.05019760       0.41443694 </v>
   <v>       0.01676954       0.01455091      -0.26143867 </v>
   <v>      -0.04973927       0.02022853       0.15084028 </v>
   <v>       0.02082826       0.05826116       0.00562726 </v>
   <v>      -0.04002375       0.01554755       0.38114548 </v>
   <v>      -0.02985392       0.06173299      -0.31069880 </v>
   <v>       0.06105244       0.00777627       0.06882089 </v>
  </varray>
  <varray name="stress" >
   <v>      -5.70780268       0.00116274      -0.14277328 </v>
   <v>       0.00116264      -5.93396647       0.00003105 </v>
   <v>      -0.14277355       0.00003112       4.43533116 </v>
  </varray>
  <energy>
   <i name="e_fr_energy">   -190.74729902 </i>
   <i name="e_wo_entrp">   -190.64225657 </i>
   <i name="e_0_energy">     -0.21008490 </i>
  </energy>
  <time name="totalsc">  390.25  391.28</time>
 </calculation>
 <calculation>
  <scstep>
   <time name="dav">   22.02   22.08</time>
   <time name="total">   22.53   22.59</time>
   <energy>
    <i name="alphaZ">     90.21170256 </i>
    <i name="ewald">  44689.78792595 </i>
    <i name="hartreedc"> -50733.50860227 </i>
    <i name="XCdc">   -231.76816528 </i>
    <i name="pawpsdc">   4063.17313977 </i>
    <i name="pawaedc">  -3479.04835415 </i>
    <i name="eentropy">     -0.19637983 </i>
    <i name="bandstr">  -1352.25100966 </i>
    <i name="atom">   6761.44252427 </i>
    <i name="e_fr_energy">   -192.15721864 </i>
    <i name="e_wo_entrp">   -191.96083881 </i>
    <i name="e_0_energy">   -192.05902872 </i>
   </energy>
  </scstep>
  <scstep>
   <time name="dav">   28.62   28.69</time>
   <time name="total">   29.13   29.21</time>
   <energy>
    <i name="e_fr_energy">   -191.86581155 </i>
    <i name="e_wo_entrp">   -191.66272273 </i>
    <i name="e_0_energy">   -191.76426714 </i>
   </energy>
  </scstep>
  <scstep>
   <time name="dav">   30.23   30.30</time>
   <time name="total">   30.74   30.82</time>
   <energy>
    <i name="e_fr_energy">   -192.01120934 </i>
    <i name="e_wo_entrp">   -191.80772346 </i>
    <i name="e_0_energy">   -191.90946640 </i>
   </energy>
  </scstep>
  <scstep>
   <time name="dav">   28.94   29.00</time>
   <time name="total">   29.45   29.52</time>
   <energy>
    <i name="e_fr_energy">   -191.75303357 </i>
    <i name="e_wo_entrp">   -191.55274857 </i>
    <i name="e_0_energy">   -191.65289107 </i>
   </energy>
  </scstep>
  <scstep>
   <time name="dav">   30.62   30.69</time>
   <time name="total">   31.13   31.21</time>
   <energy>
    <i name="e_fr_energy">   -191.58709505 </i>
    <i name="e_wo_entrp">   -191.38343906 </i>
    <i name="e_0_energy">   -191.48526706 </i>
   </energy>
  </scstep>
  <scstep>
   <time name="dav">   30.53   30.61</time>
   <time name="total">   31.05   31.13</time>
   <energy>
    <i name="e_fr_energy">   -191.43611005 </i>
    <i name="e_wo_entrp">   -191.23044849 </i>
    <i name="e_0_energy">   -191.33327927 </i>
   </energy>
  </scstep>
  <scstep>
   <time name="dav">   30.75   30.83</time>
   <time name="total">   31.26   31.34</time>
   <energy>
    <i name="e_fr_energy">   -191.42787890 </i>
    <i name="e_wo_entrp">   -191.22396232 </i>
    <i name="e_0_energy">   -191.32592061 </i>
   </energy>
  </scstep>
  <scstep>
   <time name="dav">   30.15   30.23</time>
   <time name="total">   30.67   30.75</time>
   <energy>
    <i name="e_fr_energy">   -191.42605351 </i>
    <i name="e_wo_entrp">   -191.22132779 </i>
    <i name="e_0_energy">   -191.32369065 </i>
   </energy>
  </scstep>
  <scstep>
   <time name="dav">   30.99   31.07</time>
   <time name="total">   31.50   31.58</time>
   <energy>
    <i name="e_fr_energy">   -191.41949049 </i>
    <i name="e_wo_entrp">   -191.21476098 </i>
    <i name="e_0_energy">   -191.31712573 </i>
   </energy>
  </scstep>
  <scstep>
   <time name="dav">   28.46   28.53</time>
   <time name="total">   28.98   29.05</time>
   <energy>
    <i name="e_fr_energy">   -191.41978130 </i>
    <i name="e_wo_entrp">   -191.21478357 </i>
    <i name="e_0_energy">   -191.31728243 </i>
   </energy>
  </scstep>
  <scstep>
   <time name="dav">   28.47   28.54</time>
   <time name="total">   28.98   29.06</time>
   <energy>
    <i name="e_fr_energy">   -191.41963609 </i>
    <i name="e_wo_entrp">   -191.21478125 </i>
    <i name="e_0_energy">   -191.31720867 </i>
   </energy>
  </scstep>
  <scstep>
   <time name="dav">   19.85   19.90</time>
   <time name="total">   19.89   19.94</time>
   <energy>
    <i name="alphaZ">     90.21170256 </i>
    <i name="ewald">  44689.78792595 </i>
    <i name="hartreedc"> -50699.20824702 </i>
    <i name="XCdc">   -233.31663722 </i>
    <i name="pawpsdc">   4087.57330221 </i>
    <i name="pawaedc">  -3503.57685038 </i>
    <i name="eentropy">     -0.20493526 </i>
    <i name="bandstr">  -1384.12840275 </i>
    <i name="atom">   6761.44252427 </i>
    <i name="e_fr_energy">   -191.41961762 </i>
    <i name="e_wo_entrp">   -191.21468237 </i>
    <i name="e_0_energy">   -191.31714999 </i>
   </energy>
  </scstep>
  <structure>
   <crystal>
    <varray name="basis" >
     <v>       8.28274202       4.77452188       0.00000000 </v>
     <v>      -8.28340163       4.77566127       0.00000000 </v>
     <v>       0.00000000       0.00000000      30.00000000 </v>
    </varray>
    <i name="volume">   2373.14557709 </i>
    <varray name="rec_basis" >
     <v>       0.06037128       0.10471420       0.00000000 </v>
     <v>      -0.06035688       0.10470587       0.00000000 </v>
     <v>       0.00000000       0.00000000       0.03333333 </v>
    </varray>
   </crystal>
   <varray name="positions" >
    <v>       0.66576407       0.32729090      -0.00046317 </v>
    <v>       0.00268593       0.00407524       0.00041593 </v>
    <v>       0.32976017       0.33337286      -0.00000612 </v>
    <v>       0.32585767       0.67150673       0.00001808 </v>
    <v>       1.00701329       0.34495472       0.00041200 </v>
    <v>       0.33361053      -0.01300156      -0.00025902 </v>
    <v>       0.01762719       0.66601890       0.00005726 </v>
    <v>       0.65758561      -0.00493316      -0.00004212 </v>
    <v>       0.65915185       0.66997967      -0.00016345 </v>
    <v>       0.11443533       0.21971364       0.94969604 </v>
    <v>       0.22020762       0.11397258       0.04929625 </v>
    <v>       0.11118618       0.55610411       0.94529401 </v>
    <v>       0.22621657       0.44144318       0.05184826 </v>
    <v>       0.10719073       0.89037808       0.94877312 </v>
    <v>       0.22149863       0.77717248       0.05526380 </v>
    <v>       0.44649019       0.22712699       0.95102641 </v>
    <v>       0.55877423       0.11696607       0.05184931 </v>
    <v>       0.44087163       0.54937409       0.94871701 </v>
    <v>       0.55234538       0.43887367       0.04943502 </v>
    <v>       0.44534865       0.88853446       0.94556561 </v>
    <v>       0.55499863       0.77808536       0.05319531 </v>
    <v>       0.77449810       0.22430683       0.94904830 </v>
    <v>       0.89064069       0.10794131       0.05004472 </v>
    <v>       0.77625622       0.55136044       0.95087583 </v>
    <v>       0.88293574       0.44290713       0.05169871 </v>
    <v>       0.78343702       0.89260288       0.94885153 </v>
    <v>       0.89182659       0.78208687       0.04955128 </v>
   </varray>
  </structure>
  <varray name="forces" >
   <v>       0.24507408      -0.19578999      -0.02496461 </v>
   <v>      -0.10312907       0.03841201       0.01736153 </v>
   <v>      -0.07310749      -0.00959934       0.02547009 </v>
   <v>       0.01556473       0.09390725      -0.02691897 </v>
   <v>      -0.08764543       0.30024008      -0.02024465 </v>
   <v>       0.24381243      -0.02077044       0.04605613 </v>
   <v>       0.26095310       0.13349790       0.04053985 </v>
   <v>      -0.02707019      -0.38043320      -0.04347850 </v>
   <v>      -0.53365449      -0.06292144      -0.05605928 </v>
   <v>      -0.09418915       0.02727855      -0.04049978 </v>
   <v>       0.17578954       0.01796433      -0.05615347 </v>
   <v>       0.10453653       0.06845871      -0.30270506 </v>
   <v>      -0.13733398       0.08807859       0.07372596 </v>
   <v>       0.17427742       0.00417714       0.01096094 </v>
   <v>       0.03826431       0.03413261       0.31097080 </v>
   <v>       0.10377375      -0.20759132       0.03963074 </v>
   <v>       0.02454892      -0.10154224       0.12689405 </v>
   <v>      -0.16372278      -0.01606645      -0.07937093 </v>
   <v>      -0.04016259       0.02417981      -0.06094477 </v>
   <v>       0.03897351      -0.06375341      -0.26284350 </v>
   <v>      -0.13951987      -0.11064180       0.24370008 </v>
   <v>       0.13951253       0.00149836       0.06226996 </v>
   <v>      -0.21659281       0.06117849      -0.11504427 </v>
   <v>      -0.01223452       0.20737792       0.32183550 </v>
   <v>      -0.01496796       0.12363022       0.07685144 </v>
   <v>      -0.10016662       0.02726753      -0.07778424 </v>
   <v>       0.17841608      -0.08216986      -0.22925503 </v>
  </varray>
  <varray name="stress" >
   <v>       0.61643003      -0.08954695      -0.35392672 </v>
   <v>      -0.08954694       0.12155239       0.01776956 </v>
   <v>      -0.35392664       0.01776960      -0.32009203 </v>
  </varray>
  <energy>
   <i name="e_fr_energy">   -191.41961762 </i>
   <i name="e_wo_entrp">   -191.31714999 </i>
   <i name="e_0_energy">     -0.20493526 </i>
  </energy>
  <time name="totalsc">  387.76  388.76</time>
 </calculation>
 <calculation>
  <scstep>
   <time name="dav">   22.03   22.09</time>
   <time name="total">   22.55   22.60</time>
   <energy>
    <i name="alphaZ">     89.93980283 </i>
    <i name="ewald">  44549.82971897 </i>
    <i name="hartreedc"> -50556.92626096 </i>
    <i name="XCdc">   -233.57283133 </i>
    <i name="pawpsdc">   4087.50098934 </i>
    <i name="pawaedc">  -3503.50011930 </i>
    <i name="eentropy">     -0.20891683 </i>
    <i name="bandstr">  -1385.98877254 </i>
    <i name="atom">   6761.44252427 </i>
    <i name="e_fr_energy">   -191.48386554 </i>
    <i name="e_wo_entrp">   -191.27494872 </i>
    <i name="e_0_energy">   -191.37940713 </i>
   </energy>
  </scstep>
  <scstep>
   <time name="dav">   32.08   32.16</time>
   <time name="total">   32.59   32.68</time>
   <energy>
    <i name="e_fr_energy">   -191.54667734 </i>
    <i name="e_wo_entrp">   -191.33325002 </i>
    <i name="e_0_energy">   -191.43996368 </i>
   </energy>
  </scstep>
  <scstep>
   <time name="dav">   31.02   31.09</time>
   <time name="total">   31.53   31.61</time>
   <energy>
    <i name="e_fr_energy">   -191.49342154 </i>
    <i name="e_wo_entrp">   -191.28382277 </i>
    <i name="e_0_energy">   -191.38862216 </i>
   </energy>
  </scstep>
  <scstep>
   <time name="dav">   28.16   28.22</time>
   <time name="total">   28.67   28.74</time>
   <energy>
    <i name="e_fr_energy">   -191.49594879 </i>
    <i name="e_wo_entrp">   -191.28665070 </i>
    <i name="e_0_energy">   -191.39129975 </i>
   </energy>
  </scstep>
  <scstep>
   <time name="dav">   28.60   28.67</time>
   <time name="total">   29.13   29.20</time>
   <energy>
    <i name="e_fr_energy">   -191.49073818 </i>
    <i name="e_wo_entrp">   -191.28077210 </i>
    <i name="e_0_energy">   -191.38575514 </i>
   </energy>
  </scstep>
  <scstep>
   <time name="dav">   27.85   27.91</time>
   <time name="total">   28.36   28.43</time>
   <energy>
    <i name="e_fr_energy">   -191.49044840 </i>
    <i name="e_wo_entrp">   -191.28061376 </i>
    <i name="e_0_energy">   -191.38553108 </i>
   </energy>
  </scstep>
  <scstep>
   <time name="dav">   28.98   29.05</time>
   <time name="total">   29.49   29.57</time>
   <energy>
    <i name="e_fr_energy">   -191.49082826 </i>
    <i name="e_wo_entrp">   -191.28126287 </i>
    <i name="e_0_energy">   -191.38604557 </i>
   </energy>
  </scstep>
  <scstep>
   <time name="dav">   25.11   25.17</time>
   <time name="total">   25.62   25.69</time>
   <energy>
    <i name="e_fr_energy">   -191.48985120 </i>
    <i name="e_wo_entrp">   -191.28006948 </i>
    <i name="e_0_energy">   -191.38496034 </i>
   </energy>
  </scstep>
  <scstep>
   <time name="dav">   17.19   17.23</time>
   <time name="total">   17.22   17.27</time>
   <energy>
    <i name="alphaZ">     89.93980283 </i>
    <i name="ewald">  44549.82971897 </i>
    <i name="hartreedc"> -50559.97574275 </i>
    <i name="XCdc">   -233.46211803 </i>
    <i name="pawpsdc">   4083.14914617 </i>
    <i name="pawaedc">  -3499.08970718 </i>
    <i name="eentropy">     -0.20969016 </i>
    <i name="bandstr">  -1383.11377368 </i>
    <i name="atom">   6761.44252427 </i>
    <i name="e_fr_energy">   -191.48983956 </i>
    <i name="e_wo_entrp">   -191.28014941 </i>
    <i name="e_0_energy">   -191.38499449 </i>
   </energy>
  </scstep>
  <structure>
   <crystal>
    <varray name="basis" >
     <v>       8.29910223       4.77709103       0.00000000 </v>
     <v>      -8.30186206       4.78187219       0.00000000 </v>
     <v>       0.00000000       0.00000000      30.00000000 </v>
    </varray>
    <i name="volume">   2380.31990520 </i>
    <varray name="rec_basis" >
     <v>       0.06026760       0.10463126       0.00000000 </v>
     <v>      -0.06020734       0.10459647       0.00000000 </v>
     <v>       0.00000000       0.00000000       0.03333333 </v>
    </varray>
   </crystal>
   <varray name="positions" >
    <v>       0.66551681       0.32582939      -0.00048624 </v>
    <v>       0.00257638       0.00448469       0.00042770 </v>
    <v>       0.32956773       0.33350763       0.00003096 </v>
    <v>       0.32648696       0.67177132      -0.00002134 </v>
    <v>       1.00805553       0.34634384       0.00037411 </v>
    <v>       0.33416493      -0.01345105      -0.00018818 </v>
    <v>       0.01859780       0.66595297       0.00012384 </v>
    <v>       0.65592125      -0.00650356      -0.00011283 </v>
    <v>       0.65754986       0.67102419      -0.00024164 </v>
    <v>       0.11427705       0.22009436       0.94972845 </v>
    <v>       0.22075555       0.11356528       0.04914359 </v>
    <v>       0.11176514       0.55614595       0.94498568 </v>
    <v>       0.22621631       0.44223388       0.05185351 </v>
    <v>       0.10769093       0.88991579       0.94887935 </v>
    <v>       0.22173277       0.77721774       0.05556970 </v>
    <v>       0.44579967       0.22586775       0.95114986 </v>
    <v>       0.55836445       0.11638074       0.05193734 </v>
    <v>       0.44042874       0.54979799       0.94868854 </v>
    <v>       0.55240131       0.43915880       0.04927014 </v>
    <v>       0.44517442       0.88816006       0.94531313 </v>
    <v>       0.55415322       0.77794820       0.05344958 </v>
    <v>       0.77487762       0.22390300       0.94922422 </v>
    <v>       0.89032069       0.10880581       0.04981021 </v>
    <v>       0.77718423       0.55238372       0.95139509 </v>
    <v>       0.88351895       0.44354110       0.05171247 </v>
    <v>       0.78323236       0.89294442       0.94882341 </v>
    <v>       0.89188379       0.78119042       0.04915926 </v>
   </varray>
  </structure>
  <varray name="forces" >
   <v>       0.27690154      -0.24564982      -0.03396810 </v>
   <v>      -0.07616393       0.06086908       0.04607665 </v>
   <v>      -0.07187446      -0.02627493       0.04435939 </v>
   <v>      -0.02579971       0.08092434      -0.00167906 </v>
   <v>      -0.12229428       0.38365953      -0.00704125 </v>
   <v>       0.27582185      -0.02290634       0.02548647 </v>
   <v>       0.40695254       0.18975896      -0.01034042 </v>
   <v>      -0.03889385      -0.43747772      -0.01161041 </v>
   <v>      -0.60346933      -0.06302725      -0.03681686 </v>
   <v>      -0.05332077       0.02140170      -0.02926560 </v>
   <v>       0.10741424       0.01119295      -0.07627257 </v>
   <v>       0.04211114       0.06518060      -0.19935670 </v>
   <v>      -0.07345880       0.05988397       0.06746146 </v>
   <v>       0.10222969       0.00610104       0.03617505 </v>
   <v>       0.04874746       0.02605367       0.20464590 </v>
   <v>       0.06280801      -0.12274992       0.05709063 </v>
   <v>       0.03992038      -0.04760863       0.12660870 </v>
   <v>      -0.08812426      -0.02809307      -0.11848773 </v>
   <v>      -0.03517969       0.03481454      -0.10526776 </v>
   <v>       0.01376171      -0.04347294      -0.22496896 </v>
   <v>      -0.09616002      -0.05605309       0.24624293 </v>
   <v>       0.11190361      -0.00864388       0.07111961 </v>
   <v>      -0.16238746       0.03156487      -0.15786987 </v>
   <v>      -0.05424237       0.12184581       0.35139276 </v>
   <v>      -0.00239921       0.06585980       0.04935294 </v>
   <v>      -0.08051117       0.01590009      -0.07548877 </v>
   <v>       0.09570712      -0.07305338      -0.23757844 </v>
  </varray>
  <varray name="stress" >
   <v>      -0.27220166      -0.05984628      -0.14420473 </v>
   <v>      -0.05984626      -0.30783071       0.03730427 </v>
   <v>      -0.14420482       0.03730413      -0.95596183 </v>
  </varray>
  <energy>
   <i name="e_fr_energy">   -191.48983956 </i>
   <i name="e_wo_entrp">   -191.38499449 </i>
   <i name="e_0_energy">     -0.20969016 </i>
  </energy>
  <time name="totalsc">  288.00  288.75</time>
 </calculation>
 <calculation>
  <scstep>
   <time name="dav">   22.01   22.06</time>
   <time name="total">   22.53   22.58</time>
   <energy>
    <i name="alphaZ">     90.03648460 </i>
    <i name="ewald">  44590.43970884 </i>
    <i name="hartreedc"> -50601.72247810 </i>
    <i name="XCdc">   -233.41011619 </i>
    <i name="pawpsdc">   4082.85658928 </i>
    <i name="pawaedc">  -3498.79381271 </i>
    <i name="eentropy">     -0.21078403 </i>
    <i name="bandstr">  -1382.17395461 </i>
    <i name="atom">   6761.44252427 </i>
    <i name="e_fr_energy">   -191.53583863 </i>
    <i name="e_wo_entrp">   -191.32505460 </i>
    <i name="e_0_energy">   -191.43044662 </i>
   </energy>
  </scstep>
  <scstep>
   <time name="dav">   33.17   33.25</time>
   <time name="total">   33.68   33.77</time>
   <energy>
    <i name="e_fr_energy">   -191.54958915 </i>
    <i name="e_wo_entrp">   -191.33594277 </i>
    <i name="e_0_energy">   -191.44276596 </i>
   </energy>
  </scstep>
  <scstep>
   <time name="dav">   30.34   30.41</time>
   <time name="total">   30.85   30.94</time>
   <energy>
    <i name="e_fr_energy">   -191.53895859 </i>
    <i name="e_wo_entrp">   -191.32792294 </i>
    <i name="e_0_energy">   -191.43344077 </i>
   </energy>
  </scstep>
  <scstep>
   <time name="dav">   28.19   28.25</time>
   <time name="total">   28.69   28.77</time>
   <energy>
    <i name="e_fr_energy">   -191.53928168 </i>
    <i name="e_wo_entrp">   -191.32836464 </i>
    <i name="e_0_energy">   -191.43382316 </i>
   </energy>
  </scstep>
  <scstep>
   <time name="dav">   28.02   28.09</time>
   <time name="total">   28.53   28.61</time>
   <energy>
    <i name="e_fr_energy">   -191.53774795 </i>
    <i name="e_wo_entrp">   -191.32627852 </i>
    <i name="e_0_energy">   -191.43201324 </i>
   </energy>
  </scstep>
  <scstep>
   <time name="dav">   25.91   25.97</time>
   <time name="total">   25.95   26.02</time>
   <energy>
    <i name="alphaZ">     90.03648460 </i>
    <i name="ewald">  44590.43970884 </i>
    <i name="hartreedc"> -50601.25099527 </i>
    <i name="XCdc">   -233.43250517 </i>
    <i name="pawpsdc">   4083.37416616 </i>
    <i name="pawaedc">  -3499.31816618 </i>
    <i name="eentropy">     -0.21145877 </i>
    <i name="bandstr">  -1382.61741574 </i>
    <i name="atom">   6761.44252427 </i>
    <i name="e_fr_energy">   -191.53765725 </i>
    <i name="e_wo_entrp">   -191.32619848 </i>
    <i name="e_0_energy">   -191.43192786 </i>
   </energy>
  </scstep>
  <structure>
   <crystal>
    <varray name="basis" >
     <v>       8.29459585       4.77363108       0.00000000 </v>
     <v>      -8.29815273       4.77979611       0.00000000 </v>
[...]
      <set comment="kpoint 31">
       <r>  -17.5309    1.0000 </r>
       <r>  -17.2107    1.0000 </r>
       <r>  -16.9420    1.0000 </r>
       <r>  -16.6337    1.0000 </r>
       <r>  -16.5141    1.0000 </r>
       <r>  -16.4033    1.0000 </r>
       <r>  -16.3319    1.0000 </r>
       <r>  -16.1375    1.0000 </r>
       <r>  -16.0407    1.0000 </r>
       <r>  -15.9821    1.0000 </r>
       <r>  -15.9531    1.0000 </r>
       <r>  -15.8881    1.0000 </r>
       <r>  -15.8123    1.0000 </r>
       <r>  -15.6954    1.0000 </r>
       <r>  -15.6615    1.0000 </r>
       <r>  -15.5468    1.0000 </r>
       <r>  -15.4138    1.0000 </r>
       <r>  -15.3057    1.0000 </r>
       <r>   -9.6942    1.0000 </r>
       <r>   -9.4229    1.0000 </r>
       <r>   -9.3383    1.0000 </r>
       <r>   -8.9758    1.0000 </r>
       <r>   -8.8424    1.0000 </r>
       <r>   -8.7684    1.0000 </r>
       <r>   -8.5582    1.0000 </r>
       <r>   -8.4016    1.0000 </r>
       <r>   -8.3875    1.0000 </r>
       <r>   -8.3422    1.0000 </r>
       <r>   -8.2462    1.0000 </r>
       <r>   -8.1964    1.0000 </r>
       <r>   -8.1185    1.0000 </r>
       <r>   -8.1142    1.0000 </r>
       <r>   -7.9570    1.0000 </r>
       <r>   -7.9235    1.0000 </r>
       <r>   -7.7884    1.0000 </r>
       <r>   -7.6755    1.0000 </r>
       <r>   -7.6020    1.0000 </r>
       <r>   -7.4300    1.0000 </r>
       <r>   -7.2827    1.0000 </r>
       <r>   -7.1569    1.0000 </r>
       <r>   -7.1391    1.0000 </r>
       <r>   -7.0514    1.0000 </r>
       <r>   -6.9858    1.0000 </r>
       <r>   -6.9466    1.0000 </r>
       <r>   -6.8721    1.0000 </r>
       <r>   -6.8465    1.0000 </r>
       <r>   -6.7218    1.0000 </r>
       <r>   -6.6224    1.0000 </r>
       <r>   -6.5654    1.0000 </r>
       <r>   -6.4816    1.0000 </r>
       <r>   -6.4316    1.0000 </r>
       <r>   -6.3812    1.0000 </r>
       <r>   -6.2718    1.0000 </r>
       <r>   -6.1580    1.0000 </r>
       <r>   -6.1294    1.0000 </r>
       <r>   -6.1063    1.0000 </r>
       <r>   -5.9434    1.0000 </r>
       <r>   -5.9024    1.0000 </r>
       <r>   -5.8449    1.0000 </r>
       <r>   -5.8140    1.0000 </r>
       <r>   -5.6962    1.0000 </r>
       <r>   -5.6827    1.0000 </r>
       <r>   -5.5931    1.0000 </r>
       <r>   -5.3746    1.0000 </r>
       <r>   -5.2697    1.0000 </r>
       <r>   -5.2016    1.0000 </r>
       <r>   -5.0837    1.0000 </r>
       <r>   -4.8954    1.0000 </r>
       <r>   -4.7821    1.0000 </r>
       <r>   -4.6858    1.0000 </r>
       <r>   -4.5154    1.0000 </r>
       <r>   -4.4186    1.0000 </r>
       <r>   -4.3195    1.0000 </r>
       <r>   -4.2728    1.0000 </r>
       <r>   -4.1944    1.0000 </r>
       <r>   -3.8896    0.9999 </r>
       <r>   -3.7848    0.9990 </r>
       <r>   -3.6784    0.9906 </r>
       <r>   -3.5568    0.9319 </r>
       <r>   -3.2119    0.1713 </r>
       <r>   -2.9795    0.0048 </r>
       <r>   -2.7998    0.0001 </r>
       <r>   -2.6865    0.0000 </r>
       <r>   -2.5639    0.0000 </r>
       <r>   -2.4605    0.0000 </r>
       <r>   -2.3569    0.0000 </r>
       <r>   -2.2551    0.0000 </r>
       <r>   -2.1511    0.0000 </r>
       <r>   -1.9911    0.0000 </r>
       <r>   -1.9381    0.0000 </r>
       <r>   -1.7657    0.0000 </r>
       <r>   -1.6765    0.0000 </r>
       <r>   -1.4914    0.0000 </r>
       <r>   -1.3166    0.0000 </r>
       <r>   -1.2405    0.0000 </r>
       <r>   -1.1535    0.0000 </r>
       <r>   -1.0953    0.0000 </r>
       <r>   -1.0399    0.0000 </r>
       <r>   -0.9738    0.0000 </r>
       <r>   -0.9040    0.0000 </r>
       <r>   -0.8235    0.0000 </r>
       <r>   -0.7367    0.0000 </r>
       <r>   -0.6729    0.0000 </r>
       <r>   -0.5772    0.0000 </r>
       <r>   -0.5118    0.0000 </r>
       <r>   -0.3824    0.0000 </r>
       <r>   -0.2907    0.0000 </r>
       <r>   -0.0933    0.0000 </r>
       <r>    0.0339    0.0000 </r>
       <r>    0.1440    0.0000 </r>
       <r>    0.3461    0.0000 </r>
       <r>    0.5737    0.0000 </r>
       <r>    0.7184    0.0000 </r>
       <r>    0.9260    0.0000 </r>
       <r>    1.2146    0.0000 </r>
       <r>    1.3594    0.0000 </r>
       <r>    1.4147    0.0000 </r>
       <r>    2.1284    0.0000 </r>
       <r>    2.2848    0.0000 </r>
       <r>    2.3830    0.0000 </r>
      </set>
      <set comment="kpoint 32">
       <r>  -17.5313    1.0000 </r>
       <r>  -17.1456    1.0000 </r>
       <r>  -17.0601    1.0000 </r>
       <r>  -16.6345    1.0000 </r>
       <r>  -16.4270    1.0000 </r>
       <r>  -16.3713    1.0000 </r>
       <r>  -16.2898    1.0000 </r>
       <r>  -16.2181    1.0000 </r>
       <r>  -16.0557    1.0000 </r>
       <r>  -16.0038    1.0000 </r>
       <r>  -15.9738    1.0000 </r>
       <r>  -15.8625    1.0000 </r>
       <r>  -15.7888    1.0000 </r>
       <r>  -15.7344    1.0000 </r>
       <r>  -15.6605    1.0000 </r>
       <r>  -15.5432    1.0000 </r>
       <r>  -15.4037    1.0000 </r>
       <r>  -15.2998    1.0000 </r>
       <r>   -9.6259    1.0000 </r>
       <r>   -9.5444    1.0000 </r>
       <r>   -9.3956    1.0000 </r>
       <r>   -8.9685    1.0000 </r>
       <r>   -8.7252    1.0000 </r>
       <r>   -8.5685    1.0000 </r>
       <r>   -8.5133    1.0000 </r>
       <r>   -8.4520    1.0000 </r>
       <r>   -8.3962    1.0000 </r>
       <r>   -8.3424    1.0000 </r>
       <r>   -8.2923    1.0000 </r>
       <r>   -8.2447    1.0000 </r>
       <r>   -8.1666    1.0000 </r>
       <r>   -8.1067    1.0000 </r>
       <r>   -8.0753    1.0000 </r>
       <r>   -7.9492    1.0000 </r>
       <r>   -7.8077    1.0000 </r>
       <r>   -7.6101    1.0000 </r>
       <r>   -7.5312    1.0000 </r>
       <r>   -7.4278    1.0000 </r>
       <r>   -7.2953    1.0000 </r>
       <r>   -7.2132    1.0000 </r>
       <r>   -7.1122    1.0000 </r>
       <r>   -7.0568    1.0000 </r>
       <r>   -7.0125    1.0000 </r>
       <r>   -6.9440    1.0000 </r>
       <r>   -6.9210    1.0000 </r>
       <r>   -6.8132    1.0000 </r>
       <r>   -6.7111    1.0000 </r>
       <r>   -6.6188    1.0000 </r>
       <r>   -6.5738    1.0000 </r>
       <r>   -6.4827    1.0000 </r>
       <r>   -6.4275    1.0000 </r>
       <r>   -6.3564    1.0000 </r>
       <r>   -6.3131    1.0000 </r>
       <r>   -6.2201    1.0000 </r>
       <r>   -6.1652    1.0000 </r>
       <r>   -6.0499    1.0000 </r>
       <r>   -5.9440    1.0000 </r>
       <r>   -5.8899    1.0000 </r>
       <r>   -5.8672    1.0000 </r>
       <r>   -5.7759    1.0000 </r>
       <r>   -5.6598    1.0000 </r>
       <r>   -5.5725    1.0000 </r>
       <r>   -5.5341    1.0000 </r>
       <r>   -5.4394    1.0000 </r>
       <r>   -5.3020    1.0000 </r>
       <r>   -5.1958    1.0000 </r>
       <r>   -5.0852    1.0000 </r>
       <r>   -4.8948    1.0000 </r>
       <r>   -4.8198    1.0000 </r>
       <r>   -4.6569    1.0000 </r>
       <r>   -4.5571    1.0000 </r>
       <r>   -4.4532    1.0000 </r>
       <r>   -4.2975    1.0000 </r>
       <r>   -4.2544    1.0000 </r>
       <r>   -4.2042    1.0000 </r>
       <r>   -3.9047    1.0000 </r>
       <r>   -3.7427    0.9975 </r>
       <r>   -3.6907    0.9926 </r>
       <r>   -3.5210    0.8919 </r>
       <r>   -3.3448    0.4963 </r>
       <r>   -3.0852    0.0325 </r>
       <r>   -2.7463    0.0000 </r>
       <r>   -2.6147    0.0000 </r>
       <r>   -2.5221    0.0000 </r>
       <r>   -2.4229    0.0000 </r>
       <r>   -2.3130    0.0000 </r>
       <r>   -2.2418    0.0000 </r>
       <r>   -2.1339    0.0000 </r>
       <r>   -2.0095    0.0000 </r>
       <r>   -1.9279    0.0000 </r>
       <r>   -1.7835    0.0000 </r>
       <r>   -1.6522    0.0000 </r>
       <r>   -1.5304    0.0000 </r>
       <r>   -1.3316    0.0000 </r>
       <r>   -1.2658    0.0000 </r>
       <r>   -1.1478    0.0000 </r>
       <r>   -1.0941    0.0000 </r>
       <r>   -1.0342    0.0000 </r>
       <r>   -0.9597    0.0000 </r>
       <r>   -0.8994    0.0000 </r>
       <r>   -0.8235    0.0000 </r>
       <r>   -0.7414    0.0000 </r>
       <r>   -0.6882    0.0000 </r>
       <r>   -0.5770    0.0000 </r>
       <r>   -0.5169    0.0000 </r>
       <r>   -0.3659    0.0000 </r>
       <r>   -0.2870    0.0000 </r>
       <r>   -0.0275    0.0000 </r>
       <r>    0.0629    0.0000 </r>
       <r>    0.1383    0.0000 </r>
       <r>    0.3355    0.0000 </r>
       <r>    0.5620    0.0000 </r>
       <r>    0.7192    0.0000 </r>
       <r>    0.9011    0.0000 </r>
       <r>    1.1405    0.0000 </r>
       <r>    1.3187    0.0000 </r>
       <r>    1.4313    0.0000 </r>
       <r>    2.0956    0.0000 </r>
       <r>    2.2572    0.0000 </r>
       <r>    2.5502    0.0000 </r>
      </set>
      <set comment="kpoint 33">
       <r>  -17.5033    1.0000 </r>
       <r>  -17.2780    1.0000 </r>
       <r>  -16.9052    1.0000 </r>
       <r>  -16.6393    1.0000 </r>
       <r>  -16.4832    1.0000 </r>
       <r>  -16.4062    1.0000 </r>
       <r>  -16.3126    1.0000 </r>
       <r>  -16.1553    1.0000 </r>
       <r>  -16.0489    1.0000 </r>
       <r>  -16.0044    1.0000 </r>
       <r>  -15.9742    1.0000 </r>
       <r>  -15.8347    1.0000 </r>
       <r>  -15.8121    1.0000 </r>
       <r>  -15.7618    1.0000 </r>
       <r>  -15.6220    1.0000 </r>
       <r>  -15.5338    1.0000 </r>
       <r>  -15.4212    1.0000 </r>
       <r>  -15.3088    1.0000 </r>
       <r>   -9.7262    1.0000 </r>
       <r>   -9.4073    1.0000 </r>
       <r>   -9.3285    1.0000 </r>
       <r>   -8.9820    1.0000 </r>
       <r>   -8.8385    1.0000 </r>
       <r>   -8.6474    1.0000 </r>
       <r>   -8.5188    1.0000 </r>
       <r>   -8.4864    1.0000 </r>
       <r>   -8.4218    1.0000 </r>
       <r>   -8.3159    1.0000 </r>
       <r>   -8.2760    1.0000 </r>
       <r>   -8.2200    1.0000 </r>
       <r>   -8.1607    1.0000 </r>
       <r>   -8.0856    1.0000 </r>
       <r>   -8.0189    1.0000 </r>
       <r>   -7.8574    1.0000 </r>
       <r>   -7.8135    1.0000 </r>
       <r>   -7.6319    1.0000 </r>
       <r>   -7.5404    1.0000 </r>
       <r>   -7.4076    1.0000 </r>
       <r>   -7.2707    1.0000 </r>
       <r>   -7.2296    1.0000 </r>
       <r>   -7.1387    1.0000 </r>
       <r>   -7.1124    1.0000 </r>
       <r>   -7.0150    1.0000 </r>
       <r>   -6.9393    1.0000 </r>
       <r>   -6.8499    1.0000 </r>
       <r>   -6.7736    1.0000 </r>
       <r>   -6.6817    1.0000 </r>
       <r>   -6.6270    1.0000 </r>
       <r>   -6.5730    1.0000 </r>
       <r>   -6.4904    1.0000 </r>
       <r>   -6.4622    1.0000 </r>
       <r>   -6.4240    1.0000 </r>
       <r>   -6.3182    1.0000 </r>
       <r>   -6.2399    1.0000 </r>
       <r>   -6.1637    1.0000 </r>
       <r>   -6.0475    1.0000 </r>
       <r>   -5.9661    1.0000 </r>
       <r>   -5.9143    1.0000 </r>
       <r>   -5.8638    1.0000 </r>
       <r>   -5.7667    1.0000 </r>
       <r>   -5.7033    1.0000 </r>
       <r>   -5.6552    1.0000 </r>
       <r>   -5.5716    1.0000 </r>
       <r>   -5.4738    1.0000 </r>
       <r>   -5.2229    1.0000 </r>
       <r>   -5.1036    1.0000 </r>
       <r>   -5.0562    1.0000 </r>
       <r>   -4.8302    1.0000 </r>
       <r>   -4.7743    1.0000 </r>
       <r>   -4.6274    1.0000 </r>
       <r>   -4.5814    1.0000 </r>
       <r>   -4.4303    1.0000 </r>
       <r>   -4.3340    1.0000 </r>
       <r>   -4.2528    1.0000 </r>
       <r>   -4.1757    1.0000 </r>
       <r>   -3.9220    1.0000 </r>
       <r>   -3.7531    0.9980 </r>
       <r>   -3.7252    0.9963 </r>
       <r>   -3.5096    0.8762 </r>
       <r>   -3.4321    0.7285 </r>
       <r>   -3.1921    0.1381 </r>
       <r>   -2.7188    0.0000 </r>
       <r>   -2.5842    0.0000 </r>
       <r>   -2.4824    0.0000 </r>
       <r>   -2.3954    0.0000 </r>
       <r>   -2.2757    0.0000 </r>
       <r>   -2.2051    0.0000 </r>
       <r>   -2.1240    0.0000 </r>
       <r>   -1.9953    0.0000 </r>
       <r>   -1.9108    0.0000 </r>
       <r>   -1.7836    0.0000 </r>
       <r>   -1.6326    0.0000 </r>
       <r>   -1.5356    0.0000 </r>
       <r>   -1.3615    0.0000 </r>
       <r>   -1.2756    0.0000 </r>
       <r>   -1.1511    0.0000 </r>
       <r>   -1.1079    0.0000 </r>
       <r>   -1.0400    0.0000 </r>
       <r>   -0.9659    0.0000 </r>
       <r>   -0.8738    0.0000 </r>
       <r>   -0.8382    0.0000 </r>
       <r>   -0.7952    0.0000 </r>
       <r>   -0.6742    0.0000 </r>
       <r>   -0.5556    0.0000 </r>
       <r>   -0.5082    0.0000 </r>
       <r>   -0.4011    0.0000 </r>
       <r>   -0.2317    0.0000 </r>
       <r>   -0.0852    0.0000 </r>
       <r>    0.1297    0.0000 </r>
       <r>    0.2053    0.0000 </r>
       <r>    0.2772    0.0000 </r>
       <r>    0.5064    0.0000 </r>
       <r>    0.7731    0.0000 </r>
       <r>    0.8901    0.0000 </r>
       <r>    1.1110    0.0000 </r>
       <r>    1.2757    0.0000 </r>
       <r>    1.4806    0.0000 </r>
       <r>    2.1236    0.0000 </r>
       <r>    2.2922    0.0000 </r>
       <r>    2.3780    0.0000 </r>
      </set>
      <set comment="kpoint 34">
       <r>  -17.4691    1.0000 </r>
       <r>  -17.3523    1.0000 </r>
       <r>  -16.7533    1.0000 </r>
       <r>  -16.6830    1.0000 </r>
       <r>  -16.5865    1.0000 </r>
       <r>  -16.4176    1.0000 </r>
       <r>  -16.3035    1.0000 </r>
       <r>  -16.1460    1.0000 </r>
       <r>  -16.0323    1.0000 </r>
       <r>  -15.9983    1.0000 </r>
       <r>  -15.9450    1.0000 </r>
       <r>  -15.8661    1.0000 </r>
       <r>  -15.7962    1.0000 </r>
       <r>  -15.7769    1.0000 </r>
       <r>  -15.5975    1.0000 </r>
       <r>  -15.5210    1.0000 </r>
       <r>  -15.4441    1.0000 </r>
       <r>  -15.3170    1.0000 </r>
       <r>   -9.7662    1.0000 </r>
       <r>   -9.3333    1.0000 </r>
       <r>   -9.1886    1.0000 </r>
       <r>   -9.0696    1.0000 </r>
       <r>   -8.9215    1.0000 </r>
       <r>   -8.7515    1.0000 </r>
       <r>   -8.5473    1.0000 </r>
       <r>   -8.4831    1.0000 </r>
       <r>   -8.4469    1.0000 </r>
       <r>   -8.2847    1.0000 </r>
       <r>   -8.2699    1.0000 </r>
       <r>   -8.1859    1.0000 </r>
       <r>   -8.1424    1.0000 </r>
       <r>   -8.0959    1.0000 </r>
       <r>   -7.9411    1.0000 </r>
       <r>   -7.8503    1.0000 </r>
       <r>   -7.7690    1.0000 </r>
       <r>   -7.6412    1.0000 </r>
       <r>   -7.5168    1.0000 </r>
       <r>   -7.4102    1.0000 </r>
       <r>   -7.3245    1.0000 </r>
       <r>   -7.1952    1.0000 </r>
       <r>   -7.1605    1.0000 </r>
       <r>   -7.1277    1.0000 </r>
       <r>   -6.9975    1.0000 </r>
       <r>   -6.9509    1.0000 </r>
       <r>   -6.8018    1.0000 </r>
       <r>   -6.7724    1.0000 </r>
       <r>   -6.6593    1.0000 </r>
       <r>   -6.6063    1.0000 </r>
       <r>   -6.5882    1.0000 </r>
       <r>   -6.5246    1.0000 </r>
       <r>   -6.4794    1.0000 </r>
       <r>   -6.4396    1.0000 </r>
       <r>   -6.3016    1.0000 </r>
       <r>   -6.2739    1.0000 </r>
       <r>   -6.1312    1.0000 </r>
       <r>   -6.0805    1.0000 </r>
       <r>   -5.9918    1.0000 </r>
       <r>   -5.9173    1.0000 </r>
       <r>   -5.8585    1.0000 </r>
       <r>   -5.8142    1.0000 </r>
       <r>   -5.6888    1.0000 </r>
       <r>   -5.6615    1.0000 </r>
       <r>   -5.6351    1.0000 </r>
       <r>   -5.4911    1.0000 </r>
       <r>   -5.2800    1.0000 </r>
       <r>   -5.0606    1.0000 </r>
       <r>   -4.8587    1.0000 </r>
       <r>   -4.8342    1.0000 </r>
       <r>   -4.7747    1.0000 </r>
       <r>   -4.6329    1.0000 </r>
       <r>   -4.5564    1.0000 </r>
       <r>   -4.4254    1.0000 </r>
       <r>   -4.3747    1.0000 </r>
       <r>   -4.2236    1.0000 </r>
       <r>   -4.1615    1.0000 </r>
       <r>   -3.9299    1.0000 </r>
       <r>   -3.7831    0.9990 </r>
       <r>   -3.7370    0.9971 </r>
       <r>   -3.5339    0.9078 </r>
       <r>   -3.4498    0.7682 </r>
       <r>   -3.2334    0.2128 </r>
       <r>   -2.7103    0.0000 </r>
       <r>   -2.5792    0.0000 </r>
       <r>   -2.4709    0.0000 </r>
       <r>   -2.3848    0.0000 </r>
       <r>   -2.2643    0.0000 </r>
       <r>   -2.1843    0.0000 </r>
       <r>   -2.1212    0.0000 </r>
       <r>   -1.9710    0.0000 </r>
       <r>   -1.9062    0.0000 </r>
       <r>   -1.7822    0.0000 </r>
       <r>   -1.6307    0.0000 </r>
       <r>   -1.5176    0.0000 </r>
       <r>   -1.3878    0.0000 </r>
       <r>   -1.2656    0.0000 </r>
       <r>   -1.1542    0.0000 </r>
       <r>   -1.1257    0.0000 </r>
       <r>   -1.0240    0.0000 </r>
       <r>   -0.9922    0.0000 </r>
       <r>   -0.8857    0.0000 </r>
       <r>   -0.8316    0.0000 </r>
       <r>   -0.7880    0.0000 </r>
       <r>   -0.6840    0.0000 </r>
       <r>   -0.5747    0.0000 </r>
       <r>   -0.5140    0.0000 </r>
       <r>   -0.3686    0.0000 </r>
       <r>   -0.2200    0.0000 </r>
       <r>   -0.1076    0.0000 </r>
       <r>    0.1375    0.0000 </r>
       <r>    0.2186    0.0000 </r>
       <r>    0.2688    0.0000 </r>
       <r>    0.4855    0.0000 </r>
       <r>    0.7917    0.0000 </r>
       <r>    0.8944    0.0000 </r>
       <r>    1.1066    0.0000 </r>
       <r>    1.2700    0.0000 </r>
       <r>    1.5049    0.0000 </r>
       <r>    2.1957    0.0000 </r>
       <r>    2.2408    0.0000 </r>
       <r>    2.3762    0.0000 </r>
      </set>
     </set>
    </set>
   </array>
  </eigenvalues>
  <separator name="orbital magnetization" >
   <v name="MAGDIPOLOUT">      0.00000000      0.00000000      0.00000000</v>
  </separator>
 </calculation>
 <structure name="finalpos" >
  <crystal>
   <varray name="basis" >
    <v>       8.38117887       4.81982821       0.00000000 </v>
    <v>      -8.38605681       4.82834743       0.00000000 </v>
    <v>       0.00000000       0.00000000      30.00000000 </v>
   </varray>
   <i name="volume">   2426.59789859 </i>
   <varray name="rec_basis" >
    <v>       0.05969280       0.10367672       0.00000000 </v>
    <v>      -0.05958748       0.10361641       0.00000000 </v>
    <v>       0.00000000       0.00000000       0.03333333 </v>
   </varray>
  </crystal>
  <varray name="positions" >
   <v>       0.64728091       0.35031918      -0.00183726 </v>
   <v>      -0.01568039       0.02131454      -0.00245920 </v>
   <v>       0.32484959       0.31870604       0.00139644 </v>
   <v>       0.33194654       0.68085813      -0.00002584 </v>
   <v>       1.03676372       0.35235072      -0.00035747 </v>
   <v>       0.34868157      -0.01748113       0.00053178 </v>
   <v>       0.02630085       0.65393042       0.00113666 </v>
   <v>       0.64753690      -0.02951349      -0.00007759 </v>
   <v>       0.64216767       0.66808329       0.00010777 </v>
   <v>       0.11855900       0.22122027       0.94668487 </v>
   <v>       0.21370082       0.10359337       0.04625423 </v>
   <v>       0.11947643       0.55729048       0.94362805 </v>
   <v>       0.23516021       0.44696343       0.05282306 </v>
   <v>       0.10784503       0.89003789       0.95474038 </v>
   <v>       0.22380966       0.77839690       0.05652856 </v>
   <v>       0.44171476       0.22018468       0.95043365 </v>
   <v>       0.56390422       0.11835048       0.04991783 </v>
   <v>       0.43750350       0.54787478       0.94897500 </v>
   <v>       0.54827333       0.44169573       0.05196124 </v>
   <v>       0.44835936       0.88664173       0.94338315 </v>
   <v>       0.54891371       0.77567887       0.05669701 </v>
   <v>       0.77553010       0.22641976       0.95960698 </v>
   <v>       0.88810630       0.11446666       0.04971887 </v>
   <v>       0.78073508       0.56109890       0.95238821 </v>
   <v>       0.88600941       0.43940620       0.04934333 </v>
   <v>       0.77745518       0.88981786       0.94654718 </v>
   <v>       0.89331099       0.78050876       0.04195300 </v>
  </varray>
 </structure>
</modeling>
