unknown system                          
           1
     8.858506    5.103244    0.000000
    -8.858898    5.103917    0.000000
     0.000000    0.000000   30.000000
   V    Mo   W    S 
   3   3   3  18
Direct configuration=     1
   0.66666669  0.33333334  0.00000000
   0.00000000  0.00000000  0.00000000
   0.33333334  0.33333334  0.00000000
   0.33333334  0.66666669  0.00000000
   1.00000000  0.33333334  0.00000000
   0.33333334  0.00000000  0.00000000
   0.00000000  0.66666669  0.00000000
   0.66666669  0.00000000  0.00000000
   0.66666669  0.66666669  0.00000000
   0.11068511  0.22244981  0.95539999
   0.22244981  0.11068511  0.04460000
   0.11068511  0.55578315  0.95539999
   0.22244981  0.44401845  0.04460000
   0.11068511  0.88911647  0.95539999
   0.22244981  0.77735180  0.04460000
   0.44401845  0.22244981  0.95539999
   0.55578315  0.11068511  0.04460000
   0.44401845  0.55578315  0.95539999
   0.55578315  0.44401845  0.04460000
   0.44401845  0.88911647  0.95539999
   0.55578315  0.77735180  0.04460000
   0.77735180  0.22244981  0.95539999
   0.88911647  0.11068511  0.04460000
   0.77735180  0.55578315  0.95539999
   0.88911647  0.44401845  0.04460000
   0.77735180  0.88911647  0.95539999
   0.88911647  0.77735180  0.04460000
unknown system                          
           1
     8.669695    4.996962    0.000000
    -8.670017    4.997517    0.000000
     0.000000    0.000000   30.000000
   V    Mo   W    S 
   3   3   3  18
Direct configuration=     2
   0.66624203  0.33217582  0.00010680
   0.00151372  0.00149044 -0.00012378
   0.33221084  0.33294046 -0.00003132
   0.33196236  0.66666314  0.00002515
   1.00152594  0.33467255  0.00003054
   0.33331905 -0.00100238 -0.00005723
   0.00297772  0.66657776  0.00020832
   0.66534573  0.00026259 -0.00016464
   0.66485235  0.66619242  0.00003421
   0.11312949  0.21983941  0.95300511
   0.21995508  0.11316717  0.04694873
   0.11065393  0.55586252  0.95067031
   0.22453338  0.44197665  0.04799613
   0.10805925  0.89039733  0.95199478
   0.22102458  0.77711704  0.04932577
   0.44630478  0.22650972  0.95315308
   0.55815050  0.11522541  0.04812909
   0.44313578  0.55149123  0.95194357
   0.55406149  0.44086215  0.04690686
   0.44543007  0.88925714  0.95073841
   0.55616053  0.77801473  0.04925317
   0.77480646  0.22346113  0.95202335
   0.89028990  0.10818711  0.04791982
   0.77588153  0.55177847  0.95200930
   0.88465344  0.44313531  0.04808472
   0.78150448  0.89065758  0.95186074
   0.89053004  0.78130157  0.04800892
unknown system                          
           1
     8.488237    4.898865    0.000000
    -8.488796    4.899831    0.000000
     0.000000    0.000000   30.000000
   V    Mo   W    S 
   3   3   3  18
Direct configuration=     3
   0.66614970  0.33179444  0.00006565
   0.00183594  0.00187231 -0.00009252
   0.33190417  0.33287878 -0.00003444
   0.33140408  0.66688409  0.00003225
   1.00203808  0.33544060  0.00007944
   0.33332985 -0.00180817 -0.00010409
   0.00416676  0.66653041  0.00022464
   0.66477325  0.00004292 -0.00018522
   0.66434046  0.66632629  0.00002710
   0.11319560  0.21982910  0.95299534
   0.21995842  0.11322499  0.04689165
   0.11054081  0.55600733  0.95054325
   0.22459650  0.44190343  0.04804405
   0.10789271  0.89018088  0.95200046
   0.22079748  0.77697291  0.04948702
   0.44635176  0.22657424  0.95323739
   0.55834424  0.11523982  0.04816129
   0.44328643  0.55149905  0.95195599
   0.55410083  0.44101974  0.04684983
   0.44566828  0.88936259  0.95063584
   0.55636058  0.77810757  0.04925636
   0.77465708  0.22327994  0.95204111
   0.89008975  0.10803808  0.04783477
   0.77593906  0.55194298  0.95217404
   0.88466576  0.44331165  0.04809213
   0.78135561  0.89062717  0.95191970
   0.89047128  0.78113134  0.04786684
unknown system                          
           1
     8.282742    4.774522    0.000000
    -8.283402    4.775661    0.000000
     0.000000    0.000000   30.000000
   V    Mo   W    S 
   3   3   3  18
Direct configuration=     4
   0.66604605  0.33037874 -0.00012247
   0.00237742  0.00276605  0.00007750
   0.33100533  0.33295582 -0.00003199
   0.32935900  0.66824679  0.00004114
   1.00370619  0.33858985  0.00023565
   0.33335406 -0.00557105 -0.00022434
   0.00868900  0.66635319  0.00018555
   0.66248199 -0.00139143 -0.00017041
   0.66274138  0.66744631 -0.00002029
   0.11380596  0.21947767  0.95163689
   0.21973010  0.11375506  0.04794391
   0.11054588  0.55612777  0.94840479
   0.22535226  0.44135554  0.04966101
   0.10724567  0.89040884  0.95058700
   0.22090477  0.77697690  0.05179752
   0.44677828  0.22744565  0.95227506
   0.55891066  0.11632651  0.04974525
   0.44249683  0.55037501  0.95054322
   0.55338977  0.43998222  0.04797997
   0.44572794  0.88925744  0.94859354
   0.55626470  0.77817882  0.05090429
   0.77428898  0.22380845  0.95067939
   0.89038647  0.10753815  0.04889175
   0.77569171  0.55133864  0.95140952
   0.88358707  0.44288515  0.04959998
   0.78232129  0.89135618  0.95064688
   0.89102569  0.78184618  0.04872961
unknown system                          
           1
     8.299102    4.777091    0.000000
    -8.301862    4.781872    0.000000
     0.000000    0.000000   30.000000
   V    Mo   W    S 
   3   3   3  18
Direct configuration=     5
   0.66576407  0.32729090 -0.00046317
   0.00268593  0.00407524  0.00041593
   0.32976017  0.33337286 -0.00000612
   0.32585767  0.67150673  0.00001808
   1.00701329  0.34495472  0.00041200
   0.33361053 -0.01300156 -0.00025902
   0.01762719  0.66601890  0.00005726
   0.65758561 -0.00493316 -0.00004212
   0.65915185  0.66997967 -0.00016345
   0.11443533  0.21971364  0.94969604
   0.22020762  0.11397258  0.04929625
   0.11118618  0.55610411  0.94529401
   0.22621657  0.44144318  0.05184826
   0.10719073  0.89037808  0.94877312
   0.22149863  0.77717248  0.05526380
   0.44649019  0.22712699  0.95102641
   0.55877423  0.11696607  0.05184931
   0.44087163  0.54937409  0.94871701
   0.55234538  0.43887367  0.04943502
   0.44534865  0.88853446  0.94556561
   0.55499863  0.77808536  0.05319531
   0.77449810  0.22430683  0.94904830
   0.89064069  0.10794131  0.05004472
   0.77625622  0.55136044  0.95087583
   0.88293574  0.44290713  0.05169871
   0.78343702  0.89260288  0.94885153
   0.89182659  0.78208687  0.04955128
unknown system                          
           1
     8.294596    4.773631    0.000000
    -8.298153    4.779796    0.000000
     0.000000    0.000000   30.000000
   V    Mo   W    S 
   3   3   3  18
Direct configuration=     6
   0.66551681  0.32582939 -0.00048624
   0.00257638  0.00448469  0.00042770
   0.32956773  0.33350763  0.00003096
   0.32648696  0.67177132 -0.00002134
   1.00805553  0.34634384  0.00037411
   0.33416493 -0.01345105 -0.00018818
   0.01859780  0.66595297  0.00012384
   0.65592125 -0.00650356 -0.00011283
   0.65754986  0.67102419 -0.00024164
   0.11427705  0.22009436  0.94972845
   0.22075555  0.11356528  0.04914359
   0.11176514  0.55614595  0.94498568
   0.22621631  0.44223388  0.05185351
   0.10769093  0.88991579  0.94887935
   0.22173277  0.77721774  0.05556970
   0.44579967  0.22586775  0.95114986
   0.55836445  0.11638074  0.05193734
   0.44042874  0.54979799  0.94868854
   0.55240131  0.43915880  0.04927014
   0.44517442  0.88816006  0.94531313
   0.55415322  0.77794820  0.05344958
   0.77487762  0.22390300  0.94922422
   0.89032069  0.10880581  0.04981021
   0.77718423  0.55238372  0.95139509
   0.88351895  0.44354110  0.05171247
   0.78323236  0.89294442  0.94882341
   0.89188379  0.78119042  0.04915926
unknown system                          
           1
     8.293213    4.771525    0.000000
    -8.297803    4.779484    0.000000
     0.000000    0.000000   30.000000
   V    Mo   W    S 
   3   3   3  18
Direct configuration=     7
   0.66529386  0.32474942 -0.00051824
   0.00261969  0.00477052  0.00046903
   0.32937878  0.33355395  0.00006732
   0.32661934  0.67205831 -0.00002381
   1.00890059  0.34758759  0.00037009
   0.33451870 -0.01401117 -0.00016700
   0.01979132  0.66583638  0.00011522
   0.65467624 -0.00761781 -0.00012181
   0.65644708  0.67178890 -0.00027439
   0.11426025  0.22023336  0.94967651
   0.22095375  0.11343507  0.04910139
   0.11200901  0.55624781  0.94477489
   0.22627341  0.44250432  0.05194042
   0.10786126  0.88977731  0.94888199
   0.22188230  0.77721738  0.05578932
   0.44556747  0.22544496  0.95117761
   0.55829379  0.11620517  0.05207201
   0.44019836  0.54984603  0.94856529
   0.55242264  0.43928243  0.04920625
   0.44507574  0.88801404  0.94508443
   0.55384023  0.77794189  0.05368558
   0.77502682  0.22372252  0.94925838
   0.89016574  0.10913943  0.04969945
   0.77743472  0.55278266  0.95167355
   0.88367896  0.44371864  0.05178397
   0.78317133  0.89312534  0.94873494
   0.89185305  0.78085997  0.04897752
unknown system                          
           1
     8.294381    4.770922    0.000000
    -8.299440    4.779694    0.000000
     0.000000    0.000000   30.000000
   V    Mo   W    S 
   3   3   3  18
Direct configuration=     8
   0.66497064  0.32328292 -0.00055543
   0.00271598  0.00514783  0.00052167
   0.32912362  0.33359212  0.00011356
   0.32691130  0.67227218 -0.00002983
   1.01000456  0.34912030  0.00036521
   0.33500963 -0.01446937 -0.00013957
   0.02111709  0.66567562  0.00011365
   0.65312278 -0.00904106 -0.00013721
   0.65503354  0.67278568 -0.00032464
   0.11423006  0.22040725  0.94966976
   0.22118629  0.11327403  0.04900127
   0.11232587  0.55638710  0.94458120
   0.22632218  0.44283032  0.05199593
   0.10806982  0.88960521  0.94894438
   0.22206836  0.77721873  0.05597400
   0.44528869  0.22493540  0.95125650
   0.55822524  0.11596344  0.05219868
   0.43995757  0.54990451  0.94844841
   0.55249643  0.43950395  0.04906442
   0.44495996  0.88784923  0.94486746
   0.55348307  0.77796260  0.05395076
   0.77523369  0.22344983  0.94936061
   0.88994267  0.10957306  0.04949595
   0.77770444  0.55330547  0.95208675
   0.88391054  0.44394612  0.05180875
   0.78303991  0.89331540  0.94867365
   0.89176052  0.78041657  0.04869406
unknown system                          
           1
     8.293745    4.771291    0.000000
    -8.298587    4.779686    0.000000
     0.000000    0.000000   30.000000
   V    Mo   W    S 
   3   3   3  18
Direct configuration=     9
   0.66480525  0.32252539 -0.00057768
   0.00279654  0.00535293  0.00055183
   0.32896597  0.33360428  0.00013063
   0.32704483  0.67229691 -0.00003867
   1.01056087  0.34985531  0.00036897
   0.33524706 -0.01462550 -0.00012800
   0.02169113  0.66559322  0.00012330
   0.65240358 -0.00971090 -0.00014599
   0.65436146  0.67328080 -0.00036057
   0.11423013  0.22048381  0.94965157
   0.22128049  0.11322004  0.04897202
   0.11249057  0.55643791  0.94445328
   0.22634695  0.44295231  0.05204777
   0.10814750  0.88953771  0.94895391
   0.22216249  0.77723555  0.05608956
   0.44517556  0.22473656  0.95127834
   0.55820163  0.11587012  0.05228669
   0.43984676  0.54989335  0.94837297
   0.55252763  0.43960496  0.04901029
   0.44490783  0.88777167  0.94473936
   0.55332015  0.77798947  0.05411042
   0.77534719  0.22332296  0.94939311
   0.88984516  0.10978079  0.04940543
   0.77780193  0.55353266  0.95227704
   0.88401187  0.44404610  0.05183530
   0.78298195  0.89340193  0.94863007
   0.89171198  0.78022412  0.04856894
unknown system                          
           1
     8.282941    4.767764    0.000000
    -8.288218    4.776917    0.000000
     0.000000    0.000000   30.000000
   V    Mo   W    S 
   3   3   3  18
Direct configuration=    10
   0.66494726  0.32312230 -0.00056604
   0.00268781  0.00520232  0.00053053
   0.32909375  0.33359260  0.00011838
   0.32698321  0.67234458 -0.00003519
   1.01016391  0.34935637  0.00036904
   0.33507407 -0.01458865 -0.00013265
   0.02133136  0.66563754  0.00011918
   0.65289412 -0.00930670 -0.00014464
   0.65476959  0.67295548 -0.00033850
   0.11423219  0.22043565  0.94965624
   0.22122842  0.11325122  0.04899382
   0.11238282  0.55639259  0.94451904
   0.22632597  0.44288087  0.05201557
   0.10811348  0.88958715  0.94893329
   0.22208633  0.77721783  0.05604100
   0.44522265  0.22484282  0.95125680
   0.55820208  0.11593084  0.05223532
   0.43991241  0.54991605  0.94842207
   0.55248184  0.43951044  0.04906729
   0.44495109  0.88782102  0.94480327
   0.55341415  0.77795664  0.05401635
   0.77526088  0.22342384  0.94936061
   0.88992022  0.10964249  0.04948388
   0.77778551  0.55339815  0.95212611
   0.88394197  0.44398784  0.05183358
   0.78304525  0.89335291  0.94864787
   0.89176210  0.78035026  0.04866771
unknown system                          
           1
     8.267268    4.766319    0.000000
    -8.271062    4.772894    0.000000
     0.000000    0.000000   30.000000
   V    Mo   W    S 
   3   3   3  18
Direct configuration=    11
   0.66533575  0.32520124 -0.00055032
   0.00188715  0.00485833  0.00047641
   0.32978945  0.33358958  0.00010129
   0.32757633  0.67335770 -0.00003210
   1.00937954  0.34840718  0.00034870
   0.33477877 -0.01519382 -0.00011150
   0.02084622  0.66568167  0.00011446
   0.65357169 -0.00933689 -0.00014843
   0.65503816  0.67225617 -0.00026325
   0.11422092  0.22028042  0.94966711
   0.22120862  0.11328276  0.04898558
   0.11223873  0.55632904  0.94461949
   0.22636681  0.44282782  0.05188881
   0.10817235  0.88968669  0.94887953
   0.22182693  0.77706409  0.05601675
   0.44507134  0.22495119  0.95122159
   0.55821924  0.11605840  0.05205060
   0.43993631  0.55001930  0.94856007
   0.55230848  0.43922033  0.04926838
   0.44510339  0.88792698  0.94484824
   0.55347617  0.77779904  0.05386563
   0.77488426  0.22366304  0.94929023
   0.89001496  0.10925916  0.04975675
   0.77804582  0.55341620  0.95171706
   0.88366210  0.44388552  0.05189574
   0.78341140  0.89328534  0.94862961
   0.89184355  0.78043798  0.04890347
unknown system                          
           1
     8.279477    4.764448    0.000000
    -8.283604    4.771592    0.000000
     0.000000    0.000000   30.000000
   V    Mo   W    S 
   3   3   3  18
Direct configuration=    12
   0.66760749  0.33424759 -0.00051740
  -0.00084354  0.00341260  0.00028478
   0.33198618  0.33314328  0.00001013
   0.32781840  0.67544762 -0.00003744
   1.00456545  0.34268033  0.00032810
   0.33271023 -0.01604714 -0.00010546
   0.01691142  0.66565112  0.00006019
   0.65912310 -0.00610029 -0.00017450
   0.65908896  0.66832704  0.00001334
   0.11415680  0.21962820  0.94968024
   0.22077326  0.11339083  0.04910835
   0.11141638  0.55587740  0.94526726
   0.22624466  0.44232238  0.05143720
   0.10812841  0.89014789  0.94866852
   0.22088342  0.77666612  0.05575615
   0.44512335  0.22568813  0.95099024
   0.55830309  0.11666336  0.05130743
   0.44042590  0.55048749  0.94905475
   0.55166863  0.43815407  0.05016250
   0.44587317  0.88859067  0.94524371
   0.55416300  0.77726684  0.05309188
   0.77352337  0.22479324  0.94898991
   0.89073066  0.10768804  0.05086557
   0.77845213  0.55273604  0.94983116
   0.88271706  0.44329511  0.05202921
   0.78440310  0.89263024  0.94864586
   0.89226036  0.78142627  0.05000822
unknown system                          
           1
     8.282596    4.766110    0.000000
    -8.287643    4.774847    0.000000
     0.000000    0.000000   30.000000
   V    Mo   W    S 
   3   3   3  18
Direct configuration=    13
   0.66810941  0.33432377 -0.00052818
  -0.00062283  0.00490125  0.00045254
   0.33125500  0.33298629  0.00004540
   0.32710984  0.67538406 -0.00003550
   1.00498341  0.34316274  0.00035145
   0.33261326 -0.01687136 -0.00013687
   0.01791469  0.66521026  0.00013230
   0.65819715 -0.00700589 -0.00007246
   0.65888160  0.66854891 -0.00003786
   0.11400613  0.21981560  0.94969739
   0.22086459  0.11305240  0.04899138
   0.11198470  0.55580668  0.94507739
   0.22617907  0.44274838  0.05144655
   0.10813400  0.88969227  0.94883730
   0.22110711  0.77664156  0.05598980
   0.44517148  0.22497688  0.95114890
   0.55841474  0.11642184  0.05131609
   0.44030955  0.55064056  0.94894478
   0.55194547  0.43871379  0.04998970
   0.44602106  0.88858329  0.94500721
   0.55384904  0.77734483  0.05329312
   0.77395861  0.22444508  0.94913599
   0.89048266  0.10838124  0.05056213
   0.77837320  0.55335514  0.95032489
   0.88310515  0.44345156  0.05203965
   0.78380845  0.89251869  0.94850617
   0.89205792  0.78098463  0.04952064
unknown system                          
           1
     8.290572    4.765113    0.000000
    -8.298914    4.779567    0.000000
     0.000000    0.000000   30.000000
   V    Mo   W    S 
   3   3   3  18
Direct configuration=    14
   0.67029935  0.33992720 -0.00053862
  -0.00264047  0.00650668  0.00035585
   0.33165745  0.33237495 -0.00000098
   0.32718567  0.67739628 -0.00009642
   1.00335885  0.34123868  0.00025310
   0.33172765 -0.01905358 -0.00017545
   0.01731945  0.66406474  0.00015166
   0.65956106 -0.00750296 -0.00015563
   0.65973585  0.66705222  0.00006387
   0.11374325  0.21954591  0.94965293
   0.22078810  0.11259223  0.04888159
   0.11220016  0.55550444  0.94514461
   0.22619442  0.44309627  0.05124627
   0.10806584  0.88936006  0.94903448
   0.22083414  0.77633123  0.05624623
   0.44506460  0.22440736  0.95130820
   0.55853094  0.11643561  0.05086966
   0.44025372  0.55102180  0.94909141
   0.55178720  0.43861826  0.05035465
   0.44662458  0.88889097  0.94492106
   0.55370281  0.77690257  0.05319518
   0.77354614  0.22462257  0.94924102
   0.89044225  0.10830511  0.05101474
   0.77903113  0.55406718  0.94977121
   0.88300871  0.44325594  0.05227244
   0.78390439  0.89226786  0.94840481
   0.89228722  0.78098486  0.04949202
unknown system                          
           1
     8.284576    4.764677    0.000000
    -8.290751    4.775372    0.000000
     0.000000    0.000000   30.000000
   V    Mo   W    S 
   3   3   3  18
Direct configuration=    15
   0.67070024  0.33966609 -0.00053206
  -0.00271284  0.00843813  0.00040860
   0.33099970  0.33209566  0.00005063
   0.32749857  0.67781574 -0.00009390
   1.00483666  0.34285780  0.00026957
   0.33228431 -0.01998963 -0.00011379
   0.01868403  0.66307807  0.00024567
   0.65756324 -0.00977554 -0.00012915
   0.65795610  0.66788239  0.00000855
   0.11371797  0.21970938  0.94955419
   0.22088309  0.11233797  0.04867910
   0.11273463  0.55556801  0.94487299
   0.22629864  0.44345343  0.05125085
   0.10796285  0.88896053  0.94929569
   0.22099085  0.77625880  0.05644257
   0.44506883  0.22389933  0.95157750
   0.55856632  0.11621370  0.05083577
   0.44002530  0.55095979  0.94900351
   0.55193726  0.43892295  0.05015254
   0.44663774  0.88872395  0.94464215
   0.55328252  0.77685403  0.05347591
   0.77374280  0.22424820  0.94949175
   0.88997339  0.10886031  0.05081723
   0.77935429  0.55480894  0.95022465
   0.88330636  0.44331000  0.05233749
   0.78360937  0.89238282  0.94830637
   0.89231222  0.78067362  0.04892551
unknown system                          
           1
     8.283103    4.766272    0.000000
    -8.286838    4.772727    0.000000
     0.000000    0.000000   30.000000
   V    Mo   W    S 
   3   3   3  18
Direct configuration=    16
   0.67003387  0.33884159 -0.00047330
  -0.00230955  0.00664387  0.00040989
   0.33140087  0.33255292  0.00001853
   0.32689545  0.67727957 -0.00005388
   1.00350446  0.34151072  0.00030633
   0.33174760 -0.01926046 -0.00012631
   0.01808648  0.66429936  0.00018765
   0.65904083 -0.00761981 -0.00006756
   0.65962814  0.66746627  0.00003156
   0.11370411  0.21959594  0.94967192
   0.22086985  0.11253803  0.04886077
   0.11227466  0.55549395  0.94504806
   0.22612309  0.44317837  0.05124627
   0.10806387  0.88930362  0.94898967
   0.22092427  0.77638912  0.05628857
   0.44510801  0.22421898  0.95133855
   0.55852333  0.11641130  0.05090603
   0.44024987  0.55107756  0.94908947
   0.55192288  0.43876982  0.05023294
   0.44659480  0.88882881  0.94484111
   0.55365161  0.77698171  0.05319084
   0.77371665  0.22453161  0.94920350
   0.89041115  0.10851551  0.05086934
   0.77896120  0.55416912  0.94997369
   0.88311683  0.44332704  0.05222665
   0.78375809  0.89231750  0.94837604
   0.89221205  0.78085242  0.04941358
unknown system                          
           1
     8.277859    4.762362    0.000000
    -8.282534    4.770451    0.000000
     0.000000    0.000000   30.000000
   V    Mo   W    S 
   3   3   3  18
Direct configuration=    17
   0.66933630  0.33808560 -0.00045018
  -0.00198598  0.00450220  0.00040515
   0.33212134  0.33322657 -0.00001458
   0.32616218  0.67701863 -0.00008239
   1.00139836  0.33952403  0.00030563
   0.33096444 -0.01883596 -0.00020000
   0.01745015  0.66586633  0.00005025
   0.66092610 -0.00475651 -0.00006493
   0.66177481  0.66673603  0.00002298
   0.11367222  0.21944950  0.94981541
   0.22098767  0.11279040  0.04902105
   0.11174250  0.55532484  0.94528054
   0.22593126  0.44292799  0.05116974
   0.10827151  0.88961916  0.94861270
   0.22083381  0.77652672  0.05627408
   0.44508174  0.22443468  0.95116340
   0.55842144  0.11669576  0.05097972
   0.44043336  0.55132294  0.94928109
   0.55188350  0.43854143  0.05034267
   0.44661177  0.88893511  0.94507182
   0.55400841  0.77707167  0.05283752
   0.77352261  0.22490585  0.94883461
   0.89087835  0.10807844  0.05104397
   0.77871282  0.55346525  0.94967886
   0.88289671  0.44339898  0.05212676
   0.78397221  0.89231165  0.94845610
   0.89220485  0.78104720  0.05003794
unknown system                          
           1
     8.286997    4.765455    0.000000
    -8.293135    4.776084    0.000000
     0.000000    0.000000   30.000000
   V    Mo   W    S 
   3   3   3  18
Direct configuration=    18
   0.66932634  0.33743345 -0.00042173
  -0.00213609  0.00432034  0.00044402
   0.33222585  0.33353690  0.00001838
   0.32564119  0.67736488 -0.00001977
   1.00048685  0.33885176  0.00032215
   0.33062019 -0.01977483 -0.00014944
   0.01814387  0.66658275  0.00013083
   0.66123339 -0.00382262 -0.00003019
   0.66236043  0.66679264  0.00003786
   0.11353795  0.21935294  0.94988856
   0.22114300  0.11270181  0.04889316
   0.11169703  0.55516784  0.94526253
   0.22582614  0.44309448  0.05102190
   0.10836045  0.88953226  0.94855974
   0.22084682  0.77649584  0.05635626
   0.44494108  0.22406000  0.95131145
   0.55826384  0.11664143  0.05096322
   0.44041358  0.55162189  0.94939491
   0.55209258  0.43869829  0.05026355
   0.44667724  0.88888373  0.94500041
   0.55399943  0.77707738  0.05263856
   0.77337123  0.22489370  0.94872003
   0.89080075  0.10802755  0.05104510
   0.77896866  0.55358646  0.94978288
   0.88303007  0.44361746  0.05205552
   0.78398621  0.89246868  0.94852741
   0.89235638  0.78100746  0.04998260
unknown system                          
           1
     8.292730    4.766815    0.000000
    -8.299910    4.779250    0.000000
     0.000000    0.000000   30.000000
   V    Mo   W    S 
   3   3   3  18
Direct configuration=    19
   0.66983753  0.33796909 -0.00047450
  -0.00238052  0.00595723  0.00042400
   0.33174947  0.33309016  0.00003211
   0.32627794  0.67759724 -0.00008666
   1.00200998  0.34032286  0.00027761
   0.33126536 -0.02007051 -0.00016215
   0.01857868  0.66534250  0.00014329
   0.65977030 -0.00594168 -0.00009587
   0.66064907  0.66727298  0.00000242
   0.11357836  0.21948062  0.94976535
   0.22110915  0.11253882  0.04878305
   0.11210231  0.55529266  0.94510462
   0.22600272  0.44329035  0.05110047
   0.10824162  0.88927097  0.94884183
   0.22094460  0.77641176  0.05649001
   0.44493188  0.22386118  0.95146753
   0.55832725  0.11646457  0.05095482
   0.44022343  0.55142381  0.94926340
   0.55208266  0.43882465  0.05019718
   0.44665660  0.88877755  0.94484188
   0.55368734  0.77699347  0.05296323
   0.77349167  0.22462721  0.94898411
   0.89043987  0.10837649  0.05097552
   0.77921278  0.55410440  0.95001842
   0.88317534  0.44355024  0.05217860
   0.78384255  0.89251521  0.94844933
   0.89240652  0.78087064  0.04956029
unknown system                          
           1
     8.287967    4.766364    0.000000
    -8.293493    4.775927    0.000000
     0.000000    0.000000   30.000000
   V    Mo   W    S 
   3   3   3  18
Direct configuration=    20
   0.67023813  0.33797912 -0.00049272
  -0.00270371  0.00712226  0.00042427
   0.33145486  0.33297145  0.00006337
   0.32656220  0.67794165 -0.00012037
   1.00256745  0.34095522  0.00025106
   0.33164070 -0.02071465 -0.00015032
   0.01925307  0.66472251  0.00017026
   0.65889314 -0.00693189 -0.00012491
   0.65959299  0.66764303 -0.00001735
   0.11355205  0.21953358  0.94970205
   0.22117507  0.11238111  0.04863666
   0.11234606  0.55529841  0.94499501
   0.22607452  0.44349971  0.05108338
   0.10822171  0.88904755  0.94902379
   0.22103763  0.77632786  0.05664519
   0.44483012  0.22350912  0.95165447
   0.55826893  0.11630743  0.05096339
   0.44006610  0.55140867  0.94921573
   0.55217791  0.43898461  0.05010739
   0.44666425  0.88865475  0.94469023
   0.55348582  0.77696544  0.05310192
   0.77350300  0.22446623  0.94908130
   0.89014774  0.10859059  0.05094708
   0.77953557  0.55451893  0.95024210
   0.88333649  0.44359757  0.05224303
   0.78376094  0.89264405  0.94841583
   0.89253174  0.78079016  0.04924807
unknown system                          
           1
     8.283933    4.766024    0.000000
    -8.288022    4.773093    0.000000
     0.000000    0.000000   30.000000
   V    Mo   W    S 
   3   3   3  18
Direct configuration=    21
   0.66976625  0.33803395 -0.00046924
  -0.00225189  0.00580679  0.00042385
   0.33172493  0.33303089  0.00001850
   0.32615884  0.67758148 -0.00010319
   1.00205394  0.34035485  0.00027554
   0.33116904 -0.02002950 -0.00017984
   0.01853952  0.66542653  0.00010266
   0.65978322 -0.00594174 -0.00008650
   0.66087408  0.66724933 -0.00000349
   0.11357099  0.21945012  0.94977601
   0.22110852  0.11256049  0.04882676
   0.11206041  0.55531693  0.94512185
   0.22602179  0.44329567  0.05110743
   0.10821900  0.88927801  0.94879284
   0.22092465  0.77645963  0.05651371
   0.44494887  0.22389266  0.95143352
   0.55833928  0.11650496  0.05094743
   0.44021377  0.55144474  0.94929387
   0.55207333  0.43879016  0.05022212
   0.44662569  0.88877491  0.94485973
   0.55368725  0.77696222  0.05294999
   0.77349771  0.22464257  0.94898094
   0.89049542  0.10834346  0.05096828
   0.77919210  0.55404559  0.94996844
   0.88313954  0.44356221  0.05217514
   0.78387025  0.89249692  0.94844858
   0.89240796  0.78088065  0.04963495
unknown system                          
           1
     8.280279    4.763830    0.000000
    -8.284776    4.771605    0.000000
     0.000000    0.000000   30.000000
   V    Mo   W    S 
   3   3   3  18
Direct configuration=    22
   0.66902564  0.33815376 -0.00042216
  -0.00143490  0.00366225  0.00045658
   0.33191378  0.33281302 -0.00005035
   0.32514745  0.67723966 -0.00002236
   1.00130350  0.33949862  0.00034828
   0.33020129 -0.01929265 -0.00020687
   0.01762361  0.66683293  0.00006290
   0.66103701 -0.00446164 -0.00001171
   0.66350477  0.66680890  0.00002766
   0.11352742  0.21924596  0.94991650
   0.22104640  0.11278302  0.04912761
   0.11163803  0.55530112  0.94524675
   0.22597014  0.44313475  0.05109981
   0.10822705  0.88963041  0.94835997
   0.22068543  0.77670189  0.05633535
   0.44508392  0.22432739  0.95111808
   0.55837503  0.11677621  0.05087079
   0.44036060  0.55163678  0.94952055
   0.55196622  0.43848725  0.05038718
   0.44655099  0.88892671  0.94508973
   0.55384907  0.77683104  0.05263659
   0.77346368  0.22484396  0.94885482
   0.89102539  0.10794607  0.05092899
   0.77877362  0.55332806  0.94952106
   0.88288383  0.44362563  0.05201204
   0.78414214  0.89239068  0.94853783
   0.89232335  0.78104269  0.05025429
unknown system                          
           1
     8.288940    4.766253    0.000000
    -8.295136    4.776978    0.000000
     0.000000    0.000000   30.000000
   V    Mo   W    S 
   3   3   3  18
Direct configuration=    23
   0.66866575  0.33845725 -0.00045082
  -0.00079540  0.00253133  0.00044373
   0.33203629  0.33245292 -0.00010789
   0.32394090  0.67722155 -0.00008769
   1.00136844  0.33980036  0.00031876
   0.32951028 -0.01943453 -0.00027604
   0.01726183  0.66764261 -0.00006986
   0.66095578 -0.00407912 -0.00000608
   0.66540515  0.66643664 -0.00002454
   0.11343366  0.21910500  0.95003068
   0.22118493  0.11282379  0.04923112
   0.11143241  0.55534553  0.94532856
   0.22603162  0.44330315  0.05103331
   0.10833769  0.88963643  0.94815740
   0.22052655  0.77693936  0.05646717
   0.44497643  0.22422326  0.95113475
   0.55820801  0.11673938  0.05078421
   0.44048332  0.55200533  0.94989441
   0.55201766  0.43846476  0.05037052
   0.44645005  0.88886964  0.94516693
   0.55375731  0.77653587  0.05239730
   0.77340577  0.22479710  0.94890323
   0.89108332  0.10785713  0.05085547
   0.77882103  0.55313148  0.94939057
   0.88291775  0.44382944  0.05193276
   0.78429981  0.89246143  0.94864134
   0.89249812  0.78111733  0.05054058
unknown system                          
           1
     8.291550    4.766559    0.000000
    -8.298466    4.778534    0.000000
     0.000000    0.000000   30.000000
   V    Mo   W    S 
   3   3   3  18
Direct configuration=    24
   0.66934296  0.33848259 -0.00044945
  -0.00147294  0.00437500  0.00045434
   0.33164637  0.33234283 -0.00003903
   0.32466334  0.67765098 -0.00004662
   1.00226225  0.34074463  0.00032519
   0.33030187 -0.02018021 -0.00018118
   0.01807866  0.66651515  0.00010115
   0.65964046 -0.00564742 -0.00001929
   0.66357503  0.66702856 -0.00001224
   0.11346225  0.21925451  0.94989693
   0.22121255  0.11260075  0.04899185
   0.11180799  0.55533090  0.94510057
   0.22611914  0.44353137  0.05102974
   0.10829562  0.88937444  0.94846384
   0.22064358  0.77671718  0.05655636
   0.44486186  0.22379725  0.95137330
   0.55815757  0.11650870  0.05081567
   0.44028487  0.55186687  0.94971236
   0.55214028  0.43870183  0.05025011
   0.44647580  0.88870936  0.94490516