   27   27  100    1
  0.9710400E+02  0.1002848E-08  0.1002848E-08  0.3000000E-08  0.5000000E-15
  1.000000000000000E-004
  CAR 
 unknown system                          
    159     34    120
 
  0.0000000E+00  0.0000000E+00  0.0000000E+00  0.1562500E-01
    1      -17.820101   1.000000
    2      -16.687934   1.000000
    3      -16.660378   1.000000
    4      -16.572852   1.000000
    5      -16.479626   1.000000
    6      -16.460913   1.000000
    7      -16.424245   1.000000
    8      -16.355395   1.000000
    9      -16.164888   1.000000
   10      -16.101898   1.000000
   11      -16.043948   1.000000
   12      -15.912283   1.000000
   13      -15.864114   1.000000
   14      -15.839612   1.000000
   15      -15.538638   1.000000
   16      -15.526707   1.000000
   17      -15.396293   1.000000
   18      -15.227056   1.000000
   19       -9.380897   1.000000
   20       -8.988147   1.000000
   21       -8.876711   1.000000
   22       -8.818122   1.000000
   23       -8.770338   1.000000
   24       -8.703996   1.000000
   25       -8.653334   1.000000
   26       -8.517240   1.000000
   27       -8.512059   1.000000
   28       -8.416864   1.000000
   29       -8.377356   1.000000
   30       -8.365403   1.000000
   31       -8.267302   1.000000
   32       -8.171782   1.000000
   33       -8.133409   1.000000
   34       -8.096471   1.000000
   35       -7.820168   1.000000
   36       -7.811045   1.000000
   37       -7.699680   1.000000
   38       -7.563072   1.000000
   39       -7.501425   1.000000
   40       -7.457203   1.000000
   41       -7.345827   1.000000
   42       -7.180545   1.000000
   43       -7.139790   1.000000
   44       -6.909289   1.000000
   45       -6.856926   1.000000
   46       -6.791836   1.000000
   47       -6.758715   1.000000
   48       -6.723665   1.000000
   49       -6.600023   1.000000
   50       -6.492136   1.000000
   51       -6.470822   1.000000
   52       -6.397238   1.000000
   53       -6.279732   1.000000
   54       -6.242339   1.000000
   55       -6.153801   1.000000
   56       -6.044527   1.000000
   57       -5.993770   1.000000
   58       -5.860573   1.000000
   59       -5.806253   1.000000
   60       -5.685291   1.000000
   61       -5.397312   1.000000
   62       -5.305650   1.000000
   63       -5.254876   1.000000
   64       -5.162626   1.000000
   65       -5.041937   1.000000
   66       -4.961838   1.000000
   67       -4.900824   1.000000
   68       -4.845156   1.000000
   69       -4.800968   1.000000
   70       -4.661666   1.000000
   71       -4.570701   1.000000
   72       -4.518442   1.000000
   73       -4.467742   1.000000
   74       -4.363225   1.000000
   75       -4.265232   1.000000
   76       -3.957863   0.999998
   77       -3.685187   0.995985
   78       -3.602359   0.980546
   79       -3.466473   0.865268
   80       -3.364809   0.650037
   81       -3.314600   0.512123
   82       -2.885407   0.001330
   83       -2.694695   0.000007
   84       -2.569863   0.000000
   85       -2.523490   0.000000
   86       -2.452957   0.000000
   87       -2.332485   0.000000
   88       -2.286015   0.000000
   89       -2.128234   0.000000
   90       -2.062003   0.000000
   91       -1.808728   0.000000
   92       -1.676460   0.000000
   93       -1.378564   0.000000
   94       -1.308307   0.000000
   95       -1.233928   0.000000
   96       -1.195753   0.000000
   97       -1.075844   0.000000
   98       -0.864384   0.000000
   99       -0.723982   0.000000
  100       -0.619757   0.000000
  101       -0.601386   0.000000
  102       -0.513852   0.000000
  103       -0.410701   0.000000
  104       -0.316853   0.000000
  105       -0.147394   0.000000
  106        0.004027   0.000000
  107        0.085199   0.000000
  108        0.127993   0.000000
  109        0.217378   0.000000
  110        0.264610   0.000000
  111        0.384483   0.000000
  112        0.518572   0.000000
  113        0.571966   0.000000
  114        0.689003   0.000000
  115        0.973487   0.000000
  116        1.029200   0.000000
  117        1.050419   0.000000
  118        1.652916   0.000000
  119        1.841195   0.000000
  120        2.164472   0.000000
 
  0.1250000E+00  0.2775558E-16  0.0000000E+00  0.3125000E-01
    1      -17.796011   1.000000
    2      -16.767498   1.000000
    3      -16.670214   1.000000
    4      -16.617597   1.000000
    5      -16.554429   1.000000
    6      -16.422781   1.000000
    7      -16.378862   1.000000
    8      -16.292139   1.000000
    9      -16.176647   1.000000
   10      -16.110222   1.000000
   11      -16.024558   1.000000
   12      -15.864569   1.000000
   13      -15.838772   1.000000
   14      -15.823957   1.000000
   15      -15.557150   1.000000
   16      -15.530605   1.000000
   17      -15.403665   1.000000
   18      -15.235177   1.000000
   19       -9.389698   1.000000
   20       -9.100172   1.000000
   21       -9.027691   1.000000
   22       -8.904218   1.000000
   23       -8.779769   1.000000
   24       -8.722983   1.000000
   25       -8.668322   1.000000
   26       -8.559155   1.000000
   27       -8.502831   1.000000
   28       -8.431821   1.000000
   29       -8.355041   1.000000
   30       -8.217667   1.000000
   31       -8.202155   1.000000
   32       -8.131523   1.000000
   33       -8.042153   1.000000
   34       -7.919943   1.000000
   35       -7.829095   1.000000
   36       -7.780454   1.000000
   37       -7.645450   1.000000
   38       -7.577947   1.000000
   39       -7.529109   1.000000
   40       -7.372671   1.000000
   41       -7.348688   1.000000
   42       -7.182946   1.000000
   43       -7.142619   1.000000
   44       -6.981803   1.000000
   45       -6.901703   1.000000
   46       -6.851673   1.000000
   47       -6.776335   1.000000
   48       -6.707234   1.000000
   49       -6.563117   1.000000
   50       -6.495240   1.000000
   51       -6.461954   1.000000
   52       -6.368871   1.000000
   53       -6.313155   1.000000
   54       -6.231421   1.000000
   55       -6.147022   1.000000
   56       -6.069903   1.000000
   57       -5.948221   1.000000
   58       -5.858167   1.000000
   59       -5.767088   1.000000
   60       -5.634709   1.000000
   61       -5.418237   1.000000
   62       -5.341834   1.000000
   63       -5.298129   1.000000
   64       -5.217598   1.000000
   65       -5.132567   1.000000
   66       -5.025148   1.000000
   67       -4.977171   1.000000
   68       -4.914613   1.000000
   69       -4.784474   1.000000
   70       -4.645764   1.000000
   71       -4.572315   1.000000
   72       -4.414467   1.000000
   73       -4.361283   1.000000
   74       -4.270739   1.000000
   75       -4.203360   1.000000
   76       -3.916845   0.999991
   77       -3.828085   0.999875
   78       -3.644595   0.990956
   79       -3.584770   0.973858
   80       -3.386761   0.705624
   81       -3.149396   0.127607
   82       -2.873055   0.000995
   83       -2.689674   0.000006
   84       -2.582486   0.000000
   85       -2.557517   0.000000
   86       -2.465233   0.000000
   87       -2.331818   0.000000
   88       -2.259469   0.000000
   89       -2.117314   0.000000
   90       -2.035222   0.000000
   91       -1.744139   0.000000
   92       -1.659231   0.000000
   93       -1.394690   0.000000
   94       -1.341749   0.000000
   95       -1.206606   0.000000
   96       -1.171704   0.000000
   97       -1.090023   0.000000
   98       -0.868901   0.000000
   99       -0.727858   0.000000
  100       -0.703450   0.000000
  101       -0.605517   0.000000
  102       -0.603950   0.000000
  103       -0.534708   0.000000
  104       -0.292354   0.000000
  105       -0.178511   0.000000
  106       -0.077756   0.000000
  107        0.058720   0.000000
  108        0.089727   0.000000
  109        0.134589   0.000000
  110        0.257202   0.000000
  111        0.382255   0.000000
  112        0.542903   0.000000
  113        0.646036   0.000000
  114        0.822466   0.000000
  115        0.965213   0.000000
  116        1.023627   0.000000
  117        1.107487   0.000000
  118        1.696304   0.000000
  119        1.878781   0.000000
  120        2.199540   0.000000
 
  0.2500000E+00  0.5551115E-16  0.0000000E+00  0.3125000E-01
    1      -17.726060   1.000000
    2      -16.961838   1.000000
    3      -16.706502   1.000000
    4      -16.641182   1.000000
    5      -16.604248   1.000000
    6      -16.421051   1.000000
    7      -16.314756   1.000000
    8      -16.235124   1.000000
    9      -16.167896   1.000000
   10      -16.083839   1.000000
   11      -15.997508   1.000000
   12      -15.862219   1.000000
   13      -15.797738   1.000000
   14      -15.695650   1.000000
   15      -15.583162   1.000000
   16      -15.555149   1.000000
   17      -15.425158   1.000000
   18      -15.256394   1.000000
   19       -9.532811   1.000000
   20       -9.228828   1.000000
   21       -9.172587   1.000000
   22       -9.019377   1.000000
   23       -8.863147   1.000000
   24       -8.801499   1.000000
   25       -8.625954   1.000000
   26       -8.540180   1.000000
   27       -8.492049   1.000000
   28       -8.394822   1.000000
   29       -8.284858   1.000000
   30       -8.190502   1.000000
   31       -8.125563   1.000000
   32       -8.019189   1.000000
   33       -7.934683   1.000000
   34       -7.827604   1.000000
   35       -7.766193   1.000000
   36       -7.667824   1.000000
   37       -7.609818   1.000000
   38       -7.534179   1.000000
   39       -7.394978   1.000000
   40       -7.347748   1.000000
   41       -7.301303   1.000000
   42       -7.178441   1.000000
   43       -7.099055   1.000000
   44       -7.011561   1.000000
   45       -6.982759   1.000000
   46       -6.834256   1.000000
   47       -6.826912   1.000000
   48       -6.710753   1.000000
   49       -6.573152   1.000000
   50       -6.527216   1.000000
   51       -6.408885   1.000000
   52       -6.359068   1.000000
   53       -6.307792   1.000000
   54       -6.165972   1.000000
   55       -6.106164   1.000000
   56       -6.065048   1.000000
   57       -5.951493   1.000000
   58       -5.820645   1.000000
   59       -5.772744   1.000000
   60       -5.641973   1.000000
   61       -5.562149   1.000000
   62       -5.513492   1.000000
   63       -5.437271   1.000000
   64       -5.350988   1.000000
   65       -5.221359   1.000000
   66       -5.076878   1.000000
   67       -4.957395   1.000000
   68       -4.900550   1.000000
   69       -4.761117   1.000000
   70       -4.663839   1.000000
   71       -4.496775   1.000000
   72       -4.319564   1.000000
   73       -4.275712   1.000000
   74       -4.183036   1.000000
   75       -4.104457   1.000000
   76       -3.994969   0.999999
   77       -3.892494   0.999981
   78       -3.715106   0.997898
   79       -3.627801   0.987618
   80       -3.383631   0.697951
   81       -3.037200   0.026734
   82       -2.849812   0.000565
   83       -2.701911   0.000008
   84       -2.646708   0.000001
   85       -2.553968   0.000000
   86       -2.476463   0.000000
   87       -2.323205   0.000000
   88       -2.189248   0.000000
   89       -2.091941   0.000000
   90       -1.955863   0.000000
   91       -1.691849   0.000000
   92       -1.573785   0.000000
   93       -1.420828   0.000000
   94       -1.366218   0.000000
   95       -1.198505   0.000000
   96       -1.143112   0.000000
   97       -1.130659   0.000000
   98       -0.888946   0.000000
   99       -0.864027   0.000000
  100       -0.809771   0.000000
  101       -0.754457   0.000000
  102       -0.655275   0.000000
  103       -0.612338   0.000000
  104       -0.357444   0.000000
  105       -0.321683   0.000000
  106       -0.154301   0.000000
  107       -0.084773   0.000000
  108        0.032532   0.000000
  109        0.076638   0.000000
  110        0.175718   0.000000
  111        0.381551   0.000000
  112        0.588559   0.000000
  113        0.724698   0.000000
  114        0.984126   0.000000
  115        1.046303   0.000000
  116        1.091778   0.000000
  117        1.207106   0.000000
  118        1.817928   0.000000
  119        1.987550   0.000000
  120        2.303663   0.000000
 
  0.3750000E+00  0.0000000E+00  0.0000000E+00  0.3125000E-01
    1      -17.621749   1.000000
    2      -17.161238   1.000000
    3      -16.742812   1.000000
    4      -16.672056   1.000000
    5      -16.591734   1.000000
    6      -16.456983   1.000000
    7      -16.272168   1.000000
    8      -16.200586   1.000000
    9      -16.144223   1.000000
   10      -16.056742   1.000000
   11      -15.941727   1.000000
   12      -15.867967   1.000000
   13      -15.766664   1.000000
   14      -15.642804   1.000000
   15      -15.589830   1.000000
   16      -15.545833   1.000000
   17      -15.447291   1.000000
   18      -15.282867   1.000000
   19       -9.729479   1.000000
   20       -9.330720   1.000000
   21       -9.187085   1.000000
   22       -9.081371   1.000000
   23       -8.936044   1.000000
   24       -8.828679   1.000000
   25       -8.582503   1.000000
   26       -8.497649   1.000000
   27       -8.440054   1.000000
   28       -8.364445   1.000000
   29       -8.284019   1.000000
   30       -8.198904   1.000000
   31       -8.135881   1.000000
   32       -7.963701   1.000000
   33       -7.890267   1.000000
   34       -7.795737   1.000000
   35       -7.766922   1.000000
   36       -7.653626   1.000000
   37       -7.577401   1.000000
   38       -7.491381   1.000000
   39       -7.375916   1.000000
   40       -7.283779   1.000000
   41       -7.201228   1.000000
   42       -7.139799   1.000000
   43       -7.050952   1.000000
   44       -6.960391   1.000000
   45       -6.889565   1.000000
   46       -6.802097   1.000000
   47       -6.736922   1.000000
   48       -6.644909   1.000000
   49       -6.596258   1.000000
   50       -6.461560   1.000000
   51       -6.383269   1.000000
   52       -6.350882   1.000000
   53       -6.240048   1.000000
   54       -6.166720   1.000000
   55       -6.073623   1.000000
   56       -6.049876   1.000000
   57       -5.992276   1.000000
   58       -5.968379   1.000000
   59       -5.884211   1.000000
   60       -5.775110   1.000000
   61       -5.711746   1.000000
   62       -5.637526   1.000000
   63       -5.497260   1.000000
   64       -5.416757   1.000000
   65       -5.256183   1.000000
   66       -5.036663   1.000000
   67       -4.916951   1.000000
   68       -4.857263   1.000000
   69       -4.747249   1.000000
   70       -4.700046   1.000000
   71       -4.663846   1.000000
   72       -4.347456   1.000000
   73       -4.273046   1.000000
   74       -4.103115   1.000000
   75       -4.079268   1.000000
   76       -3.905930   0.999987
   77       -3.794503   0.999691
   78       -3.684175   0.995900
   79       -3.616370   0.984777
   80       -3.439541   0.819604
   81       -3.014443   0.018217
   82       -2.859759   0.000722
   83       -2.728600   0.000020
   84       -2.630619   0.000001
   85       -2.550009   0.000000
   86       -2.478244   0.000000
   87       -2.289602   0.000000
   88       -2.139033   0.000000
   89       -2.041792   0.000000
   90       -1.865979   0.000000
   91       -1.681060   0.000000
   92       -1.543374   0.000000
   93       -1.415118   0.000000
   94       -1.341581   0.000000
   95       -1.274008   0.000000
   96       -1.177959   0.000000
   97       -1.134328   0.000000
   98       -1.038443   0.000000
   99       -0.950927   0.000000
  100       -0.852527   0.000000
  101       -0.794425   0.000000
  102       -0.739417   0.000000
  103       -0.625917   0.000000
  104       -0.476347   0.000000
  105       -0.387885   0.000000
  106       -0.252897   0.000000
  107       -0.176385   0.000000
  108       -0.075508   0.000000
  109        0.045725   0.000000
  110        0.104129   0.000000
  111        0.367771   0.000000
  112        0.630492   0.000000
  113        0.752511   0.000000
  114        1.039075   0.000000
  115        1.145864   0.000000
  116        1.232066   0.000000
  117        1.304689   0.000000
  118        2.001754   0.000000
  119        2.158975   0.000000
  120        2.474150   0.000000
 
  0.5000000E+00  0.1110223E-15  0.0000000E+00  0.1562500E-01
    1      -17.546845   1.000000
    2      -17.270095   1.000000
    3      -16.755890   1.000000
    4      -16.685655   1.000000
    5      -16.576088   1.000000
    6      -16.479826   1.000000
    7      -16.255860   1.000000
    8      -16.206299   1.000000
    9      -16.109044   1.000000
   10      -16.045320   1.000000
   11      -15.945943   1.000000
   12      -15.833069   1.000000
   13      -15.761070   1.000000
   14      -15.671950   1.000000
   15      -15.572949   1.000000
   16      -15.538641   1.000000
   17      -15.439687   1.000000
   18      -15.298317   1.000000
   19       -9.805585   1.000000
   20       -9.370711   1.000000
   21       -9.203698   1.000000
   22       -9.089549   1.000000
   23       -8.947019   1.000000
   24       -8.819074   1.000000
   25       -8.555656   1.000000
   26       -8.536921   1.000000
   27       -8.410732   1.000000
   28       -8.363823   1.000000
   29       -8.260398   1.000000
   30       -8.188211   1.000000
   31       -8.125623   1.000000
   32       -7.938095   1.000000
   33       -7.896538   1.000000
   34       -7.836095   1.000000
   35       -7.762646   1.000000
   36       -7.666315   1.000000
   37       -7.566147   1.000000
   38       -7.530164   1.000000
   39       -7.418516   1.000000
   40       -7.252366   1.000000
   41       -7.175023   1.000000
   42       -7.036133   1.000000
   43       -6.996311   1.000000
   44       -6.902164   1.000000
   45       -6.756915   1.000000
   46       -6.705835   1.000000
   47       -6.679282   1.000000
   48       -6.651246   1.000000
   49       -6.600986   1.000000
   50       -6.488821   1.000000
   51       -6.451324   1.000000
   52       -6.316299   1.000000
   53       -6.289003   1.000000
   54       -6.251523   1.000000
   55       -6.123362   1.000000
   56       -6.053233   1.000000
   57       -5.972805   1.000000
   58       -5.899236   1.000000
   59       -5.854493   1.000000
   60       -5.837631   1.000000
   61       -5.741307   1.000000
   62       -5.607885   1.000000
   63       -5.519173   1.000000
   64       -5.491522   1.000000
   65       -5.399500   1.000000
   66       -5.013974   1.000000
   67       -4.960074   1.000000
   68       -4.863794   1.000000
   69       -4.824065   1.000000
   70       -4.680793   1.000000
   71       -4.643744   1.000000
   72       -4.303856   1.000000
   73       -4.270567   1.000000
   74       -4.181184   1.000000
   75       -4.039016   1.000000
   76       -3.813328   0.999812
   77       -3.715336   0.997909
   78       -3.661094   0.993440
   79       -3.626913   0.987415
   80       -3.485474   0.892263
   81       -3.028526   0.023161
   82       -2.868945   0.000902
   83       -2.722261   0.000016
   84       -2.623135   0.000001
   85       -2.549112   0.000000
   86       -2.475639   0.000000
   87       -2.270354   0.000000
   88       -2.113737   0.000000
   89       -2.020200   0.000000
   90       -1.829748   0.000000
   91       -1.677325   0.000000
   92       -1.538211   0.000000
   93       -1.413571   0.000000
   94       -1.346958   0.000000
   95       -1.311211   0.000000
   96       -1.196606   0.000000
   97       -1.142281   0.000000
   98       -1.101720   0.000000
   99       -0.981900   0.000000
  100       -0.843969   0.000000
  101       -0.810705   0.000000
  102       -0.766375   0.000000
  103       -0.617779   0.000000
  104       -0.548894   0.000000
  105       -0.408859   0.000000
  106       -0.293270   0.000000
  107       -0.199444   0.000000
  108       -0.124099   0.000000
  109        0.016655   0.000000
  110        0.090258   0.000000
  111        0.359995   0.000000
  112        0.645268   0.000000
  113        0.760724   0.000000
  114        1.060416   0.000000
  115        1.186543   0.000000
  116        1.281893   0.000000
  117        1.343249   0.000000
  118        2.226080   0.000000
  119        2.245846   0.000000
  120        2.374950   0.000000
 
  0.0000000E+00  0.1250000E+00  0.0000000E+00  0.3125000E-01
    1      -17.794245   1.000000
    2      -16.788259   1.000000
    3      -16.682110   1.000000
    4      -16.604922   1.000000
    5      -16.508604   1.000000
    6      -16.416364   1.000000
    7      -16.386589   1.000000
    8      -16.325019   1.000000
    9      -16.216650   1.000000
   10      -16.065691   1.000000
   11      -15.995374   1.000000
   12      -15.892078   1.000000
   13      -15.863941   1.000000
   14      -15.800688   1.000000
   15      -15.546978   1.000000
   16      -15.534015   1.000000
   17      -15.408275   1.000000
   18      -15.234568   1.000000
   19       -9.370391   1.000000
   20       -9.182790   1.000000
   21       -8.996785   1.000000
   22       -8.892165   1.000000
   23       -8.777176   1.000000
   24       -8.686862   1.000000
   25       -8.630921   1.000000
   26       -8.567877   1.000000
   27       -8.503338   1.000000
   28       -8.410934   1.000000
   29       -8.366740   1.000000
   30       -8.286437   1.000000
   31       -8.219394   1.000000
   32       -8.126677   1.000000
   33       -8.022676   1.000000
   34       -7.930253   1.000000
   35       -7.862393   1.000000
   36       -7.720439   1.000000
   37       -7.693901   1.000000
   38       -7.562785   1.000000
   39       -7.505098   1.000000
   40       -7.382367   1.000000
   41       -7.341769   1.000000
   42       -7.205353   1.000000
   43       -7.148746   1.000000
   44       -6.945689   1.000000
   45       -6.919390   1.000000
   46       -6.841231   1.000000
   47       -6.781607   1.000000
   48       -6.710909   1.000000
   49       -6.615249   1.000000
   50       -6.452558   1.000000
   51       -6.428665   1.000000
   52       -6.362887   1.000000
   53       -6.304919   1.000000
   54       -6.221988   1.000000
   55       -6.166475   1.000000
   56       -6.075792   1.000000
   57       -5.965858   1.000000
   58       -5.859246   1.000000
   59       -5.760515   1.000000
   60       -5.640238   1.000000
   61       -5.409150   1.000000
   62       -5.344514   1.000000
   63       -5.259112   1.000000
   64       -5.200374   1.000000
   65       -5.136868   1.000000
   66       -5.062302   1.000000
   67       -5.018073   1.000000
   68       -4.911657   1.000000
   69       -4.775059   1.000000
   70       -4.622146   1.000000
   71       -4.584606   1.000000
   72       -4.426950   1.000000
   73       -4.335375   1.000000
   74       -4.284612   1.000000
   75       -4.188198   1.000000
   76       -3.933314   0.999995
   77       -3.750386   0.999070
   78       -3.701153   0.997143
   79       -3.647655   0.991471
   80       -3.281599   0.419583
   81       -3.217631   0.256144
   82       -2.873545   0.001006
   83       -2.683681   0.000005
   84       -2.610496   0.000000
   85       -2.537469   0.000000
   86       -2.476266   0.000000
   87       -2.325016   0.000000
   88       -2.248698   0.000000
   89       -2.118287   0.000000
   90       -2.045191   0.000000
   91       -1.760503   0.000000
   92       -1.645503   0.000000
   93       -1.395372   0.000000
   94       -1.334382   0.000000
   95       -1.223786   0.000000
   96       -1.185406   0.000000
   97       -1.051982   0.000000
   98       -0.864619   0.000000
   99       -0.740163   0.000000
  100       -0.668872   0.000000
  101       -0.640899   0.000000
  102       -0.565018   0.000000
  103       -0.488798   0.000000
  104       -0.361637   0.000000
  105       -0.164461   0.000000
  106       -0.074166   0.000000
  107        0.028406   0.000000
  108        0.111592   0.000000
  109        0.209795   0.000000
  110        0.275540   0.000000
  111        0.348851   0.000000
  112        0.429907   0.000000
  113        0.696178   0.000000
  114        0.807662   0.000000
  115        0.968856   0.000000
  116        1.027207   0.000000
  117        1.109240   0.000000
  118        1.696688   0.000000
  119        1.879649   0.000000
  120        2.199850   0.000000
 
  0.1250000E+00  0.1250000E+00  0.0000000E+00  0.3125000E-01
    1      -17.746086   1.000000
    2      -16.898678   1.000000
    3      -16.767502   1.000000
    4      -16.636806   1.000000
    5      -16.475929   1.000000
    6      -16.417200   1.000000
    7      -16.352823   1.000000
    8      -16.306771   1.000000
    9      -16.196401   1.000000
   10      -16.054898   1.000000
   11      -15.992523   1.000000
   12      -15.878750   1.000000
   13      -15.803884   1.000000
   14      -15.721922   1.000000
   15      -15.569795   1.000000
   16      -15.545991   1.000000
   17      -15.425515   1.000000
   18      -15.251608   1.000000
   19       -9.440976   1.000000
   20       -9.310551   1.000000
   21       -9.143186   1.000000
   22       -8.958641   1.000000
   23       -8.824141   1.000000
   24       -8.738931   1.000000
   25       -8.611352   1.000000
   26       -8.556809   1.000000
   27       -8.494526   1.000000
   28       -8.362908   1.000000
   29       -8.334756   1.000000
   30       -8.234682   1.000000
   31       -8.142814   1.000000
   32       -8.091653   1.000000
   33       -7.978702   1.000000
   34       -7.902064   1.000000
   35       -7.747573   1.000000
   36       -7.683615   1.000000
   37       -7.559089   1.000000
   38       -7.478804   1.000000
   39       -7.428649   1.000000
   40       -7.350362   1.000000
   41       -7.341256   1.000000
   42       -7.231486   1.000000
   43       -7.108891   1.000000
   44       -7.041538   1.000000
   45       -6.959667   1.000000
   46       -6.892413   1.000000
   47       -6.829530   1.000000
   48       -6.703459   1.000000
   49       -6.587622   1.000000
   50       -6.476838   1.000000
   51       -6.379965   1.000000
   52       -6.357774   1.000000
   53       -6.306734   1.000000
   54       -6.181065   1.000000
   55       -6.113695   1.000000
   56       -6.079905   1.000000
   57       -5.939572   1.000000
   58       -5.821701   1.000000
   59       -5.743819   1.000000
   60       -5.587445   1.000000
   61       -5.537518   1.000000
   62       -5.473638   1.000000
   63       -5.424441   1.000000
   64       -5.300562   1.000000
   65       -5.178401   1.000000
   66       -5.088954   1.000000
   67       -5.015709   1.000000
   68       -4.952835   1.000000
   69       -4.706374   1.000000
   70       -4.629281   1.000000
   71       -4.591930   1.000000
   72       -4.321414   1.000000
   73       -4.223520   1.000000
   74       -4.158186   1.000000
   75       -4.072905   1.000000
   76       -4.060487   1.000000
   77       -3.932648   0.999995
   78       -3.749570   0.999052
   79       -3.634747   0.989110
   80       -3.289140   0.440526
   81       -3.103854   0.072172
   82       -2.839076   0.000431
   83       -2.722303   0.000016
   84       -2.665431   0.000003
   85       -2.559053   0.000000
   86       -2.501134   0.000000
   87       -2.324626   0.000000
   88       -2.179727   0.000000
   89       -2.106971   0.000000
   90       -1.988434   0.000000
   91       -1.712914   0.000000
   92       -1.549914   0.000000
   93       -1.426114   0.000000
   94       -1.366050   0.000000
   95       -1.188074   0.000000
   96       -1.169717   0.000000
   97       -1.070705   0.000000
   98       -0.873004   0.000000
   99       -0.807076   0.000000
  100       -0.754911   0.000000
  101       -0.706570   0.000000
  102       -0.634072   0.000000
  103       -0.586076   0.000000
  104       -0.388380   0.000000
  105       -0.272301   0.000000
  106       -0.142745   0.000000
  107       -0.028309   0.000000
  108        0.018695   0.000000
  109        0.123593   0.000000
  110        0.210608   0.000000
  111        0.350634   0.000000
  112        0.487016   0.000000
  113        0.779945   0.000000
  114        0.948268   0.000000
  115        1.019369   0.000000
  116        1.064132   0.000000
  117        1.182891   0.000000
  118        1.779827   0.000000
  119        1.951497   0.000000
  120        2.269786   0.000000
 
  0.2500000E+00  0.1250000E+00  0.0000000E+00  0.3125000E-01
    1      -17.656055   1.000000
    2      -17.068359   1.000000
    3      -16.873991   1.000000
    4      -16.612082   1.000000
    5      -16.487972   1.000000
    6      -16.442793   1.000000
    7      -16.287314   1.000000
    8      -16.248130   1.000000
    9      -16.196022   1.000000
   10      -16.028671   1.000000
   11      -15.958014   1.000000
   12      -15.887328   1.000000
   13      -15.784432   1.000000
   14      -15.612413   1.000000
   15      -15.589372   1.000000
   16      -15.552597   1.000000
   17      -15.452325   1.000000
   18      -15.275084   1.000000
   19       -9.629616   1.000000
   20       -9.450979   1.000000
   21       -9.152204   1.000000
   22       -9.070548   1.000000
   23       -8.876890   1.000000
   24       -8.717061   1.000000
   25       -8.565604   1.000000
   26       -8.501557   1.000000
   27       -8.458917   1.000000
   28       -8.358868   1.000000
   29       -8.284083   1.000000
   30       -8.239430   1.000000
   31       -8.172620   1.000000
   32       -8.007998   1.000000
   33       -7.966369   1.000000
   34       -7.871474   1.000000
   35       -7.791715   1.000000
   36       -7.572267   1.000000
   37       -7.549425   1.000000
   38       -7.397473   1.000000
   39       -7.369964   1.000000
   40       -7.312273   1.000000
   41       -7.262243   1.000000
   42       -7.165459   1.000000
   43       -7.091077   1.000000
   44       -7.005100   1.000000
   45       -6.896347   1.000000
   46       -6.844811   1.000000
   47       -6.783416   1.000000