       N       E                     dE             d eps       ncg     rms          rms(c)
DAV:   1     0.112406225134E+04    0.11241E+04   -0.35866E+04  8160   0.577E+02
DAV:   2    -0.217287225491E+01   -0.11262E+04   -0.10855E+04 10920   0.173E+02
DAV:   3    -0.199813243771E+03   -0.19764E+03   -0.18935E+03 10960   0.820E+01
DAV:   4    -0.208957366439E+03   -0.91441E+01   -0.88318E+01 11800   0.259E+01
DAV:   5    -0.209324600944E+03   -0.36723E+00   -0.36621E+00 11800   0.393E+00    0.275E+01
DAV:   6    -0.237120355996E+03   -0.27796E+02   -0.10984E+02 12520   0.604E+01    0.596E+01
DAV:   7    -0.196423528150E+03    0.40697E+02   -0.17769E+02 13360   0.152E+02    0.199E+01
DAV:   8    -0.189400698138E+03    0.70228E+01   -0.17579E+01 12040   0.127E+01    0.125E+01
DAV:   9    -0.188166772292E+03    0.12339E+01   -0.31444E+00 12920   0.634E+00    0.914E+00
DAV:  10    -0.186998911411E+03    0.11679E+01   -0.20959E+00 13400   0.738E+00    0.274E+00
DAV:  11    -0.186968715668E+03    0.30196E-01   -0.59724E-01 13320   0.258E+00    0.281E+00
DAV:  12    -0.187096308001E+03   -0.12759E+00   -0.84015E-01 12080   0.495E+00    0.501E+00
DAV:  13    -0.186879869395E+03    0.21644E+00   -0.55618E-01 12960   0.411E+00    0.212E+00
DAV:  14    -0.186856149878E+03    0.23720E-01   -0.13012E-01 13400   0.208E+00    0.172E+00
DAV:  15    -0.186835304583E+03    0.20845E-01   -0.72311E-02 12080   0.162E+00    0.848E-01
DAV:  16    -0.186827831443E+03    0.74731E-02   -0.11903E-02 12000   0.455E-01    0.449E-01
DAV:  17    -0.186825941780E+03    0.18897E-02   -0.78658E-03 12560   0.429E-01    0.233E-01
DAV:  18    -0.186825491287E+03    0.45049E-03   -0.24356E-03 11600   0.144E-01    0.178E-01
DAV:  19    -0.186825141607E+03    0.34968E-03   -0.96751E-04 10880   0.132E-01    0.476E-02
DAV:  20    -0.186825875366E+03   -0.73376E-03   -0.68825E-04  9280   0.586E-02    0.503E-02
DAV:  21    -0.186826468131E+03   -0.59276E-03   -0.27098E-04  7960   0.454E-02    0.449E-02
DAV:  22    -0.186827641341E+03   -0.11732E-02   -0.22090E-04  7680   0.629E-02    0.407E-02
DAV:  23    -0.186828860796E+03   -0.12195E-02   -0.14617E-04  7440   0.449E-02    0.114E-02
DAV:  24    -0.186829451398E+03   -0.59060E-03   -0.31236E-05  6640   0.142E-02    0.754E-03
DAV:  25    -0.186829814568E+03   -0.36317E-03   -0.15706E-05  5760   0.120E-02    0.500E-03
DAV:  26    -0.186830049254E+03   -0.23469E-03   -0.90586E-06  6800   0.740E-03    0.156E-03
DAV:  27    -0.186830151832E+03   -0.10258E-03   -0.38246E-06  7160   0.481E-03    0.161E-03
DAV:  28    -0.186830192758E+03   -0.40926E-04   -0.20140E-06  7280   0.366E-03
   1 F= -.18683019E+03 E0= -.18665766E+03  d E =-.186830E+03
       N       E                     dE             d eps       ncg     rms          rms(c)
DAV:   1    -0.187460018004E+03   -0.62987E+00   -0.27140E+02  8160   0.350E+01    0.464E+00
DAV:   2    -0.189371874688E+03   -0.19119E+01   -0.20261E+01 12280   0.153E+01    0.884E+00
DAV:   3    -0.189332815028E+03    0.39060E-01   -0.40597E+00 12440   0.121E+01    0.670E+00
DAV:   4    -0.188726385269E+03    0.60643E+00   -0.62008E-01 12560   0.464E+00    0.177E+00
DAV:   5    -0.188741233456E+03   -0.14848E-01   -0.31204E-01 11600   0.202E+00    0.280E+00
DAV:   6    -0.188735109887E+03    0.61236E-02   -0.45859E-01 12600   0.372E+00    0.316E+00
DAV:   7    -0.188660446723E+03    0.74663E-01   -0.21073E-01 12480   0.265E+00    0.132E+00
DAV:   8    -0.188640041676E+03    0.20405E-01   -0.62522E-02 12480   0.109E+00    0.716E-01
DAV:   9    -0.188637410982E+03    0.26307E-02   -0.16985E-02 12040   0.712E-01    0.619E-01
DAV:  10    -0.188634727283E+03    0.26837E-02   -0.61051E-03 12880   0.429E-01    0.207E-01
DAV:  11    -0.188634302159E+03    0.42512E-03   -0.23222E-03 12840   0.182E-01    0.110E-01
DAV:  12    -0.188634379068E+03   -0.76910E-04   -0.88293E-04 11880   0.947E-02
   2 F= -.18863438E+03 E0= -.18849228E+03  d E =-.180419E+01
       N       E                     dE             d eps       ncg     rms          rms(c)
DAV:   1    -0.190562758085E+03   -0.19285E+01   -0.31142E+01  9240   0.142E+01    0.448E+00
DAV:   2    -0.190551467095E+03    0.11291E-01   -0.28565E+00 11400   0.973E+00    0.748E+00
DAV:   3    -0.190032095177E+03    0.51937E+00   -0.13533E+00 12320   0.868E+00    0.416E+00
DAV:   4    -0.189824503028E+03    0.20759E+00   -0.70758E-01 12880   0.408E+00    0.249E+00
DAV:   5    -0.189740285230E+03    0.84218E-01   -0.29695E-01 11400   0.198E+00    0.115E+00
DAV:   6    -0.189726446815E+03    0.13838E-01   -0.62769E-02 11960   0.137E+00    0.848E-01
DAV:   7    -0.189720662350E+03    0.57845E-02   -0.14989E-02 12240   0.703E-01    0.218E-01
DAV:   8    -0.189720516774E+03    0.14558E-03   -0.21648E-03 11120   0.171E-01    0.142E-01
DAV:   9    -0.189720777231E+03   -0.26046E-03   -0.10641E-03 10320   0.150E-01    0.167E-01
DAV:  10    -0.189721144412E+03   -0.36718E-03   -0.14648E-03 10600   0.266E-01    0.246E-01
DAV:  11    -0.189720572956E+03    0.57146E-03   -0.81708E-04  9320   0.189E-01    0.264E-02
DAV:  12    -0.189720593462E+03   -0.20506E-04   -0.66735E-05  5720   0.316E-02
   3 F= -.18972059E+03 E0= -.18960086E+03  d E =-.108621E+01
       N       E                     dE             d eps       ncg     rms          rms(c)
DAV:   1    -0.191253703394E+03   -0.15331E+01   -0.70787E+01  8160   0.192E+01    0.458E+00
DAV:   2    -0.191138542872E+03    0.11516E+00   -0.53672E+00 13320   0.823E+00    0.514E+00
DAV:   3    -0.191179751582E+03   -0.41209E-01   -0.15776E+00 12240   0.916E+00    0.642E+00
DAV:   4    -0.190826219218E+03    0.35353E+00   -0.13279E+00 12600   0.725E+00    0.312E+00
DAV:   5    -0.190823626151E+03    0.25931E-02   -0.54373E-01 12000   0.481E+00    0.333E+00
DAV:   6    -0.190683216293E+03    0.14041E+00   -0.21138E-01 12200   0.323E+00    0.831E-01
DAV:   7    -0.190678171551E+03    0.50447E-02   -0.38262E-02 12360   0.904E-01    0.497E-01
DAV:   8    -0.190676761237E+03    0.14103E-02   -0.11469E-02 11680   0.665E-01    0.516E-01
DAV:   9    -0.190674351084E+03    0.24102E-02   -0.41765E-03 11400   0.474E-01    0.152E-01
DAV:  10    -0.190674631392E+03   -0.28031E-03   -0.11639E-03 10480   0.139E-01    0.124E-01
DAV:  11    -0.190674478255E+03    0.15314E-03   -0.86499E-04 10480   0.107E-01    0.481E-02
DAV:  12    -0.190674471264E+03    0.69909E-05   -0.14398E-04  7160   0.450E-02
   4 F= -.19067447E+03 E0= -.19057321E+03  d E =-.953878E+00
       N       E                     dE             d eps       ncg     rms          rms(c)
DAV:   1    -0.192121401271E+03   -0.14469E+01   -0.15244E+02  8160   0.277E+01    0.581E+00
DAV:   2    -0.191866450534E+03    0.25495E+00   -0.96411E+00 12080   0.885E+00    0.461E+00
DAV:   3    -0.192250257958E+03   -0.38381E+00   -0.24447E+00 12200   0.109E+01    0.931E+00
DAV:   4    -0.191577366689E+03    0.67289E+00   -0.24909E+00 12200   0.114E+01    0.371E+00
DAV:   5    -0.191416875111E+03    0.16049E+00   -0.59709E-01 12280   0.407E+00    0.230E+00
DAV:   6    -0.191363895366E+03    0.52980E-01   -0.21829E-01 12400   0.319E+00    0.153E+00
DAV:   7    -0.191346611676E+03    0.17284E-01   -0.85124E-02 12320   0.178E+00    0.634E-01
DAV:   8    -0.191339921079E+03    0.66906E-02   -0.11341E-02 10640   0.503E-01    0.200E-01
DAV:   9    -0.191341423051E+03   -0.15020E-02   -0.40639E-03 12480   0.429E-01    0.391E-01
DAV:  10    -0.191340252049E+03    0.11710E-02   -0.36086E-03 11640   0.426E-01    0.131E-01
DAV:  11    -0.191340080041E+03    0.17201E-03   -0.72187E-04 10240   0.126E-01    0.600E-02
DAV:  12    -0.191340045681E+03    0.34359E-04   -0.12843E-04  7560   0.488E-02
   5 F= -.19134005E+03 E0= -.19124594E+03  d E =-.665574E+00
       N       E                     dE             d eps       ncg     rms          rms(c)
DAV:   1    -0.191414787946E+03   -0.74708E-01   -0.54672E+00  8160   0.495E+00    0.657E-01
DAV:   2    -0.191476590911E+03   -0.61803E-01   -0.27566E-01 13520   0.293E+00    0.227E+00
DAV:   3    -0.191426058340E+03    0.50533E-01   -0.11970E-01 12400   0.231E+00    0.518E-01
DAV:   4    -0.191427136712E+03   -0.10784E-02   -0.15933E-02 11680   0.879E-01    0.653E-01
DAV:   5    -0.191422849121E+03    0.42876E-02   -0.80788E-03 12080   0.662E-01    0.212E-01
DAV:   6    -0.191422529832E+03    0.31929E-03   -0.22331E-03 10960   0.205E-01    0.130E-01
DAV:   7    -0.191422278660E+03    0.25117E-03   -0.11667E-03 10360   0.118E-01    0.592E-02
DAV:   8    -0.191422218141E+03    0.60519E-04   -0.18544E-04  6800   0.711E-02
   6 F= -.19142222E+03 E0= -.19132638E+03  d E =-.821725E-01
       N       E                     dE             d eps       ncg     rms          rms(c)
DAV:   1    -0.191430012473E+03   -0.77338E-02   -0.50977E-02  8240   0.484E-01    0.752E-02
DAV:   2    -0.191430790509E+03   -0.77804E-03   -0.26763E-03 12560   0.291E-01    0.261E-01
DAV:   3    -0.191430064387E+03    0.72612E-03   -0.13576E-03  9760   0.273E-01    0.514E-02
DAV:   4    -0.191430105186E+03   -0.40799E-04   -0.12556E-04  6000   0.809E-02
   7 F= -.19143011E+03 E0= -.19133429E+03  d E =-.788704E-02
       N       E                     dE             d eps       ncg     rms          rms(c)
DAV:   1    -0.191222651131E+03    0.20741E+00   -0.33089E+01  8160   0.122E+01    0.131E+00
DAV:   2    -0.191341092434E+03   -0.11844E+00   -0.94162E-01 13400   0.340E+00    0.249E+00
DAV:   3    -0.191273280607E+03    0.67812E-01   -0.21448E-01 12360   0.336E+00    0.138E+00
DAV:   4    -0.191260665993E+03    0.12615E-01   -0.62594E-02 12320   0.152E+00    0.950E-01
DAV:   5    -0.191255769287E+03    0.48967E-02   -0.36857E-02 12240   0.138E+00    0.824E-01
DAV:   6    -0.191250393172E+03    0.53761E-02   -0.19745E-02 11920   0.896E-01    0.377E-01
DAV:   7    -0.191248608692E+03    0.17845E-02   -0.74305E-03 11880   0.423E-01    0.220E-01
DAV:   8    -0.191248463007E+03    0.14568E-03   -0.27146E-03 12320   0.372E-01    0.240E-01
DAV:   9    -0.191247873106E+03    0.58990E-03   -0.10435E-03 10120   0.235E-01    0.538E-02
DAV:  10    -0.191247861122E+03    0.11985E-04   -0.15978E-04  6520   0.548E-02
   8 F= -.19124786E+03 E0= -.19115540E+03  d E =0.182244E+00
       N       E                     dE             d eps       ncg     rms          rms(c)
DAV:   1    -0.191209870225E+03    0.38003E-01   -0.27927E+00  8160   0.351E+00    0.393E-01
DAV:   2    -0.191222830496E+03   -0.12960E-01   -0.78823E-02 13600   0.132E+00    0.911E-01
DAV:   3    -0.191213182770E+03    0.96477E-02   -0.21107E-02 12600   0.109E+00    0.307E-01
DAV:   4    -0.191212708684E+03    0.47409E-03   -0.43725E-03 11560   0.378E-01    0.251E-01
DAV:   5    -0.191212435178E+03    0.27351E-03   -0.28590E-03 11520   0.369E-01    0.251E-01
DAV:   6    -0.191211919842E+03    0.51534E-03   -0.16482E-03 10280   0.277E-01    0.100E-01
DAV:   7    -0.191211885012E+03    0.34830E-04   -0.49669E-04  9920   0.113E-01
   9 F= -.19121189E+03 E0= -.19112101E+03  d E =0.359761E-01
       N       E                     dE             d eps       ncg     rms          rms(c)
DAV:   1    -0.191211714858E+03    0.20498E-03   -0.13411E+01  8160   0.772E+00    0.855E-01
DAV:   2    -0.191231116013E+03   -0.19401E-01   -0.30599E-01 12440   0.187E+00    0.103E+00
DAV:   3    -0.191229436904E+03    0.16791E-02   -0.65040E-02 12440   0.183E+00    0.116E+00
DAV:   4    -0.191219257012E+03    0.10180E-01   -0.35465E-02 11960   0.138E+00    0.615E-01
DAV:   5    -0.191216163969E+03    0.30930E-02   -0.14815E-02 11520   0.839E-01    0.505E-01
DAV:   6    -0.191214438699E+03    0.17253E-02   -0.91050E-03 11840   0.713E-01    0.314E-01
DAV:   7    -0.191213262533E+03    0.11762E-02   -0.28153E-03 12240   0.323E-01    0.879E-02
DAV:   8    -0.191213229332E+03    0.33201E-04   -0.56070E-04 10760   0.132E-01
  10 F= -.19121323E+03 E0= -.19112252E+03  d E =-.134432E-02
       N       E                     dE             d eps       ncg     rms          rms(c)
DAV:   1    -0.191282934895E+03   -0.69672E-01   -0.11834E+01  8160   0.723E+00    0.910E-01
DAV:   2    -0.191365771259E+03   -0.82836E-01   -0.43819E-01 13080   0.317E+00    0.246E+00
DAV:   3    -0.191303802901E+03    0.61968E-01   -0.18719E-01 12240   0.301E+00    0.899E-01
DAV:   4    -0.191298571619E+03    0.52313E-02   -0.32073E-02 12080   0.108E+00    0.708E-01
DAV:   5    -0.191295385067E+03    0.31866E-02   -0.17337E-02 11760   0.943E-01    0.489E-01
DAV:   6    -0.191292600629E+03    0.27844E-02   -0.51469E-03 11680   0.437E-01    0.144E-01
DAV:   7    -0.191293088048E+03   -0.48742E-03   -0.23353E-03 12280   0.263E-01    0.229E-01
DAV:   8    -0.191292625226E+03    0.46282E-03   -0.16303E-03  9840   0.304E-01    0.134E-01
DAV:   9    -0.191292426522E+03    0.19870E-03   -0.37841E-04  8360   0.127E-01    0.269E-02
DAV:  10    -0.191292430584E+03   -0.40625E-05   -0.70099E-05  6880   0.309E-02
  11 F= -.19129243E+03 E0= -.19119772E+03  d E =-.792013E-01
       N       E                     dE             d eps       ncg     rms          rms(c)
DAV:   1    -0.191353350706E+03   -0.60924E-01   -0.13442E+01  8160   0.771E+00    0.917E-01
DAV:   2    -0.191424247707E+03   -0.70897E-01   -0.42670E-01 13280   0.302E+00    0.229E+00
DAV:   3    -0.191374778097E+03    0.49470E-01   -0.18666E-01 12160   0.291E+00    0.101E+00
DAV:   4    -0.191367855645E+03    0.69225E-02   -0.37191E-02 12480   0.117E+00    0.752E-01
DAV:   5    -0.191364224631E+03    0.36310E-02   -0.18956E-02 11680   0.992E-01    0.511E-01
DAV:   6    -0.191361128151E+03    0.30965E-02   -0.65043E-03 11600   0.488E-01    0.165E-01
DAV:   7    -0.191361851646E+03   -0.72349E-03   -0.33230E-03 12280   0.354E-01    0.298E-01
DAV:   8    -0.191360996481E+03    0.85517E-03   -0.21653E-03 10040   0.350E-01    0.111E-01
DAV:   9    -0.191360852347E+03    0.14413E-03   -0.29019E-04  7560   0.103E-01    0.257E-02
DAV:  10    -0.191360852592E+03   -0.24482E-06   -0.76456E-05  7480   0.299E-02
  12 F= -.19136085E+03 E0= -.19126303E+03  d E =-.684220E-01
       N       E                     dE             d eps       ncg     rms          rms(c)
DAV:   1    -0.191376831186E+03   -0.15979E-01   -0.63448E-01  8160   0.172E+00    0.239E-01
DAV:   2    -0.191381246420E+03   -0.44152E-02   -0.27794E-02 13560   0.804E-01    0.588E-01
DAV:   3    -0.191377822625E+03    0.34238E-02   -0.10558E-02 11680   0.714E-01    0.232E-01
DAV:   4    -0.191377614807E+03    0.20782E-03   -0.25675E-03 10440   0.313E-01    0.209E-01
DAV:   5    -0.191377283121E+03    0.33169E-03   -0.13425E-03  9680   0.266E-01    0.134E-01
DAV:   6    -0.191377093445E+03    0.18968E-03   -0.57096E-04  8960   0.150E-01    0.631E-02
DAV:   7    -0.191377199791E+03   -0.10635E-03   -0.43018E-04  8360   0.150E-01    0.118E-01
DAV:   8    -0.191377052100E+03    0.14769E-03   -0.24805E-04  6920   0.120E-01    0.202E-02
DAV:   9    -0.191377055768E+03   -0.36680E-05   -0.29955E-05  5800   0.251E-02
  13 F= -.19137706E+03 E0= -.19127881E+03  d E =-.162032E-01
       N       E                     dE             d eps       ncg     rms          rms(c)
DAV:   1    -0.191414791009E+03   -0.37739E-01   -0.35303E+00  8160   0.405E+00    0.519E-01
DAV:   2    -0.191436533524E+03   -0.21743E-01   -0.13817E-01 13600   0.172E+00    0.130E+00
DAV:   3    -0.191421105398E+03    0.15428E-01   -0.52481E-02 12280   0.158E+00    0.527E-01
DAV:   4    -0.191419399190E+03    0.17062E-02   -0.10965E-02 11240   0.640E-01    0.399E-01
DAV:   5    -0.191418267203E+03    0.11320E-02   -0.53416E-03 11120   0.544E-01    0.302E-01
DAV:   6    -0.191417446450E+03    0.82075E-03   -0.29377E-03 11840   0.355E-01    0.168E-01
DAV:   7    -0.191417876500E+03   -0.43005E-03   -0.23110E-03 11360   0.346E-01    0.256E-01
DAV:   8    -0.191417168673E+03    0.70783E-03   -0.11557E-03  9480   0.248E-01    0.408E-02
DAV:   9    -0.191417157734E+03    0.10940E-04   -0.88749E-05  5800   0.448E-02
  14 F= -.19141716E+03 E0= -.19131920E+03  d E =-.401020E-01
       N       E                     dE             d eps       ncg     rms          rms(c)
DAV:   1    -0.191376242093E+03    0.40927E-01   -0.34770E+00  8160   0.400E+00    0.504E-01
DAV:   2    -0.191398497293E+03   -0.22255E-01   -0.12875E-01 13600   0.168E+00    0.132E+00
DAV:   3    -0.191381662589E+03    0.16835E-01   -0.50027E-02 12320   0.157E+00    0.511E-01
DAV:   4    -0.191379886240E+03    0.17763E-02   -0.93998E-03 10920   0.580E-01    0.344E-01
DAV:   5    -0.191379096075E+03    0.79016E-03   -0.45734E-03 11120   0.498E-01    0.291E-01
DAV:   6    -0.191378295887E+03    0.80019E-03   -0.26230E-03 11560   0.349E-01    0.155E-01
DAV:   7    -0.191378748164E+03   -0.45228E-03   -0.20640E-03 10560   0.320E-01    0.252E-01
DAV:   8    -0.191378070201E+03    0.67796E-03   -0.11254E-03  9160   0.238E-01    0.379E-02
DAV:   9    -0.191378067919E+03    0.22822E-05   -0.78453E-05  6080   0.427E-02
  15 F= -.19137807E+03 E0= -.19127967E+03  d E =0.390898E-01
       N       E                     dE             d eps       ncg     rms          rms(c)
DAV:   1    -0.191343976764E+03    0.34093E-01   -0.35144E+00  8160   0.403E+00    0.517E-01
DAV:   2    -0.191366709825E+03   -0.22733E-01   -0.13118E-01 13600   0.171E+00    0.133E+00
DAV:   3    -0.191349432932E+03    0.17277E-01   -0.49963E-02 12360   0.159E+00    0.528E-01
DAV:   4    -0.191347812656E+03    0.16203E-02   -0.10246E-02 11280   0.620E-01    0.377E-01
DAV:   5    -0.191346710616E+03    0.11020E-02   -0.49607E-03 10800   0.513E-01    0.290E-01
DAV:   6    -0.191345904385E+03    0.80623E-03   -0.25512E-03 11520   0.349E-01    0.149E-01
DAV:   7    -0.191346383590E+03   -0.47921E-03   -0.20851E-03 10800   0.315E-01    0.258E-01
DAV:   8    -0.191345699073E+03    0.68452E-03   -0.12497E-03  9680   0.248E-01    0.451E-02
DAV:   9    -0.191345685177E+03    0.13896E-04   -0.84405E-05  5840   0.483E-02
  16 F= -.19134569E+03 E0= -.19124753E+03  d E =0.323827E-01
       N       E                     dE             d eps       ncg     rms          rms(c)
DAV:   1    -0.191372186432E+03   -0.26487E-01   -0.19405E+00  8160   0.301E+00    0.413E-01
DAV:   2    -0.191383373727E+03   -0.11187E-01   -0.79811E-02 13600   0.131E+00    0.927E-01
DAV:   3    -0.191375001261E+03    0.83725E-02   -0.28753E-02 12200   0.118E+00    0.405E-01
DAV:   4    -0.191374245395E+03    0.75587E-03   -0.77630E-03 11400   0.542E-01    0.366E-01
DAV:   5    -0.191373317882E+03    0.92751E-03   -0.43270E-03 11040   0.475E-01    0.254E-01
DAV:   6    -0.191372593411E+03    0.72447E-03   -0.18775E-03 10920   0.271E-01    0.949E-02
DAV:   7    -0.191372900010E+03   -0.30660E-03   -0.11632E-03 10320   0.234E-01    0.195E-01
DAV:   8    -0.191372502935E+03    0.39707E-03   -0.66363E-04  8440   0.192E-01    0.360E-02
DAV:   9    -0.191372498574E+03    0.43609E-05   -0.55327E-05  5840   0.379E-02
  17 F= -.19137250E+03 E0= -.19127386E+03  d E =-.268134E-01
       N       E                     dE             d eps       ncg     rms          rms(c)
DAV:   1    -0.191389588004E+03   -0.17085E-01   -0.84231E-01  8160   0.196E+00    0.223E-01
DAV:   2    -0.191392718502E+03   -0.31305E-02   -0.25842E-02 13560   0.617E-01    0.441E-01
DAV:   3    -0.191391190962E+03    0.15275E-02   -0.82595E-03 12480   0.623E-01    0.284E-01
DAV:   4    -0.191390570993E+03    0.61997E-03   -0.22783E-03 10840   0.299E-01    0.148E-01
DAV:   5    -0.191390467099E+03    0.10389E-03   -0.90945E-04 10000   0.219E-01    0.143E-01
DAV:   6    -0.191390299059E+03    0.16804E-03   -0.59487E-04  8320   0.177E-01    0.743E-02
DAV:   7    -0.191390398975E+03   -0.99916E-04   -0.41846E-04  8400   0.147E-01
  18 F= -.19139040E+03 E0= -.19129231E+03  d E =-.179004E-01
       N       E                     dE             d eps       ncg     rms          rms(c)
DAV:   1    -0.191390499197E+03   -0.20014E-03   -0.12907E-02  8160   0.267E-01    0.618E-02
DAV:   2    -0.191390838485E+03   -0.33929E-03   -0.12848E-03 10160   0.230E-01    0.188E-01
DAV:   3    -0.191390456462E+03    0.38202E-03   -0.64733E-04  8560   0.198E-01    0.484E-02
DAV:   4    -0.191390465515E+03   -0.90525E-05   -0.11276E-04  5520   0.789E-02
  19 F= -.19139047E+03 E0= -.19129228E+03  d E =-.665396E-04
       N       E                     dE             d eps       ncg     rms          rms(c)
DAV:   1    -0.191416614865E+03   -0.26158E-01   -0.17606E+00  8160   0.286E+00    0.358E-01
DAV:   2    -0.191425958677E+03   -0.93438E-02   -0.63364E-02 13520   0.115E+00    0.833E-01
DAV:   3    -0.191419415912E+03    0.65428E-02   -0.21425E-02 12040   0.101E+00    0.360E-01
DAV:   4    -0.191419114145E+03    0.30177E-03   -0.57894E-03 11160   0.492E-01    0.347E-01
DAV:   5    -0.191418096273E+03    0.10179E-02   -0.31077E-03 10880   0.420E-01    0.191E-01
DAV:   6    -0.191417695250E+03    0.40102E-03   -0.12183E-03 10200   0.214E-01    0.806E-02
DAV:   7    -0.191417886079E+03   -0.19083E-03   -0.78199E-04  9960   0.190E-01    0.155E-01
DAV:   8    -0.191417627056E+03    0.25902E-03   -0.45481E-04  8360   0.163E-01    0.347E-02
DAV:   9    -0.191417621199E+03    0.58567E-05   -0.48427E-05  5640   0.381E-02
  20 F= -.19141762E+03 E0= -.19132062E+03  d E =-.271557E-01
       N       E                     dE             d eps       ncg     rms          rms(c)
DAV:   1    -0.191378247147E+03    0.39380E-01   -0.35800E+00  8160   0.405E+00    0.445E-01
DAV:   2    -0.191392881157E+03   -0.14634E-01   -0.10886E-01 13600   0.131E+00    0.994E-01
DAV:   3    -0.191384399601E+03    0.84816E-02   -0.32499E-02 12160   0.123E+00    0.520E-01
DAV:   4    -0.191382500983E+03    0.18986E-02   -0.81599E-03 11280   0.526E-01    0.279E-01
DAV:   5    -0.191381835921E+03    0.66506E-03   -0.33936E-03 11240   0.392E-01    0.248E-01
DAV:   6    -0.191381426350E+03    0.40957E-03   -0.23059E-03 11200   0.346E-01    0.153E-01
DAV:   7    -0.191381513126E+03   -0.86776E-04   -0.12697E-03 10440   0.246E-01    0.183E-01
DAV:   8    -0.191381152393E+03    0.36073E-03   -0.61923E-04  8560   0.186E-01    0.414E-02
DAV:   9    -0.191381146660E+03    0.57331E-05   -0.76479E-05  5920   0.489E-02
  21 F= -.19138115E+03 E0= -.19128212E+03  d E =0.364745E-01
       N       E                     dE             d eps       ncg     rms          rms(c)
DAV:   1    -0.191392317696E+03   -0.11165E-01   -0.53519E-01  8160   0.156E+00    0.189E-01
DAV:   2    -0.191394919387E+03   -0.26017E-02   -0.19729E-02 12680   0.568E-01    0.415E-01
DAV:   3    -0.191393446005E+03    0.14734E-02   -0.60410E-03 11680   0.556E-01    0.230E-01
DAV:   4    -0.191392898622E+03    0.54738E-03   -0.13413E-03  9520   0.224E-01    0.797E-02
DAV:   5    -0.191392799363E+03    0.99259E-04   -0.30018E-04  7200   0.744E-02
  22 F= -.19139280E+03 E0= -.19129389E+03  d E =-.116527E-01
       N       E                     dE             d eps       ncg     rms          rms(c)
DAV:   1    -0.191406944391E+03   -0.14046E-01   -0.56541E-01  8160   0.162E+00    0.235E-01
DAV:   2    -0.191412514952E+03   -0.55706E-02   -0.24104E-02 13440   0.870E-01    0.700E-01
DAV:   3    -0.191407290030E+03    0.52249E-02   -0.10943E-02 11520   0.742E-01    0.184E-01
DAV:   4    -0.191407604688E+03   -0.31466E-03   -0.23234E-03 10440   0.321E-01    0.255E-01
DAV:   5    -0.191407000298E+03    0.60439E-03   -0.13619E-03  9640   0.274E-01    0.984E-02
DAV:   6    -0.191406907944E+03    0.92354E-04   -0.40387E-04  8800   0.114E-01
  23 F= -.19140691E+03 E0= -.19130877E+03  d E =-.141086E-01
       N       E                     dE             d eps       ncg     rms          rms(c)
DAV:   1    -0.191363885549E+03    0.43115E-01   -0.86278E+00  8160   0.625E+00    0.665E-01
DAV:   2    -0.191394312676E+03   -0.30427E-01   -0.22537E-01 13600   0.198E+00    0.154E+00
DAV:   3    -0.191375125018E+03    0.19188E-01   -0.74180E-02 12320   0.185E+00    0.702E-01
DAV:   4    -0.191371684560E+03    0.34405E-02   -0.15995E-02 11120   0.713E-01    0.403E-01
DAV:   5    -0.191370223477E+03    0.14611E-02   -0.85642E-03 11360   0.567E-01    0.394E-01
DAV:   6    -0.191369626146E+03    0.59733E-03   -0.60828E-03 12040   0.555E-01    0.293E-01
DAV:   7    -0.191369353285E+03    0.27286E-03   -0.33306E-03 11960   0.374E-01    0.248E-01
DAV:   8    -0.191368674484E+03    0.67880E-03   -0.13727E-03  9720   0.256E-01    0.580E-02
DAV:   9    -0.191368655443E+03    0.19041E-04   -0.15365E-04  7600   0.676E-02
  24 F= -.19136866E+03 E0= -.19126759E+03  d E =0.382525E-01
       N       E                     dE             d eps       ncg     rms          rms(c)
DAV:   1    -0.191385889924E+03   -0.17215E-01   -0.13756E+00  8160   0.250E+00    0.335E-01
DAV:   2    -0.191393955289E+03   -0.80654E-02   -0.48731E-02 13600   0.113E+00    0.826E-01
DAV:   3    -0.191386857729E+03    0.70976E-02   -0.18274E-02 12000   0.974E-01    0.276E-01
DAV:   4    -0.191386820329E+03    0.37400E-04   -0.48199E-03 11360   0.417E-01    0.322E-01
DAV:   5    -0.191386092365E+03    0.72796E-03   -0.34304E-03 10640   0.402E-01    0.211E-01
DAV:   6    -0.191385632068E+03    0.46030E-03   -0.13744E-03  9520   0.218E-01    0.875E-02
DAV:   7    -0.191385776148E+03   -0.14408E-03   -0.83127E-04  9080   0.190E-01    0.150E-01
DAV:   8    -0.191385548625E+03    0.22752E-03   -0.44179E-04  8240   0.152E-01    0.327E-02
DAV:   9    -0.191385544968E+03    0.36562E-05   -0.41302E-05  5760   0.320E-02
  25 F= -.19138554E+03 E0= -.19128338E+03  d E =-.168895E-01
       N       E                     dE             d eps       ncg     rms          rms(c)
DAV:   1    -0.191396971529E+03   -0.11423E-01   -0.38001E-01  8160   0.132E+00    0.145E-01
DAV:   2    -0.191398283073E+03   -0.13115E-02   -0.11405E-02 13440   0.374E-01    0.272E-01
DAV:   3    -0.191397777372E+03    0.50570E-03   -0.33428E-03 11840   0.392E-01    0.200E-01
DAV:   4    -0.191397466011E+03    0.31136E-03   -0.10119E-03  8960   0.194E-01    0.943E-02
DAV:   5    -0.191397422922E+03    0.43089E-04   -0.36383E-04  7600   0.134E-01
  26 F= -.19139742E+03 E0= -.19129522E+03  d E =-.118780E-01
       N       E                     dE             d eps       ncg     rms          rms(c)
DAV:   1    -0.191405678560E+03   -0.82125E-02   -0.24755E-01  8160   0.108E+00    0.148E-01
DAV:   2    -0.191407472887E+03   -0.17943E-02   -0.10382E-02 13520   0.475E-01    0.392E-01
DAV:   3    -0.191406025205E+03    0.14477E-02   -0.38418E-03 11080   0.442E-01    0.132E-01
DAV:   4    -0.191405914810E+03    0.11040E-03   -0.56685E-04  8200   0.130E-01    0.810E-02
DAV:   5    -0.191405926033E+03   -0.11223E-04   -0.46691E-04  8840   0.135E-01
  27 F= -.19140593E+03 E0= -.19130385E+03  d E =-.850311E-02
       N       E                     dE             d eps       ncg     rms          rms(c)
DAV:   1    -0.191422507372E+03   -0.16593E-01   -0.68560E-01  8160   0.179E+00    0.269E-01
DAV:   2    -0.191431100900E+03   -0.85935E-02   -0.35126E-02 13480   0.104E+00    0.964E-01
DAV:   3    -0.191422859668E+03    0.82412E-02   -0.19466E-02 10840   0.893E-01    0.214E-01
DAV:   4    -0.191422975709E+03   -0.11604E-03   -0.26614E-03 11440   0.346E-01    0.250E-01
DAV:   5    -0.191422390100E+03    0.58561E-03   -0.16262E-03  9880   0.302E-01    0.129E-01
DAV:   6    -0.191422290213E+03    0.99888E-04   -0.79904E-04  9760   0.170E-01
  28 F= -.19142229E+03 E0= -.19132017E+03  d E =-.163642E-01
       N       E                     dE             d eps       ncg     rms          rms(c)
DAV:   1    -0.191440360348E+03   -0.17970E-01   -0.70003E-01  8160   0.182E+00    0.270E-01
DAV:   2    -0.191444934118E+03   -0.45738E-02   -0.29813E-02 13440   0.865E-01    0.619E-01
DAV:   3    -0.191440787400E+03    0.41467E-02   -0.10001E-02 11600   0.739E-01    0.191E-01
DAV:   4    -0.191440602107E+03    0.18529E-03   -0.21134E-03 10320   0.246E-01    0.187E-01
DAV:   5    -0.191440522815E+03    0.79291E-04   -0.19133E-03 10200   0.284E-01    0.199E-01
DAV:   6    -0.191440181890E+03    0.34093E-03   -0.95790E-04  9040   0.195E-01    0.613E-02
DAV:   7    -0.191440143172E+03    0.38718E-04   -0.22932E-04  5720   0.701E-02
  29 F= -.19144014E+03 E0= -.19133856E+03  d E =-.178530E-01
       N       E                     dE             d eps       ncg     rms          rms(c)
DAV:   1    -0.191466040605E+03   -0.25859E-01   -0.12745E+00  8160   0.241E+00    0.283E-01
DAV:   2    -0.191474327246E+03   -0.82866E-02   -0.42269E-02 13600   0.961E-01    0.827E-01
DAV:   3    -0.191467725410E+03    0.66018E-02   -0.16325E-02 12000   0.905E-01    0.253E-01
DAV:   4    -0.191467458181E+03    0.26723E-03   -0.26406E-03 11120   0.276E-01    0.203E-01
DAV:   5    -0.191467276439E+03    0.18174E-03   -0.18714E-03 10200   0.292E-01    0.189E-01
DAV:   6    -0.191466968130E+03    0.30831E-03   -0.98107E-04  9120   0.202E-01    0.721E-02
DAV:   7    -0.191466975902E+03   -0.77718E-05   -0.28835E-04  8080   0.995E-02
  30 F= -.19146698E+03 E0= -.19136642E+03  d E =-.268327E-01
       N       E                     dE             d eps       ncg     rms          rms(c)
DAV:   1    -0.191450087033E+03    0.16881E-01   -0.88584E-01  8160   0.200E+00    0.268E-01
DAV:   2    -0.191455420359E+03   -0.53333E-02   -0.31467E-02 13560   0.946E-01    0.684E-01
DAV:   3    -0.191450475518E+03    0.49448E-02   -0.11248E-02 11400   0.760E-01    0.212E-01
DAV:   4    -0.191450772884E+03   -0.29737E-03   -0.32705E-03 10520   0.370E-01    0.299E-01
DAV:   5    -0.191450000479E+03    0.77240E-03   -0.21791E-03  9680   0.340E-01    0.135E-01
DAV:   6    -0.191449887861E+03    0.11262E-03   -0.83792E-04 10160   0.161E-01    0.927E-02
DAV:   7    -0.191449887307E+03    0.55433E-06   -0.53857E-04  8760   0.162E-01
  31 F= -.19144989E+03 E0= -.19134937E+03  d E =0.170886E-01
       N       E                     dE             d eps       ncg     rms          rms(c)
DAV:   1    -0.191506223989E+03   -0.56336E-01   -0.54707E+00  8160   0.503E+00    0.599E-01
DAV:   2    -0.191536130440E+03   -0.29906E-01   -0.18241E-01 13600   0.199E+00    0.163E+00
DAV:   3    -0.191513673757E+03    0.22457E-01   -0.70066E-02 12200   0.179E+00    0.580E-01
DAV:   4    -0.191512995295E+03    0.67846E-03   -0.15398E-02 11520   0.800E-01    0.586E-01
DAV:   5    -0.191509907834E+03    0.30875E-02   -0.92523E-03 10920   0.709E-01    0.310E-01
DAV:   6    -0.191509443751E+03    0.46408E-03   -0.44744E-03 11640   0.413E-01    0.252E-01
DAV:   7    -0.191509401640E+03    0.42110E-04   -0.35284E-03 11440   0.426E-01    0.243E-01
DAV:   8    -0.191508685256E+03    0.71638E-03   -0.11976E-03  9520   0.241E-01    0.374E-02
DAV:   9    -0.191508670200E+03    0.15056E-04   -0.92034E-05  6560   0.395E-02
  32 F= -.19150867E+03 E0= -.19141010E+03  d E =-.587829E-01
       N       E                     dE             d eps       ncg     rms          rms(c)
DAV:   1    -0.191517877109E+03   -0.91919E-02   -0.16306E-01  8160   0.896E-01    0.141E-01
DAV:   2    -0.191518788211E+03   -0.91110E-03   -0.72138E-03 12120   0.401E-01    0.311E-01
DAV:   3    -0.191517966206E+03    0.82200E-03   -0.29823E-03 11520   0.395E-01    0.144E-01
DAV:   4    -0.191517783145E+03    0.18306E-03   -0.69078E-04  8440   0.166E-01    0.930E-02
DAV:   5    -0.191517787566E+03   -0.44213E-05   -0.46990E-04  7880   0.159E-01
  33 F= -.19151779E+03 E0= -.19141979E+03  d E =-.911737E-02
       N       E                     dE             d eps       ncg     rms          rms(c)
DAV:   1    -0.191504429763E+03    0.13353E-01   -0.72013E-01  8160   0.189E+00    0.312E-01
DAV:   2    -0.191509020110E+03   -0.45903E-02   -0.34515E-02 11960   0.867E-01    0.718E-01
DAV:   3    -0.191504531225E+03    0.44889E-02   -0.15510E-02 11240   0.835E-01    0.343E-01
DAV:   4    -0.191503724870E+03    0.80636E-03   -0.45922E-03 10920   0.398E-01    0.222E-01
DAV:   5    -0.191503460385E+03    0.26449E-03   -0.21812E-03  9680   0.337E-01    0.200E-01
DAV:   6    -0.191503013696E+03    0.44669E-03   -0.12243E-03  9760   0.243E-01    0.750E-02
DAV:   7    -0.191503013872E+03   -0.17665E-06   -0.36863E-04  8440   0.121E-01
  34 F= -.19150301E+03 E0= -.19140398E+03  d E =0.147737E-01
       N       E                     dE             d eps       ncg     rms          rms(c)
DAV:   1    -0.191528383137E+03   -0.25369E-01   -0.14369E+00  8160   0.254E+00    0.282E-01
DAV:   2    -0.191529995651E+03   -0.16125E-02   -0.32518E-02 12400   0.557E-01    0.350E-01
DAV:   3    -0.191530655674E+03   -0.66002E-03   -0.10885E-02 12360   0.654E-01    0.478E-01
DAV:   4    -0.191528603950E+03    0.20517E-02   -0.47776E-03 11200   0.450E-01    0.147E-01
DAV:   5    -0.191528289661E+03    0.31429E-03   -0.11879E-03  9800   0.140E-01    0.746E-02
DAV:   6    -0.191528257595E+03    0.32066E-04   -0.50235E-04 10760   0.860E-02
  35 F= -.19152826E+03 E0= -.19143040E+03  d E =-.252437E-01
       N       E                     dE             d eps       ncg     rms          rms(c)
DAV:   1    -0.191536132684E+03   -0.78430E-02   -0.18751E+00  8160   0.296E+00    0.406E-01
DAV:   2    -0.191546223819E+03   -0.10091E-01   -0.65564E-02 13520   0.126E+00    0.986E-01
DAV:   3    -0.191537097491E+03    0.91263E-02   -0.26101E-02 12240   0.119E+00    0.366E-01
DAV:   4    -0.191535788960E+03    0.13085E-02   -0.51493E-03 11960   0.393E-01    0.208E-01
DAV:   5    -0.191536052136E+03   -0.26318E-03   -0.42139E-03 10880   0.398E-01    0.330E-01
DAV:   6    -0.191535155891E+03    0.89625E-03   -0.28856E-03  9800   0.363E-01    0.123E-01
DAV:   7    -0.191535010672E+03    0.14522E-03   -0.60694E-04  9280   0.119E-01    0.432E-02
DAV:   8    -0.191534984159E+03    0.26513E-04   -0.99497E-05  6760   0.452E-02
  36 F= -.19153498E+03 E0= -.19143837E+03  d E =-.672656E-02
       N       E                     dE             d eps       ncg     rms          rms(c)
DAV:   1    -0.191596596505E+03   -0.61586E-01   -0.58338E+00  8160   0.527E+00    0.675E-01
DAV:   2    -0.191627786363E+03   -0.31190E-01   -0.22198E-01 13360   0.206E+00    0.162E+00
DAV:   3    -0.191605863270E+03    0.21923E-01   -0.75097E-02 12360   0.194E+00    0.660E-01
DAV:   4    -0.191602886186E+03    0.29771E-02   -0.16586E-02 12240   0.762E-01    0.532E-01
DAV:   5    -0.191601061435E+03    0.18248E-02   -0.11327E-02 11720   0.763E-01    0.406E-01
DAV:   6    -0.191599638544E+03    0.14229E-02   -0.52613E-03 11680   0.457E-01    0.166E-01
DAV:   7    -0.191599201818E+03    0.43673E-03   -0.15575E-03 10240   0.166E-01    0.600E-02
DAV:   8    -0.191599159756E+03    0.42062E-04   -0.22869E-04  7880   0.886E-02
  37 F= -.19159916E+03 E0= -.19150713E+03  d E =-.641756E-01
       N       E                     dE             d eps       ncg     rms          rms(c)
DAV:   1    -0.191633120608E+03   -0.33919E-01   -0.17198E+00  8160   0.282E+00    0.330E-01
DAV:   2    -0.191641147991E+03   -0.80274E-02   -0.59324E-02 13360   0.102E+00    0.731E-01
DAV:   3    -0.191636283143E+03    0.48648E-02   -0.15056E-02 12240   0.937E-01    0.327E-01
DAV:   4    -0.191635758001E+03    0.52514E-03   -0.39752E-03 10720   0.396E-01    0.259E-01
DAV:   5    -0.191635232765E+03    0.52524E-03   -0.26169E-03 10480   0.364E-01    0.177E-01
DAV:   6    -0.191635102673E+03    0.13009E-03   -0.12126E-03 10320   0.231E-01    0.125E-01
DAV:   7    -0.191635108421E+03   -0.57487E-05   -0.77847E-04 10000   0.220E-01
  38 F= -.19163511E+03 E0= -.19154575E+03  d E =-.359487E-01
       N       E                     dE             d eps       ncg     rms          rms(c)
DAV:   1    -0.191684579349E+03   -0.49477E-01   -0.33507E+00  8160   0.389E+00    0.409E-01
DAV:   2    -0.191696295684E+03   -0.11716E-01   -0.99147E-02 12720   0.125E+00    0.926E-01
DAV:   3    -0.191689907376E+03    0.63883E-02   -0.30272E-02 11960   0.112E+00    0.435E-01
DAV:   4    -0.191688290514E+03    0.16169E-02   -0.53628E-03 11320   0.470E-01    0.245E-01
DAV:   5    -0.191687896333E+03    0.39418E-03   -0.24709E-03 11360   0.396E-01    0.223E-01
DAV:   6    -0.191687583705E+03    0.31263E-03   -0.19716E-03 12080   0.332E-01    0.137E-01
DAV:   7    -0.191687377355E+03    0.20635E-03   -0.67708E-04 10200   0.159E-01    0.802E-02
DAV:   8    -0.191687316988E+03    0.60367E-04   -0.21220E-04  7720   0.117E-01
  39 F= -.19168732E+03 E0= -.19160081E+03  d E =-.522086E-01
       N       E                     dE             d eps       ncg     rms          rms(c)
DAV:   1    -0.191715989050E+03   -0.28612E-01   -0.91109E-01  8160   0.204E+00    0.220E-01
DAV:   2    -0.191719170326E+03   -0.31813E-02   -0.29319E-02 13000   0.641E-01    0.437E-01
DAV:   3    -0.191717815569E+03    0.13548E-02   -0.70198E-03 12280   0.599E-01    0.254E-01
DAV:   4    -0.191717232615E+03    0.58295E-03   -0.16810E-03  9760   0.257E-01    0.122E-01
DAV:   5    -0.191717203144E+03    0.29470E-04   -0.88112E-04 10120   0.218E-01
  40 F= -.19171720E+03 E0= -.19163238E+03  d E =-.298862E-01
       N       E                     dE             d eps       ncg     rms          rms(c)
DAV:   1    -0.191688324224E+03    0.28908E-01   -0.80139E-01  8160   0.191E+00    0.213E-01
DAV:   2    -0.191693777594E+03   -0.54534E-02   -0.30097E-02 13320   0.780E-01    0.636E-01
DAV:   3    -0.191689669190E+03    0.41084E-02   -0.10124E-02 11480   0.723E-01    0.188E-01
DAV:   4    -0.191689360327E+03    0.30886E-03   -0.14510E-03  9880   0.210E-01    0.108E-01
DAV:   5    -0.191689331044E+03    0.29283E-04   -0.63578E-04  9680   0.178E-01
  41 F= -.19168933E+03 E0= -.19160252E+03  d E =0.278721E-01
       N       E                     dE             d eps       ncg     rms          rms(c)
DAV:   1    -0.191515765496E+03    0.17359E+00   -0.27471E+01  8160   0.111E+01    0.123E+00
DAV:   2    -0.191658777484E+03   -0.14301E+00   -0.96515E-01 13240   0.436E+00    0.306E+00
DAV:   3    -0.191563372885E+03    0.95405E-01   -0.22553E-01 12240   0.353E+00    0.106E+00
DAV:   4    -0.191555751391E+03    0.76215E-02   -0.41235E-02 11440   0.132E+00    0.821E-01
DAV:   5    -0.191551668057E+03    0.40833E-02   -0.27285E-02 12080   0.124E+00    0.701E-01
DAV:   6    -0.191548515379E+03    0.31527E-02   -0.17952E-02 11880   0.925E-01    0.425E-01
DAV:   7    -0.191548338488E+03    0.17689E-03   -0.89778E-03 11600   0.708E-01    0.442E-01
DAV:   8    -0.191546012511E+03    0.23260E-02   -0.37950E-03 12000   0.489E-01    0.912E-02
DAV:   9    -0.191545922457E+03    0.90055E-04   -0.44834E-04 10240   0.876E-02
  42 F= -.19154592E+03 E0= -.19145247E+03  d E =0.143409E+00
       N       E                     dE             d eps       ncg     rms          rms(c)
DAV:   1    -0.191539359146E+03    0.66534E-02   -0.83592E-01  8160   0.192E+00    0.187E-01
DAV:   2    -0.191540997638E+03   -0.16385E-02   -0.19601E-02 12800   0.494E-01    0.290E-01
DAV:   3    -0.191540696588E+03    0.30105E-03   -0.42017E-03 10920   0.429E-01    0.245E-01
DAV:   4    -0.191540228019E+03    0.46857E-03   -0.16224E-03  9520   0.268E-01    0.127E-01
DAV:   5    -0.191540156381E+03    0.71639E-04   -0.73120E-04  9720   0.196E-01
  43 F= -.19154016E+03 E0= -.19144605E+03  d E =0.576608E-02
       N       E                     dE             d eps       ncg     rms          rms(c)
DAV:   1    -0.191568148937E+03   -0.27921E-01   -0.47631E+00  8160   0.465E+00    0.539E-01
DAV:   2    -0.191594526989E+03   -0.26378E-01   -0.16443E-01 13560   0.182E+00    0.151E+00
DAV:   3    -0.191575460032E+03    0.19067E-01   -0.55796E-02 12080   0.160E+00    0.452E-01
DAV:   4    -0.191574309921E+03    0.11501E-02   -0.77225E-03 11480   0.559E-01    0.404E-01
DAV:   5    -0.191573050800E+03    0.12591E-02   -0.53953E-03 12440   0.581E-01    0.257E-01
DAV:   6    -0.191572837644E+03    0.21316E-03   -0.29399E-03 11520   0.346E-01    0.186E-01
DAV:   7    -0.191572518901E+03    0.31874E-03   -0.14096E-03 10640   0.286E-01    0.134E-01
DAV:   8    -0.191572303834E+03    0.21507E-03   -0.39011E-04  8680   0.155E-01    0.347E-02
DAV:   9    -0.191572291564E+03    0.12270E-04   -0.63949E-05  6880   0.376E-02
  44 F= -.19157229E+03 E0= -.19148028E+03  d E =-.321352E-01
       N       E                     dE             d eps       ncg     rms          rms(c)
DAV:   1    -0.191603926434E+03   -0.31623E-01   -0.20742E+00  8160   0.309E+00    0.361E-01
DAV:   2    -0.191614200925E+03   -0.10274E-01   -0.77699E-02 12720   0.117E+00    0.794E-01
DAV:   3    -0.191608238438E+03    0.59625E-02   -0.16670E-02 12160   0.102E+00    0.341E-01
DAV:   4    -0.191607823374E+03    0.41506E-03   -0.44591E-03 11040   0.454E-01    0.305E-01
DAV:   5    -0.191606976950E+03    0.84642E-03   -0.29727E-03 10320   0.399E-01    0.168E-01
DAV:   6    -0.191607002016E+03   -0.25066E-04   -0.14424E-03 10720   0.253E-01    0.162E-01
DAV:   7    -0.191606869456E+03    0.13256E-03   -0.98508E-04 10280   0.249E-01    0.126E-01
DAV:   8    -0.191606658909E+03    0.21055E-03   -0.26328E-04  7800   0.122E-01    0.178E-02
DAV:   9    -0.191606664665E+03   -0.57558E-05   -0.39614E-05  6280   0.241E-02
  45 F= -.19160666E+03 E0= -.19151664E+03  d E =-.343731E-01
       N       E                     dE             d eps       ncg     rms          rms(c)
DAV:   1    -0.191624677732E+03   -0.18019E-01   -0.63697E-01  8160   0.173E+00    0.211E-01
DAV:   2    -0.191627201781E+03   -0.25240E-02   -0.24411E-02 13160   0.594E-01    0.411E-01
DAV:   3    -0.191626007783E+03    0.11940E-02   -0.60547E-03 12080   0.565E-01    0.239E-01
DAV:   4    -0.191625433681E+03    0.57410E-03   -0.14037E-03  9960   0.241E-01    0.115E-01
DAV:   5    -0.191625443648E+03   -0.99670E-05   -0.74246E-04  9600   0.209E-01
  46 F= -.19162544E+03 E0= -.19153593E+03  d E =-.187790E-01
       N       E                     dE             d eps       ncg     rms          rms(c)
DAV:   1    -0.191659500033E+03   -0.34066E-01   -0.26951E+00  8160   0.354E+00    0.416E-01
DAV:   2    -0.191669369891E+03   -0.98699E-02   -0.93690E-02 12680   0.115E+00    0.808E-01
DAV:   3    -0.191664790747E+03    0.45791E-02   -0.22120E-02 12240   0.110E+00    0.446E-01
DAV:   4    -0.191662686529E+03    0.21042E-02   -0.46888E-03 11240   0.446E-01    0.229E-01
DAV:   5    -0.191662732956E+03   -0.46427E-04   -0.29996E-03 12360   0.439E-01    0.249E-01
DAV:   6    -0.191662204714E+03    0.52824E-03   -0.18540E-03 11400   0.303E-01    0.118E-01
DAV:   7    -0.191662089870E+03    0.11484E-03   -0.58544E-04  9560   0.193E-01    0.872E-02
DAV:   8    -0.191661996623E+03    0.93248E-04   -0.16744E-04  8080   0.107E-01
  47 F= -.19166200E+03 E0= -.19157414E+03  d E =-.365530E-01
       N       E                     dE             d eps       ncg     rms          rms(c)
DAV:   1    -0.191686396164E+03   -0.24306E-01   -0.15659E+00  8160   0.267E+00    0.308E-01
DAV:   2    -0.191692976742E+03   -0.65806E-02   -0.55589E-02 11720   0.996E-01    0.603E-01
DAV:   3    -0.191689333225E+03    0.36435E-02   -0.10367E-02 12040   0.830E-01    0.272E-01
DAV:   4    -0.191688998558E+03    0.33467E-03   -0.26272E-03 11640   0.384E-01    0.242E-01
DAV:   5    -0.191688558076E+03    0.44048E-03   -0.21692E-03 10280   0.338E-01    0.156E-01
DAV:   6    -0.191688450372E+03    0.10770E-03   -0.10518E-03 11200   0.205E-01    0.112E-01
DAV:   7    -0.191688420638E+03    0.29734E-04   -0.59963E-04  8920   0.197E-01
  48 F= -.19168842E+03 E0= -.19160179E+03  d E =-.264240E-01
       N       E                     dE             d eps       ncg     rms          rms(c)
DAV:   1    -0.191703926196E+03   -0.15476E-01   -0.61200E-01  8160   0.169E+00    0.210E-01
DAV:   2    -0.191705726939E+03   -0.18007E-02   -0.22924E-02 12080   0.524E-01    0.320E-01
DAV:   3    -0.191705363432E+03    0.36351E-03   -0.51483E-03 12320   0.531E-01    0.274E-01
DAV:   4    -0.191704587947E+03    0.77548E-03   -0.15843E-03  9960   0.284E-01    0.103E-01
DAV:   5    -0.191704544086E+03    0.43861E-04   -0.60205E-04  9520   0.160E-01
  49 F= -.19170454E+03 E0= -.19161846E+03  d E =-.161234E-01
       N       E                     dE             d eps       ncg     rms          rms(c)
DAV:   1    -0.191737148315E+03   -0.32560E-01   -0.36786E+00  8160   0.409E+00    0.449E-01
DAV:   2    -0.191748860180E+03   -0.11712E-01   -0.11803E-01 11680   0.125E+00    0.757E-01
DAV:   3    -0.191744811781E+03    0.40484E-02   -0.21395E-02 12400   0.117E+00    0.486E-01
DAV:   4    -0.191742373810E+03    0.24380E-02   -0.51074E-03 11600   0.520E-01    0.245E-01
DAV:   5    -0.191742379257E+03   -0.54473E-05   -0.36588E-03 12480   0.455E-01    0.266E-01
DAV:   6    -0.191741938580E+03    0.44068E-03   -0.25465E-03 12000   0.358E-01    0.158E-01
DAV:   7    -0.191741706182E+03    0.23240E-03   -0.93491E-04 10120   0.238E-01    0.108E-01
DAV:   8    -0.191741560750E+03    0.14543E-03   -0.23321E-04  8240   0.127E-01    0.264E-02
DAV:   9    -0.191741557159E+03    0.35914E-05   -0.47679E-05  6120   0.345E-02
  50 F= -.19174156E+03 E0= -.19165731E+03  d E =-.370131E-01
       N       E                     dE             d eps       ncg     rms          rms(c)
DAV:   1    -0.191777710691E+03   -0.36150E-01   -0.63747E+00  8160   0.535E+00    0.543E-01
DAV:   2    -0.191795650692E+03   -0.17940E-01   -0.19692E-01 11680   0.150E+00    0.774E-01
DAV:   3    -0.191792318174E+03    0.33325E-02   -0.28918E-02 11760   0.135E+00    0.624E-01
DAV:   4    -0.191788376869E+03    0.39413E-02   -0.81041E-03 12400   0.739E-01    0.288E-01
DAV:   5    -0.191788118237E+03    0.25863E-03   -0.47443E-03 10960   0.480E-01    0.296E-01
DAV:   6    -0.191787743160E+03    0.37508E-03   -0.38309E-03 12040   0.447E-01    0.210E-01
DAV:   7    -0.191787380523E+03    0.36264E-03   -0.17529E-03 11320   0.300E-01    0.151E-01
DAV:   8    -0.191787124886E+03    0.25564E-03   -0.45017E-04  9200   0.181E-01    0.415E-02
DAV:   9    -0.191787111652E+03    0.13234E-04   -0.69163E-05  6240   0.501E-02
  51 F= -.19178711E+03 E0= -.19170545E+03  d E =-.455545E-01
       N       E                     dE             d eps       ncg     rms          rms(c)
DAV:   1    -0.191794146119E+03   -0.70212E-02   -0.16767E-01  8160   0.867E-01    0.866E-02
DAV:   2    -0.191794526488E+03   -0.38037E-03   -0.49351E-03 12240   0.218E-01    0.103E-01
DAV:   3    -0.191794557628E+03   -0.31140E-04   -0.75255E-04 11040   0.205E-01
  52 F= -.19179456E+03 E0= -.19171360E+03  d E =-.744598E-02
       N       E                     dE             d eps       ncg     rms          rms(c)
DAV:   1    -0.191769660786E+03    0.24866E-01   -0.18927E+00  8160   0.292E+00    0.320E-01
DAV:   2    -0.191783665138E+03   -0.14004E-01   -0.64180E-02 13040   0.132E+00    0.101E+00
DAV:   3    -0.191772153317E+03    0.11512E-01   -0.17003E-02 12200   0.108E+00    0.165E-01
DAV:   4    -0.191771979811E+03    0.17351E-03   -0.12358E-03 10680   0.203E-01    0.137E-01
DAV:   5    -0.191771966793E+03    0.13018E-04   -0.88614E-04 11640   0.251E-01
  53 F= -.19177197E+03 E0= -.19168973E+03  d E =0.225908E-01
       N       E                     dE             d eps       ncg     rms          rms(c)
DAV:   1    -0.191753091851E+03    0.18888E-01   -0.15422E+00  8160   0.265E+00    0.316E-01
DAV:   2    -0.191758539951E+03   -0.54481E-02   -0.44685E-02 12360   0.957E-01    0.635E-01
DAV:   3    -0.191754671300E+03    0.38687E-02   -0.10566E-02 12200   0.818E-01    0.264E-01
DAV:   4    -0.191754078369E+03    0.59293E-03   -0.22293E-03 11400   0.342E-01    0.183E-01
DAV:   5    -0.191754088189E+03   -0.98198E-05   -0.15078E-03 11000   0.347E-01    0.185E-01
DAV:   6    -0.191753757334E+03    0.33085E-03   -0.93880E-04 10360   0.232E-01    0.796E-02
DAV:   7    -0.191753746998E+03    0.10336E-04   -0.33813E-04  8920   0.150E-01
  54 F= -.19175375E+03 E0= -.19167036E+03  d E =0.182198E-01
       N       E                     dE             d eps       ncg     rms          rms(c)
DAV:   1    -0.191782202090E+03   -0.28445E-01   -0.39960E+00  8160   0.424E+00    0.461E-01
DAV:   2    -0.191800303179E+03   -0.18101E-01   -0.12682E-01 12480   0.159E+00    0.114E+00
DAV:   3    -0.191788481979E+03    0.11821E-01   -0.33271E-02 12160   0.135E+00    0.368E-01
DAV:   4    -0.191786994258E+03    0.14877E-02   -0.44142E-03 11480   0.398E-01    0.208E-01
DAV:   5    -0.191786581240E+03    0.41302E-03   -0.23161E-03 12080   0.292E-01    0.176E-01
DAV:   6    -0.191786809320E+03   -0.22808E-03   -0.21407E-03 12040   0.384E-01    0.215E-01
DAV:   7    -0.191786203231E+03    0.60609E-03   -0.85292E-04 10080   0.234E-01    0.494E-02
DAV:   8    -0.191786199391E+03    0.38396E-05   -0.13767E-04  5880   0.932E-02
  55 F= -.19178620E+03 E0= -.19170453E+03  d E =-.324524E-01
       N       E                     dE             d eps       ncg     rms          rms(c)
DAV:   1    -0.191801285548E+03   -0.15082E-01   -0.91502E-01  8160   0.203E+00    0.209E-01
DAV:   2    -0.191803208847E+03   -0.19233E-02   -0.27029E-02 12200   0.507E-01    0.233E-01
DAV:   3    -0.191803541458E+03   -0.33261E-03   -0.42901E-03 12200   0.486E-01    0.298E-01
DAV:   4    -0.191802594574E+03    0.94688E-03   -0.16954E-03 10360   0.327E-01    0.971E-02
DAV:   5    -0.191802546712E+03    0.47863E-04   -0.47939E-04  9840   0.127E-01
  56 F= -.19180255E+03 E0= -.19172140E+03  d E =-.163473E-01
       N       E                     dE             d eps       ncg     rms          rms(c)
DAV:   1    -0.191780021939E+03    0.22573E-01   -0.15920E+00  8160   0.269E+00    0.297E-01
DAV:   2    -0.191785797058E+03   -0.57751E-02   -0.48540E-02 12200   0.877E-01    0.584E-01
DAV:   3    -0.191782556984E+03    0.32401E-02   -0.10752E-02 12040   0.841E-01    0.282E-01
DAV:   4    -0.191781868772E+03    0.68821E-03   -0.25144E-03 10880   0.333E-01    0.176E-01
DAV:   5    -0.191781686780E+03    0.18199E-03   -0.15727E-03 10200   0.285E-01    0.158E-01
DAV:   6    -0.191781542003E+03    0.14478E-03   -0.10369E-03 11160   0.229E-01    0.102E-01
DAV:   7    -0.191781479820E+03    0.62183E-04   -0.43839E-04  8600   0.160E-01
  57 F= -.19178148E+03 E0= -.19169935E+03  d E =0.210669E-01
       N       E                     dE             d eps       ncg     rms          rms(c)
DAV:   1    -0.191764278336E+03    0.17264E-01   -0.11829E+00  8160   0.230E+00    0.219E-01
DAV:   2    -0.191766168049E+03   -0.18897E-02   -0.28998E-02 12240   0.483E-01    0.165E-01
DAV:   3    -0.191766657217E+03   -0.48917E-03   -0.29067E-03 12840   0.376E-01    0.279E-01
DAV:   4    -0.191765928274E+03    0.72894E-03   -0.17627E-03 10240   0.358E-01    0.139E-01
DAV:   5    -0.191765770688E+03    0.15759E-03   -0.60209E-04 10040   0.150E-01    0.746E-02
DAV:   6    -0.191765885672E+03   -0.11498E-03   -0.50155E-04  9360   0.174E-01    0.119E-01
DAV:   7    -0.191765707615E+03    0.17806E-03   -0.26455E-04  7960   0.137E-01    0.187E-02
DAV:   8    -0.191765715682E+03   -0.80665E-05   -0.31450E-05  6120   0.375E-02
  58 F= -.19176572E+03 E0= -.19168281E+03  d E =0.157641E-01
       N       E                     dE             d eps       ncg     rms          rms(c)
DAV:   1    -0.191763661541E+03    0.20461E-02   -0.15440E-01  8160   0.830E-01    0.826E-02
DAV:   2    -0.191763881632E+03   -0.22009E-03   -0.35700E-03 12280   0.193E-01    0.883E-02
DAV:   3    -0.191763907177E+03   -0.25546E-04   -0.57648E-04  9680   0.174E-01
  59 F= -.19176391E+03 E0= -.19168090E+03  d E =0.180850E-02
       N       E                     dE             d eps       ncg     rms          rms(c)
DAV:   1    -0.191759815381E+03    0.40663E-02   -0.24824E+00  8160   0.333E+00    0.343E-01
DAV:   2    -0.191766281973E+03   -0.64666E-02   -0.64930E-02 12760   0.972E-01    0.595E-01
DAV:   3    -0.191763768834E+03    0.25131E-02   -0.13655E-02 12160   0.861E-01    0.372E-01
DAV:   4    -0.191762461124E+03    0.13077E-02   -0.37014E-03 11160   0.434E-01    0.178E-01
DAV:   5    -0.191762024033E+03    0.43709E-03   -0.16895E-03 10800   0.238E-01    0.117E-01
DAV:   6    -0.191762259224E+03   -0.23519E-03   -0.12495E-03 11840   0.288E-01    0.165E-01
DAV:   7    -0.191761870870E+03    0.38835E-03   -0.43408E-04  8600   0.176E-01    0.234E-02
DAV:   8    -0.191761875257E+03   -0.43865E-05   -0.56983E-05  5800   0.394E-02
  60 F= -.19176188E+03 E0= -.19167776E+03  d E =0.203192E-02
       N       E                     dE             d eps       ncg     rms          rms(c)
DAV:   1    -0.191762656650E+03   -0.78578E-03   -0.29957E+00  8160   0.366E+00    0.355E-01
DAV:   2    -0.191769708628E+03   -0.70520E-02   -0.93020E-02 11800   0.871E-01    0.338E-01
DAV:   3    -0.191770639057E+03   -0.93043E-03   -0.96364E-03 12560   0.743E-01    0.483E-01
DAV:   4    -0.191768222805E+03    0.24163E-02   -0.43246E-03 11480   0.576E-01    0.186E-01
DAV:   5    -0.191768074161E+03    0.14864E-03   -0.19027E-03 10160   0.288E-01    0.177E-01
DAV:   6    -0.191767987918E+03    0.86243E-04   -0.16214E-03 11280   0.301E-01    0.139E-01
DAV:   7    -0.191767699001E+03    0.28892E-03   -0.57560E-04  8880   0.161E-01    0.259E-02
DAV:   8    -0.191767710664E+03   -0.11663E-04   -0.76655E-05  6800   0.585E-02
  61 F= -.19176771E+03 E0= -.19168290E+03  d E =-.583541E-02
       N       E                     dE             d eps       ncg     rms          rms(c)
DAV:   1    -0.191773707807E+03   -0.60088E-02   -0.12048E+00  8160   0.236E+00    0.293E-01
DAV:   2    -0.191777292555E+03   -0.35847E-02   -0.55382E-02 11960   0.691E-01    0.299E-01
DAV:   3    -0.191778180017E+03   -0.88746E-03   -0.78504E-03 12400   0.675E-01    0.442E-01
DAV:   4    -0.191775991033E+03    0.21890E-02   -0.37524E-03 12160   0.487E-01    0.121E-01
DAV:   5    -0.191775877826E+03    0.11321E-03   -0.12263E-03  9880   0.178E-01    0.106E-01
DAV:   6    -0.191775911432E+03   -0.33606E-04   -0.95013E-04 10720   0.234E-01
  62 F= -.19177591E+03 E0= -.19169096E+03  d E =-.820077E-02
       N       E                     dE             d eps       ncg     rms          rms(c)
DAV:   1    -0.191778437076E+03   -0.25592E-02   -0.29319E-01  8160   0.116E+00    0.157E-01
DAV:   2    -0.191778907403E+03   -0.47033E-03   -0.93825E-03 11560   0.386E-01    0.207E-01
DAV:   3    -0.191778704282E+03    0.20312E-03   -0.21442E-03 11880   0.351E-01    0.176E-01
DAV:   4    -0.191778407809E+03    0.29647E-03   -0.10613E-03 10040   0.236E-01    0.103E-01
DAV:   5    -0.191778377448E+03    0.30360E-04   -0.45508E-04  8680   0.176E-01
  63 F= -.19177838E+03 E0= -.19169383E+03  d E =-.246602E-02
       N       E                     dE             d eps       ncg     rms          rms(c)
DAV:   1    -0.191783366604E+03   -0.49588E-02   -0.45409E-01  8160   0.143E+00    0.148E-01
DAV:   2    -0.191784613037E+03   -0.12464E-02   -0.14967E-02 12280   0.395E-01    0.182E-01
DAV:   3    -0.191784579638E+03    0.33400E-04   -0.20175E-03 12320   0.343E-01    0.176E-01
DAV:   4    -0.191784245260E+03    0.33438E-03   -0.70792E-04  9320   0.206E-01    0.791E-02
DAV:   5    -0.191784269712E+03   -0.24452E-04   -0.28203E-04  7840   0.150E-01
  64 F= -.19178427E+03 E0= -.19170036E+03  d E =-.589226E-02
       N       E                     dE             d eps       ncg     rms          rms(c)
DAV:   1    -0.191785612451E+03   -0.13672E-02   -0.22342E-02  8160   0.350E-01    0.579E-02
DAV:   2    -0.191785862011E+03   -0.24956E-03   -0.13138E-03 13440   0.196E-01    0.139E-01
DAV:   3    -0.191785631241E+03    0.23077E-03   -0.53534E-04  8960   0.189E-01    0.525E-02
DAV:   4    -0.191785611235E+03    0.20005E-04   -0.85180E-05  5880   0.643E-02
  65 F= -.19178561E+03 E0= -.19170179E+03  d E =-.134152E-02
       N       E                     dE             d eps       ncg     rms          rms(c)
DAV:   1    -0.191789437648E+03   -0.38064E-02   -0.21624E-01  8160   0.987E-01    0.108E-01
DAV:   2    -0.191790027021E+03   -0.58937E-03   -0.69512E-03 12280   0.296E-01    0.145E-01
DAV:   3    -0.191789926966E+03    0.10005E-03   -0.10222E-03 11120   0.262E-01    0.118E-01
DAV:   4    -0.191789770407E+03    0.15656E-03   -0.28244E-04  7080   0.141E-01    0.470E-02
DAV:   5    -0.191789782542E+03   -0.12135E-04   -0.16401E-04  6920   0.922E-02
  66 F= -.19178978E+03 E0= -.19170635E+03  d E =-.417131E-02
       N       E                     dE             d eps       ncg     rms          rms(c)
DAV:   1    -0.191795651181E+03   -0.58808E-02   -0.47554E-01  8160   0.147E+00    0.173E-01
DAV:   2    -0.191796690396E+03   -0.10392E-02   -0.15398E-02 12240   0.448E-01    0.208E-01
DAV:   3    -0.191796503099E+03    0.18730E-03   -0.22172E-03 11840   0.387E-01    0.171E-01
DAV:   4    -0.191796093164E+03    0.40993E-03   -0.62530E-04 10080   0.199E-01    0.645E-02
DAV:   5    -0.191796263293E+03   -0.17013E-03   -0.56333E-04  9280   0.178E-01    0.140E-01
DAV:   6    -0.191796054004E+03    0.20929E-03   -0.43779E-04  8560   0.159E-01    0.297E-02
DAV:   7    -0.191796047734E+03    0.62699E-05   -0.48000E-05  5760   0.331E-02
  67 F= -.19179605E+03 E0= -.19171288E+03  d E =-.626519E-02
       N       E                     dE             d eps       ncg     rms          rms(c)
DAV:   1    -0.191798840127E+03   -0.27861E-02   -0.93981E-02  8160   0.654E-01    0.745E-02
DAV:   2    -0.191799040129E+03   -0.20000E-03   -0.31094E-03 12280   0.188E-01    0.788E-02
DAV:   3    -0.191799045333E+03   -0.52040E-05   -0.44081E-04  9040   0.158E-01
  68 F= -.19179905E+03 E0= -.19171631E+03  d E =-.299760E-02
       N       E                     dE             d eps       ncg     rms          rms(c)
DAV:   1    -0.191804836595E+03   -0.57965E-02   -0.42927E-01  8160   0.139E+00    0.145E-01
DAV:   2    -0.191805548426E+03   -0.71183E-03   -0.11214E-02 12240   0.295E-01    0.110E-01
DAV:   3    -0.191805628566E+03   -0.80140E-04   -0.10924E-03 11680   0.210E-01    0.146E-01
DAV:   4    -0.191805458278E+03    0.17029E-03   -0.59290E-04  8880   0.222E-01    0.105E-01
DAV:   5    -0.191805383241E+03    0.75037E-04   -0.34575E-04  7880   0.136E-01
  69 F= -.19180538E+03 E0= -.19172332E+03  d E =-.633791E-02
       N       E                     dE             d eps       ncg     rms          rms(c)
DAV:   1    -0.191800645438E+03    0.48128E-02   -0.21225E-01  8160   0.981E-01    0.129E-01
DAV:   2    -0.191802873674E+03   -0.22282E-02   -0.98572E-03 13360   0.550E-01    0.390E-01
DAV:   3    -0.191800906096E+03    0.19676E-02   -0.36583E-03 11560   0.456E-01    0.779E-02
DAV:   4    -0.191800928872E+03   -0.22776E-04   -0.32897E-04  8240   0.135E-01
  70 F= -.19180093E+03 E0= -.19171840E+03  d E =0.445437E-02
       N       E                     dE             d eps       ncg     rms          rms(c)
DAV:   1    -0.191805788962E+03   -0.48829E-02   -0.30354E-01  8160   0.118E+00    0.152E-01
DAV:   2    -0.191807397910E+03   -0.16089E-02   -0.13556E-02 13040   0.568E-01    0.315E-01
DAV:   3    -0.191806253703E+03    0.11442E-02   -0.30490E-03 11280   0.424E-01    0.958E-02
DAV:   4    -0.191806183269E+03    0.70434E-04   -0.53468E-04  8640   0.155E-01
  71 F= -.19180618E+03 E0= -.19172381E+03  d E =-.525440E-02
       N       E                     dE             d eps       ncg     rms          rms(c)
DAV:   1    -0.191808631888E+03   -0.23782E-02   -0.63780E-02  8160   0.558E-01    0.905E-02
DAV:   2    -0.191809682829E+03   -0.10509E-02   -0.29078E-03 13560   0.382E-01    0.297E-01
DAV:   3    -0.191808634248E+03    0.10486E-02   -0.12818E-03  9960   0.326E-01    0.507E-02
DAV:   4    -0.191808695632E+03   -0.61384E-04   -0.20670E-04  6880   0.101E-01
  72 F= -.19180870E+03 E0= -.19172653E+03  d E =-.251236E-02
       N       E                     dE             d eps       ncg     rms          rms(c)
DAV:   1    -0.191812736600E+03   -0.41024E-02   -0.18818E-01  8160   0.922E-01    0.120E-01
DAV:   2    -0.191813805598E+03   -0.10690E-02   -0.67686E-03 12280   0.434E-01    0.272E-01
DAV:   3    -0.191812974308E+03    0.83129E-03   -0.16174E-03 10280   0.349E-01    0.906E-02
DAV:   4    -0.191812970867E+03    0.34406E-05   -0.45312E-04  8560   0.149E-01
  73 F= -.19181297E+03 E0= -.19173121E+03  d E =-.427524E-02
       N       E                     dE             d eps       ncg     rms          rms(c)
DAV:   1    -0.191813522558E+03   -0.54825E-03   -0.32661E-02  8160   0.403E-01    0.126E-01
DAV:   2    -0.191815763842E+03   -0.22413E-02   -0.61938E-03 12200   0.619E-01    0.437E-01
DAV:   3    -0.191813289918E+03    0.24739E-02   -0.31411E-03 10560   0.467E-01    0.521E-02
DAV:   4    -0.191813385907E+03   -0.95989E-04   -0.25162E-04  7520   0.137E-01
  74 F= -.19181339E+03 E0= -.19173198E+03  d E =-.415040E-03
       N       E                     dE             d eps       ncg     rms          rms(c)
DAV:   1    -0.191813974241E+03   -0.68432E-03   -0.68702E-02  8160   0.601E-01    0.133E-01
DAV:   2    -0.191814271176E+03   -0.29693E-03   -0.46526E-03 11360   0.368E-01    0.223E-01
DAV:   3    -0.191813634955E+03    0.63622E-03   -0.20196E-03 11360   0.333E-01    0.953E-02
DAV:   4    -0.191813615635E+03    0.19320E-04   -0.69512E-04  9400   0.159E-01
  75 F= -.19181362E+03 E0= -.19173252E+03  d E =-.229728E-03
       N       E                     dE             d eps       ncg     rms          rms(c)
DAV:   1    -0.191822142277E+03   -0.85073E-02   -0.71471E-01  8160   0.180E+00    0.193E-01
DAV:   2    -0.191824287904E+03   -0.21456E-02   -0.19569E-02 12280   0.503E-01    0.314E-01
DAV:   3    -0.191823373556E+03    0.91435E-03   -0.37133E-03 12280   0.511E-01    0.201E-01
DAV:   4    -0.191823096639E+03    0.27692E-03   -0.10774E-03  9520   0.251E-01    0.122E-01
DAV:   5    -0.191822999243E+03    0.97396E-04   -0.74492E-04  9200   0.203E-01
  76 F= -.19182300E+03 E0= -.19174266E+03  d E =-.938361E-02
       N       E                     dE             d eps       ncg     rms          rms(c)
DAV:   1    -0.191824646503E+03   -0.15499E-02   -0.30055E-02  8160   0.393E-01    0.778E-02
DAV:   2    -0.191825275823E+03   -0.62932E-03   -0.21939E-03 13400   0.265E-01    0.212E-01
DAV:   3    -0.191824636764E+03    0.63906E-03   -0.11014E-03 10080   0.245E-01    0.557E-02
DAV:   4    -0.191824629280E+03    0.74833E-05   -0.14885E-04  6160   0.817E-02
  77 F= -.19182463E+03 E0= -.19174453E+03  d E =-.163004E-02
       N       E                     dE             d eps       ncg     rms          rms(c)
DAV:   1    -0.191839648953E+03   -0.15012E-01   -0.16759E+00  8160   0.273E+00    0.255E-01
DAV:   2    -0.191842082584E+03   -0.24336E-02   -0.35425E-02 12240   0.590E-01    0.247E-01
DAV:   3    -0.191842629411E+03   -0.54683E-03   -0.55579E-03 11480   0.540E-01    0.329E-01
DAV:   4    -0.191841491939E+03    0.11375E-02   -0.26285E-03 10960   0.386E-01    0.144E-01
DAV:   5    -0.191841554631E+03   -0.62691E-04   -0.92040E-04  9840   0.269E-01
  78 F= -.19184155E+03 E0= -.19176256E+03  d E =-.169254E-01
       N       E                     dE             d eps       ncg     rms          rms(c)
DAV:   1    -0.191791715908E+03    0.49776E-01   -0.11449E+01  8160   0.716E+00    0.654E-01
DAV:   2    -0.191810253094E+03   -0.18537E-01   -0.24834E-01 12160   0.147E+00    0.677E-01
DAV:   3    -0.191811915528E+03   -0.16624E-02   -0.38502E-02 12760   0.142E+00    0.861E-01
DAV:   4    -0.191805316707E+03    0.65988E-02   -0.18395E-02 11880   0.106E+00    0.398E-01
DAV:   5    -0.191803258510E+03    0.20582E-02   -0.55534E-03 10640   0.421E-01    0.207E-01
DAV:   6    -0.191804498747E+03   -0.12402E-02   -0.44171E-03 12920   0.548E-01    0.369E-01
DAV:   7    -0.191802837277E+03    0.16615E-02   -0.23030E-03 11680   0.426E-01    0.548E-02
DAV:   8    -0.191802804251E+03    0.33026E-04   -0.16001E-04  6160   0.590E-02
  79 F= -.19180280E+03 E0= -.19172136E+03  d E =0.387504E-01
       N       E                     dE             d eps       ncg     rms          rms(c)
DAV:   1    -0.191796279513E+03    0.65578E-02   -0.12199E+00  8160   0.236E+00    0.271E-01
DAV:   2    -0.191797888043E+03   -0.16085E-02   -0.30539E-02 12280   0.613E-01    0.315E-01
DAV:   3    -0.191797724998E+03    0.16305E-03   -0.53769E-03 12440   0.609E-01    0.309E-01
DAV:   4    -0.191796792480E+03    0.93252E-03   -0.24889E-03 11560   0.405E-01    0.175E-01
DAV:   5    -0.191796700083E+03    0.92397E-04   -0.17685E-03  9960   0.301E-01    0.168E-01
DAV:   6    -0.191796439087E+03    0.26100E-03   -0.10610E-03 10440   0.227E-01    0.721E-02
DAV:   7    -0.191796367763E+03    0.71324E-04   -0.15050E-04  5880   0.877E-02
  80 F= -.19179637E+03 E0= -.19171317E+03  d E =0.643649E-02
       N       E                     dE             d eps       ncg     rms          rms(c)
DAV:   1    -0.191801495057E+03   -0.50560E-02   -0.49498E-01  8160   0.149E+00    0.149E-01
DAV:   2    -0.191803204748E+03   -0.17097E-02   -0.15281E-02 12840   0.510E-01    0.280E-01
DAV:   3    -0.191802501581E+03    0.70317E-03   -0.23135E-03 12320   0.399E-01    0.139E-01
DAV:   4    -0.191802344589E+03    0.15699E-03   -0.54724E-04  8200   0.174E-01    0.890E-02
DAV:   5    -0.191802317442E+03    0.27147E-04   -0.37721E-04  8720   0.146E-01
  81 F= -.19180232E+03 E0= -.19171991E+03  d E =-.594968E-02
       N       E                     dE             d eps       ncg     rms          rms(c)
DAV:   1    -0.191804361625E+03   -0.20170E-02   -0.60438E-02  8160   0.539E-01    0.689E-02
DAV:   2    -0.191804623837E+03   -0.26221E-03   -0.19831E-03 13560   0.187E-01    0.124E-01
DAV:   3    -0.191804458305E+03    0.16553E-03   -0.52296E-04  9200   0.189E-01    0.734E-02
DAV:   4    -0.191804418900E+03    0.39405E-04   -0.12920E-04  5920   0.907E-02
  82 F= -.19180442E+03 E0= -.19172202E+03  d E =-.210146E-02
       N       E                     dE             d eps       ncg     rms          rms(c)
DAV:   1    -0.191807725851E+03   -0.32675E-02   -0.15045E-01  8160   0.825E-01    0.926E-02
DAV:   2    -0.191808222714E+03   -0.49686E-03   -0.40476E-03 12240   0.260E-01    0.165E-01
DAV:   3    -0.191807949845E+03    0.27287E-03   -0.82785E-04 10360   0.245E-01    0.860E-02
DAV:   4    -0.191807923225E+03    0.26620E-04   -0.25736E-04  7680   0.116E-01
  83 F= -.19180792E+03 E0= -.19172595E+03  d E =-.350432E-02
       N       E                     dE             d eps       ncg     rms          rms(c)
DAV:   1    -0.191810415521E+03   -0.24657E-02   -0.69309E-02  8160   0.635E-01    0.128E-01
DAV:   2    -0.191810507822E+03   -0.92301E-04   -0.32738E-03 12000   0.260E-01    0.194E-01
DAV:   3    -0.191810267756E+03    0.24007E-03   -0.15281E-03 10280   0.315E-01    0.152E-01
DAV:   4    -0.191810014146E+03    0.25361E-03   -0.58223E-04  8840   0.170E-01    0.533E-02
DAV:   5    -0.191809963670E+03    0.50477E-04   -0.21875E-04  6480   0.703E-02
  84 F= -.19180996E+03 E0= -.19172760E+03  d E =-.204044E-02
       N       E                     dE             d eps       ncg     rms          rms(c)
DAV:   1    -0.191803211768E+03    0.68024E-02   -0.60588E-01  8160   0.166E+00    0.184E-01
DAV:   2    -0.191804929567E+03   -0.17178E-02   -0.16511E-02 12400   0.498E-01    0.319E-01
DAV:   3    -0.191804005223E+03    0.92434E-03   -0.42982E-03 11000   0.478E-01    0.192E-01
DAV:   4    -0.191803724761E+03    0.28046E-03   -0.10676E-03 10040   0.230E-01    0.113E-01
DAV:   5    -0.191803603559E+03    0.12120E-03   -0.50142E-04  9440   0.179E-01    0.848E-02
DAV:   6    -0.191803587005E+03    0.16554E-04   -0.31667E-04  7520   0.147E-01
  85 F= -.19180359E+03 E0= -.19172006E+03  d E =0.637666E-02
       N       E                     dE             d eps       ncg     rms          rms(c)
DAV:   1    -0.191808534063E+03   -0.49305E-02   -0.39006E-01  8160   0.134E+00    0.155E-01
DAV:   2    -0.191809580990E+03   -0.10469E-02   -0.11486E-02 13000   0.402E-01    0.260E-01
DAV:   3    -0.191809046934E+03    0.53406E-03   -0.32855E-03 11840   0.413E-01    0.179E-01
DAV:   4    -0.191808726273E+03    0.32066E-03   -0.75862E-04  9240   0.198E-01    0.778E-02
DAV:   5    -0.191808673798E+03    0.52475E-04   -0.35384E-04  8200   0.122E-01
  86 F= -.19180867E+03 E0= -.19172606E+03  d E =-.508679E-02
       N       E                     dE             d eps       ncg     rms          rms(c)
DAV:   1    -0.191812037354E+03   -0.33111E-02   -0.14225E-01  8160   0.816E-01    0.102E-01
DAV:   2    -0.191812909239E+03   -0.87188E-03   -0.47849E-03 13520   0.330E-01    0.236E-01
DAV:   3    -0.191812236825E+03    0.67241E-03   -0.12215E-03 10160   0.306E-01    0.726E-02
DAV:   4    -0.191812276660E+03   -0.39835E-04   -0.24351E-04  7760   0.116E-01
  87 F= -.19181228E+03 E0= -.19173002E+03  d E =-.360286E-02
       N       E                     dE             d eps       ncg     rms          rms(c)
DAV:   1    -0.191803506646E+03    0.87302E-02   -0.75908E-01  8160   0.186E+00    0.174E-01
DAV:   2    -0.191805505487E+03   -0.19988E-02   -0.19329E-02 12560   0.513E-01    0.285E-01
DAV:   3    -0.191804705942E+03    0.79954E-03   -0.39946E-03 12120   0.448E-01    0.162E-01
DAV:   4    -0.191804560877E+03    0.14507E-03   -0.95898E-04 10720   0.213E-01    0.123E-01
DAV:   5    -0.191804426381E+03    0.13450E-03   -0.41551E-04  8600   0.182E-01    0.818E-02
DAV:   6    -0.191804421978E+03    0.44033E-05   -0.28785E-04  7160   0.124E-01
  88 F= -.19180442E+03 E0= -.19172140E+03  d E =0.785468E-02
       N       E                     dE             d eps       ncg     rms          rms(c)
DAV:   1    -0.191793917067E+03    0.10509E-01   -0.14717E+00  8160   0.260E+00    0.272E-01
DAV:   2    -0.191795520441E+03   -0.16034E-02   -0.35489E-02 12200   0.511E-01    0.168E-01
DAV:   3    -0.191795480604E+03    0.39837E-04   -0.28476E-03 11600   0.267E-01    0.193E-01
DAV:   4    -0.191795380138E+03    0.10047E-03   -0.21544E-03 11200   0.367E-01    0.208E-01
DAV:   5    -0.191795062427E+03    0.31771E-03   -0.12706E-03 10160   0.269E-01    0.104E-01
DAV:   6    -0.191794926794E+03    0.13563E-03   -0.45941E-04  9160   0.113E-01    0.508E-02
DAV:   7    -0.191794916363E+03    0.10431E-04   -0.12403E-04  6640   0.971E-02
  89 F= -.19179492E+03 E0= -.19171035E+03  d E =0.950562E-02
       N       E                     dE             d eps       ncg     rms          rms(c)
DAV:   1    -0.191804483311E+03   -0.95565E-02   -0.19635E+00  8160   0.299E+00    0.299E-01
DAV:   2    -0.191807295457E+03   -0.28121E-02   -0.47050E-02 12240   0.613E-01    0.257E-01
DAV:   3    -0.191808112278E+03   -0.81682E-03   -0.85065E-03 11720   0.614E-01    0.393E-01
DAV:   4    -0.191806447677E+03    0.16646E-02   -0.37418E-03 11000   0.465E-01    0.162E-01
DAV:   5    -0.191806377464E+03    0.70212E-04   -0.12277E-03 10040   0.271E-01    0.156E-01
DAV:   6    -0.191806285859E+03    0.91605E-04   -0.92539E-04 11120   0.260E-01
  90 F= -.19180629E+03 E0= -.19172326E+03  d E =-.113695E-01
       N       E                     dE             d eps       ncg     rms          rms(c)
DAV:   1    -0.191808104565E+03   -0.17271E-02   -0.69177E-02  8160   0.571E-01    0.846E-02
DAV:   2    -0.191808288727E+03   -0.18416E-03   -0.26782E-03 11880   0.213E-01    0.124E-01
DAV:   3    -0.191808171305E+03    0.11742E-03   -0.68207E-04 10120   0.192E-01    0.806E-02
DAV:   4    -0.191808136354E+03    0.34951E-04   -0.26978E-04  7640   0.118E-01
  91 F= -.19180814E+03 E0= -.19172581E+03  d E =-.185050E-02
       N       E                     dE             d eps       ncg     rms          rms(c)
DAV:   1    -0.191813135881E+03   -0.49646E-02   -0.32938E-01  8160   0.123E+00    0.138E-01
DAV:   2    -0.191814343329E+03   -0.12074E-02   -0.88584E-03 12560   0.437E-01    0.265E-01
DAV:   3    -0.191813520055E+03    0.82327E-03   -0.19094E-03 12280   0.371E-01    0.975E-02
DAV:   4    -0.191813506434E+03    0.13622E-04   -0.36211E-04  8520   0.137E-01
  92 F= -.19181351E+03 E0= -.19173156E+03  d E =-.537008E-02
       N       E                     dE             d eps       ncg     rms          rms(c)
DAV:   1    -0.191790968147E+03    0.22552E-01   -0.45488E+00  8160   0.455E+00    0.444E-01
DAV:   2    -0.191803563934E+03   -0.12596E-01   -0.11879E-01 12400   0.140E+00    0.749E-01
DAV:   3    -0.191797782482E+03    0.57815E-02   -0.24374E-02 12120   0.113E+00    0.384E-01
DAV:   4    -0.191797140853E+03    0.64163E-03   -0.59541E-03 11920   0.536E-01    0.326E-01
DAV:   5    -0.191796211088E+03    0.92976E-03   -0.30499E-03 11480   0.491E-01    0.218E-01
DAV:   6    -0.191796100803E+03    0.11028E-03   -0.20488E-03 11920   0.311E-01    0.145E-01
DAV:   7    -0.191795726293E+03    0.37451E-03   -0.71973E-04 10160   0.127E-01    0.308E-02
DAV:   8    -0.191795739677E+03   -0.13384E-04   -0.72388E-05  7040   0.661E-02
  93 F= -.19179574E+03 E0= -.19171249E+03  d E =0.177668E-01
       N       E                     dE             d eps       ncg     rms          rms(c)
DAV:   1    -0.191797723809E+03   -0.19975E-02   -0.67442E-02  8160   0.583E-01    0.108E-01
DAV:   2    -0.191798204996E+03   -0.48119E-03   -0.40299E-03 11600   0.353E-01    0.227E-01
DAV:   3    -0.191797611560E+03    0.59344E-03   -0.15708E-03 10320   0.299E-01    0.777E-02
DAV:   4    -0.191797598545E+03    0.13015E-04   -0.37021E-04  8600   0.139E-01
  94 F= -.19179760E+03 E0= -.19171416E+03  d E =-.185887E-02
       N       E                     dE             d eps       ncg     rms          rms(c)
DAV:   1    -0.191778902660E+03    0.18709E-01   -0.56551E+00  8160   0.507E+00    0.487E-01
DAV:   2    -0.191788878225E+03   -0.99756E-02   -0.12752E-01 12040   0.111E+00    0.547E-01
DAV:   3    -0.191788403647E+03    0.47458E-03   -0.22512E-02 12440   0.109E+00    0.550E-01
DAV:   4    -0.191785492291E+03    0.29114E-02   -0.85066E-03 12280   0.676E-01    0.292E-01
DAV:   5    -0.191785143249E+03    0.34904E-03   -0.34769E-03 11880   0.493E-01    0.270E-01
DAV:   6    -0.191784922281E+03    0.22097E-03   -0.26841E-03 11800   0.415E-01    0.184E-01
DAV:   7    -0.191784370325E+03    0.55196E-03   -0.95291E-04  9960   0.181E-01    0.377E-02
DAV:   8    -0.191784386102E+03   -0.15777E-04   -0.99988E-05  7400   0.783E-02
  95 F= -.19178439E+03 E0= -.19169982E+03  d E =0.132124E-01
       N       E                     dE             d eps       ncg     rms          rms(c)
DAV:   1    -0.191787487477E+03   -0.31172E-02   -0.40007E-01  8160   0.134E+00    0.143E-01
DAV:   2    -0.191789564458E+03   -0.20770E-02   -0.13171E-02 13160   0.549E-01    0.368E-01
DAV:   3    -0.191788056617E+03    0.15078E-02   -0.35573E-03 12360   0.448E-01    0.100E-01
DAV:   4    -0.191788029600E+03    0.27017E-04   -0.41981E-04  8680   0.148E-01
  96 F= -.19178803E+03 E0= -.19170374E+03  d E =-.364350E-02
       N       E                     dE             d eps       ncg     rms          rms(c)
DAV:   1    -0.191784790233E+03    0.32664E-02   -0.82258E-01  8160   0.195E+00    0.186E-01
DAV:   2    -0.191786526694E+03   -0.17365E-02   -0.19822E-02 12080   0.443E-01    0.230E-01
DAV:   3    -0.191786230905E+03    0.29579E-03   -0.28321E-03 12320   0.428E-01    0.184E-01
DAV:   4    -0.191785812895E+03    0.41801E-03   -0.70089E-04  9600   0.207E-01    0.648E-02
DAV:   5    -0.191785843357E+03   -0.30462E-04   -0.37381E-04  8600   0.102E-01
  97 F= -.19178584E+03 E0= -.19170173E+03  d E =0.218624E-02
       N       E                     dE             d eps       ncg     rms          rms(c)
DAV:   1    -0.191788218797E+03   -0.24059E-02   -0.33719E-01  8160   0.124E+00    0.144E-01
DAV:   2    -0.191789892916E+03   -0.16741E-02   -0.10486E-02 12280   0.520E-01    0.338E-01
DAV:   3    -0.191788639851E+03    0.12531E-02   -0.26253E-03 11680   0.434E-01    0.121E-01
DAV:   4    -0.191788560011E+03    0.79841E-04   -0.61584E-04  8880   0.163E-01
  98 F= -.19178856E+03 E0= -.19170456E+03  d E =-.271665E-02
       N       E                     dE             d eps       ncg     rms          rms(c)
DAV:   1    -0.191789469985E+03   -0.83013E-03   -0.49556E-02  8160   0.494E-01    0.756E-02
DAV:   2    -0.191789932420E+03   -0.46243E-03   -0.23332E-03 13600   0.247E-01    0.177E-01
DAV:   3    -0.191789518171E+03    0.41425E-03   -0.83236E-04  9560   0.225E-01    0.484E-02
DAV:   4    -0.191789542183E+03   -0.24012E-04   -0.13102E-04  6600   0.820E-02
  99 F= -.19178954E+03 E0= -.19170564E+03  d E =-.982172E-03
       N       E                     dE             d eps       ncg     rms          rms(c)
DAV:   1    -0.191791404772E+03   -0.18866E-02   -0.22019E-01  8160   0.998E-01    0.109E-01
DAV:   2    -0.191792068668E+03   -0.66390E-03   -0.78133E-03 12200   0.266E-01    0.137E-01
DAV:   3    -0.191792060458E+03    0.82104E-05   -0.11208E-03 11160   0.268E-01    0.144E-01
DAV:   4    -0.191791835639E+03    0.22482E-03   -0.32897E-04  8320   0.149E-01    0.440E-02
DAV:   5    -0.191791862198E+03   -0.26559E-04   -0.14702E-04  6520   0.890E-02
 100 F= -.19179186E+03 E0= -.19170827E+03  d E =-.232002E-02
