<?xml version="1.0" encoding="ISO-8859-1"?>
<modeling>
 <generator>
  <i name="program" type="string">vasp </i>
  <i name="version" type="string">5.4.1  </i>
  <i name="subversion" type="string">05Feb16 (build Jul 05 2020 17:13:04) complex                          parallel </i>
  <i name="platform" type="string">IFC91_ompi </i>
  <i name="date" type="string">2024 04 25 </i>
  <i name="time" type="string">00:46:20 </i>
 </generator>
 <incar>
  <i type="int" name="ISTART">     0</i>
  <i type="string" name="PREC">normal</i>
  <i type="string" name="ALGO"> Normal</i>
  <i type="int" name="ISPIN">     1</i>
  <i type="int" name="ICHARG">     2</i>
  <i type="int" name="IBRION">     1</i>
  <i type="int" name="NSW">   100</i>
  <i type="int" name="ISIF">     3</i>
  <i type="int" name="ISYM">     0</i>
  <i name="SYMPREC">      0.00000001</i>
  <i name="POTIM">      0.50000000</i>
  <i type="logical" name="LREAL"> F  </i>
  <i type="logical" name="LPLANE"> F  </i>
  <i type="int" name="ISMEAR">     0</i>
  <i type="logical" name="LWAVE"> F  </i>
  <i type="logical" name="LCHARG"> F  </i>
  <v type="int" name="KPOINT_BSE">    -1     0     0     0</v>
 </incar>
 <kpoints>
  <generation param="Gamma">
   <v type="int" name="divisions">       8        8        1 </v>
   <v name="usershift">      0.00000000       0.00000000       0.00000000 </v>
   <v name="genvec1">      0.12500000       0.00000000       0.00000000 </v>
   <v name="genvec2">     -0.00000000       0.12500000       0.00000000 </v>
   <v name="genvec3">      0.00000000       0.00000000       1.00000000 </v>
   <v name="shift">      0.00000000       0.00000000       0.00000000 </v>
  </generation>
  <varray name="kpointlist" >
   <v>       0.00000000       0.00000000       0.00000000 </v>
   <v>       0.12500000       0.00000000       0.00000000 </v>
   <v>       0.25000000       0.00000000       0.00000000 </v>
   <v>       0.37500000       0.00000000       0.00000000 </v>
   <v>       0.50000000       0.00000000       0.00000000 </v>
   <v>       0.00000000       0.12500000       0.00000000 </v>
   <v>       0.12500000       0.12500000       0.00000000 </v>
   <v>       0.25000000       0.12500000       0.00000000 </v>
   <v>       0.37500000       0.12500000       0.00000000 </v>
   <v>       0.50000000       0.12500000       0.00000000 </v>
   <v>      -0.37500000       0.12500000       0.00000000 </v>
   <v>      -0.25000000       0.12500000       0.00000000 </v>
   <v>      -0.12500000       0.12500000       0.00000000 </v>
   <v>       0.00000000       0.25000000       0.00000000 </v>
   <v>       0.12500000       0.25000000       0.00000000 </v>
   <v>       0.25000000       0.25000000       0.00000000 </v>
   <v>       0.37500000       0.25000000       0.00000000 </v>
   <v>       0.50000000       0.25000000       0.00000000 </v>
   <v>      -0.37500000       0.25000000       0.00000000 </v>
   <v>      -0.25000000       0.25000000       0.00000000 </v>
   <v>      -0.12500000       0.25000000       0.00000000 </v>
   <v>      -0.00000000       0.37500000       0.00000000 </v>
   <v>       0.12500000       0.37500000       0.00000000 </v>
   <v>       0.25000000       0.37500000       0.00000000 </v>
   <v>       0.37500000       0.37500000       0.00000000 </v>
   <v>       0.50000000       0.37500000       0.00000000 </v>
   <v>      -0.37500000       0.37500000       0.00000000 </v>
   <v>      -0.25000000       0.37500000       0.00000000 </v>
   <v>      -0.12500000       0.37500000       0.00000000 </v>
   <v>       0.00000000       0.50000000       0.00000000 </v>
   <v>       0.12500000       0.50000000       0.00000000 </v>
   <v>       0.25000000       0.50000000       0.00000000 </v>
   <v>       0.37500000       0.50000000       0.00000000 </v>
   <v>       0.50000000       0.50000000       0.00000000 </v>
  </varray>
  <varray name="weights" >
   <v>       0.01562500 </v>
   <v>       0.03125000 </v>
   <v>       0.03125000 </v>
   <v>       0.03125000 </v>
   <v>       0.01562500 </v>
   <v>       0.03125000 </v>
   <v>       0.03125000 </v>
   <v>       0.03125000 </v>
   <v>       0.03125000 </v>
   <v>       0.03125000 </v>
   <v>       0.03125000 </v>
   <v>       0.03125000 </v>
   <v>       0.03125000 </v>
   <v>       0.03125000 </v>
   <v>       0.03125000 </v>
   <v>       0.03125000 </v>
   <v>       0.03125000 </v>
   <v>       0.03125000 </v>
   <v>       0.03125000 </v>
   <v>       0.03125000 </v>
   <v>       0.03125000 </v>
   <v>       0.03125000 </v>
   <v>       0.03125000 </v>
   <v>       0.03125000 </v>
   <v>       0.03125000 </v>
   <v>       0.03125000 </v>
   <v>       0.03125000 </v>
   <v>       0.03125000 </v>
   <v>       0.03125000 </v>
   <v>       0.01562500 </v>
   <v>       0.03125000 </v>
   <v>       0.03125000 </v>
   <v>       0.03125000 </v>
   <v>       0.01562500 </v>
  </varray>
 </kpoints>
 <parameters>
  <separator name="general" >
   <i type="string" name="SYSTEM">unknown system</i>
   <i type="logical" name="LCOMPAT"> F  </i>
  </separator>
  <separator name="electronic" >
   <i type="string" name="PREC">normal</i>
   <i name="ENMAX">    280.00000000</i>
   <i name="ENAUG">    373.43800000</i>
   <i name="EDIFF">      0.00010000</i>
   <i type="int" name="IALGO">    38</i>
   <i type="int" name="IWAVPR">    11</i>
   <i type="int" name="NBANDS">   120</i>
   <i name="NELECT">    159.00000000</i>
   <i type="int" name="TURBO">     0</i>
   <i type="int" name="IRESTART">     0</i>
   <i type="int" name="NREBOOT">     0</i>
   <i type="int" name="NMIN">     0</i>
   <i name="EREF">      0.00000000</i>
   <separator name="electronic smearing" >
    <i type="int" name="ISMEAR">     0</i>
    <i name="SIGMA">      0.20000000</i>
    <i name="KSPACING">      0.50000000</i>
    <i type="logical" name="KGAMMA"> T  </i>
   </separator>
   <separator name="electronic projectors" >
    <i type="logical" name="LREAL"> F  </i>
    <v name="ROPT">      0.00000000      0.00000000      0.00000000      0.00000000</v>
    <i type="int" name="LMAXPAW">  -100</i>
    <i type="int" name="LMAXMIX">     2</i>
    <i type="logical" name="NLSPLINE"> F  </i>
   </separator>
   <separator name="electronic startup" >
    <i type="int" name="ISTART">     0</i>
    <i type="int" name="ICHARG">     2</i>
    <i type="int" name="INIWAV">     1</i>
   </separator>
   <separator name="electronic spin" >
    <i type="int" name="ISPIN">     1</i>
    <i type="logical" name="LNONCOLLINEAR"> F  </i>
    <v name="MAGMOM">      1.00000000      1.00000000      1.00000000      1.00000000      1.00000000      1.00000000      1.00000000      1.00000000      1.00000000      1.00000000      1.00000000      1.00000000      1.00000000      1.00000000      1.00000000      1.00000000      1.00000000      1.00000000      1.00000000      1.00000000
      1.00000000      1.00000000      1.00000000      1.00000000      1.00000000      1.00000000      1.00000000</v>
    <i name="NUPDOWN">     -1.00000000</i>
    <i type="logical" name="LSORBIT"> F  </i>
    <v name="SAXIS">      0.00000000      0.00000000      1.00000000</v>
    <i type="logical" name="LSPIRAL"> F  </i>
    <v name="QSPIRAL">      0.00000000      0.00000000      0.00000000</v>
    <i type="logical" name="LZEROZ"> F  </i>
   </separator>
   <separator name="electronic exchange-correlation" >
    <i type="logical" name="LASPH"> F  </i>
    <i type="logical" name="LMETAGGA"> F  </i>
   </separator>
   <separator name="electronic convergence" >
    <i type="int" name="NELM">    60</i>
    <i type="int" name="NELMDL">    -5</i>
    <i type="int" name="NELMIN">     2</i>
    <i name="ENINI">    280.00000000</i>
    <separator name="electronic convergence detail" >
     <i type="logical" name="LDIAG"> T  </i>
     <i type="logical" name="LSUBROT"> F  </i>
     <i name="WEIMIN">      0.00100000</i>
     <i name="EBREAK">      0.00000021</i>
     <i name="DEPER">      0.30000000</i>
     <i type="int" name="NRMM">     4</i>
     <i name="TIME">      0.40000000</i>
    </separator>
   </separator>
   <separator name="electronic mixer" >
    <i name="AMIX">      0.40000000</i>
    <i name="BMIX">      1.00000000</i>
    <i name="AMIN">      0.10000000</i>
    <i name="AMIX_MAG">      1.60000000</i>
    <i name="BMIX_MAG">      1.00000000</i>
    <separator name="electronic mixer details" >
     <i type="int" name="IMIX">     4</i>
     <i type="logical" name="MIXFIRST"> F  </i>
     <i type="int" name="MAXMIX">   -45</i>
     <i name="WC">    100.00000000</i>
     <i type="int" name="INIMIX">     1</i>
     <i type="int" name="MIXPRE">     1</i>
     <i type="int" name="MREMOVE">     5</i>
    </separator>
   </separator>
   <separator name="electronic dipolcorrection" >
    <i type="logical" name="LDIPOL"> F  </i>
    <i type="logical" name="LMONO"> F  </i>
    <i type="int" name="IDIPOL">     0</i>
    <i name="EPSILON">      1.00000000</i>
    <v name="DIPOL">   -100.00000000   -100.00000000   -100.00000000</v>
    <i name="EFIELD">      0.00000000</i>
   </separator>
  </separator>
  <separator name="grids" >
   <i type="int" name="NGX">    42</i>
   <i type="int" name="NGY">    42</i>
   <i type="int" name="NGZ">   126</i>
   <i type="int" name="NGXF">    84</i>
   <i type="int" name="NGYF">    84</i>
   <i type="int" name="NGZF">   252</i>
   <i type="logical" name="ADDGRID"> F  </i>
  </separator>
  <separator name="ionic" >
   <i type="int" name="NSW">   100</i>
   <i type="int" name="IBRION">     1</i>
   <i type="int" name="ISIF">     3</i>
   <i name="PSTRESS">      0.00000000</i>
   <i name="EDIFFG">      0.00100000</i>
   <i type="int" name="NFREE">     0</i>
   <i name="POTIM">      0.50000000</i>
   <i name="SMASS">     -3.00000000</i>
   <i name="SCALEE">      1.00000000</i>
  </separator>
  <separator name="ionic md" >
   <i name="TEBEG">      0.00010000</i>
   <i name="TEEND">      0.00010000</i>
   <i type="int" name="NBLOCK">     1</i>
   <i type="int" name="KBLOCK">   100</i>
   <i type="int" name="NPACO">   256</i>
   <i name="APACO">     16.00000000</i>
  </separator>
  <separator name="symmetry" >
   <i type="int" name="ISYM">     0</i>
   <i name="SYMPREC">      0.00000001</i>
  </separator>
  <separator name="dos" >
   <i type="logical" name="LORBIT"> F  </i>
   <v name="RWIGS">     -1.00000000     -1.00000000     -1.00000000     -1.00000000</v>
   <i type="int" name="NEDOS">   301</i>
   <i name="EMIN">     10.00000000</i>
   <i name="EMAX">    -10.00000000</i>
   <i name="EFERMI">      0.00000000</i>
  </separator>
  <separator name="writing" >
   <i type="int" name="NWRITE">     2</i>
   <i type="logical" name="LWAVE"> F  </i>
   <i type="logical" name="LCHARG"> F  </i>
   <i type="logical" name="LPARD"> F  </i>
   <i type="logical" name="LVTOT"> F  </i>
   <i type="logical" name="LVHAR"> F  </i>
   <i type="logical" name="LELF"> F  </i>
   <i type="logical" name="LOPTICS"> F  </i>
   <v name="STM">      0.00000000      0.00000000      0.00000000      0.00000000      0.00000000      0.00000000      0.00000000</v>
  </separator>
  <separator name="performance" >
   <i type="int" name="NPAR">    40</i>
   <i type="int" name="NSIM">     4</i>
   <i type="int" name="NBLK">    -1</i>
   <i type="logical" name="LPLANE"> F  </i>
   <i type="logical" name="LSCALAPACK"> T  </i>
   <i type="logical" name="LSCAAWARE"> F  </i>
   <i type="logical" name="LSCALU"> F  </i>
   <i type="logical" name="LASYNC"> F  </i>
   <i type="logical" name="LORBITALREAL"> F  </i>
  </separator>
  <separator name="miscellaneous" >
   <i type="int" name="IDIOT">     3</i>
   <i type="logical" name="LMUSIC"> F  </i>
   <v name="POMASS">     50.94100000     95.94000000    183.85000000     32.06600000</v>
   <v name="DARWINR">      0.00000000      0.00000000      0.00000000      0.00000000</v>
   <v name="DARWINV">      1.00000000      1.00000000      1.00000000      1.00000000</v>
   <i type="logical" name="LCORR"> T  </i>
  </separator>
  <i type="logical" name="GGA_COMPAT"> T  </i>
  <i type="logical" name="LBERRY"> F  </i>
  <i type="int" name="ICORELEVEL">     0</i>
  <i type="logical" name="LDAU"> F  </i>
  <i type="int" name="I_CONSTRAINED_M">     0</i>
  <separator name="electronic exchange-correlation" >
   <i type="string" name="GGA">--</i>
   <i type="int" name="VOSKOWN">     0</i>
   <i type="logical" name="LHFCALC"> F  </i>
   <i type="string" name="PRECFOCK"></i>
   <i type="logical" name="LSYMGRAD"> F  </i>
   <i type="logical" name="LHFONE"> F  </i>
   <i type="logical" name="LRHFCALC"> F  </i>
   <i type="logical" name="LTHOMAS"> F  </i>
   <i type="logical" name="LMODELHF"> F  </i>
   <i name="ENCUT4O">     -1.00000000</i>
   <i type="int" name="EXXOEP">     0</i>
   <i type="int" name="FOURORBIT">     0</i>
   <i name="AEXX">      0.00000000</i>
   <i name="HFALPHA">      0.00000000</i>
   <i name="MCALPHA">      0.00000000</i>
   <i name="ALDAX">      1.00000000</i>
   <i name="AGGAX">      1.00000000</i>
   <i name="ALDAC">      1.00000000</i>
   <i name="AGGAC">      1.00000000</i>
   <i type="int" name="NKREDX">     1</i>
   <i type="int" name="NKREDY">     1</i>
   <i type="int" name="NKREDZ">     1</i>
   <i type="logical" name="SHIFTRED"> F  </i>
   <i type="logical" name="ODDONLY"> F  </i>
   <i type="logical" name="EVENONLY"> F  </i>
   <i type="int" name="LMAXFOCK">     0</i>
   <i type="int" name="NMAXFOCKAE">     0</i>
   <i type="logical" name="LFOCKAEDFT"> F  </i>
   <i name="HFSCREEN">      0.00000000</i>
   <i name="HFSCREENC">      0.00000000</i>
   <i type="int" name="NBANDSGWLOW">     0</i>
  </separator>
  <separator name="vdW DFT" >
   <i type="logical" name="LUSE_VDW"> F  </i>
   <i name="Zab_VDW">     -0.84910000</i>
   <i name="PARAM1">      0.12340000</i>
   <i name="PARAM2">      1.00000000</i>
   <i name="PARAM3">      0.00000000</i>
  </separator>
  <separator name="model GW" >
   <i type="int" name="MODEL_GW">     0</i>
   <i name="MODEL_EPS0">     58.26239943</i>
   <i name="MODEL_ALPHA">      1.00000000</i>
  </separator>
  <separator name="linear response parameters" >
   <i type="logical" name="LEPSILON"> F  </i>
   <i type="logical" name="LRPA"> F  </i>
   <i type="logical" name="LNABLA"> F  </i>
   <i type="logical" name="LVEL"> F  </i>
   <i type="int" name="KINTER">     0</i>
   <i name="CSHIFT">      0.10000000</i>
   <i name="OMEGAMAX">     -1.00000000</i>
   <i name="DEG_THRESHOLD">      0.00200000</i>
  </separator>
  <separator name="orbital magnetization" >
   <i type="logical" name="NUCIND"> F  </i>
   <v name="MAGPOS">      0.00000000      0.00000000      0.00000000</v>
   <i type="logical" name="LNICSALL"> T  </i>
   <i type="logical" name="ORBITALMAG"> F  </i>
   <i type="logical" name="LMAGBLOCH"> F  </i>
   <i type="logical" name="LCHIMAG"> F  </i>
   <i type="logical" name="LGAUGE"> T  </i>
   <i type="int" name="MAGATOM">     0</i>
   <v name="MAGDIPOL">      0.00000000      0.00000000      0.00000000</v>
   <v name="AVECCONST">      0.00000000      0.00000000      0.00000000</v>
  </separator>
  <separator name="response functions" >
   <i type="logical" name="LADDER"> F  </i>
   <i type="logical" name="LFXC"> F  </i>
   <i type="logical" name="LHARTREE"> T  </i>
   <i type="int" name="IBSE">     0</i>
   <v type="int" name="KPOINT">    -1     0     0     0</v>
   <i type="logical" name="LTCTE"> F  </i>
   <i type="logical" name="LTETE"> F  </i>
   <i type="logical" name="LTRIPLET"> F  </i>
   <i type="logical" name="LFXCEPS"> F  </i>
   <i type="logical" name="LFXHEG"> F  </i>
   <i type="int" name="NATURALO">     0</i>
   <i type="logical" name="L2ORDER"> F  </i>
   <i type="logical" name="LUSEW"> F  </i>
   <i name="ENCUTGW">     -2.00000000</i>
   <i name="ENCUTGWSOFT">     -2.00000000</i>
   <i name="ENCUTLF">     -1.00000000</i>
   <i type="int" name="LMAXMP2">    -1</i>
   <i name="SCISSOR">      0.00000000</i>
   <i type="int" name="NOMEGA">     0</i>
   <i type="int" name="NOMEGAR">     0</i>
   <i type="int" name="NBANDSGW">    -1</i>
   <i type="int" name="NBANDSO">    -1</i>
   <i type="int" name="NBANDSV">    -1</i>
   <i type="int" name="NELM">     1</i>
   <i type="int" name="NELMHF">     1</i>
   <i type="int" name="DIM">     3</i>
   <i type="int" name="ANTIRES">     0</i>
   <i name="OMEGAMAX">    -30.00000000</i>
   <i name="OMEGAMIN">    -30.00000000</i>
   <i name="OMEGATL">   -200.00000000</i>
   <i type="int" name="OMEGAGRID">     0</i>
   <i name="CSHIFT">     -0.10000000</i>
   <i type="logical" name="SELFENERGY"> F  </i>
   <i type="logical" name="LSPECTRAL"> F  </i>
   <i type="logical" name="LSPECTRALGW"> F  </i>
   <i type="logical" name="LSINGLES"> F  </i>
   <i type="logical" name="LFERMIGW"> F  </i>
   <i type="logical" name="ODDONLYGW"> F  </i>
   <i type="logical" name="EVENONLYGW"> F  </i>
   <i type="int" name="NKREDLFX">     1</i>
   <i type="int" name="NKREDLFY">     1</i>
   <i type="int" name="NKREDLFZ">     1</i>
   <i type="int" name="MAXMEM">  1800</i>
   <i type="int" name="TELESCOPE">     0</i>
   <i type="int" name="TAUPAR">     1</i>
   <i type="int" name="OMEGAPAR">    -1</i>
   <i name="LAMBDA">      1.00000000</i>
  </separator>
  <separator name="External order field" >
   <i name="OFIELD_KAPPA">      0.00000000</i>
   <v name="OFIELD_K">      0.00000000      0.00000000      0.00000000</v>
   <i name="OFIELD_Q6_NEAR">      0.00000000</i>
   <i name="OFIELD_Q6_FAR">      0.00000000</i>
   <i name="OFIELD_A">      0.00000000</i>
  </separator>
 </parameters>
 <atominfo>
  <atoms>      27 </atoms>
  <types>       4 </types>
  <array name="atoms" >
   <dimension dim="1">ion</dimension>
   <field type="string">element</field>
   <field type="int">atomtype</field>
   <set>
    <rc><c>V </c><c>   1</c></rc>
    <rc><c>V </c><c>   1</c></rc>
    <rc><c>V </c><c>   1</c></rc>
    <rc><c>Mo</c><c>   2</c></rc>
    <rc><c>Mo</c><c>   2</c></rc>
    <rc><c>Mo</c><c>   2</c></rc>
    <rc><c>W </c><c>   3</c></rc>
    <rc><c>W </c><c>   3</c></rc>
    <rc><c>W </c><c>   3</c></rc>
    <rc><c>S </c><c>   4</c></rc>
    <rc><c>S </c><c>   4</c></rc>
    <rc><c>S </c><c>   4</c></rc>
    <rc><c>S </c><c>   4</c></rc>
    <rc><c>S </c><c>   4</c></rc>
    <rc><c>S </c><c>   4</c></rc>
    <rc><c>S </c><c>   4</c></rc>
    <rc><c>S </c><c>   4</c></rc>
    <rc><c>S </c><c>   4</c></rc>
    <rc><c>S </c><c>   4</c></rc>
    <rc><c>S </c><c>   4</c></rc>
    <rc><c>S </c><c>   4</c></rc>
    <rc><c>S </c><c>   4</c></rc>
    <rc><c>S </c><c>   4</c></rc>
    <rc><c>S </c><c>   4</c></rc>
    <rc><c>S </c><c>   4</c></rc>
    <rc><c>S </c><c>   4</c></rc>
    <rc><c>S </c><c>   4</c></rc>
   </set>
  </array>
  <array name="atomtypes" >
   <dimension dim="1">type</dimension>
   <field type="int">atomspertype</field>
   <field type="string">element</field>
   <field>mass</field>
   <field>valence</field>
   <field type="string">pseudopotential</field>
   <set>
    <rc><c>   3</c><c>V </c><c>     50.94100000</c><c>      5.00000000</c><c> PAW_PBE V 08Apr2002                    </c></rc>
    <rc><c>   3</c><c>Mo</c><c>     95.94000000</c><c>      6.00000000</c><c> PAW_PBE Mo 08Apr2002                   </c></rc>
    <rc><c>   3</c><c>W </c><c>    183.85000000</c><c>      6.00000000</c><c> PAW_PBE W 08Apr2002                    </c></rc>
    <rc><c>  18</c><c>S </c><c>     32.06600000</c><c>      6.00000000</c><c>  PAW_PBE S 17Jan2003                   </c></rc>
   </set>
  </array>
 </atominfo>
 <structure name="initialpos" >
  <crystal>
   <varray name="basis" >
    <v>       8.66999996       5.03999989       0.00000000 </v>
    <v>      -8.66999982       5.04000013       0.00000000 </v>
    <v>       0.00000000       0.00000000      30.00000000 </v>
   </varray>
   <i name="volume">   2621.80797419 </i>
   <varray name="rec_basis" >
    <v>       0.05767013       0.09920635       0.00000000 </v>
    <v>      -0.05767013       0.09920635       0.00000000 </v>
    <v>       0.00000000       0.00000000       0.03333333 </v>
   </varray>
  </crystal>
  <varray name="positions" >
   <v>       0.66666669       0.66666669       0.00000000 </v>
   <v>       0.66666669       0.33333334       0.00000000 </v>
   <v>       0.33333334       0.00000000       0.00000000 </v>
   <v>       0.33333334       0.66666669       0.00000000 </v>
   <v>       0.33333334       0.33333334       0.00000000 </v>
   <v>       0.66666669       0.00000000       0.00000000 </v>
   <v>       0.00000000       0.00000000       0.00000000 </v>
   <v>       1.00000000       0.33333334       0.00000000 </v>
   <v>       0.00000000       0.66666669       0.00000000 </v>
   <v>       0.11068511       0.22244981       0.95539999 </v>
   <v>       0.22244981       0.11068511       0.04460000 </v>
   <v>       0.11068511       0.55578315       0.95539999 </v>
   <v>       0.22244981       0.44401845       0.04460000 </v>
   <v>       0.11068511       0.88911647       0.95539999 </v>
   <v>       0.22244981       0.77735180       0.04460000 </v>
   <v>       0.44401845       0.22244981       0.95539999 </v>
   <v>       0.55578315       0.11068511       0.04460000 </v>
   <v>       0.44401845       0.55578315       0.95539999 </v>
   <v>       0.55578315       0.44401845       0.04460000 </v>
   <v>       0.44401845       0.88911647       0.95539999 </v>
   <v>       0.55578315       0.77735180       0.04460000 </v>
   <v>       0.77735180       0.22244981       0.95539999 </v>
   <v>       0.88911647       0.11068511       0.04460000 </v>
   <v>       0.77735180       0.55578315       0.95539999 </v>
   <v>       0.88911647       0.44401845       0.04460000 </v>
   <v>       0.77735180       0.88911647       0.95539999 </v>
   <v>       0.88911647       0.77735180       0.04460000 </v>
  </varray>
 </structure>
 <calculation>
  <scstep>
   <time name="dav">   21.91   21.96</time>
   <time name="total">   21.96   22.02</time>
   <energy>
    <i name="alphaZ">     81.65567618 </i>
    <i name="ewald">  41890.23010356 </i>
    <i name="hartreedc"> -47722.87366597 </i>
    <i name="XCdc">   -242.92712329 </i>
    <i name="pawpsdc">   3467.42045192 </i>
    <i name="pawaedc">  -2871.19716117 </i>
    <i name="eentropy">     -0.54884828 </i>
    <i name="bandstr">   -239.13970588 </i>
    <i name="atom">   6761.44252427 </i>
    <i name="e_fr_energy">   1124.06225134 </i>
    <i name="e_wo_entrp">   1124.61109962 </i>
    <i name="e_0_energy">   1124.33667548 </i>
   </energy>
  </scstep>
  <scstep>
   <time name="dav">   27.76   27.83</time>
   <time name="total">   27.76   27.84</time>
   <energy>
    <i name="e_fr_energy">     -2.17287225 </i>
    <i name="e_wo_entrp">     -1.99754283 </i>
    <i name="e_0_energy">     -2.08520754 </i>
   </energy>
  </scstep>
  <scstep>
   <time name="dav">   27.83   27.89</time>
   <time name="total">   27.83   27.90</time>
   <energy>
    <i name="e_fr_energy">   -199.81324377 </i>
    <i name="e_wo_entrp">   -199.55859742 </i>
    <i name="e_0_energy">   -199.68592060 </i>
   </energy>
  </scstep>
  <scstep>
   <time name="dav">   29.63   29.70</time>
   <time name="total">   29.63   29.71</time>
   <energy>
    <i name="e_fr_energy">   -208.95736644 </i>
    <i name="e_wo_entrp">   -208.65313748 </i>
    <i name="e_0_energy">   -208.80525196 </i>
   </energy>
  </scstep>
  <scstep>
   <time name="dav">   29.57   29.64</time>
   <time name="total">   30.03   30.11</time>
   <energy>
    <i name="e_fr_energy">   -209.32460094 </i>
    <i name="e_wo_entrp">   -209.02310067 </i>
    <i name="e_0_energy">   -209.17385081 </i>
   </energy>
  </scstep>
  <scstep>
   <time name="dav">   30.99   31.06</time>
   <time name="total">   31.49   31.59</time>
   <energy>
    <i name="e_fr_energy">   -237.12035600 </i>
    <i name="e_wo_entrp">   -236.84015069 </i>
    <i name="e_0_energy">   -236.98025334 </i>
   </energy>
  </scstep>
  <scstep>
   <time name="dav">   32.80   32.88</time>
   <time name="total">   33.31   33.40</time>
   <energy>
    <i name="e_fr_energy">   -196.42352815 </i>
    <i name="e_wo_entrp">   -196.10364024 </i>
    <i name="e_0_energy">   -196.26358420 </i>
   </energy>
  </scstep>
  <scstep>
   <time name="dav">   30.07   30.14</time>
   <time name="total">   30.58   30.68</time>
   <energy>
    <i name="e_fr_energy">   -189.40069814 </i>
    <i name="e_wo_entrp">   -189.10938873 </i>
    <i name="e_0_energy">   -189.25504343 </i>
   </energy>
  </scstep>
  <scstep>
   <time name="dav">   31.92   32.00</time>
   <time name="total">   32.44   32.53</time>
   <energy>
    <i name="e_fr_energy">   -188.16677229 </i>
    <i name="e_wo_entrp">   -187.82896626 </i>
    <i name="e_0_energy">   -187.99786927 </i>
   </energy>
  </scstep>
  <scstep>
   <time name="dav">   32.87   32.95</time>
   <time name="total">   33.40   33.49</time>
   <energy>
    <i name="e_fr_energy">   -186.99891141 </i>
    <i name="e_wo_entrp">   -186.65155983 </i>
    <i name="e_0_energy">   -186.82523562 </i>
   </energy>
  </scstep>
  <scstep>
   <time name="dav">   32.79   32.87</time>
   <time name="total">   33.32   33.41</time>
   <energy>
    <i name="e_fr_energy">   -186.96871567 </i>
    <i name="e_wo_entrp">   -186.61890399 </i>
    <i name="e_0_energy">   -186.79380983 </i>
   </energy>
  </scstep>
  <scstep>
   <time name="dav">   30.13   30.21</time>
   <time name="total">   30.67   30.75</time>
   <energy>
    <i name="e_fr_energy">   -187.09630800 </i>
    <i name="e_wo_entrp">   -186.75659807 </i>
    <i name="e_0_energy">   -186.92645303 </i>
   </energy>
  </scstep>
  <scstep>
   <time name="dav">   31.97   32.04</time>
   <time name="total">   32.50   32.59</time>
   <energy>
    <i name="e_fr_energy">   -186.87986940 </i>
    <i name="e_wo_entrp">   -186.54326722 </i>
    <i name="e_0_energy">   -186.71156831 </i>
   </energy>
  </scstep>
  <scstep>
   <time name="dav">   32.91   32.99</time>
   <time name="total">   33.44   33.53</time>
   <energy>
    <i name="e_fr_energy">   -186.85614988 </i>
    <i name="e_wo_entrp">   -186.51169508 </i>
    <i name="e_0_energy">   -186.68392248 </i>
   </energy>
  </scstep>
  <scstep>
   <time name="dav">   30.13   30.20</time>
   <time name="total">   30.67   30.75</time>
   <energy>
    <i name="e_fr_energy">   -186.83530458 </i>
    <i name="e_wo_entrp">   -186.48845238 </i>
    <i name="e_0_energy">   -186.66187848 </i>
   </energy>
  </scstep>
  <scstep>
   <time name="dav">   29.92   29.99</time>
   <time name="total">   30.45   30.53</time>
   <energy>
    <i name="e_fr_energy">   -186.82783144 </i>
    <i name="e_wo_entrp">   -186.48102929 </i>
    <i name="e_0_energy">   -186.65443036 </i>
   </energy>
  </scstep>
  <scstep>
   <time name="dav">   31.01   31.08</time>
   <time name="total">   31.54   31.63</time>
   <energy>
    <i name="e_fr_energy">   -186.82594178 </i>
    <i name="e_wo_entrp">   -186.48116282 </i>
    <i name="e_0_energy">   -186.65355230 </i>
   </energy>
  </scstep>
  <scstep>
   <time name="dav">   29.08   29.15</time>
   <time name="total">   29.62   29.69</time>
   <energy>
    <i name="e_fr_energy">   -186.82549129 </i>
    <i name="e_wo_entrp">   -186.48044645 </i>
    <i name="e_0_energy">   -186.65296887 </i>
   </energy>
  </scstep>
  <scstep>
   <time name="dav">   27.51   27.57</time>
   <time name="total">   28.04   28.12</time>
   <energy>
    <i name="e_fr_energy">   -186.82514161 </i>
    <i name="e_wo_entrp">   -186.47981521 </i>
    <i name="e_0_energy">   -186.65247841 </i>
   </energy>
  </scstep>
  <scstep>
   <time name="dav">   24.19   24.24</time>
   <time name="total">   24.72   24.79</time>
   <energy>
    <i name="e_fr_energy">   -186.82587537 </i>
    <i name="e_wo_entrp">   -186.48072404 </i>
    <i name="e_0_energy">   -186.65329970 </i>
   </energy>
  </scstep>
  <scstep>
   <time name="dav">   21.53   21.58</time>
   <time name="total">   22.06   22.12</time>
   <energy>
    <i name="e_fr_energy">   -186.82646813 </i>
    <i name="e_wo_entrp">   -186.48149161 </i>
    <i name="e_0_energy">   -186.65397987 </i>
   </energy>
  </scstep>
  <scstep>
   <time name="dav">   20.98   21.03</time>
   <time name="total">   21.51   21.57</time>
   <energy>
    <i name="e_fr_energy">   -186.82764134 </i>
    <i name="e_wo_entrp">   -186.48249202 </i>
    <i name="e_0_energy">   -186.65506668 </i>
   </energy>
  </scstep>
  <scstep>
   <time name="dav">   20.49   20.54</time>
   <time name="total">   21.03   21.09</time>
   <energy>
    <i name="e_fr_energy">   -186.82886080 </i>
    <i name="e_wo_entrp">   -186.48382660 </i>
    <i name="e_0_energy">   -186.65634370 </i>
   </energy>
  </scstep>
  <scstep>
   <time name="dav">   18.88   18.93</time>
   <time name="total">   19.42   19.48</time>
   <energy>
    <i name="e_fr_energy">   -186.82945140 </i>
    <i name="e_wo_entrp">   -186.48439844 </i>
    <i name="e_0_energy">   -186.65692492 </i>
   </energy>
  </scstep>
  <scstep>
   <time name="dav">   17.09   17.13</time>
   <time name="total">   17.62   17.67</time>
   <energy>
    <i name="e_fr_energy">   -186.82981457 </i>
    <i name="e_wo_entrp">   -186.48472182 </i>
    <i name="e_0_energy">   -186.65726819 </i>
   </energy>
  </scstep>
  <scstep>
   <time name="dav">   19.21   19.26</time>
   <time name="total">   19.74   19.80</time>
   <energy>
    <i name="e_fr_energy">   -186.83004925 </i>
    <i name="e_wo_entrp">   -186.48497359 </i>
    <i name="e_0_energy">   -186.65751142 </i>
   </energy>
  </scstep>
  <scstep>
   <time name="dav">   20.02   20.07</time>
   <time name="total">   20.56   20.62</time>
   <energy>
    <i name="e_fr_energy">   -186.83015183 </i>
    <i name="e_wo_entrp">   -186.48507359 </i>
    <i name="e_0_energy">   -186.65761271 </i>
   </energy>
  </scstep>
  <scstep>
   <time name="dav">   20.31   20.36</time>
   <time name="total">   20.35   20.41</time>
   <energy>
    <i name="alphaZ">     81.65567618 </i>
    <i name="ewald">  41890.23010356 </i>
    <i name="hartreedc"> -47832.85881374 </i>
    <i name="XCdc">   -231.61139802 </i>
    <i name="pawpsdc">   4192.00334880 </i>
    <i name="pawaedc">  -3610.00558568 </i>
    <i name="eentropy">     -0.34507550 </i>
    <i name="bandstr">  -1437.34097262 </i>
    <i name="atom">   6761.44252427 </i>
    <i name="e_fr_energy">   -186.83019276 </i>
    <i name="e_wo_entrp">   -186.48511726 </i>
    <i name="e_0_energy">   -186.65765501 </i>
   </energy>
  </scstep>
  <structure>
   <crystal>
    <varray name="basis" >
     <v>       8.66999996       5.03999989       0.00000000 </v>
     <v>      -8.66999982       5.04000013       0.00000000 </v>
     <v>       0.00000000       0.00000000      30.00000000 </v>
    </varray>
    <i name="volume">   2621.80797419 </i>
    <varray name="rec_basis" >
     <v>       0.05767013       0.09920635       0.00000000 </v>
     <v>      -0.05767013       0.09920635       0.00000000 </v>
     <v>       0.00000000       0.00000000       0.03333333 </v>
    </varray>
   </crystal>
   <varray name="positions" >
    <v>       0.66666669       0.66666669       0.00000000 </v>
    <v>       0.66666669       0.33333334       0.00000000 </v>
    <v>       0.33333334       0.00000000       0.00000000 </v>
    <v>       0.33333334       0.66666669       0.00000000 </v>
    <v>       0.33333334       0.33333334       0.00000000 </v>
    <v>       0.66666669       0.00000000       0.00000000 </v>
    <v>       0.00000000       0.00000000       0.00000000 </v>
    <v>       1.00000000       0.33333334       0.00000000 </v>
    <v>       0.00000000       0.66666669       0.00000000 </v>
    <v>       0.11068511       0.22244981       0.95539999 </v>
    <v>       0.22244981       0.11068511       0.04460000 </v>
    <v>       0.11068511       0.55578315       0.95539999 </v>
    <v>       0.22244981       0.44401845       0.04460000 </v>
    <v>       0.11068511       0.88911647       0.95539999 </v>
    <v>       0.22244981       0.77735180       0.04460000 </v>
    <v>       0.44401845       0.22244981       0.95539999 </v>
    <v>       0.55578315       0.11068511       0.04460000 </v>
    <v>       0.44401845       0.55578315       0.95539999 </v>
    <v>       0.55578315       0.44401845       0.04460000 </v>
    <v>       0.44401845       0.88911647       0.95539999 </v>
    <v>       0.55578315       0.77735180       0.04460000 </v>
    <v>       0.77735180       0.22244981       0.95539999 </v>
    <v>       0.88911647       0.11068511       0.04460000 </v>
    <v>       0.77735180       0.55578315       0.95539999 </v>
    <v>       0.88911647       0.44401845       0.04460000 </v>
    <v>       0.77735180       0.88911647       0.95539999 </v>
    <v>       0.88911647       0.77735180       0.04460000 </v>
   </varray>
  </structure>
  <varray name="forces" >
   <v>      -0.35815194      -0.28165148      -0.09282845 </v>
   <v>      -0.09006308      -0.26753527      -0.00951291 </v>
   <v>       0.22349294       0.19781068       0.10128406 </v>
   <v>       0.25099172       0.14409381       0.09689371 </v>
   <v>      -0.19205846       0.16239244       0.00901216 </v>
   <v>      -0.01919925      -0.28346283      -0.00167515 </v>
   <v>      -0.24269985       0.13998427      -0.10108023 </v>
   <v>       0.25204965       0.12872287      -0.02092932 </v>
   <v>       0.21614929       0.10352920      -0.02358158 </v>
   <v>       0.05152695      -0.15522040      -2.95349834 </v>
   <v>       0.69309161      -0.14559609       2.10019591 </v>
   <v>       0.05260846      -0.15346940      -2.88634848 </v>
   <v>      -0.22663001      -0.14055193       2.91154249 </v>
   <v>       0.45062413       0.56227136      -2.15188749 </v>
   <v>      -0.62233700       0.56492887       2.18138032 </v>
   <v>       0.89284315       0.00252586      -1.45620966 </v>
   <v>      -0.91251116      -0.02908562       1.49065864 </v>
   <v>       0.55336852       0.71827918      -2.18664688 </v>
   <v>       0.32415950       0.66111083       1.41947926 </v>
   <v>      -0.74368520       0.00940571      -2.10661708 </v>
   <v>       0.72722209      -0.00995047       2.13800457 </v>
   <v>      -0.65484330       0.15817150      -2.07453223 </v>
   <v>      -0.08679732       0.13979299       2.91071585 </v>
   <v>      -0.25360107      -0.51608181      -1.40973421 </v>
   <v>      -0.46257358      -0.56947566       2.16551076 </v>
   <v>       0.63913950      -0.56427353      -2.17069758 </v>
   <v>      -0.46211629      -0.57666509       2.12110188 </v>
  </varray>
  <varray name="stress" >
   <v>       7.44833671      -0.05588954      -1.64573303 </v>
   <v>      -0.05588957       4.27486405      -0.13651293 </v>
   <v>      -1.64573284      -0.13651301      30.33681919 </v>
  </varray>
  <energy>
   <i name="e_fr_energy">   -186.83019276 </i>
   <i name="e_wo_entrp">   -186.65765501 </i>
   <i name="e_0_energy">     -0.34507550 </i>
  </energy>
  <time name="totalsc">  807.97  810.19</time>
 </calculation>
 <calculation>
  <scstep>
   <time name="dav">   21.88   21.93</time>
   <time name="total">   22.42   22.48</time>
   <energy>
    <i name="alphaZ">     78.92874580 </i>
    <i name="ewald">  39382.88674753 </i>
    <i name="hartreedc"> -45340.38506296 </i>
    <i name="XCdc">   -239.06587073 </i>
    <i name="pawpsdc">   4192.00386087 </i>
    <i name="pawaedc">  -3610.00608863 </i>
    <i name="eentropy">     -0.28492807 </i>
    <i name="bandstr">  -1412.97994609 </i>
    <i name="atom">   6761.44252427 </i>
    <i name="e_fr_energy">   -187.46001800 </i>
    <i name="e_wo_entrp">   -187.17508994 </i>
    <i name="e_0_energy">   -187.31755397 </i>
   </energy>
  </scstep>
  <scstep>
   <time name="dav">   30.61   30.68</time>
   <time name="total">   31.15   31.23</time>
   <energy>
    <i name="e_fr_energy">   -189.37187469 </i>
    <i name="e_wo_entrp">   -189.04934881 </i>
    <i name="e_0_energy">   -189.21061175 </i>
   </energy>
  </scstep>
  <scstep>
   <time name="dav">   30.74   30.82</time>
   <time name="total">   31.29   31.38</time>
   <energy>
    <i name="e_fr_energy">   -189.33281503 </i>
    <i name="e_wo_entrp">   -189.05351989 </i>
    <i name="e_0_energy">   -189.19316746 </i>
   </energy>
  </scstep>
  <scstep>
   <time name="dav">   30.97   31.04</time>
   <time name="total">   31.51   31.59</time>
   <energy>
    <i name="e_fr_energy">   -188.72638527 </i>
    <i name="e_wo_entrp">   -188.44126623 </i>
    <i name="e_0_energy">   -188.58382575 </i>
   </energy>
  </scstep>
  <scstep>
   <time name="dav">   29.03   29.10</time>
   <time name="total">   29.58   29.65</time>
   <energy>
    <i name="e_fr_energy">   -188.74123346 </i>
    <i name="e_wo_entrp">   -188.45213343 </i>
    <i name="e_0_energy">   -188.59668344 </i>
   </energy>
  </scstep>
  <scstep>
   <time name="dav">   31.06   31.13</time>
   <time name="total">   31.60   31.69</time>
   <energy>
    <i name="e_fr_energy">   -188.73510989 </i>
    <i name="e_wo_entrp">   -188.44426012 </i>
    <i name="e_0_energy">   -188.58968501 </i>
   </energy>
  </scstep>
  <scstep>
   <time name="dav">   30.78   30.85</time>
   <time name="total">   31.33   31.41</time>
   <energy>
    <i name="e_fr_energy">   -188.66044672 </i>
    <i name="e_wo_entrp">   -188.37547721 </i>
    <i name="e_0_energy">   -188.51796196 </i>
   </energy>
  </scstep>
  <scstep>
   <time name="dav">   30.85   30.93</time>
   <time name="total">   31.40   31.48</time>
   <energy>
    <i name="e_fr_energy">   -188.64004168 </i>
    <i name="e_wo_entrp">   -188.35446205 </i>
    <i name="e_0_energy">   -188.49725186 </i>
   </energy>
  </scstep>
  <scstep>
   <time name="dav">   29.97   30.04</time>
   <time name="total">   30.52   30.60</time>
   <energy>
    <i name="e_fr_energy">   -188.63741098 </i>
    <i name="e_wo_entrp">   -188.35286275 </i>
    <i name="e_0_energy">   -188.49513687 </i>
   </energy>
  </scstep>
  <scstep>
   <time name="dav">   31.73   31.80</time>
   <time name="total">   32.27   32.36</time>
   <energy>
    <i name="e_fr_energy">   -188.63472728 </i>
    <i name="e_wo_entrp">   -188.34961218 </i>
    <i name="e_0_energy">   -188.49216973 </i>
   </energy>
  </scstep>
  <scstep>
   <time name="dav">   31.62   31.69</time>
   <time name="total">   32.16   32.25</time>
   <energy>
    <i name="e_fr_energy">   -188.63430216 </i>
    <i name="e_wo_entrp">   -188.34991844 </i>
    <i name="e_0_energy">   -188.49211030 </i>
   </energy>
  </scstep>
  <scstep>
   <time name="dav">   29.69   29.77</time>
   <time name="total">   29.73   29.81</time>
   <energy>
    <i name="alphaZ">     78.92874580 </i>
    <i name="ewald">  39382.88674753 </i>
    <i name="hartreedc"> -45351.29512821 </i>
    <i name="XCdc">   -237.97598731 </i>
    <i name="pawpsdc">   3952.38227398 </i>
    <i name="pawaedc">  -3366.90678674 </i>
    <i name="eentropy">     -0.28420427 </i>
    <i name="bandstr">  -1407.81256412 </i>
    <i name="atom">   6761.44252427 </i>
    <i name="e_fr_energy">   -188.63437907 </i>
    <i name="e_wo_entrp">   -188.35017480 </i>
    <i name="e_0_energy">   -188.49227693 </i>
   </energy>
  </scstep>
  <structure>
   <crystal>
    <varray name="basis" >
     <v>       8.85799120       5.10157875       0.00000000 </v>
     <v>      -8.85963827       5.10441258       0.00000000 </v>
     <v>       0.00000000       0.00000000      30.00000000 </v>
    </varray>
    <i name="volume">   2712.38952011 </i>
    <varray name="rec_basis" >
     <v>       0.05645663       0.09799077       0.00000000 </v>
     <v>      -0.05642529       0.09797256       0.00000000 </v>
     <v>       0.00000000       0.00000000       0.03333333 </v>
    </varray>
   </crystal>
   <varray name="positions" >
    <v>       0.66432227       0.66631514      -0.00014928 </v>
    <v>       0.66513570       0.33230350      -0.00001530 </v>
    <v>       0.33490185       0.00032492       0.00016287 </v>
    <v>       0.33472127       0.66665802       0.00015581 </v>
    <v>       0.33357621       0.33464489       0.00001449 </v>
    <v>       0.66525662      -0.00130323      -0.00000269 </v>
    <v>      -0.00000527       0.00134519      -0.00016255 </v>
    <v>       1.00131731       0.33324817      -0.00003366 </v>
    <v>       0.00109685       0.66656081      -0.00003792 </v>
    <v>       0.11008558       0.22156357       0.95065050 </v>
    <v>       0.22368128       0.10806000       0.04797730 </v>
    <v>       0.11009697       0.55490229       0.95075849 </v>
    <v>       0.22114661       0.44397630       0.04928202 </v>
    <v>       0.11462984       0.89055378       0.95193956 </v>
    <v>       0.22342211       0.78178697       0.04810785 </v>
    <v>       0.44651457       0.21997787       0.95305828 </v>
    <v>       0.55310520       0.11308466       0.04699711 </v>
    <v>       0.44899568       0.55768126       0.95188367 </v>
    <v>       0.55984908       0.44628065       0.04688265 </v>
    <v>       0.44199442       0.89123053       0.95201236 </v>
    <v>       0.55775878       0.77528093       0.04803810 </v>
    <v>       0.77628692       0.22502869       0.95206396 </v>
    <v>       0.88954403       0.11159564       0.04928069 </v>
    <v>       0.77417628       0.55401876       0.95313301 </v>
    <v>       0.88510401       0.44257991       0.04808233 </v>
    <v>       0.77642938       0.88463768       0.95190932 </v>
    <v>       0.88507088       0.77587757       0.04801092 </v>
   </varray>
  </structure>
  <varray name="forces" >
   <v>      -0.34377616      -0.22516028      -0.01721859 </v>
   <v>      -0.04436051      -0.19298345      -0.07278054 </v>
   <v>       0.22284910       0.11432938       0.02418136 </v>
   <v>       0.18287303      -0.01429170       0.02195850 </v>
   <v>      -0.46032843      -0.05851715       0.06903621 </v>
   <v>       0.11768340      -0.20080287      -0.07164266 </v>
   <v>      -0.37705272       0.21755053       0.06947483 </v>
   <v>       0.38318222       0.18042375      -0.00712879 </v>
   <v>       0.28907944       0.11482839       0.01197501 </v>
   <v>      -0.07659382      -0.10017504      -0.15276091 </v>
   <v>      -0.02516249      -0.10613471      -0.08944171 </v>
   <v>      -0.05923930      -0.08798695      -0.00781448 </v>
   <v>      -0.06318289      -0.09161917       0.18451609 </v>
   <v>      -0.04961538      -0.04730747       0.13910171 </v>
   <v>      -0.07204987      -0.04036382       0.02119048 </v>
   <v>       0.02956168       0.01082330       0.10232645 </v>
   <v>      -0.04347174      -0.01631678       0.01942565 </v>
   <v>       0.03898694       0.09120634      -0.16416570 </v>
   <v>       0.00208450       0.04502321      -0.07000915 </v>
   <v>      -0.05624217      -0.00178775      -0.05327321 </v>
   <v>       0.07056001      -0.00575892       0.17197113 </v>
   <v>       0.01310548       0.09830559       0.11765943 </v>
   <v>       0.06945394       0.09951410      -0.00312333 </v>
   <v>       0.05572023       0.07535100       0.18841533 </v>
   <v>       0.05105650       0.05954942      -0.14322926 </v>
   <v>       0.09062293       0.03126118      -0.01730023 </v>
   <v>       0.05425606       0.05103986      -0.27134360 </v>
  </varray>
  <varray name="stress" >
   <v>     -19.98059698      -0.01512002       0.06130229 </v>
   <v>      -0.01512022     -19.53321767      -0.06109173 </v>
   <v>       0.06130207      -0.06109160      -1.72686371 </v>
  </varray>
  <energy>
   <i name="e_fr_energy">   -188.63437907 </i>
   <i name="e_wo_entrp">   -188.49227693 </i>
   <i name="e_0_energy">     -0.28420427 </i>
  </energy>
  <time name="totalsc">  407.34  408.41</time>
 </calculation>
 <calculation>
  <scstep>
   <time name="dav">   24.09   24.14</time>
   <time name="total">   24.62   24.68</time>
   <energy>
    <i name="alphaZ">     82.37034041 </i>
    <i name="ewald">  41315.66106177 </i>
    <i name="hartreedc"> -47314.77946979 </i>
    <i name="XCdc">   -233.83794552 </i>
    <i name="pawpsdc">   3950.17386031 </i>
    <i name="pawaedc">  -3364.67442675 </i>
    <i name="eentropy">     -0.23652648 </i>
    <i name="bandstr">  -1386.68217630 </i>
    <i name="atom">   6761.44252427 </i>
    <i name="e_fr_energy">   -190.56275808 </i>
    <i name="e_wo_entrp">   -190.32623161 </i>
    <i name="e_0_energy">   -190.44449485 </i>
   </energy>
  </scstep>
  <scstep>
   <time name="dav">   28.56   28.63</time>
   <time name="total">   29.08   29.16</time>
   <energy>
    <i name="e_fr_energy">   -190.55146710 </i>
    <i name="e_wo_entrp">   -190.31204893 </i>
    <i name="e_0_energy">   -190.43175801 </i>
   </energy>
  </scstep>
  <scstep>
   <time name="dav">   30.45   30.53</time>
   <time name="total">   30.98   31.07</time>
   <energy>
    <i name="e_fr_energy">   -190.03209518 </i>
    <i name="e_wo_entrp">   -189.78349821 </i>
    <i name="e_0_energy">   -189.90779669 </i>
   </energy>
  </scstep>
  <scstep>
   <time name="dav">   31.71   31.78</time>
   <time name="total">   32.24   32.33</time>
   <energy>
    <i name="e_fr_energy">   -189.82450303 </i>
    <i name="e_wo_entrp">   -189.58739967 </i>
    <i name="e_0_energy">   -189.70595135 </i>
   </energy>
  </scstep>
  <scstep>
   <time name="dav">   28.50   28.56</time>
   <time name="total">   29.03   29.11</time>
   <energy>
    <i name="e_fr_energy">   -189.74028523 </i>
    <i name="e_wo_entrp">   -189.49826396 </i>
    <i name="e_0_energy">   -189.61927460 </i>
   </energy>
  </scstep>
  <scstep>
   <time name="dav">   29.76   29.83</time>
   <time name="total">   30.30   30.38</time>
   <energy>
    <i name="e_fr_energy">   -189.72644681 </i>
    <i name="e_wo_entrp">   -189.48776287 </i>
    <i name="e_0_energy">   -189.60710484 </i>
   </energy>
  </scstep>
  <scstep>
   <time name="dav">   30.30   30.37</time>
   <time name="total">   30.83   30.92</time>
   <energy>
    <i name="e_fr_energy">   -189.72066235 </i>
    <i name="e_wo_entrp">   -189.48106539 </i>
    <i name="e_0_energy">   -189.60086387 </i>
   </energy>
  </scstep>
  <scstep>
   <time name="dav">   27.97   28.04</time>
   <time name="total">   28.50   28.58</time>
   <energy>
    <i name="e_fr_energy">   -189.72051677 </i>
    <i name="e_wo_entrp">   -189.48119448 </i>
    <i name="e_0_energy">   -189.60085562 </i>
   </energy>
  </scstep>
  <scstep>
   <time name="dav">   26.34   26.40</time>
   <time name="total">   26.88   26.95</time>
   <energy>
    <i name="e_fr_energy">   -189.72077723 </i>
    <i name="e_wo_entrp">   -189.48126202 </i>
    <i name="e_0_energy">   -189.60101962 </i>
   </energy>
  </scstep>
  <scstep>
   <time name="dav">   26.85   26.92</time>
   <time name="total">   27.39   27.46</time>
   <energy>
    <i name="e_fr_energy">   -189.72114441 </i>
    <i name="e_wo_entrp">   -189.48166443 </i>
    <i name="e_0_energy">   -189.60140442 </i>
   </energy>
  </scstep>
  <scstep>
   <time name="dav">   24.32   24.38</time>
   <time name="total">   24.86   24.92</time>
   <energy>
    <i name="e_fr_energy">   -189.72057296 </i>
    <i name="e_wo_entrp">   -189.48104755 </i>
    <i name="e_0_energy">   -189.60081025 </i>
   </energy>
  </scstep>
  <scstep>
   <time name="dav">   16.94   16.98</time>
   <time name="total">   16.98   17.03</time>
   <energy>
    <i name="alphaZ">     82.37034041 </i>
    <i name="ewald">  41315.66106177 </i>
    <i name="hartreedc"> -47287.99650624 </i>
    <i name="XCdc">   -235.23878913 </i>
    <i name="pawpsdc">   4038.99583483 </i>
    <i name="pawaedc">  -3454.69849231 </i>
    <i name="eentropy">     -0.23946191 </i>
    <i name="bandstr">  -1410.01710515 </i>
    <i name="atom">   6761.44252427 </i>
    <i name="e_fr_energy">   -189.72059346 </i>
    <i name="e_wo_entrp">   -189.48113155 </i>
    <i name="e_0_energy">   -189.60086251 </i>
   </energy>
  </scstep>
  <structure>
   <crystal>
    <varray name="basis" >
     <v>       8.66876493       4.99494119       0.00000000 </v>
     <v>      -8.67054174       4.99800216       0.00000000 </v>
     <v>       0.00000000       0.00000000      30.00000000 </v>
    </varray>
    <i name="volume">   2599.06055849 </i>
    <varray name="rec_basis" >
     <v>       0.05769010       0.10008087       0.00000000 </v>
     <v>      -0.05765477       0.10006036       0.00000000 </v>
     <v>       0.00000000       0.00000000       0.03333333 </v>
    </varray>
   </crystal>
   <varray name="positions" >
    <v>       0.66361542       0.66626978      -0.00015906 </v>
    <v>       0.66477070       0.33202391      -0.00005665 </v>
    <v>       0.33530724       0.00030152       0.00017661 </v>
    <v>       0.33487337       0.66645828       0.00016829 </v>
    <v>       0.33303553       0.33498988       0.00005371 </v>
    <v>       0.66503449      -0.00175172      -0.00004340 </v>
    <v>      -0.00000474       0.00207108      -0.00012308 </v>
    <v>       1.00198736       0.33318093      -0.00003771 </v>
    <v>       0.00156680       0.66647455      -0.00003112 </v>
    <v>       0.10984458       0.22146996       0.95056372 </v>
    <v>       0.22347981       0.10790697       0.04792648 </v>
    <v>       0.10989302       0.55481233       0.95075405 </v>
    <v>       0.22093279       0.44388407       0.04938685 </v>
    <v>       0.11450308       0.89052250       0.95201859 </v>
    <v>       0.22328536       0.78178886       0.04811989 </v>
    <v>       0.44656110       0.21996751       0.95311641 </v>
    <v>       0.55303612       0.11309922       0.04700815 </v>
    <v>       0.44918552       0.55779607       0.95179040 </v>
    <v>       0.55992628       0.44635383       0.04684287 </v>
    <v>       0.44193731       0.89128164       0.95198210 </v>
    <v>       0.55781706       0.77520345       0.04813580 </v>
    <v>       0.77646372       0.22518024       0.95213080 </v>
    <v>       0.88977706       0.11169502       0.04927891 </v>
    <v>       0.77435575       0.55409099       0.95324006 </v>
    <v>       0.88525260       0.44263025       0.04800096 </v>
    <v>       0.77656880       0.88460273       0.95189949 </v>
    <v>       0.88520833       0.77591062       0.04785676 </v>
   </varray>
  </structure>
  <varray name="forces" >
   <v>      -0.34774597      -0.18595168       0.00385025 </v>
   <v>      -0.01040046      -0.15204233      -0.07325407 </v>
   <v>       0.22482741       0.05261093      -0.00144991 </v>
   <v>       0.14552377      -0.07636291       0.00036701 </v>
   <v>      -0.53671379      -0.14666708       0.05801518 </v>
   <v>       0.15861620      -0.16033304      -0.06916630 </v>
   <v>      -0.42056159       0.25088542       0.08596400 </v>
   <v>       0.42720188       0.19661918      -0.00522983 </v>
   <v>       0.31715753       0.12125319       0.01734492 </v>
   <v>      -0.03295927      -0.02506967      -0.74831688 </v>
   <v>       0.08758400      -0.03082161       0.40179739 </v>
   <v>      -0.00664575      -0.01838896      -0.57169846 </v>
   <v>      -0.03186541      -0.01824986       0.76004303 </v>
   <v>       0.01740161       0.08915511      -0.35332603 </v>
   <v>      -0.05644642       0.10471923       0.53380400 </v>
   <v>       0.08703274       0.00524209      -0.33133720 </v>
   <v>      -0.11101544      -0.00961174       0.47569781 </v>
   <v>       0.07086245       0.14516848      -0.66908899 </v>
   <v>       0.03941108       0.10536171       0.37375825 </v>
   <v>      -0.12964678      -0.01053267      -0.53919825 </v>
   <v>       0.14579775      -0.00351918       0.67397631 </v>
   <v>      -0.09271254       0.03664721      -0.35915387 </v>
   <v>       0.01405216       0.02885668       0.55931527 </v>
   <v>      -0.02178181      -0.05595279      -0.26187748 </v>
   <v>      -0.01281594      -0.07530900       0.35558852 </v>
   <v>       0.09363138      -0.09696762      -0.52609293 </v>
   <v>      -0.01778878      -0.07073910       0.20966825 </v>
  </varray>
  <varray name="stress" >
   <v>     -10.17594097       0.02985270       0.07076142 </v>
   <v>       0.02985243      -9.77140405      -0.03633856 </v>
   <v>       0.07076135      -0.03633857       6.53662606 </v>
  </varray>
  <energy>
   <i name="e_fr_energy">   -189.72059346 </i>
   <i name="e_wo_entrp">   -189.60086251 </i>
   <i name="e_0_energy">     -0.23946191 </i>
  </energy>
  <time name="totalsc">  374.16  375.15</time>
 </calculation>
 <calculation>
  <scstep>
   <time name="dav">   21.84   21.89</time>
   <time name="total">   22.36   22.41</time>
   <energy>
    <i name="alphaZ">     85.82670462 </i>
    <i name="ewald">  42833.78292747 </i>
    <i name="hartreedc"> -48850.45286162 </i>
    <i name="XCdc">   -232.98051326 </i>
    <i name="pawpsdc">   4039.01260220 </i>
    <i name="pawaedc">  -3454.71247846 </i>
    <i name="eentropy">     -0.19652580 </i>
    <i name="bandstr">  -1372.97608282 </i>
    <i name="atom">   6761.44252427 </i>
    <i name="e_fr_energy">   -191.25370339 </i>
    <i name="e_wo_entrp">   -191.05717759 </i>
    <i name="e_0_energy">   -191.15544049 </i>
   </energy>
  </scstep>
  <scstep>
   <time name="dav">   32.66   32.73</time>
   <time name="total">   33.17   33.26</time>
   <energy>
    <i name="e_fr_energy">   -191.13854287 </i>
    <i name="e_wo_entrp">   -190.93587932 </i>
    <i name="e_0_energy">   -191.03721109 </i>
   </energy>
  </scstep>
  <scstep>
   <time name="dav">   30.26   30.33</time>
   <time name="total">   30.77   30.85</time>
   <energy>
    <i name="e_fr_energy">   -191.17975158 </i>
    <i name="e_wo_entrp">   -190.96320215 </i>
    <i name="e_0_energy">   -191.07147686 </i>
   </energy>
  </scstep>
  <scstep>
   <time name="dav">   31.09   31.17</time>
   <time name="total">   31.62   31.70</time>
   <energy>
    <i name="e_fr_energy">   -190.82621922 </i>
    <i name="e_wo_entrp">   -190.62207954 </i>
    <i name="e_0_energy">   -190.72414938 </i>
   </energy>
  </scstep>
  <scstep>
   <time name="dav">   29.77   29.85</time>
   <time name="total">   30.29   30.37</time>
   <energy>
    <i name="e_fr_energy">   -190.82362615 </i>
    <i name="e_wo_entrp">   -190.62549466 </i>
    <i name="e_0_energy">   -190.72456041 </i>
   </energy>
  </scstep>
  <scstep>
   <time name="dav">   30.20   30.27</time>
   <time name="total">   30.71   30.80</time>
   <energy>
    <i name="e_fr_energy">   -190.68321629 </i>
    <i name="e_wo_entrp">   -190.47905417 </i>
    <i name="e_0_energy">   -190.58113523 </i>
   </energy>
  </scstep>
  <scstep>
   <time name="dav">   30.57   30.64</time>
   <time name="total">   31.09   31.17</time>
   <energy>
    <i name="e_fr_energy">   -190.67817155 </i>
    <i name="e_wo_entrp">   -190.47600894 </i>
    <i name="e_0_energy">   -190.57709025 </i>
   </energy>
  </scstep>
  <scstep>
   <time name="dav">   29.19   29.26</time>
   <time name="total">   29.71   29.79</time>
   <energy>
    <i name="e_fr_energy">   -190.67676124 </i>
    <i name="e_wo_entrp">   -190.47445895 </i>
    <i name="e_0_energy">   -190.57561009 </i>
   </energy>
  </scstep>
  <scstep>
   <time name="dav">   28.59   28.66</time>
   <time name="total">   29.11   29.18</time>
   <energy>
    <i name="e_fr_energy">   -190.67435108 </i>
    <i name="e_wo_entrp">   -190.47190183 </i>
    <i name="e_0_energy">   -190.57312646 </i>
   </energy>
  </scstep>
  <scstep>
   <time name="dav">   26.65   26.72</time>
   <time name="total">   27.17   27.25</time>
   <energy>
    <i name="e_fr_energy">   -190.67463139 </i>
    <i name="e_wo_entrp">   -190.47189949 </i>
    <i name="e_0_energy">   -190.57326544 </i>
   </energy>
  </scstep>
  <scstep>
   <time name="dav">   26.70   26.76</time>
   <time name="total">   27.22   27.29</time>
   <energy>
    <i name="e_fr_energy">   -190.67447825 </i>
    <i name="e_wo_entrp">   -190.47197224 </i>
    <i name="e_0_energy">   -190.57322525 </i>
   </energy>
  </scstep>
  <scstep>
   <time name="dav">   19.95   20.00</time>
   <time name="total">   19.99   20.05</time>
   <energy>
    <i name="alphaZ">     85.82670462 </i>
    <i name="ewald">  42833.78292747 </i>
    <i name="hartreedc"> -48821.97992508 </i>
    <i name="XCdc">   -234.30708228 </i>
    <i name="pawpsdc">   4062.80060038 </i>
    <i name="pawaedc">  -3478.66443373 </i>
    <i name="eentropy">     -0.20252409 </i>
    <i name="bandstr">  -1399.37326284 </i>
    <i name="atom">   6761.44252427 </i>
    <i name="e_fr_energy">   -190.67447126 </i>
    <i name="e_wo_entrp">   -190.47194717 </i>
    <i name="e_0_energy">   -190.57320922 </i>
   </energy>
  </scstep>
  <structure>
   <crystal>
    <varray name="basis" >
     <v>       8.48733643       4.89835976       0.00000000 </v>
     <v>      -8.48726079       4.89821111       0.00000000 </v>
     <v>       0.00000000       0.00000000      30.00000000 </v>
    </varray>
    <i name="volume">   2494.39267040 </i>
    <varray name="rec_basis" >
     <v>       0.05891067       0.10207608       0.00000000 </v>
     <v>      -0.05891245       0.10207699       0.00000000 </v>
     <v>       0.00000000       0.00000000       0.03333333 </v>
    </varray>
   </crystal>
   <varray name="positions" >
    <v>       0.66128659       0.66646305      -0.00013334 </v>
    <v>       0.66393078       0.33116236      -0.00020856 </v>
    <v>       0.33629853      -0.00033602       0.00015202 </v>
    <v>       0.33471355       0.66535454       0.00015086 </v>
    <v>       0.32985160       0.33589895       0.00016443 </v>
    <v>       0.66476173      -0.00328621      -0.00018437 </v>
    <v>       0.00006841       0.00530428       0.00006862 </v>
    <v>       1.00486429       0.33284781      -0.00004692 </v>
    <v>       0.00352741       0.66606515       0.00000928 </v>
    <v>       0.10981684       0.22155567       0.94851414 </v>
    <v>       0.22395046       0.10742362       0.04917144 </v>
    <v>       0.11000129       0.55481851       0.94909647 </v>
    <v>       0.22092985       0.44402181       0.05144380 </v>
    <v>       0.11555792       0.89126031       0.95087290 </v>
    <v>       0.22411900       0.78298529       0.04965589 </v>
    <v>       0.44697638       0.21959048       0.95206571 </v>
    <v>       0.55249527       0.11355258       0.04837649 </v>
    <v>       0.45052973       0.55853751       0.94998106 </v>
    <v>       0.56093118       0.44696753       0.04798983 </v>
    <v>       0.44127680       0.89176656       0.95045743 </v>
    <v>       0.55843439       0.77455353       0.04995279 </v>
    <v>       0.77605474       0.22574251       0.95098621 </v>
    <v>       0.88975447       0.11172904       0.05090966 </v>
    <v>       0.77349085       0.55360462       0.95231901 </v>
    <v>       0.88430950       0.44196207       0.04915672 </v>
    <v>       0.77598628       0.88333584       0.95038266 </v>
    <v>       0.88429663       0.77533306       0.04869570 </v>
   </varray>
  </structure>
  <varray name="forces" >
   <v>      -0.33065850      -0.16784674       0.05087560 </v>
   <v>      -0.01864319      -0.10107244      -0.04723386 </v>
   <v>       0.26693802      -0.02275943      -0.04799025 </v>
   <v>       0.09291684      -0.12848031      -0.02214592 </v>
   <v>      -0.57710472      -0.21706279       0.00646866 </v>
   <v>       0.17479219      -0.15953724      -0.03045249 </v>
   <v>      -0.49576113       0.32371419       0.04606462 </v>
   <v>       0.47616062       0.23785271       0.00948230 </v>
   <v>       0.38335202       0.09802066       0.03002100 </v>
   <v>       0.00682018       0.02528536      -0.61298496 </v>
   <v>      -0.00133079       0.04035341       0.25470373 </v>
   <v>       0.06528332       0.01768311      -0.40665758 </v>
   <v>      -0.03472833       0.03758317       0.60828814 </v>
   <v>      -0.01115144       0.05735513      -0.15084896 </v>
   <v>       0.04193800       0.08720276       0.40625337 </v>
   <v>      -0.05044058      -0.00775657      -0.20902925 </v>
   <v>      -0.00143634      -0.00566360       0.36905997 </v>
   <v>       0.01345231       0.01882970      -0.47225773 </v>
   <v>      -0.04689469      -0.01683146       0.24467002 </v>
   <v>       0.00038166      -0.01029429      -0.36578465 </v>
   <v>       0.03674360      -0.02414843       0.45814863 </v>
   <v>       0.01825753       0.01809367      -0.19559109 </v>
   <v>      -0.07381552      -0.01166649       0.40179455 </v>
   <v>      -0.01245013      -0.00737479      -0.17268722 </v>
   <v>       0.03987969      -0.03709167       0.20499769 </v>
   <v>       0.05117217      -0.03472131      -0.37593141 </v>
   <v>      -0.01367282      -0.00966633       0.01876709 </v>
  </varray>
  <varray name="stress" >
   <v>      -5.74968137      -0.01118279      -0.13509678 </v>
   <v>      -0.01118273      -5.97112153      -0.01330225 </v>
   <v>      -0.13509683      -0.01330215       4.48283070 </v>
  </varray>
  <energy>
   <i name="e_fr_energy">   -190.67447126 </i>
   <i name="e_wo_entrp">   -190.57320922 </i>
   <i name="e_0_energy">     -0.20252409 </i>
  </energy>
  <time name="totalsc">  385.83  386.85</time>
 </calculation>
 <calculation>
  <scstep>
   <time name="dav">   21.82   21.88</time>
   <time name="total">   22.33   22.39</time>
   <energy>
    <i name="alphaZ">     90.30951846 </i>
    <i name="ewald">  44733.78035133 </i>
    <i name="hartreedc"> -50778.42881528 </i>
    <i name="XCdc">   -231.72162075 </i>
    <i name="pawpsdc">   4062.74945430 </i>
    <i name="pawaedc">  -3478.60823807 </i>
    <i name="eentropy">     -0.17960005 </i>
    <i name="bandstr">  -1351.46497547 </i>
    <i name="atom">   6761.44252427 </i>
    <i name="e_fr_energy">   -192.12140127 </i>
    <i name="e_wo_entrp">   -191.94180122 </i>
    <i name="e_0_energy">   -192.03160124 </i>
   </energy>
  </scstep>
  <scstep>
   <time name="dav">   29.96   30.03</time>
   <time name="total">   30.47   30.55</time>
   <energy>
    <i name="e_fr_energy">   -191.86645053 </i>
    <i name="e_wo_entrp">   -191.67516399 </i>
    <i name="e_0_energy">   -191.77080726 </i>
   </energy>
  </scstep>
  <scstep>
   <time name="dav">   30.17   30.24</time>
   <time name="total">   30.67   30.76</time>
   <energy>
    <i name="e_fr_energy">   -192.25025796 </i>
    <i name="e_wo_entrp">   -192.04820781 </i>
    <i name="e_0_energy">   -192.14923289 </i>
   </energy>
  </scstep>
  <scstep>
   <time name="dav">   30.19   30.27</time>
   <time name="total">   30.70   30.78</time>
   <energy>
    <i name="e_fr_energy">   -191.57736669 </i>
    <i name="e_wo_entrp">   -191.38950178 </i>
    <i name="e_0_energy">   -191.48343423 </i>
   </energy>
  </scstep>
  <scstep>
   <time name="dav">   30.34   30.42</time>
   <time name="total">   30.86   30.94</time>
   <energy>
    <i name="e_fr_energy">   -191.41687511 </i>
    <i name="e_wo_entrp">   -191.23297309 </i>
    <i name="e_0_energy">   -191.32492410 </i>
   </energy>
  </scstep>
  <scstep>
   <time name="dav">   30.63   30.71</time>
   <time name="total">   31.14   31.23</time>
   <energy>
    <i name="e_fr_energy">   -191.36389537 </i>
    <i name="e_wo_entrp">   -191.17120161 </i>
    <i name="e_0_energy">   -191.26754849 </i>
   </energy>
  </scstep>
  <scstep>
   <time name="dav">   30.40   30.47</time>
   <time name="total">   30.90   30.99</time>
   <energy>
    <i name="e_fr_energy">   -191.34661168 </i>
    <i name="e_wo_entrp">   -191.16001117 </i>
    <i name="e_0_energy">   -191.25331142 </i>
   </energy>
  </scstep>
  <scstep>
   <time name="dav">   27.01   27.08</time>
   <time name="total">   27.52   27.60</time>
   <energy>
    <i name="e_fr_energy">   -191.33992108 </i>
    <i name="e_wo_entrp">   -191.15197245 </i>
    <i name="e_0_energy">   -191.24594677 </i>
   </energy>
  </scstep>
  <scstep>
   <time name="dav">   30.77   30.85</time>
   <time name="total">   31.28   31.37</time>
   <energy>
    <i name="e_fr_energy">   -191.34142305 </i>
    <i name="e_wo_entrp">   -191.15319854 </i>
    <i name="e_0_energy">   -191.24731079 </i>
   </energy>
  </scstep>
  <scstep>
   <time name="dav">   29.12   29.19</time>
   <time name="total">   29.63   29.72</time>
   <energy>
    <i name="e_fr_energy">   -191.34025205 </i>
    <i name="e_wo_entrp">   -191.15204686 </i>
    <i name="e_0_energy">   -191.24614945 </i>
   </energy>
  </scstep>
  <scstep>
   <time name="dav">   26.15   26.21</time>
   <time name="total">   26.66   26.73</time>
   <energy>
    <i name="e_fr_energy">   -191.34008004 </i>
    <i name="e_wo_entrp">   -191.15182227 </i>
    <i name="e_0_energy">   -191.24595116 </i>
   </energy>
  </scstep>
  <scstep>
   <time name="dav">   20.78   20.83</time>
   <time name="total">   20.82   20.87</time>
   <energy>
    <i name="alphaZ">     90.30951846 </i>
    <i name="ewald">  44733.78035133 </i>
    <i name="hartreedc"> -50743.43716731 </i>
    <i name="XCdc">   -233.30524923 </i>
    <i name="pawpsdc">   4086.56230219 </i>
    <i name="pawaedc">  -3502.52802853 </i>
    <i name="eentropy">     -0.18821836 </i>
    <i name="bandstr">  -1383.97607851 </i>
    <i name="atom">   6761.44252427 </i>
    <i name="e_fr_energy">   -191.34004568 </i>
    <i name="e_wo_entrp">   -191.15182733 </i>
    <i name="e_0_energy">   -191.24593650 </i>
   </energy>
  </scstep>
  <structure>
   <crystal>
    <varray name="basis" >
     <v>       8.27889083       4.77292127       0.00000000 </v>
     <v>      -8.27838559       4.77202692       0.00000000 </v>
     <v>       0.00000000       0.00000000      30.00000000 </v>
    </varray>
    <i name="volume">   2370.57517952 </i>
    <varray name="rec_basis" >
     <v>       0.06039075       0.10476427       0.00000000 </v>
     <v>      -0.06040207       0.10477066       0.00000000 </v>
     <v>       0.00000000       0.00000000       0.03333333 </v>
    </varray>
   </crystal>
   <varray name="positions" >
    <v>       0.65691489       0.66685308       0.00006689 </v>
    <v>       0.66264665       0.33001495      -0.00041315 </v>
    <v>       0.33783103      -0.00253537      -0.00004136 </v>
    <v>       0.33368495       0.66302373       0.00005257 </v>
    <v>       0.32282911       0.33728298       0.00020734 </v>
    <v>       0.66420529      -0.00644046      -0.00032533 </v>
    <v>       0.00050768       0.01281296       0.00029174 </v>
    <v>       1.01120224       0.33234326      -0.00001480 </v>
    <v>       0.00751239       0.66461766       0.00012859 </v>
    <v>       0.11034514       0.22191812       0.94538758 </v>
    <v>       0.22481225       0.10775647       0.05075946 </v>
    <v>       0.11084437       0.55469434       0.94681562 </v>
    <v>       0.22132033       0.44479755       0.05454057 </v>
    <v>       0.11677476       0.89235739       0.94967195 </v>
    <v>       0.22587566       0.78428203       0.05186447 </v>
    <v>       0.44675534       0.21963125       0.95073155 </v>
    <v>       0.55220920       0.11372413       0.05036863 </v>
    <v>       0.45133502       0.55893357       0.94747711 </v>
    <v>       0.56091409       0.44732773       0.04948104 </v>
    <v>       0.44087842       0.89185898       0.94841335 </v>
    <v>       0.55867005       0.77380342       0.05240729 </v>
    <v>       0.77597732       0.22597219       0.94964147 </v>
    <v>       0.88894002       0.11198206       0.05316546 </v>
    <v>       0.77271118       0.55327905       0.95113258 </v>
    <v>       0.88352366       0.44092251       0.05055401 </v>
    <v>       0.77549273       0.88202050       0.94828773 </v>
    <v>       0.88350069       0.77498037       0.04934753 </v>
   </varray>
  </structure>
  <varray name="forces" >
   <v>      -0.28269562      -0.19470483       0.01065082 </v>
   <v>      -0.10013103      -0.05031193      -0.05433252 </v>
   <v>       0.38876108      -0.06435379      -0.01462998 </v>
   <v>      -0.07130654      -0.05492748       0.03370189 </v>
   <v>      -0.27449486      -0.11796819      -0.01616800 </v>
   <v>       0.10241161      -0.14940144       0.02250908 </v>
   <v>      -0.42527105       0.28126443      -0.04794977 </v>
   <v>       0.20204964       0.19820097       0.06016614 </v>
   <v>       0.51400585       0.01191611       0.04210770 </v>
   <v>      -0.01166065       0.02858186      -0.37123548 </v>
   <v>      -0.12702722       0.08415711      -0.06924728 </v>
   <v>       0.12551785      -0.01718144      -0.20671647 </v>
   <v>      -0.05711656       0.07505912       0.29527324 </v>
   <v>      -0.08258321      -0.01014989       0.17511346 </v>
   <v>       0.11764865       0.05148051       0.15024189 </v>
   <v>      -0.18340811      -0.05379136       0.07771251 </v>
   <v>       0.08934903      -0.02160687       0.04274818 </v>
   <v>      -0.05234911      -0.11002391      -0.13448192 </v>
   <v>      -0.13871378      -0.15333742      -0.00373362 </v>
   <v>       0.13273971      -0.01845289      -0.12037847 </v>
   <v>      -0.05468014      -0.05843320       0.13502440 </v>
   <v>       0.17178784       0.04979538       0.11662544 </v>
   <v>      -0.17043104       0.01398179       0.16810132 </v>
   <v>      -0.01004146       0.07074083       0.09107494 </v>
   <v>       0.16941682       0.01356890      -0.01064208 </v>
   <v>       0.02316974       0.05625048      -0.06685306 </v>
   <v>       0.00505256       0.13964716      -0.30468238 </v>
  </varray>
  <varray name="stress" >
   <v>       0.39178349       0.07672310      -0.31374074 </v>
   <v>       0.07672333      -0.07703330       0.16480166 </v>
   <v>      -0.31374061       0.16480166      -0.23828839 </v>
  </varray>
  <energy>
   <i name="e_fr_energy">   -191.34004568 </i>
   <i name="e_wo_entrp">   -191.24593650 </i>
   <i name="e_0_energy">     -0.18821836 </i>
  </energy>
  <time name="totalsc">  385.49  386.51</time>
 </calculation>
 <calculation>
  <scstep>
   <time name="dav">   21.87   21.92</time>
   <time name="total">   22.38   22.43</time>
   <energy>
    <i name="alphaZ">     90.17102974 </i>
    <i name="ewald">  44651.72994510 </i>
    <i name="hartreedc"> -50660.55622707 </i>
    <i name="XCdc">   -233.48061744 </i>
    <i name="pawpsdc">   4086.45093056 </i>
    <i name="pawaedc">  -3502.41143873 </i>
    <i name="eentropy">     -0.19001710 </i>
    <i name="bandstr">  -1384.57091729 </i>
    <i name="atom">   6761.44252427 </i>
    <i name="e_fr_energy">   -191.41478795 </i>
    <i name="e_wo_entrp">   -191.22477085 </i>
    <i name="e_0_energy">   -191.31977940 </i>
   </energy>
  </scstep>
  <scstep>
   <time name="dav">   33.12   33.20</time>
   <time name="total">   33.63   33.72</time>
   <energy>
    <i name="e_fr_energy">   -191.47659091 </i>
    <i name="e_wo_entrp">   -191.27647475 </i>
    <i name="e_0_energy">   -191.37653283 </i>
   </energy>
  </scstep>
  <scstep>
   <time name="dav">   30.66   30.73</time>
   <time name="total">   31.17   31.25</time>
   <energy>
    <i name="e_fr_energy">   -191.42605834 </i>
    <i name="e_wo_entrp">   -191.23536500 </i>
    <i name="e_0_energy">   -191.33071167 </i>
   </energy>
  </scstep>
  <scstep>
   <time name="dav">   29.10   29.17</time>
   <time name="total">   29.61   29.69</time>
   <energy>
    <i name="e_fr_energy">   -191.42713671 </i>
    <i name="e_wo_entrp">   -191.23531061 </i>
    <i name="e_0_energy">   -191.33122366 </i>
   </energy>
  </scstep>
  <scstep>
   <time name="dav">   30.00   30.07</time>
   <time name="total">   30.51   30.59</time>
   <energy>
    <i name="e_fr_energy">   -191.42284912 </i>
    <i name="e_wo_entrp">   -191.23103322 </i>
    <i name="e_0_energy">   -191.32694117 </i>
   </energy>
  </scstep>
  <scstep>
   <time name="dav">   27.65   27.71</time>
   <time name="total">   28.16   28.23</time>
   <energy>
    <i name="e_fr_energy">   -191.42252983 </i>
    <i name="e_wo_entrp">   -191.23069422 </i>
    <i name="e_0_energy">   -191.32661202 </i>
   </energy>
  </scstep>
  <scstep>
   <time name="dav">   26.44   26.50</time>
   <time name="total">   26.95   27.02</time>
   <energy>
    <i name="e_fr_energy">   -191.42227866 </i>
    <i name="e_wo_entrp">   -191.23044647 </i>
    <i name="e_0_energy">   -191.32636256 </i>
   </energy>
  </scstep>
  <scstep>
   <time name="dav">   19.21   19.26</time>
   <time name="total">   19.24   19.30</time>
   <energy>
    <i name="alphaZ">     90.17102974 </i>
    <i name="ewald">  44651.72994510 </i>
    <i name="hartreedc"> -50662.60555852 </i>
    <i name="XCdc">   -233.40854150 </i>
    <i name="pawpsdc">   4083.34573756 </i>
    <i name="pawaedc">  -3499.26043793 </i>
    <i name="eentropy">     -0.19168568 </i>
    <i name="bandstr">  -1382.64523119 </i>
    <i name="atom">   6761.44252427 </i>
    <i name="e_fr_energy">   -191.42221814 </i>
    <i name="e_wo_entrp">   -191.23053246 </i>
    <i name="e_0_energy">   -191.32637530 </i>
   </energy>
  </scstep>
  <structure>
   <crystal>
    <varray name="basis" >
     <v>       8.29099753       4.77538251       0.00000000 </v>
     <v>      -8.28866447       4.77131858       0.00000000 </v>
     <v>       0.00000000       0.00000000      30.00000000 </v>
    </varray>
    <i name="volume">   2374.21601540 </i>
    <varray name="rec_basis" >
     <v>       0.06028919       0.10473349       0.00000000 </v>
     <v>      -0.06034054       0.10476297       0.00000000 </v>
     <v>       0.00000000       0.00000000       0.03333333 </v>
    </varray>
   </crystal>
   <varray name="positions" >
    <v>       0.65528681       0.66668799       0.00007850 </v>
    <v>       0.66215271       0.33007950      -0.00049173 </v>
    <v>       0.33856949      -0.00388007      -0.00005920 </v>
    <v>       0.33324620       0.66301508       0.00010711 </v>
    <v>       0.32166550       0.33744523       0.00018107 </v>
    <v>       0.66377804      -0.00737498      -0.00028687 </v>
    <v>       0.00067246       0.01518219       0.00021170 </v>
    <v>       1.01257273       0.33275261       0.00007733 </v>
    <v>       0.00890855       0.66327280       0.00019066 </v>
    <v>       0.11043548       0.22207884       0.94490201 </v>
    <v>       0.22483812       0.10851431       0.05060468 </v>
    <v>       0.11108866       0.55426121       0.94656293 </v>
    <v>       0.22151224       0.44530114       0.05490986 </v>
    <v>       0.11645542       0.89250716       0.94998109 </v>
    <v>       0.22640491       0.78416263       0.05203295 </v>
    <v>       0.44598354       0.21988574       0.95089205 </v>
    <v>       0.55236450       0.11336165       0.05037766 </v>
    <v>       0.45062783       0.55853253       0.94734064 </v>
    <v>       0.55977485       0.44695939       0.04943061 </v>
    <v>       0.44117413       0.89139258       0.94828689 </v>
    <v>       0.55822374       0.77369438       0.05254569 </v>
    <v>       0.77670776       0.22572559       0.94986331 </v>
    <v>       0.88855374       0.11252217       0.05335928 </v>
    <v>       0.77305491       0.55366333       0.95131006 </v>
    <v>       0.88409210       0.44054497       0.05049415 </v>
    <v>       0.77584926       0.88226912       0.94824525 </v>
    <v>       0.88422075       0.77565736       0.04885221 </v>
   </varray>
  </structure>
  <varray name="forces" >
   <v>      -0.29754232      -0.25247448       0.00124698 </v>
   <v>      -0.15276656      -0.06150501      -0.10003862 </v>
   <v>       0.42101569      -0.04765296      -0.02206978 </v>
   <v>      -0.08601252      -0.03370381       0.01118439 </v>
   <v>      -0.32119541      -0.09639091      -0.00299214 </v>
   <v>       0.12103801      -0.17962061       0.00321428 </v>
   <v>      -0.50513827       0.30137114      -0.00038309 </v>
   <v>       0.22542455       0.23273045       0.01301426 </v>
   <v>       0.61090616      -0.01648304       0.02712088 </v>
   <v>      -0.04446597       0.03232280      -0.27503059 </v>
   <v>      -0.07596251       0.04149160      -0.11215245 </v>
   <v>       0.09682904      -0.00459127      -0.19140960 </v>
   <v>      -0.03459289       0.06866163       0.22128725 </v>
   <v>      -0.05378415      -0.02326835       0.22278975 </v>
   <v>       0.07799150       0.04264554       0.16470740 </v>
   <v>      -0.11018912      -0.05386435       0.10643573 </v>
   <v>       0.05483346      -0.01898614       0.02221537 </v>
   <v>      -0.05167708      -0.05677990      -0.11452585 </v>
   <v>      -0.09259301      -0.09158974      -0.01121255 </v>
   <v>       0.09289941      -0.00793842      -0.11308851 </v>
   <v>      -0.02280681      -0.04684844       0.13226527 </v>
   <v>       0.10991754       0.03903643       0.16503946 </v>
   <v>      -0.12002126       0.01776719       0.10350693 </v>
   <v>      -0.00839096       0.07115101       0.13939011 </v>
   <v>       0.11392338       0.00044451       0.01691452 </v>
   <v>       0.01974626       0.02926003      -0.03554521 </v>
   <v>       0.03261385       0.11481510      -0.37188418 </v>
  </varray>
  <varray name="stress" >
   <v>      -0.12722254      -0.01029884      -0.12940688 </v>
   <v>      -0.01029891      -0.25737917       0.11039210 </v>
   <v>      -0.12940691       0.11039209      -0.92142524 </v>
  </varray>
  <energy>
   <i name="e_fr_energy">   -191.42221814 </i>
   <i name="e_wo_entrp">   -191.32637530 </i>
   <i name="e_0_energy">     -0.19168568 </i>
  </energy>
  <time name="totalsc">  264.08  264.78</time>
 </calculation>
 <calculation>
  <scstep>
   <time name="dav">   22.06   22.11</time>
   <time name="total">   22.57   22.62</time>
   <energy>
    <i name="alphaZ">     90.18027048 </i>
    <i name="ewald">  44655.57889124 </i>
    <i name="hartreedc"> -50666.58940682 </i>
    <i name="XCdc">   -233.40420587 </i>
    <i name="pawpsdc">   4083.27570152 </i>
    <i name="pawaedc">  -3499.18938915 </i>
    <i name="eentropy">     -0.19160894 </i>
    <i name="bandstr">  -1382.53278921 </i>
    <i name="atom">   6761.44252427 </i>
    <i name="e_fr_energy">   -191.43001247 </i>
    <i name="e_wo_entrp">   -191.23840354 </i>
    <i name="e_0_energy">   -191.33420800 </i>
   </energy>
  </scstep>
  <scstep>
   <time name="dav">   31.00   31.07</time>
   <time name="total">   31.51   31.59</time>
   <energy>
    <i name="e_fr_energy">   -191.43079051 </i>
    <i name="e_wo_entrp">   -191.23832946 </i>
    <i name="e_0_energy">   -191.33455998 </i>
   </energy>
  </scstep>
  <scstep>
   <time name="dav">   25.12   25.18</time>
   <time name="total">   25.63   25.70</time>
   <energy>
    <i name="e_fr_energy">   -191.43006439 </i>
    <i name="e_wo_entrp">   -191.23830843 </i>
    <i name="e_0_energy">   -191.33418641 </i>
   </energy>
  </scstep>
  <scstep>
   <time name="dav">   17.52   17.57</time>
   <time name="total">   17.56   17.61</time>
   <energy>
    <i name="alphaZ">     90.18027048 </i>
    <i name="ewald">  44655.57889124 </i>
    <i name="hartreedc"> -50666.68424230 </i>
    <i name="XCdc">   -233.40519002 </i>
    <i name="pawpsdc">   4083.12483199 </i>
    <i name="pawaedc">  -3499.03944804 </i>
    <i name="eentropy">     -0.19163698 </i>
    <i name="bandstr">  -1382.43610582 </i>
    <i name="atom">   6761.44252427 </i>
    <i name="e_fr_energy">   -191.43010519 </i>
    <i name="e_wo_entrp">   -191.23846820 </i>
    <i name="e_0_energy">   -191.33428670 </i>
   </energy>
  </scstep>
  <structure>
   <crystal>
    <varray name="basis" >
     <v>       8.29068465       4.77505456       0.00000000 </v>
     <v>      -8.28836795       4.77101914       0.00000000 </v>
     <v>       0.00000000       0.00000000      30.00000000 </v>
    </varray>
    <i name="volume">   2373.97273033 </i>
    <varray name="rec_basis" >
     <v>       0.06029158       0.10474048       0.00000000 </v>
     <v>      -0.06034258       0.10476975       0.00000000 </v>
     <v>       0.00000000       0.00000000       0.03333333 </v>
    </varray>
   </crystal>
   <varray name="positions" >
    <v>       0.65511595       0.66665662       0.00007885 </v>
    <v>       0.66209284       0.33008886      -0.00050441 </v>
[...]
      <set comment="kpoint 31">
       <r>  -17.4977    1.0000 </r>
       <r>  -17.3188    1.0000 </r>
       <r>  -16.8920    1.0000 </r>
       <r>  -16.5683    1.0000 </r>
       <r>  -16.5307    1.0000 </r>
       <r>  -16.4500    1.0000 </r>
       <r>  -16.2939    1.0000 </r>
       <r>  -16.2104    1.0000 </r>
       <r>  -16.1048    1.0000 </r>
       <r>  -16.0487    1.0000 </r>
       <r>  -15.9569    1.0000 </r>
       <r>  -15.8627    1.0000 </r>
       <r>  -15.7407    1.0000 </r>
       <r>  -15.6600    1.0000 </r>
       <r>  -15.6078    1.0000 </r>
       <r>  -15.5252    1.0000 </r>
       <r>  -15.4332    1.0000 </r>
       <r>  -15.2875    1.0000 </r>
       <r>   -9.7991    1.0000 </r>
       <r>   -9.3937    1.0000 </r>
       <r>   -9.3694    1.0000 </r>
       <r>   -8.9554    1.0000 </r>
       <r>   -8.7855    1.0000 </r>
       <r>   -8.7473    1.0000 </r>
       <r>   -8.6262    1.0000 </r>
       <r>   -8.5822    1.0000 </r>
       <r>   -8.4088    1.0000 </r>
       <r>   -8.3219    1.0000 </r>
       <r>   -8.2410    1.0000 </r>
       <r>   -8.1792    1.0000 </r>
       <r>   -8.1308    1.0000 </r>
       <r>   -8.0454    1.0000 </r>
       <r>   -8.0128    1.0000 </r>
       <r>   -7.8486    1.0000 </r>
       <r>   -7.8071    1.0000 </r>
       <r>   -7.6083    1.0000 </r>
       <r>   -7.5751    1.0000 </r>
       <r>   -7.5123    1.0000 </r>
       <r>   -7.3663    1.0000 </r>
       <r>   -7.2664    1.0000 </r>
       <r>   -7.1172    1.0000 </r>
       <r>   -7.0510    1.0000 </r>
       <r>   -6.9964    1.0000 </r>
       <r>   -6.9499    1.0000 </r>
       <r>   -6.8802    1.0000 </r>
       <r>   -6.8279    1.0000 </r>
       <r>   -6.7544    1.0000 </r>
       <r>   -6.6005    1.0000 </r>
       <r>   -6.5528    1.0000 </r>
       <r>   -6.4670    1.0000 </r>
       <r>   -6.3697    1.0000 </r>
       <r>   -6.3050    1.0000 </r>
       <r>   -6.2763    1.0000 </r>
       <r>   -6.1523    1.0000 </r>
       <r>   -6.1068    1.0000 </r>
       <r>   -6.0281    1.0000 </r>
       <r>   -5.9236    1.0000 </r>
       <r>   -5.8781    1.0000 </r>
       <r>   -5.8021    1.0000 </r>
       <r>   -5.7723    1.0000 </r>
       <r>   -5.7084    1.0000 </r>
       <r>   -5.6766    1.0000 </r>
       <r>   -5.5678    1.0000 </r>
       <r>   -5.4261    1.0000 </r>
       <r>   -5.3496    1.0000 </r>
       <r>   -5.1842    1.0000 </r>
       <r>   -5.0410    1.0000 </r>
       <r>   -4.8770    1.0000 </r>
       <r>   -4.7695    1.0000 </r>
       <r>   -4.7043    1.0000 </r>
       <r>   -4.5611    1.0000 </r>
       <r>   -4.4402    1.0000 </r>
       <r>   -4.2445    1.0000 </r>
       <r>   -4.1341    1.0000 </r>
       <r>   -4.0402    1.0000 </r>
       <r>   -3.9014    1.0000 </r>
       <r>   -3.8008    0.9997 </r>
       <r>   -3.6966    0.9968 </r>
       <r>   -3.5323    0.9418 </r>
       <r>   -3.2455    0.3234 </r>
       <r>   -3.1058    0.0741 </r>
       <r>   -2.8978    0.0018 </r>
       <r>   -2.7869    0.0001 </r>
       <r>   -2.6535    0.0000 </r>
       <r>   -2.5565    0.0000 </r>
       <r>   -2.4690    0.0000 </r>
       <r>   -2.2865    0.0000 </r>
       <r>   -2.0093    0.0000 </r>
       <r>   -1.9928    0.0000 </r>
       <r>   -1.9452    0.0000 </r>
       <r>   -1.7780    0.0000 </r>
       <r>   -1.5460    0.0000 </r>
       <r>   -1.4276    0.0000 </r>
       <r>   -1.3098    0.0000 </r>
       <r>   -1.2645    0.0000 </r>
       <r>   -1.2003    0.0000 </r>
       <r>   -1.0804    0.0000 </r>
       <r>   -0.9892    0.0000 </r>
       <r>   -0.9334    0.0000 </r>
       <r>   -0.8589    0.0000 </r>
       <r>   -0.8187    0.0000 </r>
       <r>   -0.7455    0.0000 </r>
       <r>   -0.6374    0.0000 </r>
       <r>   -0.5435    0.0000 </r>
       <r>   -0.4572    0.0000 </r>
       <r>   -0.2990    0.0000 </r>
       <r>   -0.1694    0.0000 </r>
       <r>   -0.0551    0.0000 </r>
       <r>    0.0131    0.0000 </r>
       <r>    0.2631    0.0000 </r>
       <r>    0.3683    0.0000 </r>
       <r>    0.4912    0.0000 </r>
       <r>    0.6993    0.0000 </r>
       <r>    0.9541    0.0000 </r>
       <r>    1.1433    0.0000 </r>
       <r>    1.2626    0.0000 </r>
       <r>    1.4290    0.0000 </r>
       <r>    2.1443    0.0000 </r>
       <r>    2.3006    0.0000 </r>
       <r>    2.4082    0.0000 </r>
      </set>
      <set comment="kpoint 32">
       <r>  -17.5246    1.0000 </r>
       <r>  -17.2459    1.0000 </r>
       <r>  -16.9894    1.0000 </r>
       <r>  -16.5866    1.0000 </r>
       <r>  -16.4701    1.0000 </r>
       <r>  -16.3866    1.0000 </r>
       <r>  -16.2602    1.0000 </r>
       <r>  -16.2354    1.0000 </r>
       <r>  -16.1348    1.0000 </r>
       <r>  -16.0479    1.0000 </r>
       <r>  -15.9739    1.0000 </r>
       <r>  -15.8787    1.0000 </r>
       <r>  -15.7597    1.0000 </r>
       <r>  -15.6425    1.0000 </r>
       <r>  -15.6148    1.0000 </r>
       <r>  -15.5511    1.0000 </r>
       <r>  -15.4194    1.0000 </r>
       <r>  -15.2697    1.0000 </r>
       <r>   -9.7462    1.0000 </r>
       <r>   -9.4823    1.0000 </r>
       <r>   -9.4211    1.0000 </r>
       <r>   -8.9812    1.0000 </r>
       <r>   -8.7040    1.0000 </r>
       <r>   -8.6170    1.0000 </r>
       <r>   -8.5634    1.0000 </r>
       <r>   -8.4700    1.0000 </r>
       <r>   -8.4326    1.0000 </r>
       <r>   -8.3379    1.0000 </r>
       <r>   -8.2631    1.0000 </r>
       <r>   -8.2259    1.0000 </r>
       <r>   -8.1475    1.0000 </r>
       <r>   -8.1182    1.0000 </r>
       <r>   -8.0971    1.0000 </r>
       <r>   -7.9445    1.0000 </r>
       <r>   -7.8396    1.0000 </r>
       <r>   -7.5855    1.0000 </r>
       <r>   -7.5089    1.0000 </r>
       <r>   -7.3840    1.0000 </r>
       <r>   -7.3077    1.0000 </r>
       <r>   -7.2436    1.0000 </r>
       <r>   -7.2117    1.0000 </r>
       <r>   -7.1463    1.0000 </r>
       <r>   -6.9964    1.0000 </r>
       <r>   -6.9205    1.0000 </r>
       <r>   -6.8964    1.0000 </r>
       <r>   -6.8314    1.0000 </r>
       <r>   -6.7884    1.0000 </r>
       <r>   -6.5970    1.0000 </r>
       <r>   -6.5505    1.0000 </r>
       <r>   -6.4829    1.0000 </r>
       <r>   -6.3718    1.0000 </r>
       <r>   -6.3230    1.0000 </r>
       <r>   -6.2588    1.0000 </r>
       <r>   -6.2079    1.0000 </r>
       <r>   -6.0960    1.0000 </r>
       <r>   -5.9875    1.0000 </r>
       <r>   -5.9372    1.0000 </r>
       <r>   -5.8566    1.0000 </r>
       <r>   -5.8142    1.0000 </r>
       <r>   -5.7565    1.0000 </r>
       <r>   -5.6481    1.0000 </r>
       <r>   -5.5941    1.0000 </r>
       <r>   -5.4981    1.0000 </r>
       <r>   -5.4662    1.0000 </r>
       <r>   -5.3013    1.0000 </r>
       <r>   -5.2587    1.0000 </r>
       <r>   -5.0915    1.0000 </r>
       <r>   -4.9671    1.0000 </r>
       <r>   -4.8288    1.0000 </r>
       <r>   -4.6870    1.0000 </r>
       <r>   -4.5052    1.0000 </r>
       <r>   -4.3962    1.0000 </r>
       <r>   -4.2405    1.0000 </r>
       <r>   -4.1278    1.0000 </r>
       <r>   -4.0854    1.0000 </r>
       <r>   -3.9968    1.0000 </r>
       <r>   -3.7952    0.9997 </r>
       <r>   -3.6081    0.9824 </r>
       <r>   -3.5446    0.9512 </r>
       <r>   -3.2159    0.2521 </r>
       <r>   -3.0995    0.0680 </r>
       <r>   -2.8923    0.0016 </r>
       <r>   -2.7299    0.0000 </r>
       <r>   -2.6101    0.0000 </r>
       <r>   -2.5278    0.0000 </r>
       <r>   -2.4550    0.0000 </r>
       <r>   -2.2829    0.0000 </r>
       <r>   -2.0399    0.0000 </r>
       <r>   -2.0206    0.0000 </r>
       <r>   -1.9363    0.0000 </r>
       <r>   -1.7731    0.0000 </r>
       <r>   -1.5787    0.0000 </r>
       <r>   -1.4776    0.0000 </r>
       <r>   -1.3604    0.0000 </r>
       <r>   -1.2712    0.0000 </r>
       <r>   -1.2162    0.0000 </r>
       <r>   -1.0510    0.0000 </r>
       <r>   -1.0100    0.0000 </r>
       <r>   -0.9662    0.0000 </r>
       <r>   -0.9117    0.0000 </r>
       <r>   -0.7954    0.0000 </r>
       <r>   -0.7315    0.0000 </r>
       <r>   -0.5994    0.0000 </r>
       <r>   -0.5679    0.0000 </r>
       <r>   -0.4271    0.0000 </r>
       <r>   -0.2562    0.0000 </r>
       <r>   -0.1359    0.0000 </r>
       <r>   -0.0744    0.0000 </r>
       <r>    0.0767    0.0000 </r>
       <r>    0.2581    0.0000 </r>
       <r>    0.3390    0.0000 </r>
       <r>    0.5165    0.0000 </r>
       <r>    0.6930    0.0000 </r>
       <r>    0.9151    0.0000 </r>
       <r>    1.1259    0.0000 </r>
       <r>    1.2187    0.0000 </r>
       <r>    1.4124    0.0000 </r>
       <r>    2.1072    0.0000 </r>
       <r>    2.2695    0.0000 </r>
       <r>    2.5769    0.0000 </r>
      </set>
      <set comment="kpoint 33">
       <r>  -17.5150    1.0000 </r>
       <r>  -17.3021    1.0000 </r>
       <r>  -16.8873    1.0000 </r>
       <r>  -16.6032    1.0000 </r>
       <r>  -16.4781    1.0000 </r>
       <r>  -16.4375    1.0000 </r>
       <r>  -16.3194    1.0000 </r>
       <r>  -16.2333    1.0000 </r>
       <r>  -16.1152    1.0000 </r>
       <r>  -15.9838    1.0000 </r>
       <r>  -15.9276    1.0000 </r>
       <r>  -15.8827    1.0000 </r>
       <r>  -15.7789    1.0000 </r>
       <r>  -15.6500    1.0000 </r>
       <r>  -15.6354    1.0000 </r>
       <r>  -15.5499    1.0000 </r>
       <r>  -15.4306    1.0000 </r>
       <r>  -15.2638    1.0000 </r>
       <r>   -9.7721    1.0000 </r>
       <r>   -9.4213    1.0000 </r>
       <r>   -9.3303    1.0000 </r>
       <r>   -9.0252    1.0000 </r>
       <r>   -8.8356    1.0000 </r>
       <r>   -8.7477    1.0000 </r>
       <r>   -8.5339    1.0000 </r>
       <r>   -8.4532    1.0000 </r>
       <r>   -8.3821    1.0000 </r>
       <r>   -8.3454    1.0000 </r>
       <r>   -8.3017    1.0000 </r>
       <r>   -8.2113    1.0000 </r>
       <r>   -8.1160    1.0000 </r>
       <r>   -8.1031    1.0000 </r>
       <r>   -7.9926    1.0000 </r>
       <r>   -7.9403    1.0000 </r>
       <r>   -7.8096    1.0000 </r>
       <r>   -7.6230    1.0000 </r>
       <r>   -7.5227    1.0000 </r>
       <r>   -7.3814    1.0000 </r>
       <r>   -7.3221    1.0000 </r>
       <r>   -7.1908    1.0000 </r>
       <r>   -7.1708    1.0000 </r>
       <r>   -7.1304    1.0000 </r>
       <r>   -7.0065    1.0000 </r>
       <r>   -6.9281    1.0000 </r>
       <r>   -6.9010    1.0000 </r>
       <r>   -6.8663    1.0000 </r>
       <r>   -6.6949    1.0000 </r>
       <r>   -6.6423    1.0000 </r>
       <r>   -6.5540    1.0000 </r>
       <r>   -6.4792    1.0000 </r>
       <r>   -6.4188    1.0000 </r>
       <r>   -6.3370    1.0000 </r>
       <r>   -6.2605    1.0000 </r>
       <r>   -6.1827    1.0000 </r>
       <r>   -6.1130    1.0000 </r>
       <r>   -6.0182    1.0000 </r>
       <r>   -5.9578    1.0000 </r>
       <r>   -5.9085    1.0000 </r>
       <r>   -5.8551    1.0000 </r>
       <r>   -5.8263    1.0000 </r>
       <r>   -5.7203    1.0000 </r>
       <r>   -5.6428    1.0000 </r>
       <r>   -5.5220    1.0000 </r>
       <r>   -5.3940    1.0000 </r>
       <r>   -5.2690    1.0000 </r>
       <r>   -5.1449    1.0000 </r>
       <r>   -5.0176    1.0000 </r>
       <r>   -4.9397    1.0000 </r>
       <r>   -4.7854    1.0000 </r>
       <r>   -4.7134    1.0000 </r>
       <r>   -4.4568    1.0000 </r>
       <r>   -4.3480    1.0000 </r>
       <r>   -4.2875    1.0000 </r>
       <r>   -4.1906    1.0000 </r>
       <r>   -4.1335    1.0000 </r>
       <r>   -3.9698    1.0000 </r>
       <r>   -3.8091    0.9998 </r>
       <r>   -3.6139    0.9841 </r>
       <r>   -3.5699    0.9668 </r>
       <r>   -3.1650    0.1521 </r>
       <r>   -3.1392    0.1132 </r>
       <r>   -2.8935    0.0016 </r>
       <r>   -2.6656    0.0000 </r>
       <r>   -2.5645    0.0000 </r>
       <r>   -2.4746    0.0000 </r>
       <r>   -2.4188    0.0000 </r>
       <r>   -2.3015    0.0000 </r>
       <r>   -2.0591    0.0000 </r>
       <r>   -2.0320    0.0000 </r>
       <r>   -1.8928    0.0000 </r>
       <r>   -1.7690    0.0000 </r>
       <r>   -1.6403    0.0000 </r>
       <r>   -1.5367    0.0000 </r>
       <r>   -1.3789    0.0000 </r>
       <r>   -1.2703    0.0000 </r>
       <r>   -1.2073    0.0000 </r>
       <r>   -1.1274    0.0000 </r>
       <r>   -1.0339    0.0000 </r>
       <r>   -0.9698    0.0000 </r>
       <r>   -0.9246    0.0000 </r>
       <r>   -0.8101    0.0000 </r>
       <r>   -0.7088    0.0000 </r>
       <r>   -0.5989    0.0000 </r>
       <r>   -0.4802    0.0000 </r>
       <r>   -0.4099    0.0000 </r>
       <r>   -0.2973    0.0000 </r>
       <r>   -0.2395    0.0000 </r>
       <r>   -0.0501    0.0000 </r>
       <r>    0.0647    0.0000 </r>
       <r>    0.2975    0.0000 </r>
       <r>    0.4171    0.0000 </r>
       <r>    0.5342    0.0000 </r>
       <r>    0.7368    0.0000 </r>
       <r>    0.8605    0.0000 </r>
       <r>    1.0776    0.0000 </r>
       <r>    1.2632    0.0000 </r>
       <r>    1.4006    0.0000 </r>
       <r>    2.1337    0.0000 </r>
       <r>    2.2992    0.0000 </r>
       <r>    2.3955    0.0000 </r>
      </set>
      <set comment="kpoint 34">
       <r>  -17.4962    1.0000 </r>
       <r>  -17.3527    1.0000 </r>
       <r>  -16.7269    1.0000 </r>
       <r>  -16.6773    1.0000 </r>
       <r>  -16.5693    1.0000 </r>
       <r>  -16.4364    1.0000 </r>
       <r>  -16.3267    1.0000 </r>
       <r>  -16.2331    1.0000 </r>
       <r>  -16.1123    1.0000 </r>
       <r>  -15.9697    1.0000 </r>
       <r>  -15.8979    1.0000 </r>
       <r>  -15.8439    1.0000 </r>
       <r>  -15.7588    1.0000 </r>
       <r>  -15.7074    1.0000 </r>
       <r>  -15.6475    1.0000 </r>
       <r>  -15.5278    1.0000 </r>
       <r>  -15.4472    1.0000 </r>
       <r>  -15.2642    1.0000 </r>
       <r>   -9.7983    1.0000 </r>
       <r>   -9.3268    1.0000 </r>
       <r>   -9.2161    1.0000 </r>
       <r>   -9.1016    1.0000 </r>
       <r>   -8.9187    1.0000 </r>
       <r>   -8.8809    1.0000 </r>
       <r>   -8.5426    1.0000 </r>
       <r>   -8.4499    1.0000 </r>
       <r>   -8.3752    1.0000 </r>
       <r>   -8.3497    1.0000 </r>
       <r>   -8.3062    1.0000 </r>
       <r>   -8.2010    1.0000 </r>
       <r>   -8.1062    1.0000 </r>
       <r>   -8.0791    1.0000 </r>
       <r>   -7.9682    1.0000 </r>
       <r>   -7.8435    1.0000 </r>
       <r>   -7.7799    1.0000 </r>
       <r>   -7.6505    1.0000 </r>
       <r>   -7.4851    1.0000 </r>
       <r>   -7.4090    1.0000 </r>
       <r>   -7.3243    1.0000 </r>
       <r>   -7.2826    1.0000 </r>
       <r>   -7.1331    1.0000 </r>
       <r>   -7.0795    1.0000 </r>
       <r>   -7.0215    1.0000 </r>
       <r>   -6.9209    1.0000 </r>
       <r>   -6.9002    1.0000 </r>
       <r>   -6.8535    1.0000 </r>
       <r>   -6.6999    1.0000 </r>
       <r>   -6.5771    1.0000 </r>
       <r>   -6.5173    1.0000 </r>
       <r>   -6.4564    1.0000 </r>
       <r>   -6.4323    1.0000 </r>
       <r>   -6.3885    1.0000 </r>
       <r>   -6.2891    1.0000 </r>
       <r>   -6.2510    1.0000 </r>
       <r>   -6.0884    1.0000 </r>
       <r>   -6.0727    1.0000 </r>
       <r>   -6.0370    1.0000 </r>
       <r>   -5.9193    1.0000 </r>
       <r>   -5.8610    1.0000 </r>
       <r>   -5.7941    1.0000 </r>
       <r>   -5.7505    1.0000 </r>
       <r>   -5.6414    1.0000 </r>
       <r>   -5.5364    1.0000 </r>
       <r>   -5.4603    1.0000 </r>
       <r>   -5.2385    1.0000 </r>
       <r>   -5.1354    1.0000 </r>
       <r>   -4.9258    1.0000 </r>
       <r>   -4.8189    1.0000 </r>
       <r>   -4.7952    1.0000 </r>
       <r>   -4.6359    1.0000 </r>
       <r>   -4.5547    1.0000 </r>
       <r>   -4.3471    1.0000 </r>
       <r>   -4.2901    1.0000 </r>
       <r>   -4.1862    1.0000 </r>
       <r>   -4.1755    1.0000 </r>
       <r>   -3.9240    1.0000 </r>
       <r>   -3.8275    0.9999 </r>
       <r>   -3.6554    0.9927 </r>
       <r>   -3.5725    0.9681 </r>
       <r>   -3.1883    0.1943 </r>
       <r>   -3.1137    0.0822 </r>
       <r>   -2.8959    0.0017 </r>
       <r>   -2.6683    0.0000 </r>
       <r>   -2.5034    0.0000 </r>
       <r>   -2.4681    0.0000 </r>
       <r>   -2.3773    0.0000 </r>
       <r>   -2.3297    0.0000 </r>
       <r>   -2.0703    0.0000 </r>
       <r>   -2.0160    0.0000 </r>
       <r>   -1.8723    0.0000 </r>
       <r>   -1.7689    0.0000 </r>
       <r>   -1.6629    0.0000 </r>
       <r>   -1.5772    0.0000 </r>
       <r>   -1.3739    0.0000 </r>
       <r>   -1.2625    0.0000 </r>
       <r>   -1.2057    0.0000 </r>
       <r>   -1.1712    0.0000 </r>
       <r>   -1.0563    0.0000 </r>
       <r>   -0.9820    0.0000 </r>
       <r>   -0.8983    0.0000 </r>
       <r>   -0.8312    0.0000 </r>
       <r>   -0.6893    0.0000 </r>
       <r>   -0.5845    0.0000 </r>
       <r>   -0.4388    0.0000 </r>
       <r>   -0.4159    0.0000 </r>
       <r>   -0.3382    0.0000 </r>
       <r>   -0.2940    0.0000 </r>
       <r>   -0.0560    0.0000 </r>
       <r>    0.0627    0.0000 </r>
       <r>    0.3212    0.0000 </r>
       <r>    0.4556    0.0000 </r>
       <r>    0.5433    0.0000 </r>
       <r>    0.7664    0.0000 </r>
       <r>    0.8423    0.0000 </r>
       <r>    1.0598    0.0000 </r>
       <r>    1.2970    0.0000 </r>
       <r>    1.3945    0.0000 </r>
       <r>    2.2041    0.0000 </r>
       <r>    2.2535    0.0000 </r>
       <r>    2.3819    0.0000 </r>
      </set>
     </set>
    </set>
   </array>
  </eigenvalues>
  <separator name="orbital magnetization" >
   <v name="MAGDIPOLOUT">      0.00000000      0.00000000      0.00000000</v>
  </separator>
 </calculation>
 <structure name="finalpos" >
  <crystal>
   <varray name="basis" >
    <v>       8.35102083       4.81973538       0.00000000 </v>
    <v>      -8.33608200       4.79374324       0.00000000 </v>
    <v>       0.00000000       0.00000000      30.00000000 </v>
   </varray>
   <i name="volume">   2406.31076953 </i>
   <varray name="rec_basis" >
    <v>       0.05976464       0.10392775       0.00000000 </v>
    <v>      -0.06008869       0.10411399       0.00000000 </v>
    <v>       0.00000000       0.00000000       0.03333333 </v>
   </varray>
  </crystal>
  <varray name="positions" >
   <v>       0.62996901       0.65486501       0.00012546 </v>
   <v>       0.65351918       0.30850259      -0.00046359 </v>
   <v>       0.35528143      -0.01496401       0.00032730 </v>
   <v>       0.32948116       0.65988332       0.00053737 </v>
   <v>       0.31419812       0.34727302      -0.00104245 </v>
   <v>       0.66702552      -0.00172352      -0.00034694 </v>
   <v>       0.00089905       0.02454030      -0.00048627 </v>
   <v>       1.01337937       0.32140379       0.00138889 </v>
   <v>       0.03375679       0.69558368       0.00023411 </v>
   <v>       0.10868001       0.22449623       0.94239535 </v>
   <v>       0.22908237       0.11009649       0.04599990 </v>
   <v>       0.10431232       0.55196664       0.94895988 </v>
   <v>       0.21732021       0.44649674       0.05645544 </v>
   <v>       0.13009911       0.90418465       0.94930520 </v>
   <v>       0.23350798       0.78731122       0.05511957 </v>
   <v>       0.44133951       0.21670415       0.95294132 </v>
   <v>       0.55586652       0.10899774       0.05292700 </v>
   <v>       0.44297069       0.55767553       0.94487924 </v>
   <v>       0.54976072       0.44228102       0.04802904 </v>
   <v>       0.44692417       0.88671863       0.94694807 </v>
   <v>       0.55459994       0.77238307       0.05309547 </v>
   <v>       0.77962043       0.22464471       0.94998635 </v>
   <v>       0.88639231       0.11061848       0.05495956 </v>
   <v>       0.77698081       0.55636791       0.95714814 </v>
   <v>       0.88683477       0.44614833       0.04605734 </v>
   <v>       0.77733085       0.87942142       0.94927771 </v>
   <v>       0.87908211       0.77633733       0.04524144 </v>
  </varray>
 </structure>
</modeling>
