unknown system                          
           1
     8.857991    5.101579    0.000000
    -8.859638    5.104413    0.000000
     0.000000    0.000000   30.000000
   V    Mo   W    S 
   3   3   3  18
Direct configuration=     1
   0.66666669  0.66666669  0.00000000
   0.66666669  0.33333334  0.00000000
   0.33333334  0.00000000  0.00000000
   0.33333334  0.66666669  0.00000000
   0.33333334  0.33333334  0.00000000
   0.66666669  0.00000000  0.00000000
   0.00000000  0.00000000  0.00000000
   1.00000000  0.33333334  0.00000000
   0.00000000  0.66666669  0.00000000
   0.11068511  0.22244981  0.95539999
   0.22244981  0.11068511  0.04460000
   0.11068511  0.55578315  0.95539999
   0.22244981  0.44401845  0.04460000
   0.11068511  0.88911647  0.95539999
   0.22244981  0.77735180  0.04460000
   0.44401845  0.22244981  0.95539999
   0.55578315  0.11068511  0.04460000
   0.44401845  0.55578315  0.95539999
   0.55578315  0.44401845  0.04460000
   0.44401845  0.88911647  0.95539999
   0.55578315  0.77735180  0.04460000
   0.77735180  0.22244981  0.95539999
   0.88911647  0.11068511  0.04460000
   0.77735180  0.55578315  0.95539999
   0.88911647  0.44401845  0.04460000
   0.77735180  0.88911647  0.95539999
   0.88911647  0.77735180  0.04460000
unknown system                          
           1
     8.668765    4.994941    0.000000
    -8.670542    4.998002    0.000000
     0.000000    0.000000   30.000000
   V    Mo   W    S 
   3   3   3  18
Direct configuration=     2
   0.66432227  0.66631514 -0.00014928
   0.66513570  0.33230350 -0.00001530
   0.33490185  0.00032492  0.00016287
   0.33472127  0.66665802  0.00015581
   0.33357621  0.33464489  0.00001449
   0.66525662 -0.00130323 -0.00000269
  -0.00000527  0.00134519 -0.00016255
   1.00131731  0.33324817 -0.00003366
   0.00109685  0.66656081 -0.00003792
   0.11008558  0.22156357  0.95065050
   0.22368128  0.10806000  0.04797730
   0.11009697  0.55490229  0.95075849
   0.22114661  0.44397630  0.04928202
   0.11462984  0.89055378  0.95193956
   0.22342211  0.78178697  0.04810785
   0.44651457  0.21997787  0.95305828
   0.55310520  0.11308466  0.04699711
   0.44899568  0.55768126  0.95188367
   0.55984908  0.44628065  0.04688265
   0.44199442  0.89123053  0.95201236
   0.55775878  0.77528093  0.04803810
   0.77628692  0.22502869  0.95206396
   0.88954403  0.11159564  0.04928069
   0.77417628  0.55401876  0.95313301
   0.88510401  0.44257991  0.04808233
   0.77642938  0.88463768  0.95190932
   0.88507088  0.77587757  0.04801092
unknown system                          
           1
     8.487336    4.898360    0.000000
    -8.487261    4.898211    0.000000
     0.000000    0.000000   30.000000
   V    Mo   W    S 
   3   3   3  18
Direct configuration=     3
   0.66361542  0.66626978 -0.00015906
   0.66477070  0.33202391 -0.00005665
   0.33530724  0.00030152  0.00017661
   0.33487337  0.66645828  0.00016829
   0.33303553  0.33498988  0.00005371
   0.66503449 -0.00175172 -0.00004340
  -0.00000474  0.00207108 -0.00012308
   1.00198736  0.33318093 -0.00003771
   0.00156680  0.66647455 -0.00003112
   0.10984458  0.22146996  0.95056372
   0.22347981  0.10790697  0.04792648
   0.10989302  0.55481233  0.95075405
   0.22093279  0.44388407  0.04938685
   0.11450308  0.89052250  0.95201859
   0.22328536  0.78178886  0.04811989
   0.44656110  0.21996751  0.95311641
   0.55303612  0.11309922  0.04700815
   0.44918552  0.55779607  0.95179040
   0.55992628  0.44635383  0.04684287
   0.44193731  0.89128164  0.95198210
   0.55781706  0.77520345  0.04813580
   0.77646372  0.22518024  0.95213080
   0.88977706  0.11169502  0.04927891
   0.77435575  0.55409099  0.95324006
   0.88525260  0.44263025  0.04800096
   0.77656880  0.88460273  0.95189949
   0.88520833  0.77591062  0.04785676
unknown system                          
           1
     8.278891    4.772921    0.000000
    -8.278386    4.772027    0.000000
     0.000000    0.000000   30.000000
   V    Mo   W    S 
   3   3   3  18
Direct configuration=     4
   0.66128659  0.66646305 -0.00013334
   0.66393078  0.33116236 -0.00020856
   0.33629853 -0.00033602  0.00015202
   0.33471355  0.66535454  0.00015086
   0.32985160  0.33589895  0.00016443
   0.66476173 -0.00328621 -0.00018437
   0.00006841  0.00530428  0.00006862
   1.00486429  0.33284781 -0.00004692
   0.00352741  0.66606515  0.00000928
   0.10981684  0.22155567  0.94851414
   0.22395046  0.10742362  0.04917144
   0.11000129  0.55481851  0.94909647
   0.22092985  0.44402181  0.05144380
   0.11555792  0.89126031  0.95087290
   0.22411900  0.78298529  0.04965589
   0.44697638  0.21959048  0.95206571
   0.55249527  0.11355258  0.04837649
   0.45052973  0.55853751  0.94998106
   0.56093118  0.44696753  0.04798983
   0.44127680  0.89176656  0.95045743
   0.55843439  0.77455353  0.04995279
   0.77605474  0.22574251  0.95098621
   0.88975447  0.11172904  0.05090966
   0.77349085  0.55360462  0.95231901
   0.88430950  0.44196207  0.04915672
   0.77598628  0.88333584  0.95038266
   0.88429663  0.77533306  0.04869570
unknown system                          
           1
     8.290998    4.775383    0.000000
    -8.288664    4.771319    0.000000
     0.000000    0.000000   30.000000
   V    Mo   W    S 
   3   3   3  18
Direct configuration=     5
   0.65691489  0.66685308  0.00006689
   0.66264665  0.33001495 -0.00041315
   0.33783103 -0.00253537 -0.00004136
   0.33368495  0.66302373  0.00005257
   0.32282911  0.33728298  0.00020734
   0.66420529 -0.00644046 -0.00032533
   0.00050768  0.01281296  0.00029174
   1.01120224  0.33234326 -0.00001480
   0.00751239  0.66461766  0.00012859
   0.11034514  0.22191812  0.94538758
   0.22481225  0.10775647  0.05075946
   0.11084437  0.55469434  0.94681562
   0.22132033  0.44479755  0.05454057
   0.11677476  0.89235739  0.94967195
   0.22587566  0.78428203  0.05186447
   0.44675534  0.21963125  0.95073155
   0.55220920  0.11372413  0.05036863
   0.45133502  0.55893357  0.94747711
   0.56091409  0.44732773  0.04948104
   0.44087842  0.89185898  0.94841335
   0.55867005  0.77380342  0.05240729
   0.77597732  0.22597219  0.94964147
   0.88894002  0.11198206  0.05316546
   0.77271118  0.55327905  0.95113258
   0.88352366  0.44092251  0.05055401
   0.77549273  0.88202050  0.94828773
   0.88350069  0.77498037  0.04934753
unknown system                          
           1
     8.290685    4.775055    0.000000
    -8.288368    4.771019    0.000000
     0.000000    0.000000   30.000000
   V    Mo   W    S 
   3   3   3  18
Direct configuration=     6
   0.65528681  0.66668799  0.00007850
   0.66215271  0.33007950 -0.00049173
   0.33856949 -0.00388007 -0.00005920
   0.33324620  0.66301508  0.00010711
   0.32166550  0.33744523  0.00018107
   0.66377804 -0.00737498 -0.00028687
   0.00067246  0.01518219  0.00021170
   1.01257273  0.33275261  0.00007733
   0.00890855  0.66327280  0.00019066
   0.11043548  0.22207884  0.94490201
   0.22483812  0.10851431  0.05060468
   0.11108866  0.55426121  0.94656293
   0.22151224  0.44530114  0.05490986
   0.11645542  0.89250716  0.94998109
   0.22640491  0.78416263  0.05203295
   0.44598354  0.21988574  0.95089205
   0.55236450  0.11336165  0.05037766
   0.45062783  0.55853253  0.94734064
   0.55977485  0.44695939  0.04943061
   0.44117413  0.89139258  0.94828689
   0.55822374  0.77369438  0.05254569
   0.77670776  0.22572559  0.94986331
   0.88855374  0.11252217  0.05335928
   0.77305491  0.55366333  0.95131006
   0.88409210  0.44054497  0.05049415
   0.77584926  0.88226912  0.94824525
   0.88422075  0.77565736  0.04885221
unknown system                          
           1
     8.297609    4.789414    0.000000
    -8.298054    4.790164    0.000000
     0.000000    0.000000   30.000000
   V    Mo   W    S 
   3   3   3  18
Direct configuration=     7
   0.65511595  0.66665662  0.00007885
   0.66209284  0.33008886 -0.00050441
   0.33864753 -0.00399676 -0.00006212
   0.33321226  0.66301914  0.00010848
   0.32154820  0.33748110  0.00018071
   0.66373430 -0.00747600 -0.00028655
   0.00067719  0.01542247  0.00021176
   1.01272117  0.33279273  0.00007910
   0.00904437  0.66312642  0.00019421
   0.11043879  0.22210197  0.94486416
   0.22483826  0.10854875  0.05059230
   0.11110972  0.55423707  0.94653652
   0.22153191  0.44533703  0.05494086
   0.11643529  0.89251152  0.95000770
   0.22644146  0.78416301  0.05205583
   0.44593678  0.21988975  0.95090399
   0.55236924  0.11334175  0.05038246
   0.45059415  0.55852194  0.94732374
   0.55971717  0.44694443  0.04943075
   0.44119175  0.89136823  0.94827060
   0.55820014  0.77368035  0.05256475
   0.77674827  0.22571608  0.94988254
   0.88853244  0.11255689  0.05337471
   0.77308016  0.55369296  0.95132623
   0.88411754  0.44051800  0.05049771
   0.77586488  0.88227498  0.94823862
   0.88427269  0.77569518  0.04880639
unknown system                          
           1
     8.293385    4.788406    0.000000
    -8.293947    4.789358    0.000000
     0.000000    0.000000   30.000000
   V    Mo   W    S 
   3   3   3  18
Direct configuration=     8
   0.65936738  0.66811961  0.00007019
   0.66381055  0.32976674 -0.00014166
   0.33592374 -0.00126384 -0.00001762
   0.33480590  0.66270482  0.00001228
   0.32424075  0.33688462  0.00018181
   0.66494531 -0.00547742 -0.00034600
   0.00058501  0.00946452  0.00028391
   1.00946208  0.33128832 -0.00000223
   0.00570573  0.66768563 -0.00002191
   0.11036881  0.22133023  0.94559992
   0.22473950  0.10773350  0.05083958
   0.11054965  0.55503971  0.94731583
   0.22109803  0.44452273  0.05439003
   0.11743214  0.89280387  0.94934006
   0.22572180  0.78426746  0.05136026
   0.44666141  0.21985117  0.95065121
   0.55185085  0.11346782  0.05030691
   0.45130500  0.55870897  0.94778387
   0.56077845  0.44742105  0.04933722
   0.44032892  0.89158001  0.94872688
   0.55852007  0.77352953  0.05213453
   0.77594463  0.22584516  0.94929690
   0.88929304  0.11143340  0.05313329
   0.77241651  0.55311104  0.95097675
   0.88390441  0.44150413  0.05039113
   0.77564093  0.88199289  0.94833853
   0.88281385  0.77489877  0.05005823
unknown system                          
           1
     8.282492    4.777139    0.000000
    -8.279298    4.771588    0.000000
     0.000000    0.000000   30.000000
   V    Mo   W    S 
   3   3   3  18
Direct configuration=     9
   0.66062399  0.66862334  0.00006009
   0.66434072  0.32955271 -0.00004048
   0.33517962 -0.00045356 -0.00000463
   0.33520954  0.66242025 -0.00000163
   0.32471131  0.33669308  0.00018014
   0.66536100 -0.00482834 -0.00035598
   0.00060316  0.00780895  0.00028599
   1.00862193  0.33071413 -0.00001907
   0.00470972  0.66918739 -0.00007094
   0.11032974  0.22109492  0.94581381
   0.22470428  0.10760623  0.05091955
   0.11036988  0.55518676  0.94757181
   0.22094566  0.44429969  0.05422823
   0.11766696  0.89292521  0.94912899
   0.22553799  0.78426027  0.05115050
   0.44687063  0.21991803  0.95060478
   0.55175048  0.11345286  0.05026733
   0.45146578  0.55870266  0.94790402
   0.56096035  0.44748933  0.04928518
   0.44015767  0.89160120  0.94887717
   0.55858452  0.77354345  0.05201617
   0.77578314  0.22582522  0.94916159
   0.88946298  0.11114189  0.05304920
   0.77224818  0.55295236  0.95089499
   0.88394523  0.44178587  0.05031431
   0.77561509  0.88196296  0.94836798
   0.88245489  0.77474760  0.05041080
unknown system                          
           1
     8.281662    4.772223    0.000000
    -8.277985    4.765839    0.000000
     0.000000    0.000000   30.000000
   V    Mo   W    S 
   3   3   3  18
Direct configuration=    10
   0.66250570  0.66992102  0.00002388
   0.66524972  0.32808965  0.00009080
   0.33436873  0.00084721 -0.00003073
   0.33564533  0.66037646  0.00001864
   0.32310840  0.33653390  0.00017846
   0.66646845 -0.00318293 -0.00035712
   0.00098350  0.00550755  0.00015768
   1.00825694  0.32871608 -0.00002185
   0.00300626  0.67333210 -0.00004786
   0.11016413  0.22066668  0.94579336
   0.22472211  0.10808357  0.05129628
   0.10984652  0.55482080  0.94805403
   0.22054707  0.44407114  0.05429493
   0.11791156  0.89358543  0.94848825
   0.22553605  0.78422154  0.05091253
   0.44715636  0.22049321  0.95057566
   0.55188063  0.11313043  0.05028890
   0.45151157  0.55823693  0.94779931
   0.56046212  0.44706513  0.04912821
   0.44030795  0.89137913  0.94912005
   0.55856924  0.77388261  0.05207270
   0.77601210  0.22552584  0.94898024
   0.88934072  0.11086529  0.05312136
   0.77200913  0.55275823  0.95073755
   0.88463025  0.44208363  0.05001973
   0.77580541  0.88220942  0.94820473
   0.88220851  0.77499441  0.05110020
unknown system                          
           1
     8.285564    4.768583    0.000000
    -8.279257    4.757644    0.000000
     0.000000    0.000000   30.000000
   V    Mo   W    S 
   3   3   3  18
Direct configuration=    11
   0.66025123  0.66987410  0.00006632
   0.66453976  0.32694987 -0.00005424
   0.33575826 -0.00053480 -0.00011016
   0.33539267  0.65884557  0.00001145
   0.31999077  0.33736486  0.00019824
   0.66627042 -0.00382728 -0.00034577
   0.00132921  0.00847889  0.00019052
   1.01076322  0.32792704  0.00007021
   0.00417714  0.67382341  0.00003010
   0.11002306  0.22080170  0.94487006
   0.22471384  0.10897731  0.05124412
   0.10975778  0.55429699  0.94792084
   0.22051169  0.44457287  0.05509246
   0.11764208  0.89395637  0.94854074
   0.22621029  0.78414260  0.05123734
   0.44662487  0.22095508  0.95078874
   0.55219039  0.11274352  0.05049175
   0.45103645  0.55784466  0.94735456
   0.55925492  0.44642167  0.04892541
   0.44073607  0.89076650  0.94894648
   0.55833689  0.77388837  0.05242637
   0.77696021  0.22541024  0.94913774
   0.88895320  0.11119494  0.05347875
   0.77237007  0.55318309  0.95097863
   0.88547678  0.44176097  0.04984654
   0.77602519  0.88255818  0.94798528
   0.88291800  0.77583773  0.05067742
unknown system                          
           1
     8.291176    4.770460    0.000000
    -8.284714    4.759251    0.000000
     0.000000    0.000000   30.000000
   V    Mo   W    S 
   3   3   3  18
Direct configuration=    12
   0.65783737  0.66978923  0.00002761
   0.66388224  0.32524074 -0.00012363
   0.33749165 -0.00239978 -0.00013874
   0.33507769  0.65735320  0.00011962
   0.31688762  0.33830717  0.00007157
   0.66583990 -0.00440576 -0.00032328
   0.00179348  0.01184761  0.00005893
   1.01335286  0.32676474  0.00020548
   0.00562177  0.67543832  0.00007943
   0.10993937  0.22085742  0.94410883
   0.22494912  0.10987356  0.05102671
   0.10958366  0.55372234  0.94800386
   0.22030085  0.44509459  0.05581479
   0.11788242  0.89461506  0.94864687
   0.22699237  0.78417679  0.05137587
   0.44587558  0.22131595  0.95112372
   0.55233099  0.11231171  0.05067087
   0.45053486  0.55740980  0.94698598
   0.55797702  0.44584120  0.04860132
   0.44086820  0.88988613  0.94880282
   0.55808894  0.77375438  0.05269341
   0.77807347  0.22533378  0.94928349
   0.88869665  0.11145826  0.05380177
   0.77257781  0.55360650  0.95129323
   0.88639227  0.44157461  0.04950925
   0.77616070  0.88275899  0.94789804
   0.88320558  0.77668791  0.05038207
unknown system                          
           1
     8.300402    4.772588    0.000000
    -8.293732    4.761026    0.000000
     0.000000    0.000000   30.000000
   V    Mo   W    S 
   3   3   3  18
Direct configuration=    13
   0.65708640  0.66955208  0.00001728
   0.66364868  0.32486124 -0.00016065
   0.33817113 -0.00302762 -0.00014270
   0.33500692  0.65741920  0.00014838
   0.31664961  0.33859087  0.00006085
   0.66556255 -0.00458377 -0.00031566
   0.00175245  0.01264146  0.00007601
   1.01370586  0.32664649  0.00025843
   0.00605598  0.67560669  0.00009222
   0.10996559  0.22093986  0.94394886
   0.22502924  0.11002433  0.05088143
   0.10954658  0.55359811  0.94801908
   0.22027856  0.44519980  0.05592155
   0.11803756  0.89479337  0.94872188
   0.22714026  0.78419072  0.05144192
   0.44568337  0.22130232  0.95123078
   0.55234224  0.11222385  0.05071864
   0.45039220  0.55738869  0.94691964
   0.55774952  0.44575492  0.04851967
   0.44086809  0.88968131  0.94873648
   0.55803107  0.77368122  0.05274085
   0.77828922  0.22534996  0.94935051
   0.88864330  0.11151044  0.05383826
   0.77262670  0.55369013  0.95140752
   0.88652748  0.44154891  0.04942710
   0.77616769  0.88276468  0.94790488
   0.88325622  0.77686520  0.05023668
unknown system                          
           1
     8.293655    4.771852    0.000000
    -8.286974    4.760264    0.000000
     0.000000    0.000000   30.000000
   V    Mo   W    S 
   3   3   3  18
Direct configuration=    14
   0.65531729  0.66896842 -0.00002539
   0.66311156  0.32371593 -0.00024971
   0.33992019 -0.00458625 -0.00014562
   0.33495032  0.65759173  0.00022038
   0.31608606  0.33944952  0.00000647
   0.66490989 -0.00480254 -0.00029530
   0.00160541  0.01423673  0.00005382
   1.01442879  0.32609740  0.00034685
   0.00706143  0.67652333  0.00008538
   0.11002066  0.22114991  0.94368096
   0.22523918  0.11033522  0.05050002
   0.10934572  0.55329827  0.94814508
   0.22020618  0.44541779  0.05612513
   0.11850048  0.89530063  0.94889254
   0.22743981  0.78423277  0.05159352
   0.44525914  0.22123321  0.95150934
   0.55239277  0.11196682  0.05084945
   0.45003464  0.55737152  0.94677976
   0.55726465  0.44555195  0.04830709
   0.44090785  0.88919622  0.94856759
   0.55791002  0.77353057  0.05283201
   0.77876611  0.22535055  0.94950330
   0.88844639  0.11155935  0.05392299
   0.77272199  0.55385385  0.95170781
   0.88686934  0.44158129  0.04919506
   0.77620138  0.88281628  0.94795228
   0.88329719  0.77727399  0.04993907
unknown system                          
           1
     8.287177    4.770303    0.000000
    -8.280252    4.758287    0.000000
     0.000000    0.000000   30.000000
   V    Mo   W    S 
   3   3   3  18
Direct configuration=    15
   0.65717175  0.66964022  0.00001900
   0.66368582  0.32480230 -0.00015897
   0.33817070 -0.00295246 -0.00016105
   0.33502991  0.65729217  0.00014326
   0.31656030  0.33849637  0.00007201
   0.66557558 -0.00456944 -0.00032463
   0.00181832  0.01268639  0.00009657
   1.01374504  0.32656881  0.00026205
   0.00590082  0.67575652  0.00009770
   0.10993369  0.22090143  0.94387694
   0.22501264  0.11011759  0.05088903
   0.10954371  0.55356022  0.94804814
   0.22024984  0.44519103  0.05597541
   0.11805790  0.89483299  0.94870426
   0.22720492  0.78420063  0.05141728
   0.44566211  0.22137997  0.95125400
   0.55230545  0.11219812  0.05071093
   0.45037520  0.55731894  0.94691435
   0.55763085  0.44570259  0.04847099
   0.44078997  0.88958779  0.94877658
   0.55801715  0.77364751  0.05275195
   0.77838865  0.22537946  0.94936515
   0.88870070  0.11150933  0.05384660
   0.77263416  0.55371406  0.95141886
   0.88660346  0.44153417  0.04939352
   0.77617587  0.88277073  0.94789389
   0.88326995  0.77694701  0.05024608
unknown system                          
           1
     8.297702    4.773762    0.000000
    -8.290369    4.761043    0.000000
     0.000000    0.000000   30.000000
   V    Mo   W    S 
   3   3   3  18
Direct configuration=    16
   0.65917044  0.67056179  0.00004254
   0.66432672  0.32568948 -0.00004825
   0.33644354 -0.00109643 -0.00019291
   0.33523676  0.65659046  0.00010178
   0.31650444  0.33737150  0.00010767
   0.66621866 -0.00438161 -0.00034733
   0.00225101  0.01137876  0.00006942
   1.01340722  0.32681393  0.00016094
   0.00440989  0.67537114  0.00011089
   0.10976879  0.22058261  0.94405168
   0.22475170  0.11002949  0.05130328
   0.10970022  0.55373267  0.94806350
   0.22022541  0.44491828  0.05586360
   0.11760018  0.89441949  0.94852196
   0.22705259  0.78418769  0.05113456
   0.44606133  0.22169495  0.95105472
   0.55217461  0.11240341  0.05052417
   0.45067985  0.55709324  0.94708206
   0.55778551  0.44572033  0.04851793
   0.44054259  0.88978561  0.94906591
   0.55809950  0.77371733  0.05266029
   0.77820947  0.22545896  0.94927455
   0.88900284  0.11147642  0.05377647
   0.77258873  0.55362094  0.95116258
   0.88652179  0.44147237  0.04949362
   0.77619697  0.88279006  0.94785576
   0.88328369  0.77681156  0.05058852
unknown system                          
           1
     8.299719    4.773272    0.000000
    -8.292218    4.760266    0.000000
     0.000000    0.000000   30.000000
   V    Mo   W    S 
   3   3   3  18
Direct configuration=    17
   0.65793204  0.67023357  0.00000995
   0.66398266  0.32468420 -0.00009415
   0.33767527 -0.00202393 -0.00018386
   0.33535107  0.65655128  0.00016064
   0.31596865  0.33794558  0.00007004
   0.66575526 -0.00455053 -0.00033139
   0.00214726  0.01243517  0.00006884
   1.01397217  0.32632854  0.00026099
   0.00495737  0.67636587  0.00012025
   0.10982287  0.22072421  0.94380155
   0.22490817  0.11020671  0.05103621
   0.10950279  0.55353235  0.94820793
   0.22015115  0.44505525  0.05602081
   0.11800141  0.89484146  0.94860778
   0.22725322  0.78422928  0.05120970
   0.44576344  0.22164170  0.95124589
   0.55222627  0.11219582  0.05063769
   0.45044961  0.55706106  0.94696794
   0.55745216  0.44557617  0.04833279
   0.44056792  0.88938617  0.94895142
   0.55804843  0.77361785  0.05274064
   0.77854659  0.22543847  0.94936801
   0.88882828  0.11147935  0.05384251
   0.77262956  0.55373795  0.95136792
   0.88681959  0.44153795  0.04929664
   0.77622405  0.88284099  0.94787784
   0.88327720  0.77714196  0.05040531
unknown system                          
           1
     8.297799    4.772372    0.000000
    -8.290259    4.759297    0.000000
     0.000000    0.000000   30.000000
   V    Mo   W    S 
   3   3   3  18
Direct configuration=    18
   0.65717068  0.67003207 -0.00001971
   0.66376692  0.32399180 -0.00012048
   0.33851228 -0.00265975 -0.00017960
   0.33549048  0.65653205  0.00019580
   0.31562204  0.33836909  0.00003175
   0.66540325 -0.00463646 -0.00032469
   0.00210298  0.01305665  0.00003775
   1.01432230  0.32591624  0.00029523
   0.00522730  0.67714262  0.00011299
   0.10984161  0.22081309  0.94370769
   0.22499916  0.11031579  0.05086197
   0.10936934  0.55342740  0.94833935
   0.22011209  0.44513189  0.05609833
   0.11824317  0.89511162  0.94866813
   0.22733578  0.78423686  0.05123855
   0.44561793  0.22161214  0.95136930
   0.55227818  0.11206360  0.05070869
   0.45030780  0.55705442  0.94691177
   0.55727373  0.44548088  0.04821210
   0.44059728  0.88915131  0.94888929
   0.55801214  0.77356331  0.05277580
   0.77873410  0.22540259  0.94942746
   0.88871292  0.11145522  0.05387524
   0.77265843  0.55380341  0.95150264
   0.88701579  0.44161855  0.04916255
   0.77623953  0.88288940  0.94791020
   0.88324725  0.77733868  0.05031176
unknown system                          
           1
     8.305877    4.773729    0.000000
    -8.298194    4.760416    0.000000
     0.000000    0.000000   30.000000
   V    Mo   W    S 
   3   3   3  18
Direct configuration=    19
   0.65712727  0.66999877 -0.00002230
   0.66373125  0.32396330 -0.00012524
   0.33854797 -0.00266115 -0.00018265
   0.33543479  0.65651052  0.00019516
   0.31555730  0.33836235  0.00002724
   0.66538646 -0.00462258 -0.00032774
   0.00213306  0.01314963  0.00002701
   1.01439121  0.32592910  0.00028719
   0.00530067  0.67710422  0.00011223
   0.10983248  0.22081584  0.94371877
   0.22499486  0.11031474  0.05085556
   0.10938097  0.55342321  0.94833725
   0.22011915  0.44513590  0.05609713
   0.11823030  0.89509781  0.94868824
   0.22734564  0.78424246  0.05123481
   0.44561746  0.22161221  0.95138106
   0.55227945  0.11207171  0.05069871
   0.45029330  0.55704995  0.94691990
   0.55726442  0.44547109  0.04820583
   0.44059838  0.88915019  0.94889981
   0.55800759  0.77356434  0.05277028
   0.77873568  0.22540769  0.94944247
   0.88871393  0.11146248  0.05387263
   0.77266721  0.55380710  0.95151431
   0.88700417  0.44160633  0.04915869
   0.77625114  0.88289839  0.94792102
   0.88326835  0.77734884  0.05029253
unknown system                          
           1
     8.300315    4.774933    0.000000
    -8.292863    4.762007    0.000000
     0.000000    0.000000   30.000000
   V    Mo   W    S 
   3   3   3  18
Direct configuration=    20
   0.65605280  0.66979252 -0.00005743
   0.66354725  0.32309504 -0.00015556
   0.33968247 -0.00378075 -0.00016253
   0.33583468  0.65664061  0.00024468
   0.31530969  0.33911110 -0.00001844
   0.66495137 -0.00484714 -0.00030724
   0.00189187  0.01377182  0.00001622
   1.01465703  0.32525080  0.00035954
   0.00553803  0.67837598  0.00009472
   0.10989969  0.22096402  0.94356695
   0.22514578  0.11048203  0.05058843
   0.10913059  0.55328198  0.94854361
   0.22003921  0.44525018  0.05620364
   0.11863407  0.89554355  0.94872514
   0.22741390  0.78421391  0.05131247
   0.44536765  0.22153730  0.95153011
   0.55236612  0.11181385  0.05084708
   0.45010905  0.55708629  0.94680718
   0.55703182  0.44538604  0.04805875
   0.44067900  0.88881322  0.94875053
   0.55795908  0.77348273  0.05284047
   0.77900661  0.22530193  0.94948348
   0.88851633  0.11140049  0.05392767
   0.77270591  0.55391504  0.95168695
   0.88735577  0.44179877  0.04897622
   0.77623170  0.88294487  0.94793767
   0.88315697  0.77758828  0.05019960
unknown system                          
           1
     8.298526    4.773044    0.000000
    -8.290607    4.759308    0.000000
     0.000000    0.000000   30.000000
   V    Mo   W    S 
   3   3   3  18
Direct configuration=    21
   0.65740756  0.67006539  0.00000492
   0.66370560  0.32429747 -0.00012291
   0.33819175 -0.00214492 -0.00019893
   0.33517381  0.65639574  0.00019843
   0.31560736  0.33802268  0.00006615
   0.66546144 -0.00463453 -0.00032109
   0.00226189  0.01308810  0.00005883
   1.01439773  0.32634685  0.00030176
   0.00538942  0.67635035  0.00015020
   0.10981112  0.22075543  0.94365424
   0.22493684  0.11028579  0.05099680
   0.10952133  0.55343128  0.94816585
   0.22015669  0.44509750  0.05612902
   0.11808453  0.89493563  0.94866854
   0.22743289  0.78432487  0.05124288
   0.44565786  0.22169076  0.95128881
   0.55220569  0.11219557  0.05068263
   0.45037271  0.55699190  0.94694399
   0.55727956  0.44547918  0.04825355
   0.44049952  0.88921933  0.94893879
   0.55804680  0.77356446  0.05274338
   0.77872584  0.22553231  0.94941627
   0.88881486  0.11154919  0.05386052
   0.77264166  0.55377759  0.95145327
   0.88684313  0.44143778  0.04924899
   0.77623876  0.88284232  0.94790641
   0.88334812  0.77731645  0.05026859
unknown system                          
           1
     8.303225    4.774000    0.000000
    -8.295450    4.760521    0.000000
     0.000000    0.000000   30.000000
   V    Mo   W    S 
   3   3   3  18
Direct configuration=    22
   0.65675160  0.66985358 -0.00002846
   0.66345590  0.32381775 -0.00016945
   0.33880382 -0.00248851 -0.00020504
   0.33501200  0.65631491  0.00021219
   0.31523909  0.33820181  0.00002498
   0.66515997 -0.00468618 -0.00033074
   0.00233942  0.01379524  0.00001079
   1.01483851  0.32627953  0.00028340
   0.00588892  0.67654785  0.00013611
   0.10979885  0.22085619  0.94364519
   0.22495731  0.11037218  0.05086773
   0.10948548  0.55332305  0.94822896
   0.22015847  0.44515096  0.05618552
   0.11819399  0.89504097  0.94877283
   0.22754936  0.78435949  0.05127550
   0.44552624  0.22168581  0.95138017
   0.55223340  0.11212712  0.05072563
   0.45019981  0.55695019  0.94693422
   0.55710994  0.44538100  0.04816732
   0.44051201  0.88903504  0.94891231
   0.55799814  0.77353556  0.05276462
   0.77888625  0.22552021  0.94950776
   0.88872858  0.11157725  0.05385710
   0.77273685  0.55383696  0.95158997
   0.88696025  0.44144134  0.04915967
   0.77626742  0.88291421  0.94796395
   0.88342290  0.77747094  0.05012767
unknown system                          
           1
     8.293043    4.773463    0.000000
    -8.284093    4.757925    0.000000
     0.000000    0.000000   30.000000
   V    Mo   W    S 
   3   3   3  18
Direct configuration=    23
   0.65624756  0.66971335 -0.00004834
   0.66338365  0.32331370 -0.00017480
   0.33942444 -0.00313610 -0.00018629
   0.33530939  0.65646340  0.00023698
   0.31521236  0.33865430 -0.00000048
   0.66493972 -0.00472627 -0.00031858
   0.00217355  0.01398255  0.00000720
   1.01485034  0.32583190  0.00032558
   0.00589195  0.67738749  0.00012088
   0.10985186  0.22092767  0.94358387
   0.22506912  0.11043655  0.05071484
   0.10932456  0.55327352  0.94836380
   0.22010874  0.44521590  0.05621610
   0.11843972  0.89531104  0.94877138
   0.22753491  0.78431832  0.05130823
   0.44543534  0.22161243  0.95147092
   0.55229580  0.11199771  0.05079285
   0.45012688  0.55700437  0.94686429
   0.55704622  0.44534958  0.04810163
   0.44057896  0.88889969  0.94882454
   0.55797200  0.77350153  0.05280835
   0.77897193  0.22544810  0.94951360
   0.88861479  0.11150980  0.05389499
   0.77271844  0.55386166  0.95166360
   0.88712755  0.44157364  0.04905931
   0.77625447  0.88292868  0.94796006
   0.88331018  0.77755993  0.05012540
unknown system                          
           1
     8.299792    4.777574    0.000000
    -8.291192    4.762642    0.000000
     0.000000    0.000000   30.000000
   V    Mo   W    S 
   3   3   3  18
Direct configuration=    24
   0.65749059  0.67020252  0.00004440
   0.66340504  0.32503870 -0.00018594
   0.33751071 -0.00082407 -0.00025040
   0.33390721  0.65590745  0.00021426
   0.31516830  0.33695682  0.00012576
   0.66555553 -0.00488746 -0.00031588
   0.00272693  0.01394925  0.00006679
   1.01512066  0.32787806  0.00027213
   0.00652621  0.67372432  0.00024635
   0.10966698  0.22073075  0.94358777
   0.22464072  0.11028978  0.05125936
   0.11001886  0.55335343  0.94769457
   0.22032058  0.44501135  0.05623872
   0.11762752  0.89438347  0.94882883
   0.22787998  0.78460631  0.05129080
   0.44560124  0.22191839  0.95112377
   0.55202870  0.11240748  0.05058652
   0.45029170  0.55674782  0.94704190
   0.55710362  0.44542610  0.04829149
   0.44029534  0.88921315  0.94909127