   27   27  100    1
  0.9710400E+02  0.1002848E-08  0.1002848E-08  0.3000000E-08  0.5000000E-15
  1.000000000000000E-004
  CAR 
 unknown system                          
    159     34    120
 
  0.0000000E+00  0.0000000E+00  0.0000000E+00  0.1562500E-01
    1      -17.786146   1.000000
    2      -16.664643   1.000000
    3      -16.601431   1.000000
    4      -16.560547   1.000000
    5      -16.502883   1.000000
    6      -16.452563   1.000000
    7      -16.428542   1.000000
    8      -16.348964   1.000000
    9      -16.150015   1.000000
   10      -16.120155   1.000000
   11      -16.039567   1.000000
   12      -15.979340   1.000000
   13      -15.886443   1.000000
   14      -15.745475   1.000000
   15      -15.625331   1.000000
   16      -15.532155   1.000000
   17      -15.390311   1.000000
   18      -15.287898   1.000000
   19       -9.220928   1.000000
   20       -8.925649   1.000000
   21       -8.847579   1.000000
   22       -8.826345   1.000000
   23       -8.729397   1.000000
   24       -8.707359   1.000000
   25       -8.676840   1.000000
   26       -8.611478   1.000000
   27       -8.544098   1.000000
   28       -8.453018   1.000000
   29       -8.437843   1.000000
   30       -8.351020   1.000000
   31       -8.292399   1.000000
   32       -8.185026   1.000000
   33       -8.085726   1.000000
   34       -7.955493   1.000000
   35       -7.840487   1.000000
   36       -7.814071   1.000000
   37       -7.745793   1.000000
   38       -7.544860   1.000000
   39       -7.450102   1.000000
   40       -7.389855   1.000000
   41       -7.297688   1.000000
   42       -7.269003   1.000000
   43       -7.143181   1.000000
   44       -6.955335   1.000000
   45       -6.795686   1.000000
   46       -6.775448   1.000000
   47       -6.734076   1.000000
   48       -6.648499   1.000000
   49       -6.533358   1.000000
   50       -6.457776   1.000000
   51       -6.444286   1.000000
   52       -6.382247   1.000000
   53       -6.325082   1.000000
   54       -6.229021   1.000000
   55       -6.204446   1.000000
   56       -6.159763   1.000000
   57       -6.067826   1.000000
   58       -5.851081   1.000000
   59       -5.732165   1.000000
   60       -5.548472   1.000000
   61       -5.503485   1.000000
   62       -5.477070   1.000000
   63       -5.336375   1.000000
   64       -5.165476   1.000000
   65       -5.121190   1.000000
   66       -5.017232   1.000000
   67       -4.926491   1.000000
   68       -4.909887   1.000000
   69       -4.806675   1.000000
   70       -4.771895   1.000000
   71       -4.654379   1.000000
   72       -4.605269   1.000000
   73       -4.555738   1.000000
   74       -4.273601   1.000000
   75       -4.144203   1.000000
   76       -3.966221   0.999999
   77       -3.732871   0.999305
   78       -3.669254   0.996993
   79       -3.498310   0.938013
   80       -3.444620   0.876703
   81       -3.282835   0.505852
   82       -2.744193   0.000074
   83       -2.672716   0.000009
   84       -2.642828   0.000003
   85       -2.469067   0.000000
   86       -2.371733   0.000000
   87       -2.277626   0.000000
   88       -2.261917   0.000000
   89       -2.186701   0.000000
   90       -2.074097   0.000000
   91       -1.876805   0.000000
   92       -1.853952   0.000000
   93       -1.483043   0.000000
   94       -1.337691   0.000000
   95       -1.233944   0.000000
   96       -1.149221   0.000000
   97       -0.917372   0.000000
   98       -0.825535   0.000000
   99       -0.702083   0.000000
  100       -0.659961   0.000000
  101       -0.570303   0.000000
  102       -0.502510   0.000000
  103       -0.449464   0.000000
  104       -0.407927   0.000000
  105       -0.330071   0.000000
  106       -0.127217   0.000000
  107       -0.018441   0.000000
  108       -0.007079   0.000000
  109        0.063953   0.000000
  110        0.251519   0.000000
  111        0.361048   0.000000
  112        0.403952   0.000000
  113        0.677178   0.000000
  114        0.837914   0.000000
  115        0.897441   0.000000
  116        1.175437   0.000000
  117        1.325124   0.000000
  118        1.639303   0.000000
  119        1.830990   0.000000
  120        2.137350   0.000000
 
  0.1250000E+00  0.2775558E-16  0.0000000E+00  0.3125000E-01
    1      -17.761059   1.000000
    2      -16.746548   1.000000
    3      -16.649189   1.000000
    4      -16.618525   1.000000
    5      -16.522741   1.000000
    6      -16.426994   1.000000
    7      -16.375292   1.000000
    8      -16.277291   1.000000
    9      -16.176526   1.000000
   10      -16.106489   1.000000
   11      -15.991399   1.000000
   12      -15.957524   1.000000
   13      -15.871903   1.000000
   14      -15.742039   1.000000
   15      -15.635400   1.000000
   16      -15.540249   1.000000
   17      -15.398587   1.000000
   18      -15.293871   1.000000
   19       -9.213571   1.000000
   20       -9.088748   1.000000
   21       -8.982676   1.000000
   22       -8.921347   1.000000
   23       -8.774264   1.000000
   24       -8.711168   1.000000
   25       -8.642103   1.000000
   26       -8.607287   1.000000
   27       -8.517374   1.000000
   28       -8.474626   1.000000
   29       -8.389670   1.000000
   30       -8.290085   1.000000
   31       -8.196666   1.000000
   32       -8.061368   1.000000
   33       -7.992158   1.000000
   34       -7.904369   1.000000
   35       -7.853696   1.000000
   36       -7.741528   1.000000
   37       -7.686051   1.000000
   38       -7.573100   1.000000
   39       -7.484920   1.000000
   40       -7.354520   1.000000
   41       -7.335400   1.000000
   42       -7.223560   1.000000
   43       -7.166238   1.000000
   44       -6.997160   1.000000
   45       -6.846008   1.000000
   46       -6.809723   1.000000
   47       -6.720507   1.000000
   48       -6.655128   1.000000
   49       -6.516090   1.000000
   50       -6.470607   1.000000
   51       -6.428128   1.000000
   52       -6.382892   1.000000
   53       -6.333533   1.000000
   54       -6.224149   1.000000
   55       -6.180940   1.000000
   56       -6.143284   1.000000
   57       -6.059673   1.000000
   58       -5.877159   1.000000
   59       -5.713319   1.000000
   60       -5.529440   1.000000
   61       -5.480647   1.000000
   62       -5.464679   1.000000
   63       -5.385084   1.000000
   64       -5.247378   1.000000
   65       -5.174814   1.000000
   66       -5.064245   1.000000
   67       -5.022763   1.000000
   68       -4.925221   1.000000
   69       -4.840053   1.000000
   70       -4.710926   1.000000
   71       -4.599836   1.000000
   72       -4.557212   1.000000
   73       -4.496904   1.000000
   74       -4.215106   1.000000
   75       -4.123479   1.000000
   76       -3.936034   0.999998
   77       -3.795057   0.999862
   78       -3.740439   0.999424
   79       -3.565171   0.977842
   80       -3.471147   0.910887
   81       -3.142402   0.163953
   82       -2.752511   0.000094
   83       -2.676337   0.000010
   84       -2.615365   0.000001
   85       -2.477550   0.000000
   86       -2.346523   0.000000
   87       -2.275969   0.000000
   88       -2.254565   0.000000
   89       -2.158041   0.000000
   90       -2.078958   0.000000
   91       -1.887432   0.000000
   92       -1.839051   0.000000
   93       -1.481423   0.000000
   94       -1.331496   0.000000
   95       -1.221632   0.000000
   96       -1.135799   0.000000
   97       -0.944761   0.000000
   98       -0.837082   0.000000
   99       -0.773219   0.000000
  100       -0.682579   0.000000
  101       -0.626915   0.000000
  102       -0.571717   0.000000
  103       -0.478810   0.000000
  104       -0.448110   0.000000
  105       -0.314503   0.000000
  106       -0.250268   0.000000
  107       -0.098408   0.000000
  108        0.025734   0.000000
  109        0.127654   0.000000
  110        0.302610   0.000000
  111        0.343051   0.000000
  112        0.389932   0.000000
  113        0.661989   0.000000
  114        0.847562   0.000000
  115        0.912034   0.000000
  116        1.249149   0.000000
  117        1.347417   0.000000
  118        1.683240   0.000000
  119        1.870774   0.000000
  120        2.172458   0.000000
 
  0.2500000E+00  0.5551115E-16  0.0000000E+00  0.3125000E-01
    1      -17.687059   1.000000
    2      -16.961367   1.000000
    3      -16.694439   1.000000
    4      -16.646831   1.000000
    5      -16.572165   1.000000
    6      -16.389900   1.000000
    7      -16.315181   1.000000
    8      -16.213611   1.000000
    9      -16.146932   1.000000
   10      -16.087315   1.000000
   11      -15.980102   1.000000
   12      -15.864542   1.000000
   13      -15.827493   1.000000
   14      -15.741015   1.000000
   15      -15.647035   1.000000
   16      -15.565583   1.000000
   17      -15.415823   1.000000
   18      -15.308957   1.000000
   19       -9.440106   1.000000
   20       -9.156188   1.000000
   21       -9.114391   1.000000
   22       -8.982235   1.000000
   23       -8.925816   1.000000
   24       -8.759976   1.000000
   25       -8.614237   1.000000
   26       -8.563072   1.000000
   27       -8.481132   1.000000
   28       -8.386653   1.000000
   29       -8.308488   1.000000
   30       -8.224137   1.000000
   31       -8.126216   1.000000
   32       -8.080005   1.000000
   33       -7.914491   1.000000
   34       -7.810351   1.000000
   35       -7.748029   1.000000
   36       -7.626270   1.000000
   37       -7.569755   1.000000
   38       -7.495908   1.000000
   39       -7.453067   1.000000
   40       -7.404921   1.000000
   41       -7.294501   1.000000
   42       -7.218550   1.000000
   43       -7.131746   1.000000
   44       -7.030291   1.000000
   45       -6.870584   1.000000
   46       -6.825236   1.000000
   47       -6.740942   1.000000
   48       -6.673502   1.000000
   49       -6.564617   1.000000
   50       -6.482790   1.000000
   51       -6.430070   1.000000
   52       -6.355069   1.000000
   53       -6.298824   1.000000
   54       -6.235871   1.000000
   55       -6.127198   1.000000
   56       -6.066786   1.000000
   57       -6.032138   1.000000
   58       -5.898998   1.000000
   59       -5.723577   1.000000
   60       -5.677570   1.000000
   61       -5.630856   1.000000
   62       -5.533675   1.000000
   63       -5.413021   1.000000
   64       -5.337534   1.000000
   65       -5.205424   1.000000
   66       -5.102356   1.000000
   67       -5.021973   1.000000
   68       -4.917509   1.000000
   69       -4.855309   1.000000
   70       -4.728245   1.000000
   71       -4.508295   1.000000
   72       -4.457538   1.000000
   73       -4.372881   1.000000
   74       -4.232571   1.000000
   75       -4.093342   1.000000
   76       -4.076083   1.000000
   77       -3.933476   0.999998
   78       -3.678558   0.997545
   79       -3.561645   0.976492
   80       -3.431114   0.856145
   81       -3.015777   0.030485
   82       -2.781343   0.000207
   83       -2.674450   0.000009
   84       -2.545403   0.000000
   85       -2.488183   0.000000
   86       -2.334000   0.000000
   87       -2.294510   0.000000
   88       -2.197817   0.000000
   89       -2.114143   0.000000
   90       -2.042978   0.000000
   91       -1.891721   0.000000
   92       -1.819727   0.000000
   93       -1.472230   0.000000
   94       -1.309776   0.000000
   95       -1.194553   0.000000
   96       -1.123637   0.000000
   97       -1.047192   0.000000
   98       -0.937925   0.000000
   99       -0.861899   0.000000
  100       -0.776769   0.000000
  101       -0.735123   0.000000
  102       -0.683486   0.000000
  103       -0.545340   0.000000
  104       -0.480776   0.000000
  105       -0.413708   0.000000
  106       -0.294003   0.000000
  107       -0.197345   0.000000
  108       -0.017842   0.000000
  109        0.100344   0.000000
  110        0.222060   0.000000
  111        0.324798   0.000000
  112        0.493808   0.000000
  113        0.666012   0.000000
  114        0.895925   0.000000
  115        0.975897   0.000000
  116        1.365801   0.000000
  117        1.424884   0.000000
  118        1.806367   0.000000
  119        1.983578   0.000000
  120        2.276715   0.000000
 
  0.3750000E+00  0.0000000E+00  0.0000000E+00  0.3125000E-01
    1      -17.569639   1.000000
    2      -17.178128   1.000000
    3      -16.740008   1.000000
    4      -16.663933   1.000000
    5      -16.577571   1.000000
    6      -16.408681   1.000000
    7      -16.278125   1.000000
    8      -16.168833   1.000000
    9      -16.104467   1.000000
   10      -16.049905   1.000000
   11      -15.933842   1.000000
   12      -15.843883   1.000000
   13      -15.803685   1.000000
   14      -15.742271   1.000000
   15      -15.646733   1.000000
   16      -15.569030   1.000000
   17      -15.439252   1.000000
   18      -15.320392   1.000000
   19       -9.659072   1.000000
   20       -9.270046   1.000000
   21       -9.120790   1.000000
   22       -9.045560   1.000000
   23       -8.924379   1.000000
   24       -8.808871   1.000000
   25       -8.571368   1.000000
   26       -8.505176   1.000000
   27       -8.432334   1.000000
   28       -8.334062   1.000000
   29       -8.295177   1.000000
   30       -8.197869   1.000000
   31       -8.141616   1.000000
   32       -8.042324   1.000000
   33       -7.973382   1.000000
   34       -7.834024   1.000000
   35       -7.687733   1.000000
   36       -7.647114   1.000000
   37       -7.520039   1.000000
   38       -7.457357   1.000000
   39       -7.373001   1.000000
   40       -7.284910   1.000000
   41       -7.177652   1.000000
   42       -7.115169   1.000000
   43       -7.088136   1.000000
   44       -7.023929   1.000000
   45       -6.855226   1.000000
   46       -6.795189   1.000000
   47       -6.706801   1.000000
   48       -6.695263   1.000000
   49       -6.561547   1.000000
   50       -6.466129   1.000000
   51       -6.373779   1.000000
   52       -6.357771   1.000000
   53       -6.287206   1.000000
   54       -6.214066   1.000000
   55       -6.108921   1.000000
   56       -6.046476   1.000000
   57       -6.016484   1.000000
   58       -5.970545   1.000000
   59       -5.900417   1.000000
   60       -5.816890   1.000000
   61       -5.725665   1.000000
   62       -5.619744   1.000000
   63       -5.533082   1.000000
   64       -5.351304   1.000000
   65       -5.172844   1.000000
   66       -5.060983   1.000000
   67       -5.012878   1.000000
   68       -4.884131   1.000000
   69       -4.822967   1.000000
   70       -4.767339   1.000000
   71       -4.602296   1.000000
   72       -4.446461   1.000000
   73       -4.344263   1.000000
   74       -4.295214   1.000000
   75       -4.180575   1.000000
   76       -3.988762   1.000000
   77       -3.871509   0.999985
   78       -3.658255   0.996199
   79       -3.558080   0.975057
   80       -3.339943   0.662203
   81       -2.950003   0.009673
   82       -2.804026   0.000374
   83       -2.659195   0.000006
   84       -2.511835   0.000000
   85       -2.477894   0.000000
   86       -2.344770   0.000000
   87       -2.314313   0.000000
   88       -2.144461   0.000000
   89       -2.079103   0.000000
   90       -1.967280   0.000000
   91       -1.859529   0.000000
   92       -1.806819   0.000000
   93       -1.458267   0.000000
   94       -1.292932   0.000000
   95       -1.217736   0.000000
   96       -1.177644   0.000000
   97       -1.106318   0.000000
   98       -1.061175   0.000000
   99       -0.923868   0.000000
  100       -0.903928   0.000000
  101       -0.827052   0.000000
  102       -0.724131   0.000000
  103       -0.598173   0.000000
  104       -0.557884   0.000000
  105       -0.411940   0.000000
  106       -0.366181   0.000000
  107       -0.252551   0.000000
  108       -0.081592   0.000000
  109       -0.018992   0.000000
  110        0.136691   0.000000
  111        0.345666   0.000000
  112        0.540264   0.000000
  113        0.700859   0.000000
  114        0.959544   0.000000
  115        1.053968   0.000000
  116        1.432120   0.000000
  117        1.527917   0.000000
  118        1.990442   0.000000
  119        2.156777   0.000000
  120        2.447377   0.000000
 
  0.5000000E+00  0.1110223E-15  0.0000000E+00  0.1562500E-01
    1      -17.459962   1.000000
    2      -17.322643   1.000000
    3      -16.755884   1.000000
    4      -16.673695   1.000000
    5      -16.571577   1.000000
    6      -16.422978   1.000000
    7      -16.266538   1.000000
    8      -16.155828   1.000000
    9      -16.095975   1.000000
   10      -16.010134   1.000000
   11      -15.899041   1.000000
   12      -15.849977   1.000000
   13      -15.817655   1.000000
   14      -15.742208   1.000000
   15      -15.662369   1.000000
   16      -15.535804   1.000000
   17      -15.463164   1.000000
   18      -15.321592   1.000000
   19       -9.737735   1.000000
   20       -9.311757   1.000000
   21       -9.128481   1.000000
   22       -9.093367   1.000000
   23       -8.886524   1.000000
   24       -8.777034   1.000000
   25       -8.582664   1.000000
   26       -8.522622   1.000000
   27       -8.435339   1.000000
   28       -8.285155   1.000000
   29       -8.271357   1.000000
   30       -8.176644   1.000000
   31       -8.149538   1.000000
   32       -8.050432   1.000000
   33       -7.966123   1.000000
   34       -7.819831   1.000000
   35       -7.801659   1.000000
   36       -7.663720   1.000000
   37       -7.501481   1.000000
   38       -7.433745   1.000000
   39       -7.369817   1.000000
   40       -7.261950   1.000000
   41       -7.110283   1.000000
   42       -7.064461   1.000000
   43       -7.012500   1.000000
   44       -6.936898   1.000000
   45       -6.816782   1.000000
   46       -6.754449   1.000000
   47       -6.700837   1.000000
   48       -6.618425   1.000000
   49       -6.588761   1.000000
   50       -6.498377   1.000000
   51       -6.433754   1.000000
   52       -6.384957   1.000000
   53       -6.323364   1.000000
   54       -6.189252   1.000000
   55       -6.174678   1.000000
   56       -6.096655   1.000000
   57       -6.055567   1.000000
   58       -5.897412   1.000000
   59       -5.818501   1.000000
   60       -5.790625   1.000000
   61       -5.755049   1.000000
   62       -5.706789   1.000000
   63       -5.484813   1.000000
   64       -5.434269   1.000000
   65       -5.318317   1.000000
   66       -5.048182   1.000000
   67       -5.014262   1.000000
   68       -4.884958   1.000000
   69       -4.852919   1.000000
   70       -4.681413   1.000000
   71       -4.664434   1.000000
   72       -4.436732   1.000000
   73       -4.362223   1.000000
   74       -4.320439   1.000000
   75       -4.175664   1.000000
   76       -3.944517   0.999999
   77       -3.800611   0.999881
   78       -3.690559   0.998121
   79       -3.559416   0.975603
   80       -3.292918   0.534253
   81       -2.931813   0.006804
   82       -2.809288   0.000428
   83       -2.645853   0.000004
   84       -2.527546   0.000000
   85       -2.453083   0.000000
   86       -2.353645   0.000000
   87       -2.319577   0.000000
   88       -2.130567   0.000000
   89       -2.053075   0.000000
   90       -1.941081   0.000000
   91       -1.825792   0.000000
   92       -1.799338   0.000000
   93       -1.449361   0.000000
   94       -1.322744   0.000000
   95       -1.249554   0.000000
   96       -1.184209   0.000000
   97       -1.152181   0.000000
   98       -1.074203   0.000000
   99       -0.960167   0.000000
  100       -0.941323   0.000000
  101       -0.871781   0.000000
  102       -0.726761   0.000000
  103       -0.634865   0.000000
  104       -0.569431   0.000000
  105       -0.433705   0.000000
  106       -0.378316   0.000000
  107       -0.266411   0.000000
  108       -0.132392   0.000000
  109       -0.047716   0.000000
  110        0.097410   0.000000
  111        0.356295   0.000000
  112        0.545535   0.000000
  113        0.720843   0.000000
  114        0.985832   0.000000
  115        1.086077   0.000000
  116        1.455843   0.000000
  117        1.569308   0.000000
  118        2.215081   0.000000
  119        2.233025   0.000000
  120        2.370165   0.000000
 
  0.0000000E+00  0.1250000E+00  0.0000000E+00  0.3125000E-01
    1      -17.760621   1.000000
    2      -16.756261   1.000000
    3      -16.656524   1.000000
    4      -16.570041   1.000000
    5      -16.549030   1.000000
    6      -16.444523   1.000000
    7      -16.351379   1.000000
    8      -16.290405   1.000000
    9      -16.176607   1.000000
   10      -16.094826   1.000000
   11      -16.030982   1.000000
   12      -15.958736   1.000000
   13      -15.837543   1.000000
   14      -15.747822   1.000000
   15      -15.626152   1.000000
   16      -15.540790   1.000000
   17      -15.402488   1.000000
   18      -15.296127   1.000000
   19       -9.210265   1.000000
   20       -9.110630   1.000000
   21       -8.996164   1.000000
   22       -8.928043   1.000000
   23       -8.777628   1.000000
   24       -8.718317   1.000000
   25       -8.643401   1.000000
   26       -8.594209   1.000000
   27       -8.507576   1.000000
   28       -8.422129   1.000000
   29       -8.372650   1.000000
   30       -8.302445   1.000000
   31       -8.246726   1.000000
   32       -8.017087   1.000000
   33       -7.993412   1.000000
   34       -7.935350   1.000000
   35       -7.844232   1.000000
   36       -7.742244   1.000000
   37       -7.688048   1.000000
   38       -7.551783   1.000000
   39       -7.486680   1.000000
   40       -7.401602   1.000000
   41       -7.303210   1.000000
   42       -7.244350   1.000000
   43       -7.134450   1.000000
   44       -6.957741   1.000000
   45       -6.889755   1.000000
   46       -6.810740   1.000000
   47       -6.749123   1.000000
   48       -6.631822   1.000000
   49       -6.524898   1.000000
   50       -6.463465   1.000000
   51       -6.416052   1.000000
   52       -6.385050   1.000000
   53       -6.302864   1.000000
   54       -6.239016   1.000000
   55       -6.216446   1.000000
   56       -6.145598   1.000000
   57       -6.062127   1.000000
   58       -5.861549   1.000000
   59       -5.683365   1.000000
   60       -5.556979   1.000000
   61       -5.489488   1.000000
   62       -5.467420   1.000000
   63       -5.386832   1.000000
   64       -5.226802   1.000000
   65       -5.167903   1.000000
   66       -5.093799   1.000000
   67       -4.963925   1.000000
   68       -4.922330   1.000000
   69       -4.798137   1.000000
   70       -4.746542   1.000000
   71       -4.662820   1.000000
   72       -4.572509   1.000000
   73       -4.503196   1.000000
   74       -4.256897   1.000000
   75       -4.075519   1.000000
   76       -3.919362   0.999997
   77       -3.832075   0.999952
   78       -3.704307   0.998627
   79       -3.643423   0.994832
   80       -3.372818   0.742458
   81       -3.157378   0.191483
   82       -2.758170   0.000110
   83       -2.688252   0.000014
   84       -2.629252   0.000002
   85       -2.460516   0.000000
   86       -2.363309   0.000000
   87       -2.270605   0.000000
   88       -2.244631   0.000000
   89       -2.151966   0.000000
   90       -2.073868   0.000000
   91       -1.909369   0.000000
   92       -1.821017   0.000000
   93       -1.470638   0.000000
   94       -1.338571   0.000000
   95       -1.224825   0.000000
   96       -1.135173   0.000000
   97       -0.943827   0.000000
   98       -0.836866   0.000000
   99       -0.742135   0.000000
  100       -0.701911   0.000000
  101       -0.626658   0.000000
  102       -0.576605   0.000000
  103       -0.513588   0.000000
  104       -0.421541   0.000000
  105       -0.296316   0.000000
  106       -0.240713   0.000000
  107       -0.089961   0.000000
  108       -0.007097   0.000000
  109        0.079539   0.000000
  110        0.288981   0.000000
  111        0.396804   0.000000
  112        0.513896   0.000000
  113        0.702990   0.000000
  114        0.818862   0.000000
  115        0.902321   0.000000
  116        1.184919   0.000000
  117        1.292573   0.000000
  118        1.684213   0.000000
  119        1.868598   0.000000
  120        2.172576   0.000000
 
  0.1250000E+00  0.1250000E+00  0.0000000E+00  0.3125000E-01
    1      -17.710180   1.000000
    2      -16.890219   1.000000
    3      -16.742954   1.000000
    4      -16.622310   1.000000
    5      -16.496372   1.000000
    6      -16.420711   1.000000
    7      -16.327244   1.000000
    8      -16.240111   1.000000
    9      -16.153168   1.000000
   10      -16.103229   1.000000
   11      -16.029798   1.000000
   12      -15.874976   1.000000
   13      -15.801195   1.000000
   14      -15.744585   1.000000
   15      -15.632800   1.000000
   16      -15.546199   1.000000
   17      -15.424351   1.000000
   18      -15.311220   1.000000
   19       -9.341432   1.000000
   20       -9.235449   1.000000
   21       -9.098468   1.000000
   22       -8.974369   1.000000
   23       -8.835284   1.000000
   24       -8.734433   1.000000
   25       -8.634452   1.000000
   26       -8.557005   1.000000
   27       -8.453052   1.000000
   28       -8.425623   1.000000
   29       -8.340125   1.000000
   30       -8.276006   1.000000
   31       -8.124944   1.000000
   32       -8.067435   1.000000
   33       -7.938990   1.000000
   34       -7.845441   1.000000
   35       -7.709119   1.000000
   36       -7.663811   1.000000
   37       -7.640889   1.000000
   38       -7.539114   1.000000
   39       -7.407523   1.000000
   40       -7.355097   1.000000
   41       -7.287964   1.000000
   42       -7.266275   1.000000
   43       -7.135157   1.000000
   44       -7.006021   1.000000
   45       -6.931841   1.000000
   46       -6.809329   1.000000
   47       -6.766004   1.000000
   48       -6.658410   1.000000
   49       -6.563400   1.000000
   50       -6.491107   1.000000
   51       -6.427650   1.000000
   52       -6.364053   1.000000
   53       -6.285424   1.000000
   54       -6.218701   1.000000
   55       -6.149687   1.000000
   56       -6.126547   1.000000
   57       -6.027090   1.000000
   58       -5.886747   1.000000
   59       -5.687429   1.000000
   60       -5.620862   1.000000
   61       -5.525008   1.000000
   62       -5.468980   1.000000
   63       -5.414753   1.000000
   64       -5.347170   1.000000
   65       -5.231301   1.000000
   66       -5.121197   1.000000
   67       -5.051888   1.000000
   68       -4.913627   1.000000
   69       -4.833077   1.000000
   70       -4.696229   1.000000
   71       -4.626789   1.000000
   72       -4.473883   1.000000
   73       -4.407155   1.000000
   74       -4.186411   1.000000
   75       -4.119962   1.000000
   76       -4.007311   1.000000
   77       -3.941887   0.999999
   78       -3.714872   0.998928
   79       -3.545990   0.969635
   80       -3.404318   0.808855
   81       -3.030046   0.038129
   82       -2.783228   0.000217
   83       -2.718290   0.000035
   84       -2.585191   0.000000
   85       -2.475347   0.000000
   86       -2.350388   0.000000
   87       -2.292510   0.000000
   88       -2.194602   0.000000
   89       -2.122325   0.000000
   90       -2.049871   0.000000
   91       -1.922906   0.000000
   92       -1.800143   0.000000
   93       -1.459188   0.000000
   94       -1.323570   0.000000
   95       -1.201848   0.000000
   96       -1.121127   0.000000
   97       -1.019902   0.000000
   98       -0.884610   0.000000
   99       -0.837866   0.000000
  100       -0.746947   0.000000
  101       -0.707777   0.000000
  102       -0.641156   0.000000
  103       -0.519731   0.000000
  104       -0.456192   0.000000
  105       -0.428277   0.000000
  106       -0.241910   0.000000
  107       -0.161812   0.000000
  108       -0.040181   0.000000
  109        0.077972   0.000000
  110        0.279763   0.000000
  111        0.379550   0.000000
  112        0.525463   0.000000
  113        0.699552   0.000000
  114        0.875998   0.000000
  115        0.915265   0.000000
  116        1.293167   0.000000
  117        1.342016   0.000000
  118        1.769714   0.000000
  119        1.942453   0.000000
  120        2.242670   0.000000
 
  0.2500000E+00  0.1250000E+00  0.0000000E+00  0.3125000E-01
    1      -17.612921   1.000000
    2      -17.074583   1.000000
    3      -16.860820   1.000000
    4      -16.595781   1.000000
    5      -16.512360   1.000000
    6      -16.375870   1.000000
    7      -16.303132   1.000000
    8      -16.204581   1.000000
    9      -16.122839   1.000000
   10      -16.073171   1.000000
   11      -16.002289   1.000000
   12      -15.835278   1.000000
   13      -15.784299   1.000000
   14      -15.733447   1.000000
   15      -15.628610   1.000000
   16      -15.553066   1.000000
   17      -15.446908   1.000000
   18      -15.324736   1.000000
   19       -9.561030   1.000000
   20       -9.387996   1.000000
   21       -9.142340   1.000000
   22       -8.988444   1.000000
   23       -8.858507   1.000000
   24       -8.728417   1.000000
   25       -8.573065   1.000000
   26       -8.490191   1.000000
   27       -8.464572   1.000000
   28       -8.344403   1.000000
   29       -8.293603   1.000000
   30       -8.258614   1.000000
   31       -8.142769   1.000000
   32       -8.072156   1.000000
   33       -7.950465   1.000000
   34       -7.893421   1.000000
   35       -7.726403   1.000000
   36       -7.614139   1.000000
   37       -7.490536   1.000000
   38       -7.450130   1.000000
   39       -7.384001   1.000000
   40       -7.254945   1.000000
   41       -7.227396   1.000000
   42       -7.167293   1.000000
   43       -7.142666   1.000000
   44       -6.976096   1.000000
   45       -6.891860   1.000000
   46       -6.791317   1.000000
   47       -6.724892   1.000000