       N       E                     dE             d eps       ncg     rms          rms(c)
DAV:   1     0.112599043285E+04    0.11260E+04   -0.35979E+04  8160   0.577E+02
DAV:   2    -0.309983002142E+01   -0.11291E+04   -0.10883E+04 11240   0.173E+02
DAV:   3    -0.199797399911E+03   -0.19670E+03   -0.18903E+03 10920   0.820E+01
DAV:   4    -0.208928609641E+03   -0.91312E+01   -0.88514E+01 12320   0.260E+01
DAV:   5    -0.209224158681E+03   -0.29555E+00   -0.29464E+00 11360   0.337E+00    0.274E+01
DAV:   6    -0.236361426143E+03   -0.27137E+02   -0.11187E+02 12520   0.602E+01    0.592E+01
DAV:   7    -0.196832344204E+03    0.39529E+02   -0.17575E+02 13320   0.151E+02    0.206E+01
DAV:   8    -0.190319600444E+03    0.65127E+01   -0.21333E+01 11800   0.136E+01    0.140E+01
DAV:   9    -0.188297127005E+03    0.20225E+01   -0.37396E+00 12120   0.644E+00    0.936E+00
DAV:  10    -0.187109769315E+03    0.11874E+01   -0.17580E+00 13280   0.766E+00    0.335E+00
DAV:  11    -0.187010412679E+03    0.99357E-01   -0.66506E-01 12360   0.242E+00    0.241E+00
DAV:  12    -0.187000196026E+03    0.10217E-01   -0.42471E-01 13000   0.300E+00    0.314E+00
DAV:  13    -0.186924132806E+03    0.76063E-01   -0.22024E-01 13240   0.300E+00    0.188E+00
DAV:  14    -0.186890289346E+03    0.33843E-01   -0.87047E-02 13080   0.173E+00    0.594E-01
DAV:  15    -0.186885993526E+03    0.42958E-02   -0.14749E-02 12000   0.414E-01    0.463E-01
DAV:  16    -0.186885265789E+03    0.72774E-03   -0.91298E-03 12920   0.472E-01    0.499E-01
DAV:  17    -0.186883929394E+03    0.13364E-02   -0.89871E-03 13120   0.521E-01    0.356E-01
DAV:  18    -0.186882604139E+03    0.13253E-02   -0.32111E-03 12320   0.245E-01    0.182E-01
DAV:  19    -0.186882438263E+03    0.16588E-03   -0.85114E-04 11240   0.144E-01    0.468E-02
DAV:  20    -0.186883301498E+03   -0.86323E-03   -0.83700E-04  9200   0.561E-02    0.424E-02
DAV:  21    -0.186884031773E+03   -0.73028E-03   -0.21612E-04  8200   0.495E-02    0.323E-02
DAV:  22    -0.186884908028E+03   -0.87625E-03   -0.12207E-04  7400   0.321E-02    0.375E-02
DAV:  23    -0.186886150821E+03   -0.12428E-02   -0.15184E-04  7520   0.479E-02    0.218E-02
DAV:  24    -0.186886687421E+03   -0.53660E-03   -0.29749E-05  6760   0.233E-02    0.532E-03
DAV:  25    -0.186887093681E+03   -0.40626E-03   -0.20464E-05  5520   0.102E-02    0.483E-03
DAV:  26    -0.186887329902E+03   -0.23622E-03   -0.91765E-06  6840   0.799E-03    0.160E-03
DAV:  27    -0.186887412906E+03   -0.83003E-04   -0.31386E-06  7240   0.388E-03
   1 F= -.18688741E+03 E0= -.18671598E+03  d E =-.186887E+03
       N       E                     dE             d eps       ncg     rms          rms(c)
DAV:   1    -0.187543670341E+03   -0.65634E+00   -0.27372E+02  8160   0.352E+01    0.470E+00
DAV:   2    -0.189651794433E+03   -0.21081E+01   -0.20606E+01 12320   0.160E+01    0.103E+01
DAV:   3    -0.189343471334E+03    0.30832E+00   -0.45430E+00 12440   0.126E+01    0.622E+00
DAV:   4    -0.188805423328E+03    0.53805E+00   -0.58524E-01 12520   0.432E+00    0.187E+00
DAV:   5    -0.188968194562E+03   -0.16277E+00   -0.53332E-01 12560   0.377E+00    0.609E+00
DAV:   6    -0.188771670111E+03    0.19652E+00   -0.87478E-01 12720   0.451E+00    0.195E+00
DAV:   7    -0.188755453224E+03    0.16217E-01   -0.16988E-01 11600   0.191E+00    0.195E+00
DAV:   8    -0.188734224532E+03    0.21229E-01   -0.11042E-01 13360   0.195E+00    0.146E+00
DAV:   9    -0.188715665066E+03    0.18559E-01   -0.32636E-02 12360   0.949E-01    0.306E-01
DAV:  10    -0.188715435720E+03    0.22935E-03   -0.42199E-03 10640   0.212E-01    0.226E-01
DAV:  11    -0.188714652811E+03    0.78291E-03   -0.24124E-03 11560   0.161E-01    0.933E-02
DAV:  12    -0.188714815151E+03   -0.16234E-03   -0.80549E-04 10800   0.843E-02    0.700E-02
DAV:  13    -0.188714779960E+03    0.35190E-04   -0.22069E-04  8360   0.521E-02
   2 F= -.18871478E+03 E0= -.18857524E+03  d E =-.182737E+01
       N       E                     dE             d eps       ncg     rms          rms(c)
DAV:   1    -0.190649257674E+03   -0.19344E+01   -0.31778E+01  9040   0.143E+01    0.443E+00
DAV:   2    -0.190568258056E+03    0.81000E-01   -0.27575E+00 11120   0.929E+00    0.705E+00
DAV:   3    -0.190137330247E+03    0.43093E+00   -0.13669E+00 12320   0.857E+00    0.427E+00
DAV:   4    -0.189923196263E+03    0.21413E+00   -0.76188E-01 12760   0.437E+00    0.252E+00
DAV:   5    -0.189903715175E+03    0.19481E-01   -0.38319E-01 12240   0.316E+00    0.288E+00
DAV:   6    -0.189825056557E+03    0.78659E-01   -0.15357E-01 12520   0.251E+00    0.748E-01
DAV:   7    -0.189818151924E+03    0.69046E-02   -0.15061E-02 11600   0.550E-01    0.236E-01
DAV:   8    -0.189819131329E+03   -0.97940E-03   -0.46702E-03 12280   0.382E-01    0.399E-01
DAV:   9    -0.189817979849E+03    0.11515E-02   -0.25394E-03 10680   0.324E-01    0.122E-01
DAV:  10    -0.189818265940E+03   -0.28609E-03   -0.71279E-04  9680   0.104E-01    0.103E-01
DAV:  11    -0.189818082114E+03    0.18383E-03   -0.34241E-04  8840   0.636E-02    0.254E-02
DAV:  12    -0.189818099047E+03   -0.16932E-04   -0.66395E-05  7200   0.276E-02
   3 F= -.18981810E+03 E0= -.18969872E+03  d E =-.110332E+01
       N       E                     dE             d eps       ncg     rms          rms(c)
DAV:   1    -0.191410248216E+03   -0.15922E+01   -0.82408E+01  8160   0.206E+01    0.458E+00
DAV:   2    -0.191222270236E+03    0.18798E+00   -0.54452E+00 13160   0.747E+00    0.437E+00
DAV:   3    -0.191374184759E+03   -0.15191E+00   -0.15949E+00 12240   0.893E+00    0.656E+00
DAV:   4    -0.190996180632E+03    0.37800E+00   -0.13867E+00 12360   0.776E+00    0.297E+00
DAV:   5    -0.190916744719E+03    0.79436E-01   -0.38441E-01 12360   0.337E+00    0.246E+00
DAV:   6    -0.190869261835E+03    0.47483E-01   -0.20840E-01 12400   0.303E+00    0.162E+00
DAV:   7    -0.190845849427E+03    0.23412E-01   -0.61309E-02 12640   0.139E+00    0.415E-01
DAV:   8    -0.190843969485E+03    0.18799E-02   -0.82844E-03 11400   0.437E-01    0.326E-01
DAV:   9    -0.190843312234E+03    0.65725E-03   -0.26266E-03 11040   0.340E-01    0.181E-01
DAV:  10    -0.190843512424E+03   -0.20019E-03   -0.13805E-03 11280   0.166E-01    0.114E-01
DAV:  11    -0.190843322665E+03    0.18976E-03   -0.61150E-04 10400   0.903E-02    0.437E-02
DAV:  12    -0.190843330368E+03   -0.77024E-05   -0.10371E-04  7040   0.395E-02
   4 F= -.19084333E+03 E0= -.19073542E+03  d E =-.102523E+01
       N       E                     dE             d eps       ncg     rms          rms(c)
DAV:   1    -0.192161149501E+03   -0.13178E+01   -0.17316E+02  8160   0.292E+01    0.551E+00
DAV:   2    -0.191931562603E+03    0.22959E+00   -0.92012E+00 10920   0.775E+00    0.345E+00
DAV:   3    -0.191808233735E+03    0.12333E+00   -0.14934E+00 11880   0.622E+00    0.378E+00
DAV:   4    -0.191827848979E+03   -0.19615E-01   -0.11133E+00 12280   0.770E+00    0.439E+00
DAV:   5    -0.191552259594E+03    0.27559E+00   -0.44825E-01 12360   0.456E+00    0.810E-01
DAV:   6    -0.191543132613E+03    0.91270E-02   -0.82812E-02 11720   0.119E+00    0.595E-01
DAV:   7    -0.191548584533E+03   -0.54519E-02   -0.43972E-02 11960   0.129E+00    0.104E+00
DAV:   8    -0.191537800800E+03    0.10784E-01   -0.19658E-02 11520   0.907E-01    0.160E-01
DAV:   9    -0.191538295953E+03   -0.49515E-03   -0.25091E-03 11440   0.213E-01    0.203E-01
DAV:  10    -0.191538348617E+03   -0.52664E-04   -0.25398E-03 11880   0.317E-01    0.233E-01
DAV:  11    -0.191537920889E+03    0.42773E-03   -0.11859E-03 10000   0.205E-01    0.578E-02
DAV:  12    -0.191537888915E+03    0.31974E-04   -0.11513E-04  6080   0.474E-02
   5 F= -.19153789E+03 E0= -.19142743E+03  d E =-.694559E+00
       N       E                     dE             d eps       ncg     rms          rms(c)
DAV:   1    -0.191610610026E+03   -0.72689E-01   -0.50636E+00  8160   0.477E+00    0.660E-01
DAV:   2    -0.191662243719E+03   -0.51634E-01   -0.27968E-01 13120   0.274E+00    0.208E+00
DAV:   3    -0.191620502614E+03    0.41741E-01   -0.10013E-01 12520   0.209E+00    0.469E-01
DAV:   4    -0.191623889554E+03   -0.33869E-02   -0.23554E-02 10280   0.964E-01    0.816E-01
DAV:   5    -0.191617252081E+03    0.66375E-02   -0.15424E-02 11240   0.796E-01    0.252E-01
DAV:   6    -0.191618011519E+03   -0.75944E-03   -0.60179E-03 11120   0.418E-01    0.406E-01
DAV:   7    -0.191616853183E+03    0.11583E-02   -0.49281E-03 11160   0.455E-01    0.207E-01
DAV:   8    -0.191616405162E+03    0.44802E-03   -0.93456E-04  9840   0.166E-01    0.357E-02
DAV:   9    -0.191616406860E+03   -0.16986E-05   -0.97135E-05  6560   0.358E-02
   6 F= -.19161641E+03 E0= -.19150501E+03  d E =-.785179E-01
       N       E                     dE             d eps       ncg     rms          rms(c)
DAV:   1    -0.191685438922E+03   -0.69034E-01   -0.46602E+00  8160   0.454E+00    0.502E-01
DAV:   2    -0.191714121072E+03   -0.28682E-01   -0.15243E-01 13040   0.170E+00    0.154E+00
DAV:   3    -0.191691686155E+03    0.22435E-01   -0.65607E-02 12480   0.163E+00    0.465E-01
DAV:   4    -0.191692114771E+03   -0.42862E-03   -0.13513E-02 10880   0.693E-01    0.524E-01
DAV:   5    -0.191689328154E+03    0.27866E-02   -0.69529E-03 11160   0.566E-01    0.190E-01
DAV:   6    -0.191689358887E+03   -0.30732E-04   -0.26191E-03 11360   0.268E-01    0.234E-01
DAV:   7    -0.191689401794E+03   -0.42907E-04   -0.29886E-03 10160   0.351E-01    0.250E-01
DAV:   8    -0.191688792291E+03    0.60950E-03   -0.10934E-03  8480   0.202E-01    0.271E-02
DAV:   9    -0.191688815992E+03   -0.23701E-04   -0.82248E-05  5920   0.327E-02
   7 F= -.19168882E+03 E0= -.19157748E+03  d E =-.724091E-01
       N       E                     dE             d eps       ncg     rms          rms(c)
DAV:   1    -0.191750131182E+03   -0.61339E-01   -0.35255E+00  8160   0.397E+00    0.484E-01
DAV:   2    -0.191784407322E+03   -0.34276E-01   -0.15157E-01 12040   0.207E+00    0.179E+00
DAV:   3    -0.191754756969E+03    0.29650E-01   -0.72551E-02 12400   0.170E+00    0.357E-01
DAV:   4    -0.191755871298E+03   -0.11143E-02   -0.10682E-02 11320   0.660E-01    0.499E-01
DAV:   5    -0.191753292305E+03    0.25790E-02   -0.62302E-03 11040   0.532E-01    0.191E-01
DAV:   6    -0.191753835361E+03   -0.54306E-03   -0.33378E-03 11720   0.342E-01    0.332E-01
DAV:   7    -0.191753081258E+03    0.75410E-03   -0.28685E-03 10160   0.347E-01    0.141E-01
DAV:   8    -0.191752816540E+03    0.26472E-03   -0.50151E-04  8760   0.115E-01    0.183E-02
DAV:   9    -0.191752830368E+03   -0.13828E-04   -0.60776E-05  6800   0.264E-02
   8 F= -.19175283E+03 E0= -.19164254E+03  d E =-.640144E-01
       N       E                     dE             d eps       ncg     rms          rms(c)
DAV:   1    -0.191901364880E+03   -0.14855E+00   -0.39452E+01  8160   0.134E+01    0.154E+00
DAV:   2    -0.192234331566E+03   -0.33297E+00   -0.15633E+00 11440   0.619E+00    0.582E+00
DAV:   3    -0.191964923167E+03    0.26941E+00   -0.84879E-01 12320   0.555E+00    0.121E+00
DAV:   4    -0.191979176010E+03   -0.14253E-01   -0.11118E-01 12240   0.221E+00    0.189E+00
DAV:   5    -0.191944646142E+03    0.34530E-01   -0.77345E-02 11560   0.184E+00    0.713E-01
DAV:   6    -0.191947227151E+03   -0.25810E-02   -0.28121E-02 11880   0.117E+00    0.920E-01
DAV:   7    -0.191940474575E+03    0.67526E-02   -0.23628E-02 11720   0.113E+00    0.378E-01
DAV:   8    -0.191937897103E+03    0.25775E-02   -0.43113E-03 10720   0.345E-01    0.664E-02
DAV:   9    -0.191937922528E+03   -0.25426E-04   -0.64204E-04 10440   0.769E-02
   9 F= -.19193792E+03 E0= -.19183418E+03  d E =-.185092E+00
       N       E                     dE             d eps       ncg     rms          rms(c)
DAV:   1    -0.191987846261E+03   -0.49949E-01   -0.46124E+00  8160   0.457E+00    0.605E-01
DAV:   2    -0.192027125975E+03   -0.39280E-01   -0.21566E-01 12240   0.224E+00    0.191E+00
DAV:   3    -0.191995893356E+03    0.31233E-01   -0.82665E-02 12320   0.189E+00    0.463E-01
DAV:   4    -0.191997896938E+03   -0.20036E-02   -0.14966E-02 12240   0.834E-01    0.717E-01
DAV:   5    -0.191993444726E+03    0.44522E-02   -0.12381E-02 11040   0.762E-01    0.343E-01
DAV:   6    -0.191994071365E+03   -0.62664E-03   -0.53492E-03 11400   0.527E-01    0.411E-01
DAV:   7    -0.191992422252E+03    0.16491E-02   -0.35472E-03 11480   0.438E-01    0.896E-02
DAV:   8    -0.191992280259E+03    0.14199E-03   -0.32088E-04  7640   0.859E-02    0.252E-02
DAV:   9    -0.191992277491E+03    0.27682E-05   -0.72619E-05  8160   0.310E-02
  10 F= -.19199228E+03 E0= -.19189021E+03  d E =-.543550E-01
       N       E                     dE             d eps       ncg     rms          rms(c)
DAV:   1    -0.192038074459E+03   -0.45794E-01   -0.54743E+00  8160   0.492E+00    0.519E-01
DAV:   2    -0.192067977889E+03   -0.29903E-01   -0.16872E-01 11760   0.183E+00    0.157E+00
DAV:   3    -0.192046484736E+03    0.21493E-01   -0.57866E-02 12480   0.162E+00    0.436E-01
DAV:   4    -0.192047740956E+03   -0.12562E-02   -0.98727E-03 11400   0.644E-01    0.624E-01
DAV:   5    -0.192044428148E+03    0.33128E-02   -0.75953E-03 10720   0.616E-01    0.235E-01
DAV:   6    -0.192044344549E+03    0.83599E-04   -0.22234E-03 12280   0.249E-01    0.171E-01
DAV:   7    -0.192044117635E+03    0.22691E-03   -0.13751E-03 10760   0.280E-01    0.135E-01
DAV:   8    -0.192043889998E+03    0.22764E-03   -0.41020E-04  8720   0.153E-01    0.251E-02
DAV:   9    -0.192043888277E+03    0.17204E-05   -0.58869E-05  6800   0.320E-02
  11 F= -.19204389E+03 E0= -.19194414E+03  d E =-.516108E-01
       N       E                     dE             d eps       ncg     rms          rms(c)
DAV:   1    -0.192057364494E+03   -0.13474E-01   -0.42809E-01  8160   0.139E+00    0.159E-01
DAV:   2    -0.192058190790E+03   -0.82630E-03   -0.11670E-02 13480   0.402E-01    0.241E-01
DAV:   3    -0.192057869769E+03    0.32102E-03   -0.24093E-03 11960   0.355E-01    0.178E-01
DAV:   4    -0.192057672311E+03    0.19746E-03   -0.10859E-03 10080   0.225E-01    0.145E-01
DAV:   5    -0.192057568480E+03    0.10383E-03   -0.78838E-04  8920   0.211E-01    0.116E-01
DAV:   6    -0.192057507978E+03    0.60502E-04   -0.48069E-04  8640   0.144E-01
  12 F= -.19205751E+03 E0= -.19195825E+03  d E =-.136197E-01
       N       E                     dE             d eps       ncg     rms          rms(c)
DAV:   1    -0.192047306035E+03    0.10262E-01   -0.19917E-01  8160   0.951E-01    0.114E-01
DAV:   2    -0.192049293902E+03   -0.19879E-02   -0.71398E-03 13280   0.447E-01    0.435E-01
DAV:   3    -0.192047463903E+03    0.18300E-02   -0.27500E-03 11520   0.395E-01    0.771E-02
DAV:   4    -0.192047577511E+03   -0.11361E-03   -0.50647E-04  8600   0.140E-01    0.131E-01
DAV:   5    -0.192047430895E+03    0.14662E-03   -0.37408E-04  7760   0.136E-01    0.513E-02
DAV:   6    -0.192047416873E+03    0.14022E-04   -0.10905E-04  5920   0.620E-02
  13 F= -.19204742E+03 E0= -.19194754E+03  d E =0.100911E-01
       N       E                     dE             d eps       ncg     rms          rms(c)
DAV:   1    -0.192013173982E+03    0.34257E-01   -0.28883E+00  8160   0.364E+00    0.432E-01
DAV:   2    -0.192027871840E+03   -0.14698E-01   -0.96945E-02 12040   0.138E+00    0.109E+00
DAV:   3    -0.192017059180E+03    0.10813E-01   -0.23426E-02 11960   0.113E+00    0.355E-01
DAV:   4    -0.192017449951E+03   -0.39077E-03   -0.66571E-03 11360   0.517E-01    0.480E-01
DAV:   5    -0.192015749185E+03    0.17008E-02   -0.60655E-03 10200   0.505E-01    0.230E-01
DAV:   6    -0.192015956080E+03   -0.20690E-03   -0.27074E-03 11360   0.343E-01    0.244E-01
DAV:   7    -0.192015333446E+03    0.62263E-03   -0.15648E-03 10280   0.304E-01    0.886E-02
DAV:   8    -0.192015225050E+03    0.10840E-03   -0.22219E-04  7400   0.914E-02    0.208E-02
DAV:   9    -0.192015226436E+03   -0.13855E-05   -0.45620E-05  7480   0.249E-02
  14 F= -.19201523E+03 E0= -.19191409E+03  d E =0.321904E-01
       N       E                     dE             d eps       ncg     rms          rms(c)
DAV:   1    -0.192007426321E+03    0.77987E-02   -0.33873E-01  8160   0.124E+00    0.125E-01
DAV:   2    -0.192008043606E+03   -0.61728E-03   -0.77455E-03 12200   0.284E-01    0.177E-01
DAV:   3    -0.192008008961E+03    0.34645E-04   -0.17006E-03 10880   0.294E-01    0.175E-01
DAV:   4    -0.192007711453E+03    0.29751E-03   -0.59944E-04  8160   0.167E-01    0.649E-02
DAV:   5    -0.192007780479E+03   -0.69025E-04   -0.35367E-04  7760   0.130E-01
  15 F= -.19200778E+03 E0= -.19190610E+03  d E =0.744596E-02
       N       E                     dE             d eps       ncg     rms          rms(c)
DAV:   1    -0.192028207185E+03   -0.20496E-01   -0.19824E+00  8160   0.307E+00    0.414E-01
DAV:   2    -0.192037373199E+03   -0.91660E-02   -0.67338E-02 11520   0.118E+00    0.963E-01
DAV:   3    -0.192029681383E+03    0.76918E-02   -0.22387E-02 12120   0.107E+00    0.365E-01
DAV:   4    -0.192030197293E+03   -0.51591E-03   -0.68277E-03 11560   0.591E-01    0.494E-01
DAV:   5    -0.192028094578E+03    0.21027E-02   -0.57985E-03 11000   0.536E-01    0.229E-01
DAV:   6    -0.192028485784E+03   -0.39121E-03   -0.36667E-03 11320   0.388E-01    0.299E-01
DAV:   7    -0.192027595663E+03    0.89012E-03   -0.19638E-03  9840   0.319E-01    0.675E-02
DAV:   8    -0.192027534798E+03    0.60864E-04   -0.14513E-04  6120   0.689E-02
  16 F= -.19202753E+03 E0= -.19192663E+03  d E =-.197543E-01
       N       E                     dE             d eps       ncg     rms          rms(c)
DAV:   1    -0.192052100825E+03   -0.24505E-01   -0.19749E+00  8160   0.295E+00    0.296E-01
DAV:   2    -0.192059668970E+03   -0.75681E-02   -0.55825E-02 11840   0.944E-01    0.726E-01
DAV:   3    -0.192055425548E+03    0.42434E-02   -0.16996E-02 12280   0.845E-01    0.306E-01
DAV:   4    -0.192055148403E+03    0.27714E-03   -0.30530E-03 11280   0.345E-01    0.283E-01
DAV:   5    -0.192054563428E+03    0.58498E-03   -0.21285E-03  9880   0.327E-01    0.162E-01
DAV:   6    -0.192054561021E+03    0.24066E-05   -0.97138E-04 10720   0.200E-01
  17 F= -.19205456E+03 E0= -.19195430E+03  d E =-.270262E-01
       N       E                     dE             d eps       ncg     rms          rms(c)
DAV:   1    -0.192063662514E+03   -0.90991E-02   -0.22246E-01  8160   0.103E+00    0.149E-01
DAV:   2    -0.192065353530E+03   -0.16910E-02   -0.88598E-03 12240   0.507E-01    0.374E-01
DAV:   3    -0.192063721857E+03    0.16317E-02   -0.32214E-03 11480   0.438E-01    0.851E-02
DAV:   4    -0.192063790896E+03   -0.69039E-04   -0.48896E-04  8680   0.136E-01
  18 F= -.19206379E+03 E0= -.19196408E+03  d E =-.922987E-02
       N       E                     dE             d eps       ncg     rms          rms(c)
DAV:   1    -0.192071171668E+03   -0.74498E-02   -0.14534E-01  8160   0.834E-01    0.124E-01
DAV:   2    -0.192072852736E+03   -0.16811E-02   -0.62274E-03 13280   0.401E-01    0.433E-01
DAV:   3    -0.192071187624E+03    0.16651E-02   -0.31166E-03 10520   0.380E-01    0.867E-02
DAV:   4    -0.192071251554E+03   -0.63931E-04   -0.43636E-04  8600   0.127E-01
  19 F= -.19207125E+03 E0= -.19197239E+03  d E =-.746066E-02
       N       E                     dE             d eps       ncg     rms          rms(c)
DAV:   1    -0.192105539383E+03   -0.34352E-01   -0.33487E+00  8160   0.392E+00    0.408E-01
DAV:   2    -0.192112644391E+03   -0.71050E-02   -0.86573E-02 13360   0.104E+00    0.603E-01
DAV:   3    -0.192111170724E+03    0.14737E-02   -0.16862E-02 11800   0.928E-01    0.493E-01
DAV:   4    -0.192109966702E+03    0.12040E-02   -0.72862E-03 11960   0.601E-01    0.418E-01
DAV:   5    -0.192108599583E+03    0.13671E-02   -0.46881E-03 11560   0.515E-01    0.236E-01
DAV:   6    -0.192108621905E+03   -0.22322E-04   -0.29649E-03 11240   0.327E-01    0.232E-01
DAV:   7    -0.192108284676E+03    0.33723E-03   -0.19453E-03 10560   0.327E-01    0.153E-01
DAV:   8    -0.192107980493E+03    0.30418E-03   -0.45532E-04  8360   0.144E-01    0.220E-02
DAV:   9    -0.192107981765E+03   -0.12727E-05   -0.53450E-05  6760   0.268E-02
  20 F= -.19210798E+03 E0= -.19201024E+03  d E =-.367302E-01
       N       E                     dE             d eps       ncg     rms          rms(c)
DAV:   1    -0.192160804630E+03   -0.52824E-01   -0.95007E+00  8160   0.664E+00    0.682E-01
DAV:   2    -0.192183391483E+03   -0.22587E-01   -0.25874E-01 13360   0.180E+00    0.109E+00
DAV:   3    -0.192178115800E+03    0.52757E-02   -0.51808E-02 11360   0.161E+00    0.813E-01
DAV:   4    -0.192174376617E+03    0.37392E-02   -0.19124E-02 12240   0.992E-01    0.653E-01
DAV:   5    -0.192170479556E+03    0.38971E-02   -0.10917E-02 11480   0.824E-01    0.334E-01
DAV:   6    -0.192170936657E+03   -0.45710E-03   -0.69499E-03 11880   0.528E-01    0.387E-01
DAV:   7    -0.192169622189E+03    0.13145E-02   -0.43738E-03 11480   0.514E-01    0.191E-01
DAV:   8    -0.192169111855E+03    0.51033E-03   -0.80202E-04  9880   0.180E-01    0.334E-02
DAV:   9    -0.192169105325E+03    0.65298E-05   -0.11340E-04  6800   0.377E-02
  21 F= -.19216911E+03 E0= -.19207375E+03  d E =-.611236E-01
       N       E                     dE             d eps       ncg     rms          rms(c)
DAV:   1    -0.192207385361E+03   -0.38274E-01   -0.50662E+00  8160   0.486E+00    0.517E-01
DAV:   2    -0.192221024826E+03   -0.13639E-01   -0.14835E-01 12720   0.137E+00    0.893E-01
DAV:   3    -0.192216965473E+03    0.40594E-02   -0.31855E-02 12240   0.125E+00    0.616E-01
DAV:   4    -0.192213961000E+03    0.30045E-02   -0.89857E-03 12400   0.672E-01    0.374E-01
DAV:   5    -0.192212878899E+03    0.10821E-02   -0.48564E-03 11560   0.576E-01    0.263E-01
DAV:   6    -0.192212495418E+03    0.38348E-03   -0.29186E-03 11920   0.339E-01    0.174E-01
DAV:   7    -0.192212260356E+03    0.23506E-03   -0.13823E-03 10600   0.280E-01    0.153E-01
DAV:   8    -0.192211993331E+03    0.26702E-03   -0.40313E-04  8320   0.158E-01    0.268E-02
DAV:   9    -0.192211992055E+03    0.12759E-05   -0.57004E-05  6000   0.305E-02
  22 F= -.19221199E+03 E0= -.19211851E+03  d E =-.428867E-01
       N       E                     dE             d eps       ncg     rms          rms(c)
DAV:   1    -0.192240998618E+03   -0.29005E-01   -0.28165E+00  8160   0.364E+00    0.427E-01
DAV:   2    -0.192250645210E+03   -0.96466E-02   -0.98866E-02 13320   0.116E+00    0.783E-01
DAV:   3    -0.192246682090E+03    0.39631E-02   -0.21291E-02 12280   0.107E+00    0.478E-01
DAV:   4    -0.192244290714E+03    0.23914E-02   -0.49401E-03 12280   0.474E-01    0.207E-01
DAV:   5    -0.192244523556E+03   -0.23284E-03   -0.28771E-03 11080   0.429E-01    0.280E-01
DAV:   6    -0.192243950677E+03    0.57288E-03   -0.22776E-03 11560   0.373E-01    0.158E-01
DAV:   7    -0.192243710296E+03    0.24038E-03   -0.77941E-04  8960   0.222E-01    0.109E-01
DAV:   8    -0.192243577927E+03    0.13237E-03   -0.26131E-04  7920   0.123E-01    0.250E-02
DAV:   9    -0.192243571903E+03    0.60243E-05   -0.38250E-05  6720   0.299E-02
  23 F= -.19224357E+03 E0= -.19215148E+03  d E =-.315798E-01
       N       E                     dE             d eps       ncg     rms          rms(c)
DAV:   1    -0.192273146907E+03   -0.29569E-01   -0.39674E+00  8160   0.429E+00    0.479E-01
DAV:   2    -0.192285591799E+03   -0.12445E-01   -0.12851E-01 12480   0.126E+00    0.824E-01
DAV:   3    -0.192281516847E+03    0.40750E-02   -0.24452E-02 12320   0.119E+00    0.555E-01
DAV:   4    -0.192278150535E+03    0.33663E-02   -0.60050E-03 12040   0.528E-01    0.200E-01
DAV:   5    -0.192278637584E+03   -0.48705E-03   -0.32112E-03 12040   0.423E-01    0.308E-01
DAV:   6    -0.192277975746E+03    0.66184E-03   -0.28883E-03 11600   0.435E-01    0.186E-01
DAV:   7    -0.192277572115E+03    0.40363E-03   -0.91402E-04  9840   0.226E-01    0.956E-02
DAV:   8    -0.192277474848E+03    0.97267E-04   -0.22307E-04  8760   0.115E-01
  24 F= -.19227747E+03 E0= -.19218732E+03  d E =-.339029E-01
       N       E                     dE             d eps       ncg     rms          rms(c)
DAV:   1    -0.192289583746E+03   -0.12012E-01   -0.58309E-01  8160   0.165E+00    0.219E-01
DAV:   2    -0.192291888322E+03   -0.23046E-02   -0.25434E-02 11680   0.578E-01    0.372E-01
DAV:   3    -0.192291092073E+03    0.79625E-03   -0.53764E-03 12320   0.560E-01    0.259E-01
DAV:   4    -0.192290333848E+03    0.75823E-03   -0.13383E-03  9920   0.255E-01    0.872E-02
DAV:   5    -0.192290482932E+03   -0.14908E-03   -0.67170E-04  9720   0.198E-01    0.158E-01
DAV:   6    -0.192290268664E+03    0.21427E-03   -0.57145E-04  8400   0.199E-01    0.685E-02
DAV:   7    -0.192290214313E+03    0.54351E-04   -0.12645E-04  5920   0.803E-02
  25 F= -.19229021E+03 E0= -.19220078E+03  d E =-.127395E-01
       N       E                     dE             d eps       ncg     rms          rms(c)
DAV:   1    -0.192301337959E+03   -0.11069E-01   -0.57604E-01  8160   0.162E+00    0.204E-01
DAV:   2    -0.192304084583E+03   -0.27466E-02   -0.22083E-02 11360   0.622E-01    0.409E-01
DAV:   3    -0.192302505406E+03    0.15792E-02   -0.45573E-03 11560   0.548E-01    0.189E-01
DAV:   4    -0.192302423311E+03    0.82095E-04   -0.13694E-03 10040   0.277E-01    0.179E-01
DAV:   5    -0.192302100711E+03    0.32260E-03   -0.82822E-04  9200   0.232E-01    0.801E-02
DAV:   6    -0.192302099867E+03    0.84379E-06   -0.35048E-04  8800   0.115E-01
  26 F= -.19230210E+03 E0= -.19221342E+03  d E =-.118856E-01
       N       E                     dE             d eps       ncg     rms          rms(c)
DAV:   1    -0.192309483605E+03   -0.73829E-02   -0.24832E-01  8160   0.108E+00    0.160E-01
DAV:   2    -0.192311096128E+03   -0.16125E-02   -0.10954E-02 11800   0.472E-01    0.370E-01
DAV:   3    -0.192309839307E+03    0.12568E-02   -0.31390E-03 11680   0.454E-01    0.142E-01
DAV:   4    -0.192309696887E+03    0.14242E-03   -0.60412E-04  8760   0.159E-01    0.995E-02
DAV:   5    -0.192309612550E+03    0.84337E-04   -0.38479E-04  9600   0.161E-01
  27 F= -.19230961E+03 E0= -.19222149E+03  d E =-.751268E-02
       N       E                     dE             d eps       ncg     rms          rms(c)
DAV:   1    -0.192323315131E+03   -0.13618E-01   -0.12412E+00  8160   0.238E+00    0.281E-01
DAV:   2    -0.192326598539E+03   -0.32834E-02   -0.42221E-02 11760   0.658E-01    0.370E-01
DAV:   3    -0.192326617461E+03   -0.18921E-04   -0.70599E-03 12160   0.676E-01    0.390E-01
DAV:   4    -0.192325065002E+03    0.15525E-02   -0.27504E-03 12160   0.402E-01    0.136E-01
DAV:   5    -0.192325034703E+03    0.30299E-04   -0.10401E-03 10120   0.247E-01    0.142E-01
DAV:   6    -0.192324925312E+03    0.10939E-03   -0.82520E-04  9960   0.223E-01    0.938E-02
DAV:   7    -0.192324791673E+03    0.13364E-03   -0.26122E-04  8160   0.107E-01    0.404E-02
DAV:   8    -0.192324781072E+03    0.10602E-04   -0.54095E-05  6680   0.602E-02
  28 F= -.19232478E+03 E0= -.19223757E+03  d E =-.151685E-01
       N       E                     dE             d eps       ncg     rms          rms(c)
DAV:   1    -0.192339968065E+03   -0.15176E-01   -0.37530E+00  8160   0.416E+00    0.495E-01
DAV:   2    -0.192350620932E+03   -0.10653E-01   -0.14329E-01 12240   0.113E+00    0.574E-01
DAV:   3    -0.192352067741E+03   -0.14468E-02   -0.20664E-02 11840   0.118E+00    0.731E-01
DAV:   4    -0.192346411316E+03    0.56564E-02   -0.92680E-03 12080   0.765E-01    0.236E-01
DAV:   5    -0.192346477441E+03   -0.66124E-04   -0.34546E-03 11560   0.461E-01    0.269E-01
DAV:   6    -0.192345811783E+03    0.66566E-03   -0.23932E-03 11720   0.367E-01    0.129E-01
DAV:   7    -0.192345575828E+03    0.23595E-03   -0.73406E-04 10440   0.173E-01    0.838E-02
DAV:   8    -0.192345516814E+03    0.59014E-04   -0.19423E-04  8640   0.110E-01
  29 F= -.19234552E+03 E0= -.19225932E+03  d E =-.207357E-01
       N       E                     dE             d eps       ncg     rms          rms(c)
DAV:   1    -0.192349560287E+03   -0.39845E-02   -0.51974E+00  8160   0.485E+00    0.558E-01
DAV:   2    -0.192365541520E+03   -0.15981E-01   -0.19196E-01 12240   0.137E+00    0.695E-01
DAV:   3    -0.192364596459E+03    0.94506E-03   -0.25594E-02 11760   0.133E+00    0.691E-01
DAV:   4    -0.192359954055E+03    0.46424E-02   -0.10170E-02 11680   0.819E-01    0.354E-01
DAV:   5    -0.192359101211E+03    0.85284E-03   -0.45479E-03 11480   0.560E-01    0.258E-01
DAV:   6    -0.192358602927E+03    0.49828E-03   -0.24981E-03 12160   0.322E-01    0.128E-01
DAV:   7    -0.192358239686E+03    0.36324E-03   -0.67488E-04 10240   0.119E-01    0.347E-02
DAV:   8    -0.192358252864E+03   -0.13178E-04   -0.99814E-05  7440   0.706E-02
  30 F= -.19235825E+03 E0= -.19227321E+03  d E =-.127360E-01
       N       E                     dE             d eps       ncg     rms          rms(c)
DAV:   1    -0.192358615866E+03   -0.37618E-03   -0.18562E-01  8160   0.931E-01    0.116E-01
DAV:   2    -0.192359610286E+03   -0.99442E-03   -0.60142E-03 11440   0.397E-01    0.267E-01
DAV:   3    -0.192358799252E+03    0.81103E-03   -0.16043E-03 11720   0.339E-01    0.836E-02
DAV:   4    -0.192358822833E+03   -0.23581E-04   -0.34692E-04  8640   0.149E-01
  31 F= -.19235882E+03 E0= -.19227352E+03  d E =-.569969E-03
       N       E                     dE             d eps       ncg     rms          rms(c)
DAV:   1    -0.192359749214E+03   -0.94996E-03   -0.83099E-02  8160   0.622E-01    0.754E-02
DAV:   2    -0.192360222261E+03   -0.47305E-03   -0.40224E-03 12800   0.228E-01    0.139E-01
DAV:   3    -0.192360008606E+03    0.21365E-03   -0.69211E-04  9280   0.202E-01    0.658E-02
DAV:   4    -0.192359987395E+03    0.21211E-04   -0.14569E-04  7160   0.898E-02
  32 F= -.19235999E+03 E0= -.19227458E+03  d E =-.116456E-02
       N       E                     dE             d eps       ncg     rms          rms(c)
DAV:   1    -0.192360725812E+03   -0.71721E-03   -0.36053E-02  8160   0.413E-01    0.616E-02
DAV:   2    -0.192361104168E+03   -0.37836E-03   -0.17617E-03 12400   0.213E-01    0.173E-01
DAV:   3    -0.192360781937E+03    0.32223E-03   -0.52921E-04  8800   0.197E-01    0.424E-02
DAV:   4    -0.192360778825E+03    0.31125E-05   -0.59198E-05  5840   0.527E-02
  33 F= -.19236078E+03 E0= -.19227542E+03  d E =-.791430E-03
       N       E                     dE             d eps       ncg     rms          rms(c)
DAV:   1    -0.192362194709E+03   -0.14128E-02   -0.22003E-01  8160   0.100E+00    0.122E-01
DAV:   2    -0.192363178635E+03   -0.98393E-03   -0.92499E-03 11640   0.340E-01    0.211E-01
DAV:   3    -0.192362807677E+03    0.37096E-03   -0.16730E-03 11760   0.319E-01    0.126E-01
DAV:   4    -0.192362694478E+03    0.11320E-03   -0.37150E-04  8360   0.159E-01    0.844E-02
DAV:   5    -0.192362634505E+03    0.59973E-04   -0.20354E-04  8600   0.125E-01
  34 F= -.19236263E+03 E0= -.19227728E+03  d E =-.185568E-02
       N       E                     dE             d eps       ncg     rms          rms(c)
DAV:   1    -0.192363894551E+03   -0.12001E-02   -0.73612E-01  8160   0.183E+00    0.205E-01
DAV:   2    -0.192366104571E+03   -0.22100E-02   -0.28046E-02 11720   0.511E-01    0.240E-01
DAV:   3    -0.192366361353E+03   -0.25678E-03   -0.38977E-03 12520   0.497E-01    0.293E-01
DAV:   4    -0.192365405398E+03    0.95595E-03   -0.13153E-03 10560   0.307E-01    0.892E-02
DAV:   5    -0.192365500045E+03   -0.94646E-04   -0.55861E-04  9120   0.200E-01
  35 F= -.19236550E+03 E0= -.19228026E+03  d E =-.286554E-02
       N       E                     dE             d eps       ncg     rms          rms(c)
DAV:   1    -0.192365997396E+03   -0.59200E-03   -0.11395E-01  8160   0.732E-01    0.909E-02
DAV:   2    -0.192366311466E+03   -0.31407E-03   -0.43626E-03 11560   0.206E-01    0.110E-01
DAV:   3    -0.192366319041E+03   -0.75747E-05   -0.74360E-04 10880   0.217E-01
  36 F= -.19236632E+03 E0= -.19228058E+03  d E =-.818996E-03
