<?xml version="1.0" encoding="ISO-8859-1"?>
<modeling>
 <generator>
  <i name="program" type="string">vasp </i>
  <i name="version" type="string">5.4.1  </i>
  <i name="subversion" type="string">05Feb16 (build Jul 05 2020 17:13:04) complex                          parallel </i>
  <i name="platform" type="string">IFC91_ompi </i>
  <i name="date" type="string">2024 04 27 </i>
  <i name="time" type="string">16:51:20 </i>
 </generator>
 <incar>
  <i type="int" name="ISTART">     0</i>
  <i type="string" name="PREC">normal</i>
  <i type="string" name="ALGO"> Normal</i>
  <i type="int" name="ISPIN">     1</i>
  <i type="int" name="ICHARG">     2</i>
  <i type="int" name="IBRION">     1</i>
  <i type="int" name="NSW">   100</i>
  <i type="int" name="ISIF">     3</i>
  <i type="int" name="ISYM">     0</i>
  <i name="SYMPREC">      0.00000001</i>
  <i name="POTIM">      0.50000000</i>
  <i type="logical" name="LREAL"> F  </i>
  <i type="logical" name="LPLANE"> F  </i>
  <i type="int" name="ISMEAR">     0</i>
  <i type="logical" name="LWAVE"> F  </i>
  <i type="logical" name="LCHARG"> F  </i>
  <v type="int" name="KPOINT_BSE">    -1     0     0     0</v>
 </incar>
 <kpoints>
  <generation param="Gamma">
   <v type="int" name="divisions">       8        8        1 </v>
   <v name="usershift">      0.00000000       0.00000000       0.00000000 </v>
   <v name="genvec1">      0.12500000       0.00000000       0.00000000 </v>
   <v name="genvec2">     -0.00000000       0.12500000       0.00000000 </v>
   <v name="genvec3">      0.00000000       0.00000000       1.00000000 </v>
   <v name="shift">      0.00000000       0.00000000       0.00000000 </v>
  </generation>
  <varray name="kpointlist" >
   <v>       0.00000000       0.00000000       0.00000000 </v>
   <v>       0.12500000       0.00000000       0.00000000 </v>
   <v>       0.25000000       0.00000000       0.00000000 </v>
   <v>       0.37500000       0.00000000       0.00000000 </v>
   <v>       0.50000000       0.00000000       0.00000000 </v>
   <v>       0.00000000       0.12500000       0.00000000 </v>
   <v>       0.12500000       0.12500000       0.00000000 </v>
   <v>       0.25000000       0.12500000       0.00000000 </v>
   <v>       0.37500000       0.12500000       0.00000000 </v>
   <v>       0.50000000       0.12500000       0.00000000 </v>
   <v>      -0.37500000       0.12500000       0.00000000 </v>
   <v>      -0.25000000       0.12500000       0.00000000 </v>
   <v>      -0.12500000       0.12500000       0.00000000 </v>
   <v>       0.00000000       0.25000000       0.00000000 </v>
   <v>       0.12500000       0.25000000       0.00000000 </v>
   <v>       0.25000000       0.25000000       0.00000000 </v>
   <v>       0.37500000       0.25000000       0.00000000 </v>
   <v>       0.50000000       0.25000000       0.00000000 </v>
   <v>      -0.37500000       0.25000000       0.00000000 </v>
   <v>      -0.25000000       0.25000000       0.00000000 </v>
   <v>      -0.12500000       0.25000000       0.00000000 </v>
   <v>      -0.00000000       0.37500000       0.00000000 </v>
   <v>       0.12500000       0.37500000       0.00000000 </v>
   <v>       0.25000000       0.37500000       0.00000000 </v>
   <v>       0.37500000       0.37500000       0.00000000 </v>
   <v>       0.50000000       0.37500000       0.00000000 </v>
   <v>      -0.37500000       0.37500000       0.00000000 </v>
   <v>      -0.25000000       0.37500000       0.00000000 </v>
   <v>      -0.12500000       0.37500000       0.00000000 </v>
   <v>       0.00000000       0.50000000       0.00000000 </v>
   <v>       0.12500000       0.50000000       0.00000000 </v>
   <v>       0.25000000       0.50000000       0.00000000 </v>
   <v>       0.37500000       0.50000000       0.00000000 </v>
   <v>       0.50000000       0.50000000       0.00000000 </v>
  </varray>
  <varray name="weights" >
   <v>       0.01562500 </v>
   <v>       0.03125000 </v>
   <v>       0.03125000 </v>
   <v>       0.03125000 </v>
   <v>       0.01562500 </v>
   <v>       0.03125000 </v>
   <v>       0.03125000 </v>
   <v>       0.03125000 </v>
   <v>       0.03125000 </v>
   <v>       0.03125000 </v>
   <v>       0.03125000 </v>
   <v>       0.03125000 </v>
   <v>       0.03125000 </v>
   <v>       0.03125000 </v>
   <v>       0.03125000 </v>
   <v>       0.03125000 </v>
   <v>       0.03125000 </v>
   <v>       0.03125000 </v>
   <v>       0.03125000 </v>
   <v>       0.03125000 </v>
   <v>       0.03125000 </v>
   <v>       0.03125000 </v>
   <v>       0.03125000 </v>
   <v>       0.03125000 </v>
   <v>       0.03125000 </v>
   <v>       0.03125000 </v>
   <v>       0.03125000 </v>
   <v>       0.03125000 </v>
   <v>       0.03125000 </v>
   <v>       0.01562500 </v>
   <v>       0.03125000 </v>
   <v>       0.03125000 </v>
   <v>       0.03125000 </v>
   <v>       0.01562500 </v>
  </varray>
 </kpoints>
 <parameters>
  <separator name="general" >
   <i type="string" name="SYSTEM">unknown system</i>
   <i type="logical" name="LCOMPAT"> F  </i>
  </separator>
  <separator name="electronic" >
   <i type="string" name="PREC">normal</i>
   <i name="ENMAX">    280.00000000</i>
   <i name="ENAUG">    373.43800000</i>
   <i name="EDIFF">      0.00010000</i>
   <i type="int" name="IALGO">    38</i>
   <i type="int" name="IWAVPR">    11</i>
   <i type="int" name="NBANDS">   120</i>
   <i name="NELECT">    159.00000000</i>
   <i type="int" name="TURBO">     0</i>
   <i type="int" name="IRESTART">     0</i>
   <i type="int" name="NREBOOT">     0</i>
   <i type="int" name="NMIN">     0</i>
   <i name="EREF">      0.00000000</i>
   <separator name="electronic smearing" >
    <i type="int" name="ISMEAR">     0</i>
    <i name="SIGMA">      0.20000000</i>
    <i name="KSPACING">      0.50000000</i>
    <i type="logical" name="KGAMMA"> T  </i>
   </separator>
   <separator name="electronic projectors" >
    <i type="logical" name="LREAL"> F  </i>
    <v name="ROPT">      0.00000000      0.00000000      0.00000000      0.00000000</v>
    <i type="int" name="LMAXPAW">  -100</i>
    <i type="int" name="LMAXMIX">     2</i>
    <i type="logical" name="NLSPLINE"> F  </i>
   </separator>
   <separator name="electronic startup" >
    <i type="int" name="ISTART">     0</i>
    <i type="int" name="ICHARG">     2</i>
    <i type="int" name="INIWAV">     1</i>
   </separator>
   <separator name="electronic spin" >
    <i type="int" name="ISPIN">     1</i>
    <i type="logical" name="LNONCOLLINEAR"> F  </i>
    <v name="MAGMOM">      1.00000000      1.00000000      1.00000000      1.00000000      1.00000000      1.00000000      1.00000000      1.00000000      1.00000000      1.00000000      1.00000000      1.00000000      1.00000000      1.00000000      1.00000000      1.00000000      1.00000000      1.00000000      1.00000000      1.00000000
      1.00000000      1.00000000      1.00000000      1.00000000      1.00000000      1.00000000      1.00000000</v>
    <i name="NUPDOWN">     -1.00000000</i>
    <i type="logical" name="LSORBIT"> F  </i>
    <v name="SAXIS">      0.00000000      0.00000000      1.00000000</v>
    <i type="logical" name="LSPIRAL"> F  </i>
    <v name="QSPIRAL">      0.00000000      0.00000000      0.00000000</v>
    <i type="logical" name="LZEROZ"> F  </i>
   </separator>
   <separator name="electronic exchange-correlation" >
    <i type="logical" name="LASPH"> F  </i>
    <i type="logical" name="LMETAGGA"> F  </i>
   </separator>
   <separator name="electronic convergence" >
    <i type="int" name="NELM">    60</i>
    <i type="int" name="NELMDL">    -5</i>
    <i type="int" name="NELMIN">     2</i>
    <i name="ENINI">    280.00000000</i>
    <separator name="electronic convergence detail" >
     <i type="logical" name="LDIAG"> T  </i>
     <i type="logical" name="LSUBROT"> F  </i>
     <i name="WEIMIN">      0.00100000</i>
     <i name="EBREAK">      0.00000021</i>
     <i name="DEPER">      0.30000000</i>
     <i type="int" name="NRMM">     4</i>
     <i name="TIME">      0.40000000</i>
    </separator>
   </separator>
   <separator name="electronic mixer" >
    <i name="AMIX">      0.40000000</i>
    <i name="BMIX">      1.00000000</i>
    <i name="AMIN">      0.10000000</i>
    <i name="AMIX_MAG">      1.60000000</i>
    <i name="BMIX_MAG">      1.00000000</i>
    <separator name="electronic mixer details" >
     <i type="int" name="IMIX">     4</i>
     <i type="logical" name="MIXFIRST"> F  </i>
     <i type="int" name="MAXMIX">   -45</i>
     <i name="WC">    100.00000000</i>
     <i type="int" name="INIMIX">     1</i>
     <i type="int" name="MIXPRE">     1</i>
     <i type="int" name="MREMOVE">     5</i>
    </separator>
   </separator>
   <separator name="electronic dipolcorrection" >
    <i type="logical" name="LDIPOL"> F  </i>
    <i type="logical" name="LMONO"> F  </i>
    <i type="int" name="IDIPOL">     0</i>
    <i name="EPSILON">      1.00000000</i>
    <v name="DIPOL">   -100.00000000   -100.00000000   -100.00000000</v>
    <i name="EFIELD">      0.00000000</i>
   </separator>
  </separator>
  <separator name="grids" >
   <i type="int" name="NGX">    42</i>
   <i type="int" name="NGY">    42</i>
   <i type="int" name="NGZ">   126</i>
   <i type="int" name="NGXF">    84</i>
   <i type="int" name="NGYF">    84</i>
   <i type="int" name="NGZF">   252</i>
   <i type="logical" name="ADDGRID"> F  </i>
  </separator>
  <separator name="ionic" >
   <i type="int" name="NSW">   100</i>
   <i type="int" name="IBRION">     1</i>
   <i type="int" name="ISIF">     3</i>
   <i name="PSTRESS">      0.00000000</i>
   <i name="EDIFFG">      0.00100000</i>
   <i type="int" name="NFREE">     0</i>
   <i name="POTIM">      0.50000000</i>
   <i name="SMASS">     -3.00000000</i>
   <i name="SCALEE">      1.00000000</i>
  </separator>
  <separator name="ionic md" >
   <i name="TEBEG">      0.00010000</i>
   <i name="TEEND">      0.00010000</i>
   <i type="int" name="NBLOCK">     1</i>
   <i type="int" name="KBLOCK">   100</i>
   <i type="int" name="NPACO">   256</i>
   <i name="APACO">     16.00000000</i>
  </separator>
  <separator name="symmetry" >
   <i type="int" name="ISYM">     0</i>
   <i name="SYMPREC">      0.00000001</i>
  </separator>
  <separator name="dos" >
   <i type="logical" name="LORBIT"> F  </i>
   <v name="RWIGS">     -1.00000000     -1.00000000     -1.00000000     -1.00000000</v>
   <i type="int" name="NEDOS">   301</i>
   <i name="EMIN">     10.00000000</i>
   <i name="EMAX">    -10.00000000</i>
   <i name="EFERMI">      0.00000000</i>
  </separator>
  <separator name="writing" >
   <i type="int" name="NWRITE">     2</i>
   <i type="logical" name="LWAVE"> F  </i>
   <i type="logical" name="LCHARG"> F  </i>
   <i type="logical" name="LPARD"> F  </i>
   <i type="logical" name="LVTOT"> F  </i>
   <i type="logical" name="LVHAR"> F  </i>
   <i type="logical" name="LELF"> F  </i>
   <i type="logical" name="LOPTICS"> F  </i>
   <v name="STM">      0.00000000      0.00000000      0.00000000      0.00000000      0.00000000      0.00000000      0.00000000</v>
  </separator>
  <separator name="performance" >
   <i type="int" name="NPAR">    40</i>
   <i type="int" name="NSIM">     4</i>
   <i type="int" name="NBLK">    -1</i>
   <i type="logical" name="LPLANE"> F  </i>
   <i type="logical" name="LSCALAPACK"> T  </i>
   <i type="logical" name="LSCAAWARE"> F  </i>
   <i type="logical" name="LSCALU"> F  </i>
   <i type="logical" name="LASYNC"> F  </i>
   <i type="logical" name="LORBITALREAL"> F  </i>
  </separator>
  <separator name="miscellaneous" >
   <i type="int" name="IDIOT">     3</i>
   <i type="logical" name="LMUSIC"> F  </i>
   <v name="POMASS">     50.94100000     95.94000000    183.85000000     32.06600000</v>
   <v name="DARWINR">      0.00000000      0.00000000      0.00000000      0.00000000</v>
   <v name="DARWINV">      1.00000000      1.00000000      1.00000000      1.00000000</v>
   <i type="logical" name="LCORR"> T  </i>
  </separator>
  <i type="logical" name="GGA_COMPAT"> T  </i>
  <i type="logical" name="LBERRY"> F  </i>
  <i type="int" name="ICORELEVEL">     0</i>
  <i type="logical" name="LDAU"> F  </i>
  <i type="int" name="I_CONSTRAINED_M">     0</i>
  <separator name="electronic exchange-correlation" >
   <i type="string" name="GGA">--</i>
   <i type="int" name="VOSKOWN">     0</i>
   <i type="logical" name="LHFCALC"> F  </i>
   <i type="string" name="PRECFOCK"></i>
   <i type="logical" name="LSYMGRAD"> F  </i>
   <i type="logical" name="LHFONE"> F  </i>
   <i type="logical" name="LRHFCALC"> F  </i>
   <i type="logical" name="LTHOMAS"> F  </i>
   <i type="logical" name="LMODELHF"> F  </i>
   <i name="ENCUT4O">     -1.00000000</i>
   <i type="int" name="EXXOEP">     0</i>
   <i type="int" name="FOURORBIT">     0</i>
   <i name="AEXX">      0.00000000</i>
   <i name="HFALPHA">      0.00000000</i>
   <i name="MCALPHA">      0.00000000</i>
   <i name="ALDAX">      1.00000000</i>
   <i name="AGGAX">      1.00000000</i>
   <i name="ALDAC">      1.00000000</i>
   <i name="AGGAC">      1.00000000</i>
   <i type="int" name="NKREDX">     1</i>
   <i type="int" name="NKREDY">     1</i>
   <i type="int" name="NKREDZ">     1</i>
   <i type="logical" name="SHIFTRED"> F  </i>
   <i type="logical" name="ODDONLY"> F  </i>
   <i type="logical" name="EVENONLY"> F  </i>
   <i type="int" name="LMAXFOCK">     0</i>
   <i type="int" name="NMAXFOCKAE">     0</i>
   <i type="logical" name="LFOCKAEDFT"> F  </i>
   <i name="HFSCREEN">      0.00000000</i>
   <i name="HFSCREENC">      0.00000000</i>
   <i type="int" name="NBANDSGWLOW">     0</i>
  </separator>
  <separator name="vdW DFT" >
   <i type="logical" name="LUSE_VDW"> F  </i>
   <i name="Zab_VDW">     -0.84910000</i>
   <i name="PARAM1">      0.12340000</i>
   <i name="PARAM2">      1.00000000</i>
   <i name="PARAM3">      0.00000000</i>
  </separator>
  <separator name="model GW" >
   <i type="int" name="MODEL_GW">     0</i>
   <i name="MODEL_EPS0">     58.26239943</i>
   <i name="MODEL_ALPHA">      1.00000000</i>
  </separator>
  <separator name="linear response parameters" >
   <i type="logical" name="LEPSILON"> F  </i>
   <i type="logical" name="LRPA"> F  </i>
   <i type="logical" name="LNABLA"> F  </i>
   <i type="logical" name="LVEL"> F  </i>
   <i type="int" name="KINTER">     0</i>
   <i name="CSHIFT">      0.10000000</i>
   <i name="OMEGAMAX">     -1.00000000</i>
   <i name="DEG_THRESHOLD">      0.00200000</i>
  </separator>
  <separator name="orbital magnetization" >
   <i type="logical" name="NUCIND"> F  </i>
   <v name="MAGPOS">      0.00000000      0.00000000      0.00000000</v>
   <i type="logical" name="LNICSALL"> T  </i>
   <i type="logical" name="ORBITALMAG"> F  </i>
   <i type="logical" name="LMAGBLOCH"> F  </i>
   <i type="logical" name="LCHIMAG"> F  </i>
   <i type="logical" name="LGAUGE"> T  </i>
   <i type="int" name="MAGATOM">     0</i>
   <v name="MAGDIPOL">      0.00000000      0.00000000      0.00000000</v>
   <v name="AVECCONST">      0.00000000      0.00000000      0.00000000</v>
  </separator>
  <separator name="response functions" >
   <i type="logical" name="LADDER"> F  </i>
   <i type="logical" name="LFXC"> F  </i>
   <i type="logical" name="LHARTREE"> T  </i>
   <i type="int" name="IBSE">     0</i>
   <v type="int" name="KPOINT">    -1     0     0     0</v>
   <i type="logical" name="LTCTE"> F  </i>
   <i type="logical" name="LTETE"> F  </i>
   <i type="logical" name="LTRIPLET"> F  </i>
   <i type="logical" name="LFXCEPS"> F  </i>
   <i type="logical" name="LFXHEG"> F  </i>
   <i type="int" name="NATURALO">     0</i>
   <i type="logical" name="L2ORDER"> F  </i>
   <i type="logical" name="LUSEW"> F  </i>
   <i name="ENCUTGW">     -2.00000000</i>
   <i name="ENCUTGWSOFT">     -2.00000000</i>
   <i name="ENCUTLF">     -1.00000000</i>
   <i type="int" name="LMAXMP2">    -1</i>
   <i name="SCISSOR">      0.00000000</i>
   <i type="int" name="NOMEGA">     0</i>
   <i type="int" name="NOMEGAR">     0</i>
   <i type="int" name="NBANDSGW">    -1</i>
   <i type="int" name="NBANDSO">    -1</i>
   <i type="int" name="NBANDSV">    -1</i>
   <i type="int" name="NELM">     1</i>
   <i type="int" name="NELMHF">     1</i>
   <i type="int" name="DIM">     3</i>
   <i type="int" name="ANTIRES">     0</i>
   <i name="OMEGAMAX">    -30.00000000</i>
   <i name="OMEGAMIN">    -30.00000000</i>
   <i name="OMEGATL">   -200.00000000</i>
   <i type="int" name="OMEGAGRID">     0</i>
   <i name="CSHIFT">     -0.10000000</i>
   <i type="logical" name="SELFENERGY"> F  </i>
   <i type="logical" name="LSPECTRAL"> F  </i>
   <i type="logical" name="LSPECTRALGW"> F  </i>
   <i type="logical" name="LSINGLES"> F  </i>
   <i type="logical" name="LFERMIGW"> F  </i>
   <i type="logical" name="ODDONLYGW"> F  </i>
   <i type="logical" name="EVENONLYGW"> F  </i>
   <i type="int" name="NKREDLFX">     1</i>
   <i type="int" name="NKREDLFY">     1</i>
   <i type="int" name="NKREDLFZ">     1</i>
   <i type="int" name="MAXMEM">  1800</i>
   <i type="int" name="TELESCOPE">     0</i>
   <i type="int" name="TAUPAR">     1</i>
   <i type="int" name="OMEGAPAR">    -1</i>
   <i name="LAMBDA">      1.00000000</i>
  </separator>
  <separator name="External order field" >
   <i name="OFIELD_KAPPA">      0.00000000</i>
   <v name="OFIELD_K">      0.00000000      0.00000000      0.00000000</v>
   <i name="OFIELD_Q6_NEAR">      0.00000000</i>
   <i name="OFIELD_Q6_FAR">      0.00000000</i>
   <i name="OFIELD_A">      0.00000000</i>
  </separator>
 </parameters>
 <atominfo>
  <atoms>      27 </atoms>
  <types>       4 </types>
  <array name="atoms" >
   <dimension dim="1">ion</dimension>
   <field type="string">element</field>
   <field type="int">atomtype</field>
   <set>
    <rc><c>V </c><c>   1</c></rc>
    <rc><c>V </c><c>   1</c></rc>
    <rc><c>V </c><c>   1</c></rc>
    <rc><c>Mo</c><c>   2</c></rc>
    <rc><c>Mo</c><c>   2</c></rc>
    <rc><c>Mo</c><c>   2</c></rc>
    <rc><c>W </c><c>   3</c></rc>
    <rc><c>W </c><c>   3</c></rc>
    <rc><c>W </c><c>   3</c></rc>
    <rc><c>S </c><c>   4</c></rc>
    <rc><c>S </c><c>   4</c></rc>
    <rc><c>S </c><c>   4</c></rc>
    <rc><c>S </c><c>   4</c></rc>
    <rc><c>S </c><c>   4</c></rc>
    <rc><c>S </c><c>   4</c></rc>
    <rc><c>S </c><c>   4</c></rc>
    <rc><c>S </c><c>   4</c></rc>
    <rc><c>S </c><c>   4</c></rc>
    <rc><c>S </c><c>   4</c></rc>
    <rc><c>S </c><c>   4</c></rc>
    <rc><c>S </c><c>   4</c></rc>
    <rc><c>S </c><c>   4</c></rc>
    <rc><c>S </c><c>   4</c></rc>
    <rc><c>S </c><c>   4</c></rc>
    <rc><c>S </c><c>   4</c></rc>
    <rc><c>S </c><c>   4</c></rc>
    <rc><c>S </c><c>   4</c></rc>
   </set>
  </array>
  <array name="atomtypes" >
   <dimension dim="1">type</dimension>
   <field type="int">atomspertype</field>
   <field type="string">element</field>
   <field>mass</field>
   <field>valence</field>
   <field type="string">pseudopotential</field>
   <set>
    <rc><c>   3</c><c>V </c><c>     50.94100000</c><c>      5.00000000</c><c> PAW_PBE V 08Apr2002                    </c></rc>
    <rc><c>   3</c><c>Mo</c><c>     95.94000000</c><c>      6.00000000</c><c> PAW_PBE Mo 08Apr2002                   </c></rc>
    <rc><c>   3</c><c>W </c><c>    183.85000000</c><c>      6.00000000</c><c> PAW_PBE W 08Apr2002                    </c></rc>
    <rc><c>  18</c><c>S </c><c>     32.06600000</c><c>      6.00000000</c><c>  PAW_PBE S 17Jan2003                   </c></rc>
   </set>
  </array>
 </atominfo>
 <structure name="initialpos" >
  <crystal>
   <varray name="basis" >
    <v>       8.66999996       5.03999989       0.00000000 </v>
    <v>      -8.66999982       5.04000013       0.00000000 </v>
    <v>       0.00000000       0.00000000      30.00000000 </v>
   </varray>
   <i name="volume">   2621.80797419 </i>
   <varray name="rec_basis" >
    <v>       0.05767013       0.09920635       0.00000000 </v>
    <v>      -0.05767013       0.09920635       0.00000000 </v>
    <v>       0.00000000       0.00000000       0.03333333 </v>
   </varray>
  </crystal>
  <varray name="positions" >
   <v>       0.00000000       0.00000000       0.00000000 </v>
   <v>       0.33333334       0.33333334       0.00000000 </v>
   <v>       0.33333334       0.66666669       0.00000000 </v>
   <v>       0.00000000       0.66666669       0.00000000 </v>
   <v>       1.00000000       0.33333334       0.00000000 </v>
   <v>       0.66666669       0.33333334       0.00000000 </v>
   <v>       0.33333334       0.00000000       0.00000000 </v>
   <v>       0.66666669       0.00000000       0.00000000 </v>
   <v>       0.66666669       0.66666669       0.00000000 </v>
   <v>       0.11068511       0.22244981       0.95539999 </v>
   <v>       0.22244981       0.11068511       0.04460000 </v>
   <v>       0.11068511       0.55578315       0.95539999 </v>
   <v>       0.22244981       0.44401845       0.04460000 </v>
   <v>       0.11068511       0.88911647       0.95539999 </v>
   <v>       0.22244981       0.77735180       0.04460000 </v>
   <v>       0.44401845       0.22244981       0.95539999 </v>
   <v>       0.55578315       0.11068511       0.04460000 </v>
   <v>       0.44401845       0.55578315       0.95539999 </v>
   <v>       0.55578315       0.44401845       0.04460000 </v>
   <v>       0.44401845       0.88911647       0.95539999 </v>
   <v>       0.55578315       0.77735180       0.04460000 </v>
   <v>       0.77735180       0.22244981       0.95539999 </v>
   <v>       0.88911647       0.11068511       0.04460000 </v>
   <v>       0.77735180       0.55578315       0.95539999 </v>
   <v>       0.88911647       0.44401845       0.04460000 </v>
   <v>       0.77735180       0.88911647       0.95539999 </v>
   <v>       0.88911647       0.77735180       0.04460000 </v>
  </varray>
 </structure>
 <calculation>
  <scstep>
   <time name="dav">   21.94   21.99</time>
   <time name="total">   21.98   22.04</time>
   <energy>
    <i name="alphaZ">     81.65567618 </i>
    <i name="ewald">  41890.23011080 </i>
    <i name="hartreedc"> -47722.85856318 </i>
    <i name="XCdc">   -242.92965107 </i>
    <i name="pawpsdc">   3467.42045192 </i>
    <i name="pawaedc">  -2871.19716117 </i>
    <i name="eentropy">     -0.53102248 </i>
    <i name="bandstr">   -237.24193242 </i>
    <i name="atom">   6761.44252427 </i>
    <i name="e_fr_energy">   1125.99043285 </i>
    <i name="e_wo_entrp">   1126.52145533 </i>
    <i name="e_0_energy">   1126.25594409 </i>
   </energy>
  </scstep>
  <scstep>
   <time name="dav">   28.50   28.57</time>
   <time name="total">   28.50   28.58</time>
   <energy>
    <i name="e_fr_energy">     -3.09983002 </i>
    <i name="e_wo_entrp">     -2.90455323 </i>
    <i name="e_0_energy">     -3.00219163 </i>
   </energy>
  </scstep>
  <scstep>
   <time name="dav">   27.80   27.86</time>
   <time name="total">   27.80   27.87</time>
   <energy>
    <i name="e_fr_energy">   -199.79739991 </i>
    <i name="e_wo_entrp">   -199.50445594 </i>
    <i name="e_0_energy">   -199.65092793 </i>
   </energy>
  </scstep>
  <scstep>
   <time name="dav">   30.70   30.77</time>
   <time name="total">   30.70   30.78</time>
   <energy>
    <i name="e_fr_energy">   -208.92860964 </i>
    <i name="e_wo_entrp">   -208.60651639 </i>
    <i name="e_0_energy">   -208.76756301 </i>
   </energy>
  </scstep>
  <scstep>
   <time name="dav">   28.65   28.72</time>
   <time name="total">   29.12   29.20</time>
   <energy>
    <i name="e_fr_energy">   -209.22415868 </i>
    <i name="e_wo_entrp">   -208.90510829 </i>
    <i name="e_0_energy">   -209.06463349 </i>
   </energy>
  </scstep>
  <scstep>
   <time name="dav">   30.99   31.06</time>
   <time name="total">   31.49   31.57</time>
   <energy>
    <i name="e_fr_energy">   -236.36142614 </i>
    <i name="e_wo_entrp">   -236.08378421 </i>
    <i name="e_0_energy">   -236.22260518 </i>
   </energy>
  </scstep>
  <scstep>
   <time name="dav">   32.75   32.83</time>
   <time name="total">   33.26   33.34</time>
   <energy>
    <i name="e_fr_energy">   -196.83234420 </i>
    <i name="e_wo_entrp">   -196.49944995 </i>
    <i name="e_0_energy">   -196.66589708 </i>
   </energy>
  </scstep>
  <scstep>
   <time name="dav">   29.60   29.67</time>
   <time name="total">   30.11   30.19</time>
   <energy>
    <i name="e_fr_energy">   -190.31960044 </i>
    <i name="e_wo_entrp">   -190.05261156 </i>
    <i name="e_0_energy">   -190.18610600 </i>
   </energy>
  </scstep>
  <scstep>
   <time name="dav">   30.24   30.31</time>
   <time name="total">   30.76   30.84</time>
   <energy>
    <i name="e_fr_energy">   -188.29712700 </i>
    <i name="e_wo_entrp">   -187.96240423 </i>
    <i name="e_0_energy">   -188.12976561 </i>
   </energy>
  </scstep>
  <scstep>
   <time name="dav">   32.62   32.70</time>
   <time name="total">   33.16   33.24</time>
   <energy>
    <i name="e_fr_energy">   -187.10976931 </i>
    <i name="e_wo_entrp">   -186.76335891 </i>
    <i name="e_0_energy">   -186.93656411 </i>
   </energy>
  </scstep>
  <scstep>
   <time name="dav">   30.81   30.88</time>
   <time name="total">   31.34   31.43</time>
   <energy>
    <i name="e_fr_energy">   -187.01041268 </i>
    <i name="e_wo_entrp">   -186.66350190 </i>
    <i name="e_0_energy">   -186.83695729 </i>
   </energy>
  </scstep>
  <scstep>
   <time name="dav">   32.09   32.16</time>
   <time name="total">   32.62   32.71</time>
   <energy>
    <i name="e_fr_energy">   -187.00019603 </i>
    <i name="e_wo_entrp">   -186.66375301 </i>
    <i name="e_0_energy">   -186.83197452 </i>
   </energy>
  </scstep>
  <scstep>
   <time name="dav">   32.61   32.69</time>
   <time name="total">   33.15   33.24</time>
   <energy>
    <i name="e_fr_energy">   -186.92413281 </i>
    <i name="e_wo_entrp">   -186.58550885 </i>
    <i name="e_0_energy">   -186.75482083 </i>
   </energy>
  </scstep>
  <scstep>
   <time name="dav">   32.23   32.31</time>
   <time name="total">   32.77   32.85</time>
   <energy>
    <i name="e_fr_energy">   -186.89028935 </i>
    <i name="e_wo_entrp">   -186.54649057 </i>
    <i name="e_0_energy">   -186.71838996 </i>
   </energy>
  </scstep>
  <scstep>
   <time name="dav">   30.08   30.15</time>
   <time name="total">   30.62   30.70</time>
   <energy>
    <i name="e_fr_energy">   -186.88599353 </i>
    <i name="e_wo_entrp">   -186.54159529 </i>
    <i name="e_0_energy">   -186.71379441 </i>
   </energy>
  </scstep>
  <scstep>
   <time name="dav">   31.85   31.93</time>
   <time name="total">   32.39   32.48</time>
   <energy>
    <i name="e_fr_energy">   -186.88526579 </i>
    <i name="e_wo_entrp">   -186.54143668 </i>
    <i name="e_0_energy">   -186.71335123 </i>
   </energy>
  </scstep>
  <scstep>
   <time name="dav">   32.36   32.44</time>
   <time name="total">   32.90   32.99</time>
   <energy>
    <i name="e_fr_energy">   -186.88392939 </i>
    <i name="e_wo_entrp">   -186.54093396 </i>
    <i name="e_0_energy">   -186.71243168 </i>
   </energy>
  </scstep>
  <scstep>
   <time name="dav">   30.56   30.64</time>
   <time name="total">   31.10   31.19</time>
   <energy>
    <i name="e_fr_energy">   -186.88260414 </i>
    <i name="e_wo_entrp">   -186.53994396 </i>
    <i name="e_0_energy">   -186.71127405 </i>
   </energy>
  </scstep>
  <scstep>
   <time name="dav">   28.34   28.41</time>
   <time name="total">   28.88   28.96</time>
   <energy>
    <i name="e_fr_energy">   -186.88243826 </i>
    <i name="e_wo_entrp">   -186.53929321 </i>
    <i name="e_0_energy">   -186.71086574 </i>
   </energy>
  </scstep>
  <scstep>
   <time name="dav">   24.05   24.11</time>
   <time name="total">   24.59   24.66</time>
   <energy>
    <i name="e_fr_energy">   -186.88330150 </i>
    <i name="e_wo_entrp">   -186.54045587 </i>
    <i name="e_0_energy">   -186.71187868 </i>
   </energy>
  </scstep>
  <scstep>
   <time name="dav">   22.07   22.12</time>
   <time name="total">   22.61   22.67</time>
   <energy>
    <i name="e_fr_energy">   -186.88403177 </i>
    <i name="e_wo_entrp">   -186.54110393 </i>
    <i name="e_0_energy">   -186.71256785 </i>
   </energy>
  </scstep>
  <scstep>
   <time name="dav">   20.42   20.47</time>
   <time name="total">   20.96   21.02</time>
   <energy>
    <i name="e_fr_energy">   -186.88490803 </i>
    <i name="e_wo_entrp">   -186.54198403 </i>
    <i name="e_0_energy">   -186.71344603 </i>
   </energy>
  </scstep>
  <scstep>
   <time name="dav">   20.64   20.69</time>
   <time name="total">   21.18   21.24</time>
   <energy>
    <i name="e_fr_energy">   -186.88615082 </i>
    <i name="e_wo_entrp">   -186.54335506 </i>
    <i name="e_0_energy">   -186.71475294 </i>
   </energy>
  </scstep>
  <scstep>
   <time name="dav">   19.11   19.16</time>
   <time name="total">   19.65   19.70</time>
   <energy>
    <i name="e_fr_energy">   -186.88668742 </i>
    <i name="e_wo_entrp">   -186.54382057 </i>
    <i name="e_0_energy">   -186.71525399 </i>
   </energy>
  </scstep>
  <scstep>
   <time name="dav">   16.55   16.59</time>
   <time name="total">   17.09   17.14</time>
   <energy>
    <i name="e_fr_energy">   -186.88709368 </i>
    <i name="e_wo_entrp">   -186.54421079 </i>
    <i name="e_0_energy">   -186.71565224 </i>
   </energy>
  </scstep>
  <scstep>
   <time name="dav">   19.30   19.35</time>
   <time name="total">   19.84   19.90</time>
   <energy>
    <i name="e_fr_energy">   -186.88732990 </i>
    <i name="e_wo_entrp">   -186.54446384 </i>
    <i name="e_0_energy">   -186.71589687 </i>
   </energy>
  </scstep>
  <scstep>
   <time name="dav">   20.18   20.23</time>
   <time name="total">   20.22   20.27</time>
   <energy>
    <i name="alphaZ">     81.65567618 </i>
    <i name="ewald">  41890.23011080 </i>
    <i name="hartreedc"> -47833.12171732 </i>
    <i name="XCdc">   -231.59846132 </i>
    <i name="pawpsdc">   4192.18017134 </i>
    <i name="pawaedc">  -3610.20542408 </i>
    <i name="eentropy">     -0.34286776 </i>
    <i name="bandstr">  -1437.12742502 </i>
    <i name="atom">   6761.44252427 </i>
    <i name="e_fr_energy">   -186.88741291 </i>
    <i name="e_wo_entrp">   -186.54454515 </i>
    <i name="e_0_energy">   -186.71597903 </i>
   </energy>
  </scstep>
  <structure>
   <crystal>
    <varray name="basis" >
     <v>       8.66999996       5.03999989       0.00000000 </v>
     <v>      -8.66999982       5.04000013       0.00000000 </v>
     <v>       0.00000000       0.00000000      30.00000000 </v>
    </varray>
    <i name="volume">   2621.80797419 </i>
    <varray name="rec_basis" >
     <v>       0.05767013       0.09920635       0.00000000 </v>
     <v>      -0.05767013       0.09920635       0.00000000 </v>
     <v>       0.00000000       0.00000000       0.03333333 </v>
    </varray>
   </crystal>
   <varray name="positions" >
    <v>       0.00000000       0.00000000       0.00000000 </v>
    <v>       0.33333334       0.33333334       0.00000000 </v>
    <v>       0.33333334       0.66666669       0.00000000 </v>
    <v>       0.00000000       0.66666669       0.00000000 </v>
    <v>       1.00000000       0.33333334       0.00000000 </v>
    <v>       0.66666669       0.33333334       0.00000000 </v>
    <v>       0.33333334       0.00000000       0.00000000 </v>
    <v>       0.66666669       0.00000000       0.00000000 </v>
    <v>       0.66666669       0.66666669       0.00000000 </v>
    <v>       0.11068511       0.22244981       0.95539999 </v>
    <v>       0.22244981       0.11068511       0.04460000 </v>
    <v>       0.11068511       0.55578315       0.95539999 </v>
    <v>       0.22244981       0.44401845       0.04460000 </v>
    <v>       0.11068511       0.88911647       0.95539999 </v>
    <v>       0.22244981       0.77735180       0.04460000 </v>
    <v>       0.44401845       0.22244981       0.95539999 </v>
    <v>       0.55578315       0.11068511       0.04460000 </v>
    <v>       0.44401845       0.55578315       0.95539999 </v>
    <v>       0.55578315       0.44401845       0.04460000 </v>
    <v>       0.44401845       0.88911647       0.95539999 </v>
    <v>       0.55578315       0.77735180       0.04460000 </v>
    <v>       0.77735180       0.22244981       0.95539999 </v>
    <v>       0.88911647       0.11068511       0.04460000 </v>
    <v>       0.77735180       0.55578315       0.95539999 </v>
    <v>       0.88911647       0.44401845       0.04460000 </v>
    <v>       0.77735180       0.88911647       0.95539999 </v>
    <v>       0.88911647       0.77735180       0.04460000 </v>
   </varray>
  </structure>
  <varray name="forces" >
   <v>      -0.01316327       0.06984754       0.05727278 </v>
   <v>      -0.08672061      -0.03008887      -0.02296504 </v>
   <v>      -0.15050313      -0.39510060      -0.06180431 </v>
   <v>       0.25788174      -0.43420665       0.09081417 </v>
   <v>      -0.43019789       0.03827843      -0.03399376 </v>
   <v>       0.26961366       0.42077625      -0.00224183 </v>
   <v>      -0.07060125      -0.02431371      -0.00939359 </v>
   <v>      -0.25442255       0.47352491      -0.07606174 </v>
   <v>       0.53240301      -0.06105504       0.03044038 </v>
   <v>       0.89762710      -0.00197286      -1.42954681 </v>
   <v>      -0.75321427      -0.02424218       1.49967047 </v>
   <v>       0.54795799       0.71448220      -2.17791665 </v>
   <v>       0.32572758       0.66800125       1.41873113 </v>
   <v>      -0.65512492       0.15588189      -2.05954785 </v>
   <v>       0.64437083       0.14053284       2.09998223 </v>
   <v>      -0.64715330      -0.14287062      -2.07362526 </v>
   <v>      -0.08497894      -0.12053048       2.90075591 </v>
   <v>      -0.26459254      -0.52789789      -1.42858970 </v>
   <v>      -0.61711327      -0.54479981       2.14607671 </v>
   <v>       0.48682757      -0.58711363      -2.19753521 </v>
   <v>      -0.46966244      -0.57398833       2.08090664 </v>
   <v>       0.20436358      -0.17902070      -2.93337153 </v>
   <v>       0.69774170      -0.15115583       2.12546883 </v>
   <v>      -0.05501623      -0.02063252      -2.92077826 </v>
   <v>      -0.13180364       0.01295756       2.94721081 </v>
   <v>       0.44387086       0.56002393      -2.14785721 </v>
   <v>      -0.62411736       0.56468293       2.17789869 </v>
  </varray>
  <varray name="stress" >
   <v>       7.43200662       0.05403395      -1.60914324 </v>
   <v>       0.05403373       4.34404252       0.00049475 </v>
   <v>      -1.60914325       0.00049466      30.28326236 </v>
  </varray>
  <energy>
   <i name="e_fr_energy">   -186.88741291 </i>
   <i name="e_wo_entrp">   -186.71597903 </i>
   <i name="e_0_energy">     -0.34286776 </i>
  </energy>
  <time name="totalsc">  791.15  793.30</time>
 </calculation>
 <calculation>
  <scstep>
   <time name="dav">   21.93   21.98</time>
   <time name="total">   22.47   22.53</time>
   <energy>
    <i name="alphaZ">     78.91666876 </i>
    <i name="ewald">  39377.97632884 </i>
    <i name="hartreedc"> -45335.53222120 </i>
    <i name="XCdc">   -239.05676107 </i>
    <i name="pawpsdc">   4192.16954159 </i>
    <i name="pawaedc">  -3610.19483390 </i>
    <i name="eentropy">     -0.28143707 </i>
    <i name="bandstr">  -1412.98348055 </i>
    <i name="atom">   6761.44252427 </i>
    <i name="e_fr_energy">   -187.54367034 </i>
    <i name="e_wo_entrp">   -187.26223327 </i>
    <i name="e_0_energy">   -187.40295180 </i>
   </energy>
  </scstep>
  <scstep>
   <time name="dav">   30.65   30.72</time>
   <time name="total">   31.18   31.27</time>
   <energy>
    <i name="e_fr_energy">   -189.65179443 </i>
    <i name="e_wo_entrp">   -189.31128662 </i>
    <i name="e_0_energy">   -189.48154053 </i>
   </energy>
  </scstep>
  <scstep>
   <time name="dav">   30.72   30.80</time>
   <time name="total">   31.28   31.36</time>
   <energy>
    <i name="e_fr_energy">   -189.34347133 </i>
    <i name="e_wo_entrp">   -189.06923015 </i>
    <i name="e_0_energy">   -189.20635074 </i>
   </energy>
  </scstep>
  <scstep>
   <time name="dav">   30.96   31.03</time>
   <time name="total">   31.50   31.58</time>
   <energy>
    <i name="e_fr_energy">   -188.80542333 </i>
    <i name="e_wo_entrp">   -188.52466035 </i>
    <i name="e_0_energy">   -188.66504184 </i>
   </energy>
  </scstep>
  <scstep>
   <time name="dav">   31.07   31.15</time>
   <time name="total">   31.62   31.70</time>
   <energy>
    <i name="e_fr_energy">   -188.96819456 </i>
    <i name="e_wo_entrp">   -188.67398189 </i>
    <i name="e_0_energy">   -188.82108823 </i>
   </energy>
  </scstep>
  <scstep>
   <time name="dav">   31.34   31.41</time>
   <time name="total">   31.89   31.97</time>
   <energy>
    <i name="e_fr_energy">   -188.77167011 </i>
    <i name="e_wo_entrp">   -188.49198920 </i>
    <i name="e_0_energy">   -188.63182966 </i>
   </energy>
  </scstep>
  <scstep>
   <time name="dav">   29.05   29.12</time>
   <time name="total">   29.60   29.68</time>
   <energy>
    <i name="e_fr_energy">   -188.75545322 </i>
    <i name="e_wo_entrp">   -188.47492416 </i>
    <i name="e_0_energy">   -188.61518869 </i>
   </energy>
  </scstep>
  <scstep>
   <time name="dav">   32.79   32.87</time>
   <time name="total">   33.34   33.43</time>
   <energy>
    <i name="e_fr_energy">   -188.73422453 </i>
    <i name="e_wo_entrp">   -188.45379596 </i>
    <i name="e_0_energy">   -188.59401025 </i>
   </energy>
  </scstep>
  <scstep>
   <time name="dav">   30.72   30.80</time>
   <time name="total">   31.27   31.36</time>
   <energy>
    <i name="e_fr_energy">   -188.71566507 </i>
    <i name="e_wo_entrp">   -188.43604523 </i>
    <i name="e_0_energy">   -188.57585515 </i>
   </energy>
  </scstep>
  <scstep>
   <time name="dav">   27.04   27.11</time>
   <time name="total">   27.59   27.67</time>
   <energy>
    <i name="e_fr_energy">   -188.71543572 </i>
    <i name="e_wo_entrp">   -188.43593894 </i>
    <i name="e_0_energy">   -188.57568733 </i>
   </energy>
  </scstep>
  <scstep>
   <time name="dav">   29.10   29.17</time>
   <time name="total">   29.65   29.72</time>
   <energy>
    <i name="e_fr_energy">   -188.71465281 </i>
    <i name="e_wo_entrp">   -188.43564835 </i>
    <i name="e_0_energy">   -188.57515058 </i>
   </energy>
  </scstep>
  <scstep>
   <time name="dav">   27.49   27.55</time>
   <time name="total">   28.03   28.11</time>
   <energy>
    <i name="e_fr_energy">   -188.71481515 </i>
    <i name="e_wo_entrp">   -188.43574255 </i>
    <i name="e_0_energy">   -188.57527885 </i>
   </energy>
  </scstep>
  <scstep>
   <time name="dav">   22.60   22.65</time>
   <time name="total">   22.63   22.69</time>
   <energy>
    <i name="alphaZ">     78.91666876 </i>
    <i name="ewald">  39377.97632884 </i>
    <i name="hartreedc"> -45346.25708415 </i>
    <i name="XCdc">   -237.96820687 </i>
    <i name="pawpsdc">   3950.47251380 </i>
    <i name="pawaedc">  -3364.99364392 </i>
    <i name="eentropy">     -0.27908314 </i>
    <i name="bandstr">  -1408.02479754 </i>
    <i name="atom">   6761.44252427 </i>
    <i name="e_fr_energy">   -188.71477996 </i>
    <i name="e_wo_entrp">   -188.43569682 </i>
    <i name="e_0_energy">   -188.57523839 </i>
   </energy>
  </scstep>
  <structure>
   <crystal>
    <varray name="basis" >
     <v>       8.85919709       5.10538474       0.00000000 </v>
     <v>      -8.85760444       5.10264546       0.00000000 </v>
     <v>       0.00000000       0.00000000      30.00000000 </v>
    </varray>
    <i name="volume">   2712.80461143 </i>
    <varray name="rec_basis" >
     <v>       0.05642845       0.09795329       0.00000000 </v>
     <v>      -0.05645874       0.09797090       0.00000000 </v>
     <v>       0.00000000       0.00000000       0.03333333 </v>
    </varray>
   </crystal>
   <varray name="positions" >
    <v>       0.00029767       0.00037091       0.00009210 </v>
    <v>       0.33294807       0.33343061      -0.00003693 </v>
    <v>       0.33102368       0.66519447      -0.00009939 </v>
    <v>      -0.00136063       0.66387111       0.00014604 </v>
    <v>       0.99898632       0.33471342      -0.00005466 </v>
    <v>       0.66943062       0.33459706      -0.00000361 </v>
    <v>       0.33302055       0.00008006      -0.00001511 </v>
    <v>       0.66822512       0.00297412      -0.00012231 </v>
    <v>       0.66785571       0.66489325       0.00004895 </v>
    <v>       0.11317301       0.21994303       0.95310115 </v>
    <v>       0.22023822       0.11266465       0.04701160 </v>
    <v>       0.11562911       0.55767814       0.95189771 </v>
    <v>       0.22655307       0.44630927       0.04688144 </v>
    <v>       0.10960849       0.89168518       0.95208805 </v>
    <v>       0.22491514       0.77623164       0.04797696 </v>
    <v>       0.44153419       0.22356652       0.95206542 </v>
    <v>       0.55496987       0.11034468       0.04926467 </v>
    <v>       0.44075581       0.55399278       0.95310269 </v>
    <v>       0.55145884       0.44312796       0.04805108 </v>
    <v>       0.44256297       0.88495212       0.95186616 </v>
    <v>       0.55172938       0.77591138       0.04794628 </v>
    <v>       0.77706358       0.22102445       0.95068287 </v>
    <v>       0.89033427       0.10802045       0.04801794 </v>
    <v>       0.77709999       0.55583747       0.95070312 </v>
    <v>       0.88881178       0.44444717       0.04933937 </v>
    <v>       0.78126698       0.89056181       0.95194605 </v>
    <v>       0.89008263       0.78179075       0.04810225 </v>
   </varray>
  </structure>
  <varray name="forces" >
   <v>       0.00832909       0.03252374      -0.07176466 </v>
   <v>      -0.04999496      -0.03272904      -0.08606353 </v>
   <v>      -0.16518882      -0.29641613       0.06071866 </v>
   <v>       0.16847406      -0.58989062       0.03042956 </v>
   <v>      -0.62629930      -0.15668656       0.00242096 </v>
   <v>       0.37909965       0.50273947       0.00645454 </v>
   <v>       0.07719932       0.04568673      -0.11064319 </v>
   <v>      -0.38157641       0.43134008       0.07134926 </v>
   <v>       0.55619134      -0.00009383       0.11359972 </v>
   <v>       0.02251524       0.01167983       0.17638514 </v>
   <v>       0.09157396      -0.00527609      -0.06299958 </v>
   <v>       0.02902307       0.06754368      -0.16784274 </v>
   <v>       0.00345934       0.02972979      -0.08174336 </v>
   <v>       0.03413130       0.09868732       0.14871646 </v>
   <v>      -0.02404503       0.09939655      -0.02602773 </v>
   <v>       0.03195531      -0.10372047       0.12431909 </v>
   <v>       0.06403910      -0.08470779      -0.00404234 </v>
   <v>       0.06272663       0.07136532       0.12942997 </v>
   <v>      -0.06989159       0.05715491      -0.03434555 </v>
   <v>      -0.04792531       0.05954780       0.11664895 </v>
   <v>       0.05613881       0.07231549      -0.38446515 </v>
   <v>       0.04296533      -0.10139885      -0.28775151 </v>
   <v>      -0.02849899      -0.09327997      -0.00997702 </v>
   <v>      -0.12379419      -0.00208076      -0.23186065 </v>
   <v>       0.01401453       0.01060390       0.39810161 </v>
   <v>      -0.05885970      -0.06599301       0.17225199 </v>
   <v>      -0.06576177      -0.05804148       0.00870110 </v>
  </varray>
  <varray name="stress" >
   <v>     -19.91275866      -0.00686260       0.04824223 </v>
   <v>      -0.00686248     -19.44995107      -0.01164727 </v>
   <v>       0.04824227      -0.01164732      -1.75679218 </v>
  </varray>
  <energy>
   <i name="e_fr_energy">   -188.71477996 </i>
   <i name="e_wo_entrp">   -188.57523839 </i>
   <i name="e_0_energy">     -0.27908314 </i>
  </energy>
  <time name="totalsc">  424.76  425.88</time>
 </calculation>
 <calculation>
  <scstep>
   <time name="dav">   23.76   23.82</time>
   <time name="total">   24.30   24.36</time>
   <energy>
    <i name="alphaZ">     82.34380283 </i>
    <i name="ewald">  41303.06984467 </i>
    <i name="hartreedc"> -47301.75990634 </i>
    <i name="XCdc">   -233.84269127 </i>
    <i name="pawpsdc">   3949.59180830 </i>
    <i name="pawaedc">  -3364.10584714 </i>
    <i name="eentropy">     -0.23644050 </i>
    <i name="bandstr">  -1387.15235250 </i>
    <i name="atom">   6761.44252427 </i>
    <i name="e_fr_energy">   -190.64925767 </i>
    <i name="e_wo_entrp">   -190.41281717 </i>
    <i name="e_0_energy">   -190.53103742 </i>
   </energy>
  </scstep>
  <scstep>
   <time name="dav">   28.03   28.09</time>
   <time name="total">   28.55   28.63</time>
   <energy>
    <i name="e_fr_energy">   -190.56825806 </i>
    <i name="e_wo_entrp">   -190.33090887 </i>
    <i name="e_0_energy">   -190.44958346 </i>
   </energy>
  </scstep>
  <scstep>
   <time name="dav">   30.51   30.58</time>
   <time name="total">   31.04   31.12</time>
   <energy>
    <i name="e_fr_energy">   -190.13733025 </i>
    <i name="e_wo_entrp">   -189.88536073 </i>
    <i name="e_0_energy">   -190.01134549 </i>
   </energy>
  </scstep>
  <scstep>
   <time name="dav">   31.46   31.53</time>
   <time name="total">   32.00   32.08</time>
   <energy>
    <i name="e_fr_energy">   -189.92319626 </i>
    <i name="e_wo_entrp">   -189.68731713 </i>
    <i name="e_0_energy">   -189.80525670 </i>
   </energy>
  </scstep>
  <scstep>
   <time name="dav">   30.30   30.37</time>
   <time name="total">   30.83   30.91</time>
   <energy>
    <i name="e_fr_energy">   -189.90371518 </i>
    <i name="e_wo_entrp">   -189.66415751 </i>
    <i name="e_0_energy">   -189.78393634 </i>
   </energy>
  </scstep>
  <scstep>
   <time name="dav">   30.91   30.98</time>
   <time name="total">   31.45   31.53</time>
   <energy>
    <i name="e_fr_energy">   -189.82505656 </i>
    <i name="e_wo_entrp">   -189.58614201 </i>
    <i name="e_0_energy">   -189.70559928 </i>
   </energy>
  </scstep>
  <scstep>
   <time name="dav">   29.05   29.12</time>
   <time name="total">   29.59   29.67</time>
   <energy>
    <i name="e_fr_energy">   -189.81815192 </i>
    <i name="e_wo_entrp">   -189.57954638 </i>
    <i name="e_0_energy">   -189.69884915 </i>
   </energy>
  </scstep>
  <scstep>
   <time name="dav">   30.46   30.54</time>
   <time name="total">   31.00   31.08</time>
   <energy>
    <i name="e_fr_energy">   -189.81913133 </i>
    <i name="e_wo_entrp">   -189.58044740 </i>
    <i name="e_0_energy">   -189.69978937 </i>
   </energy>
  </scstep>
  <scstep>
   <time name="dav">   27.11   27.17</time>
   <time name="total">   27.64   27.71</time>
   <energy>
    <i name="e_fr_energy">   -189.81797985 </i>
    <i name="e_wo_entrp">   -189.57933506 </i>
    <i name="e_0_energy">   -189.69865745 </i>
   </energy>
  </scstep>
  <scstep>
   <time name="dav">   25.04   25.10</time>
   <time name="total">   25.57   25.64</time>
   <energy>
    <i name="e_fr_energy">   -189.81826594 </i>
    <i name="e_wo_entrp">   -189.57953715 </i>
    <i name="e_0_energy">   -189.69890155 </i>
   </energy>
  </scstep>
  <scstep>
   <time name="dav">   23.41   23.47</time>
   <time name="total">   23.95   24.01</time>
   <energy>
    <i name="e_fr_energy">   -189.81808211 </i>
    <i name="e_wo_entrp">   -189.57932475 </i>
    <i name="e_0_energy">   -189.69870343 </i>
   </energy>
  </scstep>
  <scstep>
   <time name="dav">   20.09   20.13</time>
   <time name="total">   20.12   20.18</time>
   <energy>
    <i name="alphaZ">     82.34380283 </i>
    <i name="ewald">  41303.06984467 </i>
    <i name="hartreedc"> -47275.27810360 </i>
    <i name="XCdc">   -235.23323080 </i>
    <i name="pawpsdc">   4039.11682199 </i>
    <i name="pawaedc">  -3454.83734809 </i>
    <i name="eentropy">     -0.23876806 </i>
    <i name="bandstr">  -1410.20364226 </i>
    <i name="atom">   6761.44252427 </i>
    <i name="e_fr_energy">   -189.81809905 </i>
    <i name="e_wo_entrp">   -189.57933098 </i>
    <i name="e_0_energy">   -189.69871502 </i>
   </energy>
  </scstep>
  <structure>
   <crystal>
    <varray name="basis" >
     <v>       8.67065098       4.99921069       0.00000000 </v>
     <v>      -8.66916707       4.99665827       0.00000000 </v>
     <v>       0.00000000       0.00000000      30.00000000 </v>
    </varray>
    <i name="volume">   2599.89817799 </i>
    <varray name="rec_basis" >
     <v>       0.05765601       0.10003277       0.00000000 </v>
     <v>      -0.05768546       0.10004989       0.00000000 </v>
     <v>       0.00000000       0.00000000       0.03333333 </v>
    </varray>
   </crystal>
   <varray name="positions" >
    <v>       0.00035996       0.00041719       0.00005134 </v>
    <v>       0.33284537       0.33342407      -0.00008581 </v>
    <v>       0.33037010       0.66485855      -0.00006490 </v>
    <v>      -0.00218323       0.66272428       0.00016332 </v>
    <v>       0.99812259       0.33505438      -0.00005329 </v>
    <v>       0.67063425       0.33507162       0.00000006 </v>
    <v>       0.33317104       0.00008206      -0.00007795 </v>
    <v>       0.66857817       0.00406129      -0.00008179 </v>
    <v>       0.66839034       0.66435801       0.00011347 </v>
    <v>       0.11321415       0.21994086       0.95320134 </v>
    <v>       0.22031747       0.11256774       0.04697582 </v>
    <v>       0.11576976       0.55776298       0.95180237 </v>
    <v>       0.22660602       0.44635557       0.04683501 </v>
    <v>       0.10980603       0.89181709       0.95217252 </v>
    <v>       0.22505792       0.77642071       0.04796217 </v>
    <v>       0.44139180       0.22336263       0.95213603 </v>
    <v>       0.55489006       0.11014166       0.04926237 </v>
    <v>       0.44093524       0.55405158       0.95317621 </v>
    <v>       0.55148704       0.44329061       0.04803157 </v>
    <v>       0.44261628       0.88509764       0.95193241 </v>
    <v>       0.55190406       0.77597809       0.04772791 </v>
    <v>       0.77693565       0.22081384       0.95051943 </v>
    <v>       0.89015117       0.10789215       0.04801227 </v>
    <v>       0.77697748       0.55595309       0.95057143 </v>
    <v>       0.88884296       0.44445139       0.04956549 </v>
    <v>       0.78110023       0.89050827       0.95204388 </v>
    <v>       0.88992252       0.78175712       0.04810719 </v>
   </varray>
  </structure>
  <varray name="forces" >
   <v>       0.01387274      -0.00168406      -0.08491275 </v>
   <v>      -0.02811443      -0.02632494      -0.08188543 </v>
   <v>      -0.19033694      -0.25898656       0.07558236 </v>
   <v>       0.13680499      -0.61779338       0.00705882 </v>
   <v>      -0.67601129      -0.22464111       0.00614835 </v>
   <v>       0.42053933       0.51423561       0.00391428 </v>
   <v>       0.12899055       0.06428368      -0.10704114 </v>
   <v>      -0.42088840       0.42043054       0.08642898 </v>
   <v>       0.56075986       0.02438959       0.10443117 </v>
   <v>       0.06657174       0.01396325      -0.25422930 </v>
   <v>      -0.06484512      -0.00044915       0.40314584 </v>
   <v>       0.05873924       0.11826608      -0.66595712 </v>
   <v>       0.03254397       0.06994717       0.35597585 </v>
   <v>      -0.06187898       0.00467952      -0.32691186 </v>
   <v>       0.07330455       0.02048746       0.46120704 </v>
   <v>      -0.07098195      -0.00620831      -0.35540722 </v>
   <v>       0.00405093      -0.01218593       0.55888602 </v>
   <v>      -0.00997614      -0.04529843      -0.32335330 </v>
   <v>      -0.04336390      -0.08866104       0.46606210 </v>
   <v>       0.04268837      -0.06108037      -0.39533209 </v>
   <v>      -0.00926441      -0.03878851       0.07813950 </v>
   <v>      -0.00208867      -0.01095861      -0.87714171 </v>
   <v>       0.07750293       0.00197703       0.49149896 </v>
   <v>      -0.02944896      -0.00068130      -0.80465087 </v>
   <v>       0.02074444       0.01033679       0.97493878 </v>
   <v>       0.01207050       0.04418002      -0.31383671 </v>
   <v>      -0.04198493       0.08656495       0.51724144 </v>
  </varray>
  <varray name="stress" >
   <v>     -10.15140084       0.00192917       0.04622136 </v>
   <v>       0.00192900      -9.76595913      -0.01274544 </v>
   <v>       0.04622136      -0.01274543       6.49880098 </v>
  </varray>
  <energy>
   <i name="e_fr_energy">   -189.81809905 </i>
   <i name="e_wo_entrp">   -189.69871502 </i>
   <i name="e_0_energy">     -0.23876806 </i>
  </energy>
  <time name="totalsc">  378.73  379.73</time>
 </calculation>
 <calculation>
  <scstep>
   <time name="dav">   21.88   21.93</time>
   <time name="total">   22.40   22.45</time>
   <energy>
    <i name="alphaZ">     85.80425786 </i>
    <i name="ewald">  42825.98935734 </i>
    <i name="hartreedc"> -48842.46700993 </i>
    <i name="XCdc">   -232.96334214 </i>
    <i name="pawpsdc">   4039.27306730 </i>
    <i name="pawaedc">  -3454.99181415 </i>
    <i name="eentropy">     -0.21076431 </i>
    <i name="bandstr">  -1373.28652445 </i>
    <i name="atom">   6761.44252427 </i>
    <i name="e_fr_energy">   -191.41024822 </i>
    <i name="e_wo_entrp">   -191.19948390 </i>
    <i name="e_0_energy">   -191.30486606 </i>
   </energy>
  </scstep>
  <scstep>
   <time name="dav">   32.33   32.41</time>
   <time name="total">   32.85   32.94</time>
   <energy>
    <i name="e_fr_energy">   -191.22227024 </i>
    <i name="e_wo_entrp">   -191.01180349 </i>
    <i name="e_0_energy">   -191.11703686 </i>
   </energy>
  </scstep>
  <scstep>
   <time name="dav">   30.33   30.40</time>
   <time name="total">   30.84   30.92</time>
   <energy>
    <i name="e_fr_energy">   -191.37418476 </i>
    <i name="e_wo_entrp">   -191.14196094 </i>
    <i name="e_0_energy">   -191.25807285 </i>
   </energy>
  </scstep>
  <scstep>
   <time name="dav">   30.58   30.66</time>
   <time name="total">   31.11   31.19</time>
   <energy>
    <i name="e_fr_energy">   -190.99618063 </i>
    <i name="e_wo_entrp">   -190.78304660 </i>
    <i name="e_0_energy">   -190.88961362 </i>
   </energy>
  </scstep>
  <scstep>
   <time name="dav">   30.64   30.71</time>
   <time name="total">   31.16   31.24</time>
   <energy>
    <i name="e_fr_energy">   -190.91674472 </i>
    <i name="e_wo_entrp">   -190.70422622 </i>
    <i name="e_0_energy">   -190.81048547 </i>
   </energy>
  </scstep>
  <scstep>
   <time name="dav">   30.64   30.72</time>
   <time name="total">   31.16   31.24</time>
   <energy>
    <i name="e_fr_energy">   -190.86926183 </i>
    <i name="e_wo_entrp">   -190.65178097 </i>
    <i name="e_0_energy">   -190.76052140 </i>
   </energy>
  </scstep>
  <scstep>
   <time name="dav">   31.17   31.25</time>
   <time name="total">   31.69   31.77</time>
   <energy>
    <i name="e_fr_energy">   -190.84584943 </i>
    <i name="e_wo_entrp">   -190.63008341 </i>
    <i name="e_0_energy">   -190.73796642 </i>
   </energy>
  </scstep>
  <scstep>
   <time name="dav">   28.59   28.66</time>
   <time name="total">   29.11   29.19</time>
   <energy>
    <i name="e_fr_energy">   -190.84396949 </i>
    <i name="e_wo_entrp">   -190.62824264 </i>
    <i name="e_0_energy">   -190.73610606 </i>
   </energy>
  </scstep>
  <scstep>
   <time name="dav">   27.89   27.95</time>
   <time name="total">   28.41   28.48</time>
   <energy>
    <i name="e_fr_energy">   -190.84331223 </i>
    <i name="e_wo_entrp">   -190.62754690 </i>
    <i name="e_0_energy">   -190.73542957 </i>
   </energy>
  </scstep>
  <scstep>
   <time name="dav">   28.37   28.44</time>
   <time name="total">   28.90   28.97</time>
   <energy>
    <i name="e_fr_energy">   -190.84351242 </i>
    <i name="e_wo_entrp">   -190.62777824 </i>
    <i name="e_0_energy">   -190.73564533 </i>
   </energy>
  </scstep>
  <scstep>
   <time name="dav">   26.56   26.62</time>
   <time name="total">   27.07   27.14</time>
   <energy>
    <i name="e_fr_energy">   -190.84332267 </i>
    <i name="e_wo_entrp">   -190.62752635 </i>
    <i name="e_0_energy">   -190.73542451 </i>
   </energy>
  </scstep>
  <scstep>
   <time name="dav">   19.69   19.74</time>
   <time name="total">   19.73   19.78</time>
   <energy>
    <i name="alphaZ">     85.80425786 </i>
    <i name="ewald">  42825.98935734 </i>
    <i name="hartreedc"> -48814.06153025 </i>
    <i name="XCdc">   -234.27844678 </i>
    <i name="pawpsdc">   4064.58781549 </i>
    <i name="pawaedc">  -3480.49683744 </i>
    <i name="eentropy">     -0.21581156 </i>
    <i name="bandstr">  -1399.61465930 </i>
    <i name="atom">   6761.44252427 </i>
    <i name="e_fr_energy">   -190.84333037 </i>
    <i name="e_wo_entrp">   -190.62751881 </i>
    <i name="e_0_energy">   -190.73542459 </i>
   </energy>
  </scstep>
  <structure>
   <crystal>
    <varray name="basis" >
     <v>       8.48866585       4.90069675       0.00000000 </v>
     <v>      -8.48699798       4.89782154       0.00000000 </v>
     <v>       0.00000000       0.00000000      30.00000000 </v>
    </varray>
    <i name="volume">   2495.04521438 </i>
    <varray name="rec_basis" >
     <v>       0.05889057       0.10204622       0.00000000 </v>
     <v>      -0.05892515       0.10206628       0.00000000 </v>
     <v>       0.00000000       0.00000000       0.03333333 </v>
    </varray>
   </crystal>
   <varray name="positions" >
    <v>       0.00032249       0.00026363      -0.00013550 </v>
    <v>       0.33262617       0.33334531      -0.00025175 </v>
    <v>       0.32811765       0.66405270       0.00010408 </v>
    <v>      -0.00567336       0.65833592       0.00015818 </v>
    <v>       0.99403476       0.33599165      -0.00003742 </v>
    <v>       0.67546145       0.33674304       0.00000602 </v>
    <v>       0.33415971      -0.00000917      -0.00029643 </v>
    <v>       0.66960844       0.00824475       0.00010983 </v>
    <v>       0.67063523       0.66253927       0.00032185 </v>
    <v>       0.11361068       0.21973045       0.95231130 </v>
    <v>       0.21986873       0.11303506       0.04820407 </v>
    <v>       0.11689107       0.55837510       0.95000320 </v>
    <v>       0.22730312       0.44673444       0.04794162 </v>
    <v>       0.10924111       0.89197388       0.95109403 </v>
    <v>       0.22539424       0.77594890       0.04932841 </v>
    <v>       0.44119151       0.22396969       0.95099510 </v>
    <v>       0.55492264       0.11031667       0.05089473 </v>
    <v>       0.44022178       0.55361814       0.95212438 </v>
    <v>       0.55045099       0.44249172       0.04941899 </v>
    <v>       0.44221792       0.88413148       0.95068160 </v>
    <v>       0.55125820       0.77558623       0.04828055 </v>
    <v>       0.77701960       0.22104185       0.94820606 </v>
    <v>       0.89083159       0.10770941       0.04945324 </v>
    <v>       0.77700532       0.55592365       0.94842211 </v>
    <v>       0.88899157       0.44443090       0.05207065 </v>
    <v>       0.78179560       0.89091354       0.95098361 </v>
    <v>       0.89070623       0.78277621       0.04960740 </v>
   </varray>
  </structure>
  <varray name="forces" >
   <v>       0.02469196      -0.02550911      -0.07691665 </v>
   <v>      -0.04912561      -0.03723331      -0.04607054 </v>
   <v>      -0.21937395      -0.26702515       0.07742265 </v>
   <v>       0.08546635      -0.58988984      -0.01999980 </v>
   <v>      -0.62643749      -0.25507034       0.00227009 </v>
   <v>       0.43179121       0.47869204       0.01065071 </v>
   <v>       0.15294335       0.07382625      -0.07079817 </v>
   <v>      -0.49483107       0.46405683       0.04948079 </v>
   <v>       0.62596662       0.00420349       0.07203496 </v>
   <v>      -0.08681236       0.01134480      -0.18561425 </v>
   <v>      -0.02349102       0.01021253       0.28381390 </v>
   <v>      -0.00510146      -0.02986759      -0.47888395 </v>
   <v>      -0.04308266      -0.05819348       0.25348144 </v>
   <v>       0.04703535      -0.06856018      -0.16407888 </v>
   <v>      -0.02714560      -0.05384666       0.28228314 </v>
   <v>       0.02575681       0.08621889      -0.19872264 </v>
   <v>      -0.07778200       0.07366824       0.40213926 </v>
   <v>       0.02181808       0.01012444      -0.21689225 </v>
   <v>       0.07681058      -0.03412165       0.30254523 </v>
   <v>       0.07212297      -0.00100784      -0.28294106 </v>
   <v>       0.02096013       0.04491820      -0.08392390 </v>
   <v>      -0.02644014       0.04802092      -0.69237394 </v>
   <v>      -0.02790175       0.07446877       0.32823836 </v>
   <v>       0.06397463      -0.01784411      -0.60208902 </v>
   <v>       0.00525617       0.01283613       0.78218571 </v>
   <v>      -0.01559629      -0.00819789      -0.12010293 </v>
   <v>       0.06852719       0.05377561       0.39286177 </v>
  </varray>
  <varray name="stress" >
   <v>      -5.58500036       0.07706831      -0.12074297 </v>
   <v>       0.07706829      -5.70722381       0.09208778 </v>
   <v>      -0.12074285       0.09208766       4.45474515 </v>
  </varray>
  <energy>
   <i name="e_fr_energy">   -190.84333037 </i>
   <i name="e_wo_entrp">   -190.73542459 </i>
   <i name="e_0_energy">     -0.21581156 </i>
  </energy>
  <time name="totalsc">  386.53  387.56</time>
 </calculation>
 <calculation>
  <scstep>
   <time name="dav">   21.87   21.92</time>
   <time name="total">   22.38   22.43</time>
   <energy>
    <i name="alphaZ">     89.97320286 </i>
    <i name="ewald">  44581.54387510 </i>
    <i name="hartreedc"> -50622.45124680 </i>
    <i name="XCdc">   -231.92892466 </i>
    <i name="pawpsdc">   4064.54962089 </i>
    <i name="pawaedc">  -3480.45456585 </i>
    <i name="eentropy">     -0.21415445 </i>
    <i name="bandstr">  -1354.62148086 </i>
    <i name="atom">   6761.44252427 </i>
    <i name="e_fr_energy">   -192.16114950 </i>
    <i name="e_wo_entrp">   -191.94699505 </i>
    <i name="e_0_energy">   -192.05407228 </i>
   </energy>
  </scstep>
  <scstep>
   <time name="dav">   27.61   27.68</time>
   <time name="total">   28.12   28.19</time>
   <energy>
    <i name="e_fr_energy">   -191.93156260 </i>
    <i name="e_wo_entrp">   -191.71565174 </i>
    <i name="e_0_energy">   -191.82360717 </i>
   </energy>
  </scstep>
  <scstep>
   <time name="dav">   29.53   29.60</time>
   <time name="total">   30.03   30.11</time>
   <energy>
    <i name="e_fr_energy">   -191.80823374 </i>
    <i name="e_wo_entrp">   -191.58178654 </i>
    <i name="e_0_energy">   -191.69501014 </i>
   </energy>
  </scstep>
  <scstep>
   <time name="dav">   30.38   30.45</time>
   <time name="total">   30.89   30.97</time>
   <energy>
    <i name="e_fr_energy">   -191.82784898 </i>
    <i name="e_wo_entrp">   -191.62320588 </i>
    <i name="e_0_energy">   -191.72552743 </i>
   </energy>
  </scstep>
  <scstep>
   <time name="dav">   30.55   30.62</time>
   <time name="total">   31.05   31.14</time>
   <energy>
    <i name="e_fr_energy">   -191.55225959 </i>
    <i name="e_wo_entrp">   -191.33080947 </i>
    <i name="e_0_energy">   -191.44153453 </i>
   </energy>
  </scstep>
  <scstep>
   <time name="dav">   29.19   29.26</time>
   <time name="total">   29.70   29.78</time>
   <energy>
    <i name="e_fr_energy">   -191.54313261 </i>
    <i name="e_wo_entrp">   -191.32212006 </i>
    <i name="e_0_energy">   -191.43262634 </i>
   </energy>
  </scstep>
  <scstep>
   <time name="dav">   29.82   29.89</time>
   <time name="total">   30.33   30.41</time>
   <energy>
    <i name="e_fr_energy">   -191.54858453 </i>
    <i name="e_wo_entrp">   -191.32762134 </i>
    <i name="e_0_energy">   -191.43810294 </i>
   </energy>
  </scstep>
  <scstep>
   <time name="dav">   28.85   28.92</time>
   <time name="total">   29.36   29.44</time>
   <energy>
    <i name="e_fr_energy">   -191.53780080 </i>
    <i name="e_wo_entrp">   -191.31698185 </i>
    <i name="e_0_energy">   -191.42739132 </i>
   </energy>
  </scstep>
  <scstep>
   <time name="dav">   28.72   28.78</time>
   <time name="total">   29.22   29.30</time>
   <energy>
    <i name="e_fr_energy">   -191.53829595 </i>
    <i name="e_wo_entrp">   -191.31767156 </i>
    <i name="e_0_energy">   -191.42798375 </i>
   </energy>
  </scstep>
  <scstep>
   <time name="dav">   29.60   29.68</time>
   <time name="total">   30.11   30.20</time>
   <energy>
    <i name="e_fr_energy">   -191.53834862 </i>
    <i name="e_wo_entrp">   -191.31729531 </i>
    <i name="e_0_energy">   -191.42782196 </i>
   </energy>
  </scstep>
  <scstep>
   <time name="dav">   25.75   25.81</time>
   <time name="total">   26.26   26.33</time>
   <energy>
    <i name="e_fr_energy">   -191.53792089 </i>
    <i name="e_wo_entrp">   -191.31710111 </i>
    <i name="e_0_energy">   -191.42751100 </i>
   </energy>
  </scstep>
  <scstep>
   <time name="dav">   17.78   17.82</time>
   <time name="total">   17.82   17.87</time>
   <energy>
    <i name="alphaZ">     89.97320286 </i>
    <i name="ewald">  44581.54387510 </i>
    <i name="hartreedc"> -50590.59918448 </i>
    <i name="XCdc">   -233.36605152 </i>
    <i name="pawpsdc">   4087.92272913 </i>
    <i name="pawaedc">  -3503.96559385 </i>
    <i name="eentropy">     -0.22091196 </i>
    <i name="bandstr">  -1384.26847847 </i>
    <i name="atom">   6761.44252427 </i>
    <i name="e_fr_energy">   -191.53788892 </i>
    <i name="e_wo_entrp">   -191.31697696 </i>
    <i name="e_0_energy">   -191.42743294 </i>
   </energy>
  </scstep>
  <structure>
   <crystal>
    <varray name="basis" >
     <v>       8.29437948       4.78839125       0.00000000 </v>
     <v>      -8.28816529       4.77764063       0.00000000 </v>
     <v>       0.00000000       0.00000000      30.00000000 </v>
    </varray>
    <i name="volume">   2379.43627813 </i>
    <varray name="rec_basis" >
     <v>       0.06023663       0.10449742       0.00000000 </v>
     <v>      -0.06037217       0.10457577       0.00000000 </v>
     <v>       0.00000000       0.00000000       0.03333333 </v>
    </varray>
   </crystal>
   <varray name="positions" >
    <v>       0.00013140      -0.00026496      -0.00045052 </v>
    <v>       0.33193291       0.33322067      -0.00044498 </v>
    <v>       0.32352850       0.66250738       0.00041767 </v>
    <v>      -0.01223896       0.65059907       0.00007252 </v>
    <v>       0.98642588       0.33724787      -0.00002317 </v>
    <v>       0.68427836       0.33951039       0.00004160 </v>
    <v>       0.33618670      -0.00020556      -0.00058646 </v>
    <v>       0.67164263       0.01707691       0.00033477 </v>
    <v>       0.67503676       0.65843307       0.00060955 </v>
    <v>       0.11336842       0.22026413       0.95115540 </v>
    <v>       0.21954143       0.11359870       0.04980013 </v>
    <v>       0.11697771       0.55832192       0.94758541 </v>
    <v>       0.22674043       0.44653492       0.04938491 </v>
    <v>       0.10835622       0.89094253       0.94993213 </v>
    <v>       0.22471262       0.77515098       0.05096836 </v>
    <v>       0.44226617       0.22519065       0.94969795 </v>
    <v>       0.55530823       0.11181211       0.05305928 </v>
    <v>       0.43994291       0.55332586       0.95080719 </v>
    <v>       0.55002030       0.44113984       0.05114206 </v>
    <v>       0.44239325       0.88308295       0.94904986 </v>
    <v>       0.55137147       0.77567213       0.04846673 </v>
    <v>       0.77751513       0.22199865       0.94487544 </v>
    <v>       0.89193560       0.10867161       0.05127696 </v>
    <v>       0.77732680       0.55523843       0.94544855 </v>
    <v>       0.88920072       0.44451833       0.05574248 </v>
    <v>       0.78211112       0.89116999       0.94996710 </v>
    <v>       0.89220173       0.78345588       0.05166896 </v>
   </varray>
  </structure>
  <varray name="forces" >
   <v>       0.05666214      -0.03273575      -0.02060748 </v>
   <v>      -0.13093903      -0.05016345      -0.04558449 </v>
   <v>      -0.27139856      -0.37770601       0.00475361 </v>
   <v>      -0.02899775      -0.09403884       0.06725971 </v>
   <v>      -0.04896237      -0.02876581       0.04520601 </v>
   <v>       0.04542859      -0.02672224       0.02536988 </v>
   <v>       0.15416302       0.13948549      -0.05111582 </v>
   <v>      -0.41726320       0.34742510      -0.06523088 </v>
   <v>       0.58517651      -0.03795232       0.01558126 </v>
   <v>      -0.22783145      -0.01075133       0.02577806 </v>
   <v>       0.03900299       0.00270828      -0.00238595 </v>
   <v>      -0.07234223      -0.14847768      -0.12723648 </v>
   <v>      -0.11693227      -0.17955175       0.01916403 </v>
   <v>       0.17204025      -0.10981683       0.09270927 </v>
   <v>      -0.13406519      -0.11509928      -0.00887928 </v>
   <v>       0.13255214       0.14757650       0.09088726 </v>
   <v>      -0.15385777       0.16231938       0.17401912 </v>
   <v>       0.03045723       0.09446628       0.08598143 </v>
   <v>       0.23219620       0.02629175       0.03604913 </v>
   <v>       0.09308880       0.08222191      -0.00798560 </v>
   <v>       0.09113479       0.19619732      -0.41953703 </v>
   <v>      -0.06022505       0.05723937      -0.30043351 </v>
   <v>      -0.15518131       0.09621795       0.02493940 </v>
   <v>       0.12153291      -0.07478560      -0.25273920 </v>
   <v>      -0.01039799       0.03086503       0.27923251 </v>
   <v>      -0.08712829      -0.10008673       0.20397417 </v>
   <v>       0.16208687       0.00363928       0.11083087 </v>
  </varray>
  <varray name="stress" >
   <v>       0.56338417       0.22213640      -0.16506704 </v>
   <v>       0.22213648       0.33800298       0.30427936 </v>
   <v>      -0.16506694       0.30427928      -0.66094357 </v>
  </varray>
  <energy>
   <i name="e_fr_energy">   -191.53788892 </i>
   <i name="e_wo_entrp">   -191.42743294 </i>
   <i name="e_0_energy">     -0.22091196 </i>
  </energy>
  <time name="totalsc">  377.70  378.70</time>
 </calculation>
 <calculation>
  <scstep>
   <time name="dav">   21.89   21.94</time>
   <time name="total">   22.40   22.45</time>
   <energy>
    <i name="alphaZ">     89.67001936 </i>
    <i name="ewald">  44432.59860254 </i>
    <i name="hartreedc"> -50438.81415104 </i>
    <i name="XCdc">   -233.62655793 </i>
    <i name="pawpsdc">   4087.78308509 </i>
    <i name="pawaedc">  -3503.82062777 </i>
    <i name="eentropy">     -0.22176244 </i>
    <i name="bandstr">  -1386.62174210 </i>
    <i name="atom">   6761.44252427 </i>
    <i name="e_fr_energy">   -191.61061003 </i>
    <i name="e_wo_entrp">   -191.38884758 </i>
    <i name="e_0_energy">   -191.49972880 </i>
   </energy>
  </scstep>
  <scstep>
   <time name="dav">   32.22   32.30</time>
   <time name="total">   32.73   32.81</time>
   <energy>
    <i name="e_fr_energy">   -191.66224372 </i>
    <i name="e_wo_entrp">   -191.43355490 </i>
    <i name="e_0_energy">   -191.54789931 </i>
   </energy>
  </scstep>
  <scstep>
   <time name="dav">   30.90   30.98</time>
   <time name="total">   31.41   31.49</time>
   <energy>
    <i name="e_fr_energy">   -191.62050261 </i>
    <i name="e_wo_entrp">   -191.39819634 </i>
    <i name="e_0_energy">   -191.50934948 </i>
   </energy>
  </scstep>
  <scstep>
   <time name="dav">   26.26   26.32</time>
   <time name="total">   26.76   26.84</time>
   <energy>
    <i name="e_fr_energy">   -191.62388955 </i>
    <i name="e_wo_entrp">   -191.40218694 </i>
    <i name="e_0_energy">   -191.51303825 </i>
   </energy>
  </scstep>
  <scstep>
   <time name="dav">   28.26   28.33</time>
   <time name="total">   28.76   28.84</time>
   <energy>
    <i name="e_fr_energy">   -191.61725208 </i>
    <i name="e_wo_entrp">   -191.39354378 </i>
    <i name="e_0_energy">   -191.50539793 </i>
   </energy>
  </scstep>
  <scstep>
   <time name="dav">   27.97   28.03</time>
   <time name="total">   28.48   28.55</time>
   <energy>
    <i name="e_fr_energy">   -191.61801152 </i>
    <i name="e_wo_entrp">   -191.39543192 </i>
    <i name="e_0_energy">   -191.50672172 </i>
   </energy>
  </scstep>
  <scstep>
   <time name="dav">   28.13   28.19</time>
   <time name="total">   28.63   28.71</time>
   <energy>
    <i name="e_fr_energy">   -191.61685318 </i>
    <i name="e_wo_entrp">   -191.39410182 </i>
    <i name="e_0_energy">   -191.50547750 </i>
   </energy>
  </scstep>
  <scstep>
   <time name="dav">   25.36   25.42</time>
   <time name="total">   25.87   25.94</time>
   <energy>
    <i name="e_fr_energy">   -191.61640516 </i>
    <i name="e_wo_entrp">   -191.39363569 </i>
    <i name="e_0_energy">   -191.50502042 </i>
   </energy>
  </scstep>
  <scstep>
   <time name="dav">   18.75   18.79</time>
   <time name="total">   18.78   18.84</time>
   <energy>
    <i name="alphaZ">     89.67001936 </i>
    <i name="ewald">  44432.59860254 </i>
    <i name="hartreedc"> -50442.22523293 </i>
    <i name="XCdc">   -233.50478484 </i>
    <i name="pawpsdc">   4083.85248328 </i>
    <i name="pawaedc">  -3499.83856071 </i>
    <i name="eentropy">     -0.22280100 </i>
    <i name="bandstr">  -1383.38865684 </i>
    <i name="atom">   6761.44252427 </i>
    <i name="e_fr_energy">   -191.61640686 </i>
    <i name="e_wo_entrp">   -191.39360586 </i>
    <i name="e_0_energy">   -191.50500636 </i>
   </energy>
  </scstep>
  <structure>
   <crystal>
    <varray name="basis" >
     <v>       8.31313951       4.79956547       0.00000000 </v>
     <v>      -8.30187319       4.78006285       0.00000000 </v>
     <v>       0.00000000       0.00000000      30.00000000 </v>
    </varray>
    <i name="volume">   2387.48139524 </i>
    <varray name="rec_basis" >
     <v>       0.06006408       0.10431754       0.00000000 </v>
     <v>      -0.06030915       0.10445911       0.00000000 </v>
     <v>       0.00000000       0.00000000       0.03333333 </v>
    </varray>
   </crystal>
   <varray name="positions" >
    <v>       0.00014101      -0.00054648      -0.00046719 </v>
    <v>       0.33137319       0.33334548      -0.00050416 </v>
    <v>       0.32122796       0.66153683       0.00041087 </v>
    <v>      -0.01246975       0.65057456       0.00017666 </v>
    <v>       0.98649534       0.33719186       0.00004342 </v>
    <v>       0.68389174       0.33914267       0.00007805 </v>
    <v>       0.33716318       0.00003963      -0.00064969 </v>
    <v>       0.67205716       0.01944983       0.00022690 </v>
    <v>       0.67624417       0.65684870       0.00062016 </v>
    <v>       0.11270850       0.22081178       0.95125674 </v>
    <v>       0.21968192       0.11347333       0.04971293 </v>
    <v>       0.11607112       0.55781724       0.94751676 </v>
    <v>       0.22559813       0.44601373       0.04933746 </v>
    <v>       0.10835647       0.89000597       0.95013618 </v>
    <v>       0.22383888       0.77501950       0.05086808 </v>
    <v>       0.44327010       0.22545898       0.94990513 </v>
    <v>       0.55563427       0.11291922       0.05320718 </v>
    <v>       0.44049487       0.55370583       0.95100638 </v>
    <v>       0.55080365       0.44070697       0.05110502 </v>
    <v>       0.44302979       0.88327764       0.94912433 </v>
    <v>       0.55254564       0.77634891       0.04781802 </v>
    <v>       0.77759581       0.22238141       0.94459051 </v>
    <v>       0.89190726       0.10950231       0.05121901 </v>
    <v>       0.77728801       0.55459134       0.94521913 </v>
    <v>       0.88930729       0.44468781       0.05598138 </v>
    <v>       0.78137961       0.89091872       0.95033147 </v>
    <v>       0.89257914       0.78299071       0.05172916 </v>
   </varray>
  </structure>
  <varray name="forces" >
   <v>       0.04458133      -0.04101654      -0.03384096 </v>
   <v>      -0.15848620      -0.04877435      -0.05947235 </v>
   <v>      -0.29549033      -0.46193830       0.00546207 </v>
   <v>      -0.01137542      -0.19987480       0.01856655 </v>
   <v>      -0.15436202      -0.04024957       0.02528364 </v>
   <v>       0.13100258       0.06112176       0.02845343 </v>
   <v>       0.17430197       0.19730809      -0.04841367 </v>
   <v>      -0.45034844       0.38334318       0.00087083 </v>
   <v>       0.63612414      -0.02868495       0.03306350 </v>
   <v>      -0.11043374      -0.01343933       0.03488876 </v>
   <v>       0.02715064       0.00024230      -0.03734474 </v>
   <v>      -0.05068146      -0.06944105      -0.12520827 </v>
   <v>      -0.07244899      -0.09690545       0.04291448 </v>
   <v>       0.11260059      -0.03086597       0.10247443 </v>
   <v>      -0.08445803      -0.05706107       0.00886629 </v>
   <v>       0.05042172       0.07600331       0.06683268 </v>
   <v>      -0.09048813       0.08548672       0.16044209 </v>
   <v>       0.01637963       0.07605804       0.11966174 </v>
   <v>       0.14095751      -0.00663235       0.05347984 </v>
   <v>       0.07189164       0.05319811       0.01728292 </v>
   <v>       0.07692414       0.13344307      -0.48043444 </v>
   <v>      -0.04910140       0.07873778      -0.23546110 </v>
   <v>      -0.09793815       0.03554264       0.01520173 </v>
   <v>       0.10989832      -0.02863533      -0.20056442 </v>
   <v>      -0.00557688       0.00666266       0.16635341 </v>
   <v>      -0.05794663      -0.07504092       0.21359570 </v>
   <v>       0.09690163       0.01141233       0.10704587 </v>
  </varray>
  <varray name="stress" >
   <v>      -0.09696799      -0.05728378      -0.11066738 </v>
   <v>      -0.05728380      -0.26307902       0.03825571 </v>
   <v>      -0.11066743       0.03825556      -1.19415511 </v>
  </varray>
  <energy>
   <i name="e_fr_energy">   -191.61640686 </i>
   <i name="e_wo_entrp">   -191.50500636 </i>
   <i name="e_0_energy">     -0.22280100 </i>
  </energy>
  <time name="totalsc">  286.37  287.13</time>
 </calculation>
 <calculation>
  <scstep>
   <time name="dav">   21.90   21.96</time>
   <time name="total">   22.41   22.47</time>
   <energy>
    <i name="alphaZ">     89.75505041 </i>
    <i name="ewald">  44471.08708423 </i>
    <i name="hartreedc"> -50481.54176462 </i>
    <i name="XCdc">   -233.44991655 </i>
    <i name="pawpsdc">   4083.43592646 </i>
    <i name="pawaedc">  -3499.41771573 </i>
    <i name="eentropy">     -0.22154089 </i>
    <i name="bandstr">  -1382.77508650 </i>
    <i name="atom">   6761.44252427 </i>
    <i name="e_fr_energy">   -191.68543892 </i>
    <i name="e_wo_entrp">   -191.46389803 </i>
    <i name="e_0_energy">   -191.57466848 </i>
   </energy>
  </scstep>
  <scstep>
   <time name="dav">   32.13   32.20</time>
   <time name="total">   32.63   32.72</time>
   <energy>
    <i name="e_fr_energy">   -191.71412107 </i>
    <i name="e_wo_entrp">   -191.48639285 </i>
    <i name="e_0_energy">   -191.60025696 </i>
   </energy>
  </scstep>
  <scstep>
   <time name="dav">   30.80   30.87</time>
   <time name="total">   31.30   31.39</time>
   <energy>
    <i name="e_fr_energy">   -191.69168615 </i>
    <i name="e_wo_entrp">   -191.46982006 </i>
    <i name="e_0_energy">   -191.58075311 </i>
   </energy>
  </scstep>
  <scstep>
   <time name="dav">   27.50   27.57</time>
   <time name="total">   28.02   28.09</time>
   <energy>
    <i name="e_fr_energy">   -191.69211477 </i>
    <i name="e_wo_entrp">   -191.47109730 </i>
    <i name="e_0_energy">   -191.58160604 </i>
   </energy>
  </scstep>
  <scstep>
   <time name="dav">   28.06   28.13</time>
   <time name="total">   28.57   28.65</time>
   <energy>
    <i name="e_fr_energy">   -191.68932815 </i>
    <i name="e_wo_entrp">   -191.46625584 </i>
    <i name="e_0_energy">   -191.57779200 </i>
   </energy>
  </scstep>
  <scstep>
   <time name="dav">   28.50   28.57</time>
   <time name="total">   29.01   29.08</time>
   <energy>
    <i name="e_fr_energy">   -191.68935889 </i>
    <i name="e_wo_entrp">   -191.46690905 </i>
    <i name="e_0_energy">   -191.57813397 </i>
   </energy>
  </scstep>
  <scstep>
   <time name="dav">   26.00   26.06</time>
   <time name="total">   26.51   26.58</time>
   <energy>
    <i name="e_fr_energy">   -191.68940179 </i>
    <i name="e_wo_entrp">   -191.46676398 </i>
    <i name="e_0_energy">   -191.57808289 </i>
   </energy>
  </scstep>
  <scstep>
[...]
      <set comment="kpoint 31">
       <r>  -17.4724    1.0000 </r>
       <r>  -17.2758    1.0000 </r>
       <r>  -16.9131    1.0000 </r>
       <r>  -16.5785    1.0000 </r>
       <r>  -16.4956    1.0000 </r>
       <r>  -16.4187    1.0000 </r>
       <r>  -16.2639    1.0000 </r>
       <r>  -16.1632    1.0000 </r>
       <r>  -16.1293    1.0000 </r>
       <r>  -16.0664    1.0000 </r>
       <r>  -15.9346    1.0000 </r>
       <r>  -15.8451    1.0000 </r>
       <r>  -15.7771    1.0000 </r>
       <r>  -15.6957    1.0000 </r>
       <r>  -15.6596    1.0000 </r>
       <r>  -15.5573    1.0000 </r>
       <r>  -15.4565    1.0000 </r>
       <r>  -15.3193    1.0000 </r>
       <r>   -9.7274    1.0000 </r>
       <r>   -9.4420    1.0000 </r>
       <r>   -9.2829    1.0000 </r>
       <r>   -8.9653    1.0000 </r>
       <r>   -8.7891    1.0000 </r>
       <r>   -8.7091    1.0000 </r>
       <r>   -8.6152    1.0000 </r>
       <r>   -8.5282    1.0000 </r>
       <r>   -8.4008    1.0000 </r>
       <r>   -8.2842    1.0000 </r>
       <r>   -8.2491    1.0000 </r>
       <r>   -8.2146    1.0000 </r>
       <r>   -8.0754    1.0000 </r>
       <r>   -8.0310    1.0000 </r>
       <r>   -7.9345    1.0000 </r>
       <r>   -7.8880    1.0000 </r>
       <r>   -7.7942    1.0000 </r>
       <r>   -7.6706    1.0000 </r>
       <r>   -7.5638    1.0000 </r>
       <r>   -7.4607    1.0000 </r>
       <r>   -7.3754    1.0000 </r>
       <r>   -7.2812    1.0000 </r>
       <r>   -7.1455    1.0000 </r>
       <r>   -7.0651    1.0000 </r>
       <r>   -7.0202    1.0000 </r>
       <r>   -6.8985    1.0000 </r>
       <r>   -6.8123    1.0000 </r>
       <r>   -6.7691    1.0000 </r>
       <r>   -6.6904    1.0000 </r>
       <r>   -6.6477    1.0000 </r>
       <r>   -6.5361    1.0000 </r>
       <r>   -6.4956    1.0000 </r>
       <r>   -6.4166    1.0000 </r>
       <r>   -6.2848    1.0000 </r>
       <r>   -6.2547    1.0000 </r>
       <r>   -6.1942    1.0000 </r>
       <r>   -6.1723    1.0000 </r>
       <r>   -6.0888    1.0000 </r>
       <r>   -5.9927    1.0000 </r>
       <r>   -5.9519    1.0000 </r>
       <r>   -5.8933    1.0000 </r>
       <r>   -5.8162    1.0000 </r>
       <r>   -5.7093    1.0000 </r>
       <r>   -5.6409    1.0000 </r>
       <r>   -5.4852    1.0000 </r>
       <r>   -5.3650    1.0000 </r>
       <r>   -5.3287    1.0000 </r>
       <r>   -5.2073    1.0000 </r>
       <r>   -5.1284    1.0000 </r>
       <r>   -4.8895    1.0000 </r>
       <r>   -4.8337    1.0000 </r>
       <r>   -4.7166    1.0000 </r>
       <r>   -4.5925    1.0000 </r>
       <r>   -4.4966    1.0000 </r>
       <r>   -4.4176    1.0000 </r>
       <r>   -4.3486    1.0000 </r>
       <r>   -4.1799    1.0000 </r>
       <r>   -4.0552    1.0000 </r>
       <r>   -3.8465    1.0000 </r>
       <r>   -3.6624    0.9965 </r>
       <r>   -3.3772    0.7524 </r>
       <r>   -3.1362    0.1533 </r>
       <r>   -3.0100    0.0278 </r>
       <r>   -2.7681    0.0001 </r>
       <r>   -2.7217    0.0000 </r>
       <r>   -2.5760    0.0000 </r>
       <r>   -2.4919    0.0000 </r>
       <r>   -2.3896    0.0000 </r>
       <r>   -2.2515    0.0000 </r>
       <r>   -2.1086    0.0000 </r>
       <r>   -2.0400    0.0000 </r>
       <r>   -1.9903    0.0000 </r>
       <r>   -1.8873    0.0000 </r>
       <r>   -1.6971    0.0000 </r>
       <r>   -1.4408    0.0000 </r>
       <r>   -1.3719    0.0000 </r>
       <r>   -1.2666    0.0000 </r>
       <r>   -1.1789    0.0000 </r>
       <r>   -1.1028    0.0000 </r>
       <r>   -0.9972    0.0000 </r>
       <r>   -0.9630    0.0000 </r>
       <r>   -0.9047    0.0000 </r>
       <r>   -0.8397    0.0000 </r>
       <r>   -0.7206    0.0000 </r>
       <r>   -0.6523    0.0000 </r>
       <r>   -0.5430    0.0000 </r>
       <r>   -0.4678    0.0000 </r>
       <r>   -0.4169    0.0000 </r>
       <r>   -0.2549    0.0000 </r>
       <r>   -0.1446    0.0000 </r>
       <r>    0.0373    0.0000 </r>
       <r>    0.2613    0.0000 </r>
       <r>    0.4356    0.0000 </r>
       <r>    0.6796    0.0000 </r>
       <r>    0.8047    0.0000 </r>
       <r>    0.9884    0.0000 </r>
       <r>    1.0637    0.0000 </r>
       <r>    1.1498    0.0000 </r>
       <r>    1.3032    0.0000 </r>
       <r>    2.1282    0.0000 </r>
       <r>    2.2842    0.0000 </r>
       <r>    2.3917    0.0000 </r>
      </set>
      <set comment="kpoint 32">
       <r>  -17.5003    1.0000 </r>
       <r>  -17.1673    1.0000 </r>
       <r>  -17.0485    1.0000 </r>
       <r>  -16.5845    1.0000 </r>
       <r>  -16.4270    1.0000 </r>
       <r>  -16.3341    1.0000 </r>
       <r>  -16.2715    1.0000 </r>
       <r>  -16.1999    1.0000 </r>
       <r>  -16.1254    1.0000 </r>
       <r>  -16.0594    1.0000 </r>
       <r>  -15.9648    1.0000 </r>
       <r>  -15.8935    1.0000 </r>
       <r>  -15.7857    1.0000 </r>
       <r>  -15.7066    1.0000 </r>
       <r>  -15.6496    1.0000 </r>
       <r>  -15.5539    1.0000 </r>
       <r>  -15.4453    1.0000 </r>
       <r>  -15.3070    1.0000 </r>
       <r>   -9.6518    1.0000 </r>
       <r>   -9.5249    1.0000 </r>
       <r>   -9.3618    1.0000 </r>
       <r>   -8.9440    1.0000 </r>
       <r>   -8.7159    1.0000 </r>
       <r>   -8.6123    1.0000 </r>
       <r>   -8.5286    1.0000 </r>
       <r>   -8.4477    1.0000 </r>
       <r>   -8.4193    1.0000 </r>
       <r>   -8.3546    1.0000 </r>
       <r>   -8.2654    1.0000 </r>
       <r>   -8.2093    1.0000 </r>
       <r>   -8.1433    1.0000 </r>
       <r>   -8.0982    1.0000 </r>
       <r>   -7.9902    1.0000 </r>
       <r>   -7.9294    1.0000 </r>
       <r>   -7.7844    1.0000 </r>
       <r>   -7.6652    1.0000 </r>
       <r>   -7.5737    1.0000 </r>
       <r>   -7.4176    1.0000 </r>
       <r>   -7.3604    1.0000 </r>
       <r>   -7.2458    1.0000 </r>
       <r>   -7.2049    1.0000 </r>
       <r>   -7.0737    1.0000 </r>
       <r>   -7.0343    1.0000 </r>
       <r>   -6.9180    1.0000 </r>
       <r>   -6.8387    1.0000 </r>
       <r>   -6.7812    1.0000 </r>
       <r>   -6.6620    1.0000 </r>
       <r>   -6.6093    1.0000 </r>
       <r>   -6.5307    1.0000 </r>
       <r>   -6.4763    1.0000 </r>
       <r>   -6.4313    1.0000 </r>
       <r>   -6.3253    1.0000 </r>
       <r>   -6.2980    1.0000 </r>
       <r>   -6.2410    1.0000 </r>
       <r>   -6.1317    1.0000 </r>
       <r>   -6.0452    1.0000 </r>
       <r>   -5.9949    1.0000 </r>
       <r>   -5.9282    1.0000 </r>
       <r>   -5.8766    1.0000 </r>
       <r>   -5.7456    1.0000 </r>
       <r>   -5.6508    1.0000 </r>
       <r>   -5.5917    1.0000 </r>
       <r>   -5.5254    1.0000 </r>
       <r>   -5.4568    1.0000 </r>
       <r>   -5.2939    1.0000 </r>
       <r>   -5.2087    1.0000 </r>
       <r>   -5.1395    1.0000 </r>
       <r>   -5.0048    1.0000 </r>
       <r>   -4.8300    1.0000 </r>
       <r>   -4.6420    1.0000 </r>
       <r>   -4.6028    1.0000 </r>
       <r>   -4.4829    1.0000 </r>
       <r>   -4.3971    1.0000 </r>
       <r>   -4.3801    1.0000 </r>
       <r>   -4.1643    1.0000 </r>
       <r>   -4.0885    1.0000 </r>
       <r>   -3.8324    1.0000 </r>
       <r>   -3.6039    0.9888 </r>
       <r>   -3.4536    0.8891 </r>
       <r>   -3.1730    0.2230 </r>
       <r>   -3.0383    0.0432 </r>
       <r>   -2.7348    0.0001 </r>
       <r>   -2.6464    0.0000 </r>
       <r>   -2.5473    0.0000 </r>
       <r>   -2.4435    0.0000 </r>
       <r>   -2.3938    0.0000 </r>
       <r>   -2.2216    0.0000 </r>
       <r>   -2.1090    0.0000 </r>
       <r>   -2.0448    0.0000 </r>
       <r>   -1.9791    0.0000 </r>
       <r>   -1.8859    0.0000 </r>
       <r>   -1.7494    0.0000 </r>
       <r>   -1.4805    0.0000 </r>
       <r>   -1.3652    0.0000 </r>
       <r>   -1.2573    0.0000 </r>
       <r>   -1.2124    0.0000 </r>
       <r>   -1.1006    0.0000 </r>
       <r>   -1.0223    0.0000 </r>
       <r>   -0.9539    0.0000 </r>
       <r>   -0.8916    0.0000 </r>
       <r>   -0.8297    0.0000 </r>
       <r>   -0.7385    0.0000 </r>
       <r>   -0.6856    0.0000 </r>
       <r>   -0.5327    0.0000 </r>
       <r>   -0.4773    0.0000 </r>
       <r>   -0.3754    0.0000 </r>
       <r>   -0.3184    0.0000 </r>
       <r>   -0.1090    0.0000 </r>
       <r>    0.0607    0.0000 </r>
       <r>    0.2993    0.0000 </r>
       <r>    0.3859    0.0000 </r>
       <r>    0.6140    0.0000 </r>
       <r>    0.8182    0.0000 </r>
       <r>    1.0025    0.0000 </r>
       <r>    1.0371    0.0000 </r>
       <r>    1.1599    0.0000 </r>
       <r>    1.3136    0.0000 </r>
       <r>    2.0921    0.0000 </r>
       <r>    2.2570    0.0000 </r>
       <r>    2.5467    0.0000 </r>
      </set>
      <set comment="kpoint 33">
       <r>  -17.4908    1.0000 </r>
       <r>  -17.2549    1.0000 </r>
       <r>  -16.9149    1.0000 </r>
       <r>  -16.5927    1.0000 </r>
       <r>  -16.5069    1.0000 </r>
       <r>  -16.3654    1.0000 </r>
       <r>  -16.2825    1.0000 </r>
       <r>  -16.1707    1.0000 </r>
       <r>  -16.0734    1.0000 </r>
       <r>  -16.0192    1.0000 </r>
       <r>  -15.9515    1.0000 </r>
       <r>  -15.9214    1.0000 </r>
       <r>  -15.7934    1.0000 </r>
       <r>  -15.7239    1.0000 </r>
       <r>  -15.6557    1.0000 </r>
       <r>  -15.5740    1.0000 </r>
       <r>  -15.4242    1.0000 </r>
       <r>  -15.3119    1.0000 </r>
       <r>   -9.7070    1.0000 </r>
       <r>   -9.4021    1.0000 </r>
       <r>   -9.2849    1.0000 </r>
       <r>   -8.9937    1.0000 </r>
       <r>   -8.8318    1.0000 </r>
       <r>   -8.7434    1.0000 </r>
       <r>   -8.5008    1.0000 </r>
       <r>   -8.4496    1.0000 </r>
       <r>   -8.3933    1.0000 </r>
       <r>   -8.3101    1.0000 </r>
       <r>   -8.2762    1.0000 </r>
       <r>   -8.1659    1.0000 </r>
       <r>   -8.1301    1.0000 </r>
       <r>   -8.0950    1.0000 </r>
       <r>   -8.0107    1.0000 </r>
       <r>   -7.8764    1.0000 </r>
       <r>   -7.7641    1.0000 </r>
       <r>   -7.6721    1.0000 </r>
       <r>   -7.6171    1.0000 </r>
       <r>   -7.4286    1.0000 </r>
       <r>   -7.3202    1.0000 </r>
       <r>   -7.1766    1.0000 </r>
       <r>   -7.1605    1.0000 </r>
       <r>   -7.0967    1.0000 </r>
       <r>   -7.0459    1.0000 </r>
       <r>   -6.9166    1.0000 </r>
       <r>   -6.8783    1.0000 </r>
       <r>   -6.7997    1.0000 </r>
       <r>   -6.6683    1.0000 </r>
       <r>   -6.6080    1.0000 </r>
       <r>   -6.5397    1.0000 </r>
       <r>   -6.4998    1.0000 </r>
       <r>   -6.4004    1.0000 </r>
       <r>   -6.3597    1.0000 </r>
       <r>   -6.2790    1.0000 </r>
       <r>   -6.2081    1.0000 </r>
       <r>   -6.1604    1.0000 </r>
       <r>   -6.0218    1.0000 </r>
       <r>   -6.0015    1.0000 </r>
       <r>   -5.9447    1.0000 </r>
       <r>   -5.9029    1.0000 </r>
       <r>   -5.8436    1.0000 </r>
       <r>   -5.7197    1.0000 </r>
       <r>   -5.6453    1.0000 </r>
       <r>   -5.6014    1.0000 </r>
       <r>   -5.3833    1.0000 </r>
       <r>   -5.2582    1.0000 </r>
       <r>   -5.1045    1.0000 </r>
       <r>   -5.0796    1.0000 </r>
       <r>   -4.9930    1.0000 </r>
       <r>   -4.7808    1.0000 </r>
       <r>   -4.6648    1.0000 </r>
       <r>   -4.5710    1.0000 </r>
       <r>   -4.5595    1.0000 </r>
       <r>   -4.3666    1.0000 </r>
       <r>   -4.2745    1.0000 </r>
       <r>   -4.1816    1.0000 </r>
       <r>   -4.1184    1.0000 </r>
       <r>   -3.8295    0.9999 </r>
       <r>   -3.6158    0.9911 </r>
       <r>   -3.5062    0.9445 </r>
       <r>   -3.2762    0.4871 </r>
       <r>   -3.0281    0.0370 </r>
       <r>   -2.6891    0.0000 </r>
       <r>   -2.5894    0.0000 </r>
       <r>   -2.5222    0.0000 </r>
       <r>   -2.4075    0.0000 </r>
       <r>   -2.3767    0.0000 </r>
       <r>   -2.1957    0.0000 </r>
       <r>   -2.1026    0.0000 </r>
       <r>   -2.0604    0.0000 </r>
       <r>   -1.9524    0.0000 </r>
       <r>   -1.8869    0.0000 </r>
       <r>   -1.7833    0.0000 </r>
       <r>   -1.4926    0.0000 </r>
       <r>   -1.3583    0.0000 </r>
       <r>   -1.2910    0.0000 </r>
       <r>   -1.2009    0.0000 </r>
       <r>   -1.1307    0.0000 </r>
       <r>   -1.0362    0.0000 </r>
       <r>   -0.9597    0.0000 </r>
       <r>   -0.9126    0.0000 </r>
       <r>   -0.8320    0.0000 </r>
       <r>   -0.7468    0.0000 </r>
       <r>   -0.6844    0.0000 </r>
       <r>   -0.5550    0.0000 </r>
       <r>   -0.4976    0.0000 </r>
       <r>   -0.3556    0.0000 </r>
       <r>   -0.3057    0.0000 </r>
       <r>   -0.1107    0.0000 </r>
       <r>    0.0564    0.0000 </r>
       <r>    0.2592    0.0000 </r>
       <r>    0.4073    0.0000 </r>
       <r>    0.5636    0.0000 </r>
       <r>    0.8195    0.0000 </r>
       <r>    1.0222    0.0000 </r>
       <r>    1.0754    0.0000 </r>
       <r>    1.1339    0.0000 </r>
       <r>    1.3918    0.0000 </r>
       <r>    2.1178    0.0000 </r>
       <r>    2.2907    0.0000 </r>
       <r>    2.3716    0.0000 </r>
      </set>
      <set comment="kpoint 34">
       <r>  -17.4719    1.0000 </r>
       <r>  -17.3145    1.0000 </r>
       <r>  -16.7387    1.0000 </r>
       <r>  -16.6898    1.0000 </r>
       <r>  -16.5800    1.0000 </r>
       <r>  -16.3761    1.0000 </r>
       <r>  -16.2831    1.0000 </r>
       <r>  -16.1693    1.0000 </r>
       <r>  -16.0319    1.0000 </r>
       <r>  -16.0114    1.0000 </r>
       <r>  -15.9535    1.0000 </r>
       <r>  -15.8887    1.0000 </r>
       <r>  -15.7922    1.0000 </r>
       <r>  -15.7304    1.0000 </r>
       <r>  -15.6843    1.0000 </r>
       <r>  -15.5820    1.0000 </r>
       <r>  -15.4102    1.0000 </r>
       <r>  -15.3211    1.0000 </r>
       <r>   -9.7405    1.0000 </r>
       <r>   -9.2799    1.0000 </r>
       <r>   -9.1542    1.0000 </r>
       <r>   -9.0659    1.0000 </r>
       <r>   -8.9810    1.0000 </r>
       <r>   -8.8521    1.0000 </r>
       <r>   -8.5057    1.0000 </r>
       <r>   -8.4238    1.0000 </r>
       <r>   -8.4008    1.0000 </r>
       <r>   -8.3055    1.0000 </r>
       <r>   -8.2631    1.0000 </r>
       <r>   -8.2015    1.0000 </r>
       <r>   -8.0873    1.0000 </r>
       <r>   -8.0519    1.0000 </r>
       <r>   -7.9430    1.0000 </r>
       <r>   -7.9004    1.0000 </r>
       <r>   -7.7941    1.0000 </r>
       <r>   -7.6833    1.0000 </r>
       <r>   -7.5096    1.0000 </r>
       <r>   -7.4467    1.0000 </r>
       <r>   -7.3357    1.0000 </r>
       <r>   -7.2040    1.0000 </r>
       <r>   -7.1469    1.0000 </r>
       <r>   -7.0410    1.0000 </r>
       <r>   -7.0192    1.0000 </r>
       <r>   -6.9504    1.0000 </r>
       <r>   -6.9221    1.0000 </r>
       <r>   -6.7674    1.0000 </r>
       <r>   -6.6855    1.0000 </r>
       <r>   -6.6402    1.0000 </r>
       <r>   -6.5322    1.0000 </r>
       <r>   -6.4884    1.0000 </r>
       <r>   -6.4062    1.0000 </r>
       <r>   -6.3085    1.0000 </r>
       <r>   -6.2618    1.0000 </r>
       <r>   -6.2343    1.0000 </r>
       <r>   -6.1507    1.0000 </r>
       <r>   -6.1050    1.0000 </r>
       <r>   -6.0194    1.0000 </r>
       <r>   -5.9655    1.0000 </r>
       <r>   -5.9007    1.0000 </r>
       <r>   -5.8821    1.0000 </r>
       <r>   -5.7806    1.0000 </r>
       <r>   -5.6472    1.0000 </r>
       <r>   -5.5639    1.0000 </r>
       <r>   -5.4544    1.0000 </r>
       <r>   -5.2522    1.0000 </r>
       <r>   -5.0887    1.0000 </r>
       <r>   -4.9323    1.0000 </r>
       <r>   -4.8915    1.0000 </r>
       <r>   -4.8327    1.0000 </r>
       <r>   -4.7008    1.0000 </r>
       <r>   -4.6059    1.0000 </r>
       <r>   -4.5456    1.0000 </r>
       <r>   -4.3403    1.0000 </r>
       <r>   -4.2180    1.0000 </r>
       <r>   -4.1810    1.0000 </r>
       <r>   -4.1340    1.0000 </r>
       <r>   -3.8310    1.0000 </r>
       <r>   -3.6463    0.9951 </r>
       <r>   -3.5268    0.9591 </r>
       <r>   -3.3297    0.6354 </r>
       <r>   -3.0188    0.0320 </r>
       <r>   -2.6703    0.0000 </r>
       <r>   -2.5713    0.0000 </r>
       <r>   -2.5129    0.0000 </r>
       <r>   -2.4019    0.0000 </r>
       <r>   -2.3585    0.0000 </r>
       <r>   -2.1805    0.0000 </r>
       <r>   -2.1129    0.0000 </r>
       <r>   -2.0507    0.0000 </r>
       <r>   -1.9264    0.0000 </r>
       <r>   -1.9063    0.0000 </r>
       <r>   -1.7899    0.0000 </r>
       <r>   -1.4801    0.0000 </r>
       <r>   -1.4063    0.0000 </r>
       <r>   -1.2549    0.0000 </r>
       <r>   -1.2123    0.0000 </r>
       <r>   -1.1437    0.0000 </r>
       <r>   -1.0209    0.0000 </r>
       <r>   -0.9706    0.0000 </r>
       <r>   -0.9338    0.0000 </r>
       <r>   -0.8443    0.0000 </r>
       <r>   -0.7461    0.0000 </r>
       <r>   -0.6864    0.0000 </r>
       <r>   -0.5855    0.0000 </r>
       <r>   -0.4983    0.0000 </r>
       <r>   -0.3388    0.0000 </r>
       <r>   -0.2789    0.0000 </r>
       <r>   -0.1263    0.0000 </r>
       <r>    0.0409    0.0000 </r>
       <r>    0.2303    0.0000 </r>
       <r>    0.4311    0.0000 </r>
       <r>    0.5420    0.0000 </r>
       <r>    0.8186    0.0000 </r>
       <r>    1.0526    0.0000 </r>
       <r>    1.0970    0.0000 </r>
       <r>    1.1159    0.0000 </r>
       <r>    1.4355    0.0000 </r>
       <r>    2.1883    0.0000 </r>
       <r>    2.2308    0.0000 </r>
       <r>    2.3780    0.0000 </r>
      </set>
     </set>
    </set>
   </array>
  </eigenvalues>
  <separator name="orbital magnetization" >
   <v name="MAGDIPOLOUT">      0.00000000      0.00000000      0.00000000</v>
  </separator>
 </calculation>
 <structure name="finalpos" >
  <crystal>
   <varray name="basis" >
    <v>       8.39434867       4.82700557       0.00000000 </v>
    <v>      -8.39019795       4.81993881       0.00000000 </v>
    <v>       0.00000000       0.00000000      30.00000000 </v>
   </varray>
   <i name="volume">   2428.79337518 </i>
   <varray name="rec_basis" >
    <v>       0.05953498       0.10363415       0.00000000 </v>
    <v>      -0.05962227       0.10368542       0.00000000 </v>
    <v>       0.00000000       0.00000000       0.03333333 </v>
   </varray>
  </crystal>
  <varray name="positions" >
   <v>       0.01854005      -0.02381774       0.00232603 </v>
   <v>       0.30610181       0.34000323      -0.00087983 </v>
   <v>       0.30061638       0.65726624      -0.00021388 </v>
   <v>      -0.02127084       0.64364064      -0.00031302 </v>
   <v>       0.99078962       0.34879593      -0.00069279 </v>
   <v>       0.68585208       0.33380279       0.00017693 </v>
   <v>       0.36361775       0.01846307      -0.00035820 </v>
   <v>       0.66474106       0.03007541      -0.00133653 </v>
   <v>       0.68443261       0.64634241       0.00141950 </v>
   <v>       0.10177616       0.20965242       0.95291473 </v>
   <v>       0.22587193       0.11818964       0.05019200 </v>
   <v>       0.11060825       0.55665661       0.94491620 </v>
   <v>       0.21867301       0.45089492       0.05094778 </v>
   <v>       0.11930220       0.88648890       0.95052082 </v>
   <v>       0.22204285       0.78141385       0.04881462 </v>
   <v>       0.44281927       0.23421281       0.95201889 </v>
   <v>       0.56275188       0.11881841       0.05633692 </v>
   <v>       0.44031134       0.55875277       0.95414685 </v>
   <v>       0.54605211       0.43531596       0.04982527 </v>
   <v>       0.44520037       0.88671916       0.94823448 </v>
   <v>       0.55291745       0.77551676       0.04114790 </v>
   <v>       0.78088563       0.22589038       0.94270820 </v>
   <v>       0.89341615       0.10601597       0.04559843 </v>
   <v>       0.77598759       0.54884662       0.94365885 </v>
   <v>       0.88884007       0.44435988       0.05661410 </v>
   <v>       0.78455914       0.89146269       0.95678259 </v>
   <v>       0.89277851       0.77443472       0.05449306 </v>
  </varray>
 </structure>
</modeling>
