unknown system                          
           1
     8.859197    5.105385    0.000000
    -8.857604    5.102645    0.000000
     0.000000    0.000000   30.000000
   V    Mo   W    S 
   3   3   3  18
Direct configuration=     1
   0.00000000  0.00000000  0.00000000
   0.33333334  0.33333334  0.00000000
   0.33333334  0.66666669  0.00000000
   0.00000000  0.66666669  0.00000000
   1.00000000  0.33333334  0.00000000
   0.66666669  0.33333334  0.00000000
   0.33333334  0.00000000  0.00000000
   0.66666669  0.00000000  0.00000000
   0.66666669  0.66666669  0.00000000
   0.11068511  0.22244981  0.95539999
   0.22244981  0.11068511  0.04460000
   0.11068511  0.55578315  0.95539999
   0.22244981  0.44401845  0.04460000
   0.11068511  0.88911647  0.95539999
   0.22244981  0.77735180  0.04460000
   0.44401845  0.22244981  0.95539999
   0.55578315  0.11068511  0.04460000
   0.44401845  0.55578315  0.95539999
   0.55578315  0.44401845  0.04460000
   0.44401845  0.88911647  0.95539999
   0.55578315  0.77735180  0.04460000
   0.77735180  0.22244981  0.95539999
   0.88911647  0.11068511  0.04460000
   0.77735180  0.55578315  0.95539999
   0.88911647  0.44401845  0.04460000
   0.77735180  0.88911647  0.95539999
   0.88911647  0.77735180  0.04460000
unknown system                          
           1
     8.670651    4.999211    0.000000
    -8.669167    4.996658    0.000000
     0.000000    0.000000   30.000000
   V    Mo   W    S 
   3   3   3  18
Direct configuration=     2
   0.00029767  0.00037091  0.00009210
   0.33294807  0.33343061 -0.00003693
   0.33102368  0.66519447 -0.00009939
  -0.00136063  0.66387111  0.00014604
   0.99898632  0.33471342 -0.00005466
   0.66943062  0.33459706 -0.00000361
   0.33302055  0.00008006 -0.00001511
   0.66822512  0.00297412 -0.00012231
   0.66785571  0.66489325  0.00004895
   0.11317301  0.21994303  0.95310115
   0.22023822  0.11266465  0.04701160
   0.11562911  0.55767814  0.95189771
   0.22655307  0.44630927  0.04688144
   0.10960849  0.89168518  0.95208805
   0.22491514  0.77623164  0.04797696
   0.44153419  0.22356652  0.95206542
   0.55496987  0.11034468  0.04926467
   0.44075581  0.55399278  0.95310269
   0.55145884  0.44312796  0.04805108
   0.44256297  0.88495212  0.95186616
   0.55172938  0.77591138  0.04794628
   0.77706358  0.22102445  0.95068287
   0.89033427  0.10802045  0.04801794
   0.77709999  0.55583747  0.95070312
   0.88881178  0.44444717  0.04933937
   0.78126698  0.89056181  0.95194605
   0.89008263  0.78179075  0.04810225
unknown system                          
           1
     8.488666    4.900697    0.000000
    -8.486998    4.897822    0.000000
     0.000000    0.000000   30.000000
   V    Mo   W    S 
   3   3   3  18
Direct configuration=     3
   0.00035996  0.00041719  0.00005134
   0.33284537  0.33342407 -0.00008581
   0.33037010  0.66485855 -0.00006490
  -0.00218323  0.66272428  0.00016332
   0.99812259  0.33505438 -0.00005329
   0.67063425  0.33507162  0.00000006
   0.33317104  0.00008206 -0.00007795
   0.66857817  0.00406129 -0.00008179
   0.66839034  0.66435801  0.00011347
   0.11321415  0.21994086  0.95320134
   0.22031747  0.11256774  0.04697582
   0.11576976  0.55776298  0.95180237
   0.22660602  0.44635557  0.04683501
   0.10980603  0.89181709  0.95217252
   0.22505792  0.77642071  0.04796217
   0.44139180  0.22336263  0.95213603
   0.55489006  0.11014166  0.04926237
   0.44093524  0.55405158  0.95317621
   0.55148704  0.44329061  0.04803157
   0.44261628  0.88509764  0.95193241
   0.55190406  0.77597809  0.04772791
   0.77693565  0.22081384  0.95051943
   0.89015117  0.10789215  0.04801227
   0.77697748  0.55595309  0.95057143
   0.88884296  0.44445139  0.04956549
   0.78110023  0.89050827  0.95204388
   0.88992252  0.78175712  0.04810719
unknown system                          
           1
     8.294379    4.788391    0.000000
    -8.288165    4.777641    0.000000
     0.000000    0.000000   30.000000
   V    Mo   W    S 
   3   3   3  18
Direct configuration=     4
   0.00032249  0.00026363 -0.00013550
   0.33262617  0.33334531 -0.00025175
   0.32811765  0.66405270  0.00010408
  -0.00567336  0.65833592  0.00015818
   0.99403476  0.33599165 -0.00003742
   0.67546145  0.33674304  0.00000602
   0.33415971 -0.00000917 -0.00029643
   0.66960844  0.00824475  0.00010983
   0.67063523  0.66253927  0.00032185
   0.11361068  0.21973045  0.95231130
   0.21986873  0.11303506  0.04820407
   0.11689107  0.55837510  0.95000320
   0.22730312  0.44673444  0.04794162
   0.10924111  0.89197388  0.95109403
   0.22539424  0.77594890  0.04932841
   0.44119151  0.22396969  0.95099510
   0.55492264  0.11031667  0.05089473
   0.44022178  0.55361814  0.95212438
   0.55045099  0.44249172  0.04941899
   0.44221792  0.88413148  0.95068160
   0.55125820  0.77558623  0.04828055
   0.77701960  0.22104185  0.94820606
   0.89083159  0.10770941  0.04945324
   0.77700532  0.55592365  0.94842211
   0.88899157  0.44443090  0.05207065
   0.78179560  0.89091354  0.95098361
   0.89070623  0.78277621  0.04960740
unknown system                          
           1
     8.313140    4.799565    0.000000
    -8.301873    4.780063    0.000000
     0.000000    0.000000   30.000000
   V    Mo   W    S 
   3   3   3  18
Direct configuration=     5
   0.00013140 -0.00026496 -0.00045052
   0.33193291  0.33322067 -0.00044498
   0.32352850  0.66250738  0.00041767
  -0.01223896  0.65059907  0.00007252
   0.98642588  0.33724787 -0.00002317
   0.68427836  0.33951039  0.00004160
   0.33618670 -0.00020556 -0.00058646
   0.67164263  0.01707691  0.00033477
   0.67503676  0.65843307  0.00060955
   0.11336842  0.22026413  0.95115540
   0.21954143  0.11359870  0.04980013
   0.11697771  0.55832192  0.94758541
   0.22674043  0.44653492  0.04938491
   0.10835622  0.89094253  0.94993213
   0.22471262  0.77515098  0.05096836
   0.44226617  0.22519065  0.94969795
   0.55530823  0.11181211  0.05305928
   0.43994291  0.55332586  0.95080719
   0.55002030  0.44113984  0.05114206
   0.44239325  0.88308295  0.94904986
   0.55137147  0.77567213  0.04846673
   0.77751513  0.22199865  0.94487544
   0.89193560  0.10867161  0.05127696
   0.77732680  0.55523843  0.94544855
   0.88920072  0.44451833  0.05574248
   0.78211112  0.89116999  0.94996710
   0.89220173  0.78345588  0.05166896
unknown system                          
           1
     8.310159    4.795638    0.000000
    -8.299847    4.777798    0.000000
     0.000000    0.000000   30.000000
   V    Mo   W    S 
   3   3   3  18
Direct configuration=     6
   0.00014101 -0.00054648 -0.00046719
   0.33137319  0.33334548 -0.00050416
   0.32122796  0.66153683  0.00041087
  -0.01246975  0.65057456  0.00017666
   0.98649534  0.33719186  0.00004342
   0.68389174  0.33914267  0.00007805
   0.33716318  0.00003963 -0.00064969
   0.67205716  0.01944983  0.00022690
   0.67624417  0.65684870  0.00062016
   0.11270850  0.22081178  0.95125674
   0.21968192  0.11347333  0.04971293
   0.11607112  0.55781724  0.94751676
   0.22559813  0.44601373  0.04933746
   0.10835647  0.89000597  0.95013618
   0.22383888  0.77501950  0.05086808
   0.44327010  0.22545898  0.94990513
   0.55563427  0.11291922  0.05320718
   0.44049487  0.55370583  0.95100638
   0.55080365  0.44070697  0.05110502
   0.44302979  0.88327764  0.94912433
   0.55254564  0.77634891  0.04781802
   0.77759581  0.22238141  0.94459051
   0.89190726  0.10950231  0.05121901
   0.77728801  0.55459134  0.94521913
   0.88930729  0.44468781  0.05598138
   0.78137961  0.89091872  0.95033147
   0.89257914  0.78299071  0.05172916
unknown system                          
           1
     8.316443    4.797133    0.000000
    -8.306200    4.779419    0.000000
     0.000000    0.000000   30.000000
   V    Mo   W    S 
   3   3   3  18
Direct configuration=     7
   0.00008094 -0.00080936 -0.00051173
   0.33082915  0.33350725 -0.00057896
   0.31875820  0.66040548  0.00042082
  -0.01332309  0.64976069  0.00019992
   0.98592593  0.33738849  0.00007524
   0.68449544  0.33911158  0.00011327
   0.33832392  0.00040604 -0.00071233
   0.67255295  0.02201285  0.00022864
   0.67758487  0.65528415  0.00066329
   0.11240553  0.22101579  0.95128464
   0.21973848  0.11342116  0.04968758
   0.11568789  0.55765798  0.94733438
   0.22505259  0.44579592  0.04940739
   0.10847161  0.88961702  0.95024647
   0.22341875  0.77497447  0.05089890
   0.44369459  0.22565676  0.94997116
   0.55577045  0.11347554  0.05343097
   0.44081947  0.55395857  0.95113594
   0.55108963  0.44034946  0.05119158
   0.44339700  0.88330972  0.94912463
   0.55323295  0.77669545  0.04723443
   0.77779336  0.22280389  0.94426101
   0.89184347  0.10987421  0.05126027
   0.77742184  0.55422472  0.94493654
   0.88932468  0.44472891  0.05623061
   0.78096565  0.89076209  0.95057970
   0.89285821  0.78282564  0.05188551
unknown system                          
           1
     8.334140    4.800168    0.000000
    -8.323518    4.781822    0.000000
     0.000000    0.000000   30.000000
   V    Mo   W    S 
   3   3   3  18
Direct configuration=     8
  -0.00000287 -0.00108839 -0.00056120
   0.33025596  0.33369934 -0.00065056
   0.31630541  0.65921748  0.00043757
  -0.01391621  0.64921467  0.00022772
   0.98575091  0.33761810  0.00009676
   0.68469631  0.33892791  0.00013229
   0.33956417  0.00092590 -0.00077628
   0.67297670  0.02409797  0.00022019
   0.67873386  0.65395541  0.00072800
   0.11215762  0.22111101  0.95133447
   0.21980393  0.11338275  0.04961700
   0.11538116  0.55754938  0.94718252
   0.22462738  0.44565596  0.04946244
   0.10866478  0.88936447  0.95039189
   0.22309372  0.77498765  0.05088970
   0.44395744  0.22580581  0.95005585
   0.55586282  0.11393267  0.05363480
   0.44111701  0.55422050  0.95130849
   0.55129825  0.44003665  0.05124389
   0.44373754  0.88334562  0.94917902
   0.55382328  0.77696910  0.04660446
   0.77800213  0.22320703  0.94401709
   0.89176165  0.11017923  0.05126869
   0.77756609  0.55386308  0.94471139
   0.88934128  0.44477172  0.05639030
   0.78055306  0.89058129  0.95085562
   0.89310107  0.78268216  0.05199780
unknown system                          
           1
     8.348790    4.807654    0.000000
    -8.337566    4.788269    0.000000
     0.000000    0.000000   30.000000
   V    Mo   W    S 
   3   3   3  18
Direct configuration=     9
  -0.00052133 -0.00219110 -0.00074227
   0.32796943  0.33448033 -0.00087892
   0.30758106  0.65473802  0.00051927
  -0.01591665  0.64719218  0.00029495
   0.98578231  0.33872154  0.00014658
   0.68494560  0.33795850  0.00017853
   0.34474918  0.00365439 -0.00097825
   0.67451020  0.03045202  0.00020869
   0.68239146  0.64989848  0.00100052
   0.11140046  0.22106564  0.95150605
   0.22005370  0.11329403  0.04927193
   0.11446227  0.55733138  0.94662943
   0.22343508  0.44539776  0.04970904
   0.10965126  0.88890849  0.95099788
   0.22220237  0.77522901  0.05077379
   0.44441997  0.22632736  0.95032589
   0.55610182  0.11518321  0.05433663
   0.44207045  0.55519538  0.95201222
   0.55172035  0.43897027  0.05137895
   0.44482671  0.88344496  0.94949241
   0.55543811  0.77758597  0.04424032
   0.77887817  0.22465605  0.94331074
   0.89145276  0.11108803  0.05124480
   0.77817222  0.55266764  0.94404467
   0.88931819  0.44482804  0.05678471
   0.77918096  0.88987958  0.95185608
   0.89393832  0.78225728  0.05233528
unknown system                          
           1
     8.351913    4.809461    0.000000
    -8.339184    4.787461    0.000000
     0.000000    0.000000   30.000000
   V    Mo   W    S 
   3   3   3  18
Direct configuration=    10
  -0.00107689 -0.00277949 -0.00080398
   0.32674329  0.33484042 -0.00089898
   0.30543204  0.65344361  0.00056939
  -0.01667880  0.64618143  0.00026340
   0.98623664  0.33928391  0.00011180
   0.68460232  0.33725690  0.00016087
   0.34780117  0.00579720 -0.00098726
   0.67507989  0.03138644  0.00018886
   0.68293611  0.64927468  0.00108519
   0.11106996  0.22076066  0.95150697
   0.22017020  0.11333223  0.04909731
   0.11392495  0.55722688  0.94636212
   0.22301526  0.44534518  0.04990527
   0.11036336  0.88899597  0.95131844
   0.22188031  0.77544198  0.05064783
   0.44438118  0.22678815  0.95031876
   0.55621943  0.11546409  0.05464624
   0.44227578  0.55558671  0.95230993
   0.55159106  0.43844665  0.05141869
   0.44515355  0.88342059  0.94965550
   0.55547873  0.77744049  0.04333167
   0.77939040  0.22531797  0.94313766
   0.89141829  0.11138149  0.05125523
   0.77845845  0.55220517  0.94389062
   0.88920114  0.44468231  0.05686753
   0.77878238  0.88957281  0.95218445
   0.89436425  0.78212003  0.05245636
unknown system                          
           1
     8.355949    4.812832    0.000000
    -8.342453    4.789497    0.000000
     0.000000    0.000000   30.000000
   V    Mo   W    S 
   3   3   3  18
Direct configuration=    11
  -0.00190947 -0.00338286 -0.00083817
   0.32532904  0.33515799 -0.00086473
   0.30325344  0.65212269  0.00060026
  -0.01771969  0.64485978  0.00023830
   0.98675769  0.33996421  0.00008405
   0.68427021  0.33651894  0.00015955
   0.35134194  0.00829901 -0.00100139
   0.67579114  0.03271378  0.00016854
   0.68366653  0.64837455  0.00118468
   0.11070944  0.22043363  0.95152639
   0.22030662  0.11336547  0.04887949
   0.11344225  0.55716283  0.94619175
   0.22256520  0.44531916  0.05006159
   0.11122349  0.88909489  0.95175255
   0.22157748  0.77572271  0.05040591
   0.44436905  0.22730832  0.95032072
   0.55652703  0.11564895  0.05489859
   0.44236021  0.55590454  0.95259494
   0.55151095  0.43807734  0.05135958
   0.44543031  0.88348257  0.94983553
   0.55540568  0.77724236  0.04251010
   0.77982359  0.22579055  0.94305616
   0.89145198  0.11165986  0.05124278
   0.77858750  0.55182985  0.94383872
   0.88902561  0.44445894  0.05685815
   0.77846742  0.88923920  0.95245245
   0.89464981  0.78184519  0.05248342
unknown system                          
           1
     8.354509    4.811497    0.000000
    -8.341625    4.789225    0.000000
     0.000000    0.000000   30.000000
   V    Mo   W    S 
   3   3   3  18
Direct configuration=    12
  -0.00239242 -0.00349661 -0.00084031
   0.32486368  0.33516920 -0.00081752
   0.30327192  0.65205833  0.00060118
  -0.01796003  0.64449808  0.00021760
   0.98703198  0.34008939  0.00006919
   0.68404113  0.33627849  0.00014707
   0.35244274  0.00915438 -0.00099676
   0.67596167  0.03258344  0.00016420
   0.68356359  0.64841804  0.00119140
   0.11061844  0.22030426  0.95150313
   0.22034953  0.11338202  0.04883253
   0.11333630  0.55716993  0.94616312
   0.22247816  0.44533384  0.05011854
   0.11155278  0.88919182  0.95191220
   0.22153334  0.77585151  0.05030213
   0.44436663  0.22756203  0.95026780
   0.55673103  0.11563004  0.05497697
   0.44225376  0.55591296  0.95262197
   0.55139395  0.43799452  0.05133431
   0.44546871  0.88351757  0.94985423
   0.55521244  0.77710773  0.04244614
   0.77992515  0.22584424  0.94306492
   0.89154434  0.11167468  0.05126721
   0.77852549  0.55176428  0.94385124
   0.88893594  0.44431452  0.05684968
   0.77848193  0.88915323  0.95242564
   0.89468227  0.78175254  0.05247209
unknown system                          
           1
     8.345617    4.802295    0.000000
    -8.338137    4.789425    0.000000
     0.000000    0.000000   30.000000
   V    Mo   W    S 
   3   3   3  18
Direct configuration=    13
  -0.00202941 -0.00342527 -0.00083452
   0.32518978  0.33516083 -0.00084157
   0.30349412  0.65220903  0.00060005
  -0.01775394  0.64478285  0.00022705
   0.98687944  0.33999678  0.00007462
   0.68414331  0.33641941  0.00015207
   0.35168787  0.00861147 -0.00099082
   0.67579881  0.03249545  0.00016451
   0.68351384  0.64847933  0.00117951
   0.11069684  0.22038894  0.95151266
   0.22032046  0.11339027  0.04887314
   0.11339636  0.55715941  0.94618122
   0.22254891  0.44530650  0.05008483
   0.11133629  0.88913673  0.95179091
   0.22156601  0.77576671  0.05037472
   0.44434894  0.22741396  0.95028958
   0.55659116  0.11562031  0.05492534
   0.44229544  0.55588106  0.95258935
   0.55143751  0.43804625  0.05135322
   0.44541062  0.88348184  0.94983069
   0.55528133  0.77716774  0.04253041
   0.77985389  0.22579634  0.94306588
   0.89149686  0.11165914  0.05125493
   0.77855654  0.55182082  0.94385200
   0.88898816  0.44440052  0.05685560
   0.77850231  0.88922284  0.95242309
   0.89466302  0.78182521  0.05248142
unknown system                          
           1
     8.345320    4.801260    0.000000
    -8.338796    4.790054    0.000000
     0.000000    0.000000   30.000000
   V    Mo   W    S 
   3   3   3  18
Direct configuration=    14
   0.00039568 -0.00337845 -0.00079668
   0.32628288  0.33539345 -0.00097501
   0.30410592  0.65240580  0.00060744
  -0.01700905  0.64597740  0.00027536
   0.98657032  0.33975274  0.00008574
   0.68410315  0.33641516  0.00018074
   0.34929927  0.00720749 -0.00093821
   0.67496564  0.03243138  0.00013152
   0.68324401  0.64833855  0.00117364
   0.11114652  0.22078694  0.95162457
   0.22016840  0.11355835  0.04903943
   0.11347639  0.55702803  0.94618950
   0.22274932  0.44496982  0.04996194
   0.11054370  0.88888321  0.95119850
   0.22161175  0.77545294  0.05068365
   0.44407426  0.22689988  0.95041798
   0.55590495  0.11562716  0.05478803
   0.44253840  0.55568403  0.95250672
   0.55149686  0.43812636  0.05142603
   0.44502997  0.88327403  0.94976316
   0.55559770  0.77741698  0.04265802
   0.77964516  0.22571619  0.94304863
   0.89113298  0.11176325  0.05110385
   0.77876545  0.55197705  0.94384316
   0.88916827  0.44476935  0.05687328
   0.77852880  0.88955613  0.95258145
   0.89467775  0.78218124  0.05254747
unknown system                          
           1
     8.356330    4.807489    0.000000
    -8.348072    4.793268    0.000000
     0.000000    0.000000   30.000000
   V    Mo   W    S 
   3   3   3  18
Direct configuration=    15
   0.00124971 -0.00353342 -0.00078408
   0.32662225  0.33548612 -0.00100059
   0.30425349  0.65248867  0.00060821
  -0.01676592  0.64636097  0.00028869
   0.98643574  0.33980866  0.00008720
   0.68419569  0.33648076  0.00018965
   0.34845048  0.00668055 -0.00091614
   0.67465830  0.03241042  0.00010665
   0.68322880  0.64833101  0.00116248
   0.11121755  0.22086299  0.95164577
   0.22014600  0.11362417  0.04910343
   0.11350798  0.55700083  0.94619972
   0.22279477  0.44488281  0.04993790
   0.11033915  0.88880954  0.95101296
   0.22164666  0.77536060  0.05075870
   0.44400638  0.22676086  0.95043527
   0.55570484  0.11563434  0.05476310
   0.44261071  0.55566891  0.95247281
   0.55149505  0.43813289  0.05146073
   0.44489739  0.88321762  0.94974557
   0.55565751  0.77747413  0.04269415
   0.77958570  0.22568371  0.94304082
   0.89103202  0.11177805  0.05105002
   0.77880544  0.55200125  0.94384978
   0.88920840  0.44486931  0.05686698
   0.77855252  0.88965815  0.95264688
   0.89467786  0.78228054  0.05257325
unknown system                          
           1
     8.357220    4.808593    0.000000
    -8.347052    4.791052    0.000000
     0.000000    0.000000   30.000000
   V    Mo   W    S 
   3   3   3  18
Direct configuration=    16
   0.00286860 -0.00535817 -0.00075321
   0.32609806  0.33585230 -0.00097439
   0.30341860  0.65213159  0.00061022
  -0.01672382  0.64661478  0.00027089
   0.98657721  0.34092688  0.00005826
   0.68436179  0.33622974  0.00020564
   0.34862785  0.00709857 -0.00085790
   0.67424892  0.03278828  0.00004690
   0.68372975  0.64826289  0.00118250
   0.11074546  0.22045507  0.95169874
   0.22020040  0.11371901  0.04915748
   0.11338608  0.55703734  0.94616340
   0.22248242  0.44487737  0.05004090
   0.11079923  0.88889961  0.95093856
   0.22168931  0.77543738  0.05061572
   0.44396149  0.22695377  0.95037791
   0.55574858  0.11575012  0.05491677
   0.44269799  0.55600968  0.95253454
   0.55135894  0.43793871  0.05150067
   0.44465722  0.88318653  0.94981623
   0.55538938  0.77729125  0.04234562
   0.77976871  0.22585003  0.94298681
   0.89090542  0.11179080  0.05079814
   0.77876427  0.55172586  0.94387537
   0.88903273  0.44477668  0.05681541
   0.77867123  0.88969412  0.95298629
   0.89474864  0.78227430  0.05264245
unknown system                          
           1
     8.359881    4.809919    0.000000
    -8.349428    4.791881    0.000000
     0.000000    0.000000   30.000000
   V    Mo   W    S 
   3   3   3  18
Direct configuration=    17
   0.00246977 -0.00636250 -0.00073125
   0.32494174  0.33596900 -0.00095587
   0.30277403  0.65169158  0.00060500
  -0.01744044  0.64589454  0.00024407
   0.98696171  0.34154582  0.00002985
   0.68417943  0.33577190  0.00019622
   0.35096704  0.00896116 -0.00084817
   0.67434121  0.03311950  0.00004399
   0.68377609  0.64790018  0.00121933
   0.11036017  0.22008715  0.95175493
   0.22040114  0.11376620  0.04907350
   0.11311749  0.55707699  0.94607112
   0.22217586  0.44498373  0.05014244
   0.11162479  0.88897142  0.95118626
   0.22156461  0.77575942  0.05038881
   0.44400367  0.22744077  0.95037033
   0.55620135  0.11580087  0.05505084
   0.44253493  0.55611475  0.95268694
   0.55122666  0.43782387  0.05140062
   0.44487723  0.88339676  0.94988708
   0.55514648  0.77708721  0.04205593
   0.78000831  0.22599734  0.94298913
   0.89106544  0.11184816  0.05069481
   0.77865888  0.55150765  0.94388048
   0.88883833  0.44459601  0.05680245
   0.77866390  0.88950984  0.95307336
   0.89477461  0.78195514  0.05268769
unknown system                          
           1
     8.361078    4.810404    0.000000
    -8.350802    4.792675    0.000000
     0.000000    0.000000   30.000000
   V    Mo   W    S 
   3   3   3  18
Direct configuration=    18
   0.00276327 -0.00699842 -0.00071264
   0.32457922  0.33605968 -0.00095939
   0.30255444  0.65155781  0.00060094
  -0.01756923  0.64587351  0.00023649
   0.98711254  0.34187843  0.00001952
   0.68411842  0.33560666  0.00019704
   0.35145743  0.00943937 -0.00082933
   0.67423116  0.03319493  0.00003157
   0.68380581  0.64780999  0.00122840
   0.11019976  0.21993593  0.95179445
   0.22045771  0.11380959  0.04907765
   0.11305076  0.55710128  0.94603869
   0.22206636  0.44501044  0.05017299
   0.11186867  0.88897446  0.95118557
   0.22154206  0.77584101  0.05032917
   0.44400288  0.22759418  0.95036811
   0.55630929  0.11584704  0.05510628
   0.44249901  0.55617368  0.95272746
   0.55116182  0.43776759  0.05138344
   0.44489145  0.88344353  0.94989973
   0.55505810  0.77701673  0.04196350
   0.78008385  0.22604639  0.94297616
   0.89108834  0.11186038  0.05060964
   0.77862738  0.55142520  0.94387514
   0.88877439  0.44456908  0.05680633
   0.77870774  0.88949526  0.95314854
   0.89477183  0.78188073  0.05272443
unknown system                          
           1
     8.366572    4.813165    0.000000
    -8.355432    4.793936    0.000000
     0.000000    0.000000   30.000000
   V    Mo   W    S 
   3   3   3  18
Direct configuration=    19
   0.00297443 -0.00746396 -0.00069165
   0.32425499  0.33608357 -0.00095843
   0.30247727  0.65149408  0.00059586
  -0.01776291  0.64580401  0.00023149
   0.98717311  0.34206024  0.00001286
   0.68408723  0.33546455  0.00019652
   0.35193614  0.00989971 -0.00081332
   0.67412547  0.03325266  0.00001483
   0.68379037  0.64771604  0.00123219
   0.11009243  0.21982536  0.95182567
   0.22051673  0.11385566  0.04907707
   0.11296730  0.55710855  0.94600834
   0.22199211  0.44499763  0.05019757
   0.11207858  0.88897300  0.95118948
   0.22151683  0.77594749  0.05028332
   0.44400015  0.22773353  0.95036842
   0.55641355  0.11588780  0.05515067
   0.44245969  0.55618006  0.95275186
   0.55108228  0.43770866  0.05136520
   0.44493253  0.88352529  0.94990343
   0.55503123  0.77699387  0.04191487
   0.78013614  0.22607709  0.94297407
   0.89112467  0.11187321  0.05054625
   0.77859758  0.55136687  0.94387133
   0.88872440  0.44455052  0.05680340
   0.77873328  0.88948985  0.95319723
   0.89475889  0.78180911  0.05275138
unknown system                          
           1
     8.376154    4.819236    0.000000
    -8.362416    4.795488    0.000000
     0.000000    0.000000   30.000000
   V    Mo   W    S 
   3   3   3  18
Direct configuration=    20
   0.00329166 -0.00964754 -0.00061106
   0.32264265  0.33624383 -0.00091278
   0.30176299  0.65117552  0.00057447
  -0.01859073  0.64528636  0.00019536
   0.98769408  0.34310639 -0.00002016
   0.68379663  0.33475130  0.00018984
   0.35462102  0.01209773 -0.00074984
   0.67376441  0.03345126 -0.00005610
   0.68382580  0.64738949  0.00124377
   0.10942558  0.21922941  0.95190669
   0.22081406  0.11399486  0.04907088
   0.11269856  0.55722561  0.94590007
   0.22162254  0.44514064  0.05032925
   0.11317551  0.88897179  0.95130669
   0.22142678  0.77642180  0.05000131
   0.44407876  0.22844139  0.95031818
   0.55703300  0.11609919  0.05540869
   0.44227183  0.55635745  0.95286479
   0.55076835  0.43745178  0.05129076
   0.44518718  0.88386064  0.94992578
   0.55478978  0.77680828  0.04166459
   0.78041641  0.22622212  0.94294208
   0.89132279  0.11187242  0.05030525
   0.77839303  0.55106907  0.94383819
   0.88848682  0.44441137  0.05681375
   0.77884188  0.88939327  0.95337856
   0.89465309  0.78138904  0.05288089
unknown system                          
           1
     8.381131    4.822477    0.000000
    -8.366597    4.797343    0.000000
     0.000000    0.000000   30.000000
   V    Mo   W    S 
   3   3   3  18
Direct configuration=    21
   0.00398491 -0.01370801 -0.00045924
   0.31958597  0.33636951 -0.00086825
   0.30083185  0.65075398  0.00053023
  -0.01989697  0.64473104  0.00012156
   0.98873617  0.34478527 -0.00006794
   0.68331270  0.33362885  0.00017736
   0.35879540  0.01571889 -0.00064399
   0.67319364  0.03365243 -0.00013999
   0.68363240  0.64687802  0.00126660
   0.10818267  0.21801167  0.95212288
   0.22123242  0.11419468  0.04904364
   0.11225448  0.55741254  0.94571456
   0.22102352  0.44548619  0.05053598
   0.11501550  0.88907551  0.95148193
   0.22136458  0.77733163  0.04952892
   0.44421778  0.22970422  0.95025787
   0.55832119  0.11659026  0.05587080
   0.44181960  0.55656265  0.95306438
   0.55019562  0.43707021  0.05112669
   0.44559911  0.88444269  0.94990147
   0.55442171  0.77649596  0.04134763
   0.78094885  0.22648502  0.94289071
   0.89175584  0.11177117  0.04979435
   0.77795522  0.55054630  0.94376499
   0.88808327  0.44415436  0.05682818
   0.77926198  0.88935920  0.95370772
   0.89438505  0.78071022  0.05310084
unknown system                          
           1
     8.387819    4.826158    0.000000
    -8.372817    4.800211    0.000000
     0.000000    0.000000   30.000000
   V    Mo   W    S 
   3   3   3  18
Direct configuration=    22
   0.00479429 -0.01693840 -0.00024557
   0.31719738  0.33643228 -0.00083899
   0.30024938  0.65069035  0.00045388
  -0.02078283  0.64442886  0.00005930
   0.98947333  0.34606235 -0.00011550
   0.68333376  0.33314956  0.00016771
   0.36130749  0.01781184 -0.00053957
   0.67247479  0.03375786 -0.00024446
   0.68338739  0.64639143  0.00123998
   0.10710229  0.21691753  0.95228321
   0.22156666  0.11436174  0.04904652
   0.11200703  0.55761895  0.94561029
   0.22065629  0.44582479  0.05069301
   0.11644923  0.88908659  0.95148273
   0.22147428  0.77814499  0.04918468
   0.44434898  0.23068311  0.95025704
   0.55939186  0.11702690  0.05615519
   0.44143519  0.55667914  0.95321466
   0.54965664  0.43678661  0.05098461
   0.44593066  0.88502200  0.94988193
   0.55416361  0.77630885  0.04121622
   0.78131452  0.22660364  0.94290515
   0.89217449  0.11147279  0.04934262
   0.77753426  0.55021951  0.94373815
   0.88783788  0.44407972  0.05678975
   0.77970860  0.88949888  0.95398877
   0.89402700  0.78009260  0.05328857
unknown system                          
           1
     8.389724    4.826889    0.000000
    -8.375050    4.801514    0.000000
     0.000000    0.000000   30.000000
   V    Mo   W    S 
   3   3   3  18
Direct configuration=    23
   0.00587032 -0.01927374 -0.00002860
   0.31527931  0.33644085 -0.00084859
   0.30000727  0.65089685  0.00041246
  -0.02119239  0.64447547 -0.00000700
   0.99005135  0.34688440 -0.00013836
   0.68346829  0.33305787  0.00015853
   0.36260491  0.01896381 -0.00047954
   0.67167750  0.03358674 -0.00030671
   0.68305845  0.64606508  0.00125909
   0.10619063  0.21593498  0.95241444
   0.22182880  0.11452624  0.04909097
   0.11181413  0.55777532  0.94550645
   0.22041069  0.44621254  0.05079668
   0.11742016  0.88895636  0.95138760
   0.22161975  0.77877390  0.04896410
   0.44442462  0.23132973  0.95034603
   0.56027027  0.11749126  0.05633757
   0.44112812  0.55679351  0.95332968
   0.54921703  0.43657769  0.05086122
   0.44617404  0.88545476  0.94981566
   0.55398882  0.77619573  0.04115517
   0.78161818  0.22674509  0.94288677
   0.89249817  0.11105333  0.04890481
   0.77723054  0.54995785  0.94367298
   0.88776293  0.44415275  0.05678267
   0.78018752  0.88975257  0.95427127
   0.89360506  0.77943352  0.05345456
unknown system                          
           1
     8.393702    4.828922    0.000000
    -8.379656    4.804639    0.000000
     0.000000    0.000000   30.000000
   V    Mo   W    S 
   3   3   3  18
Direct configuration=    24
   0.00746698 -0.02176285  0.00026177
   0.31302248  0.33648714 -0.00086778
   0.29970261  0.65123670  0.00033860
  -0.02171161  0.64441202 -0.00009442
   0.99061445  0.34786018 -0.00018276
   0.68382885  0.33304736  0.00014524
   0.36394663  0.02011007 -0.00039243
   0.67064233  0.03348312 -0.00044699
   0.68280907  0.64564554  0.00123062
   0.10511430  0.21473123  0.95256472
   0.22214688  0.11474535  0.04916015
   0.11162434  0.55792541  0.94542477
   0.22014678  0.44669995  0.05090284
   0.11843311  0.88870233  0.95123325
   0.22178909  0.77948431  0.04873177
   0.44447432  0.23206608  0.95048999
   0.56118870  0.11803539  0.05649676
   0.44078526  0.55694332  0.95348060
   0.54865762  0.43629346  0.05071248
   0.44643233  0.88596149  0.94973279