   27   27  100    1
  0.9710400E+02  0.1002848E-08  0.1002848E-08  0.3000000E-08  0.5000000E-15
  1.000000000000000E-004
  CAR 
 unknown system                          
    159     34    120
 
  0.0000000E+00  0.0000000E+00  0.0000000E+00  0.1562500E-01
    1      -17.834245   1.000000
    2      -16.741960   1.000000
    3      -16.642966   1.000000
    4      -16.612874   1.000000
    5      -16.540935   1.000000
    6      -16.422742   1.000000
    7      -16.376629   1.000000
    8      -16.347674   1.000000
    9      -16.192724   1.000000
   10      -16.142800   1.000000
   11      -16.080392   1.000000
   12      -15.957673   1.000000
   13      -15.942693   1.000000
   14      -15.755234   1.000000
   15      -15.560658   1.000000
   16      -15.500661   1.000000
   17      -15.258046   1.000000
   18      -15.139838   1.000000
   19       -9.305477   1.000000
   20       -9.071620   1.000000
   21       -8.843012   1.000000
   22       -8.822066   1.000000
   23       -8.768053   1.000000
   24       -8.747725   1.000000
   25       -8.745091   1.000000
   26       -8.603322   1.000000
   27       -8.577311   1.000000
   28       -8.431309   1.000000
   29       -8.406867   1.000000
   30       -8.365713   1.000000
   31       -8.311103   1.000000
   32       -8.271983   1.000000
   33       -8.172925   1.000000
   34       -8.158262   1.000000
   35       -7.758072   1.000000
   36       -7.690003   1.000000
   37       -7.689324   1.000000
   38       -7.582200   1.000000
   39       -7.508276   1.000000
   40       -7.390809   1.000000
   41       -7.224022   1.000000
   42       -7.194454   1.000000
   43       -7.134779   1.000000
   44       -6.892475   1.000000
   45       -6.805892   1.000000
   46       -6.768137   1.000000
   47       -6.755757   1.000000
   48       -6.694765   1.000000
   49       -6.624941   1.000000
   50       -6.540207   1.000000
   51       -6.529959   1.000000
   52       -6.263083   1.000000
   53       -6.211945   1.000000
   54       -6.118779   1.000000
   55       -6.062720   1.000000
   56       -6.037352   1.000000
   57       -5.947360   1.000000
   58       -5.928197   1.000000
   59       -5.837510   1.000000
   60       -5.834244   1.000000
   61       -5.633437   1.000000
   62       -5.371284   1.000000
   63       -5.329846   1.000000
   64       -5.049253   1.000000
   65       -4.981071   1.000000
   66       -4.920238   1.000000
   67       -4.802375   1.000000
   68       -4.783892   1.000000
   69       -4.764944   1.000000
   70       -4.657226   1.000000
   71       -4.620293   1.000000
   72       -4.614617   1.000000
   73       -4.516084   1.000000
   74       -4.379772   1.000000
   75       -4.345441   1.000000
   76       -3.980105   1.000000
   77       -3.755357   0.999827
   78       -3.628272   0.996308
   79       -3.499865   0.961721
   80       -3.169565   0.286189
   81       -3.139822   0.219209
   82       -2.730828   0.000123
   83       -2.724460   0.000103
   84       -2.630506   0.000006
   85       -2.492025   0.000000
   86       -2.447328   0.000000
   87       -2.237214   0.000000
   88       -2.169084   0.000000
   89       -2.160236   0.000000
   90       -1.979454   0.000000
   91       -1.968687   0.000000
   92       -1.647635   0.000000
   93       -1.386225   0.000000
   94       -1.302659   0.000000
   95       -1.244305   0.000000
   96       -0.966960   0.000000
   97       -0.904856   0.000000
   98       -0.838696   0.000000
   99       -0.835994   0.000000
  100       -0.640668   0.000000
  101       -0.638464   0.000000
  102       -0.547235   0.000000
  103       -0.253240   0.000000
  104       -0.176560   0.000000
  105       -0.119189   0.000000
  106       -0.016689   0.000000
  107       -0.016114   0.000000
  108        0.054758   0.000000
  109        0.125178   0.000000
  110        0.129127   0.000000
  111        0.190329   0.000000
  112        0.300578   0.000000
  113        0.530884   0.000000
  114        0.911836   0.000000
  115        0.946235   0.000000
  116        1.236929   0.000000
  117        1.275955   0.000000
  118        1.660450   0.000000
  119        1.849208   0.000000
  120        2.183572   0.000000
 
  0.1250000E+00  0.2775558E-16  0.0000000E+00  0.3125000E-01
    1      -17.808846   1.000000
    2      -16.804121   1.000000
    3      -16.699633   1.000000
    4      -16.637277   1.000000
    5      -16.574883   1.000000
    6      -16.389672   1.000000
    7      -16.344735   1.000000
    8      -16.320697   1.000000
    9      -16.186248   1.000000
   10      -16.133047   1.000000
   11      -16.039589   1.000000
   12      -15.933290   1.000000
   13      -15.928454   1.000000
   14      -15.745109   1.000000
   15      -15.576522   1.000000
   16      -15.513485   1.000000
   17      -15.260342   1.000000
   18      -15.143147   1.000000
   19       -9.306599   1.000000
   20       -9.255777   1.000000
   21       -8.977958   1.000000
   22       -8.924059   1.000000
   23       -8.815969   1.000000
   24       -8.778154   1.000000
   25       -8.709910   1.000000
   26       -8.517152   1.000000
   27       -8.487158   1.000000
   28       -8.402032   1.000000
   29       -8.401532   1.000000
   30       -8.299436   1.000000
   31       -8.247983   1.000000
   32       -8.226667   1.000000
   33       -8.084016   1.000000
   34       -8.070324   1.000000
   35       -7.732403   1.000000
   36       -7.648389   1.000000
   37       -7.637607   1.000000
   38       -7.595860   1.000000
   39       -7.549633   1.000000
   40       -7.411879   1.000000
   41       -7.220332   1.000000
   42       -7.215965   1.000000
   43       -7.170820   1.000000
   44       -6.981681   1.000000
   45       -6.840927   1.000000
   46       -6.752444   1.000000
   47       -6.714188   1.000000
   48       -6.682852   1.000000
   49       -6.564469   1.000000
   50       -6.479573   1.000000
   51       -6.477239   1.000000
   52       -6.315233   1.000000
   53       -6.229185   1.000000
   54       -6.211006   1.000000
   55       -6.052968   1.000000
   56       -6.051607   1.000000
   57       -6.013397   1.000000
   58       -5.879793   1.000000
   59       -5.779282   1.000000
   60       -5.753980   1.000000
   61       -5.593754   1.000000
   62       -5.468761   1.000000
   63       -5.442796   1.000000
   64       -5.138329   1.000000
   65       -5.059887   1.000000
   66       -4.918968   1.000000
   67       -4.841932   1.000000
   68       -4.798023   1.000000
   69       -4.695312   1.000000
   70       -4.639327   1.000000
   71       -4.574445   1.000000
   72       -4.532130   1.000000
   73       -4.483118   1.000000
   74       -4.332790   1.000000
   75       -4.331593   1.000000
   76       -4.045307   1.000000
   77       -3.762315   0.999857
   78       -3.698536   0.999253
   79       -3.551827   0.983760
   80       -3.132442   0.204104
   81       -3.102122   0.148834
   82       -2.695033   0.000044
   83       -2.694335   0.000043
   84       -2.627171   0.000005
   85       -2.483543   0.000000
   86       -2.438926   0.000000
   87       -2.217247   0.000000
   88       -2.144442   0.000000
   89       -2.126484   0.000000
   90       -1.979300   0.000000
   91       -1.957892   0.000000
   92       -1.637531   0.000000
   93       -1.388527   0.000000
   94       -1.303788   0.000000
   95       -1.263378   0.000000
   96       -0.979125   0.000000
   97       -0.923586   0.000000
   98       -0.823749   0.000000
   99       -0.807332   0.000000
  100       -0.707068   0.000000
  101       -0.698290   0.000000
  102       -0.638507   0.000000
  103       -0.377677   0.000000
  104       -0.326677   0.000000
  105       -0.165897   0.000000
  106       -0.080443   0.000000
  107       -0.052695   0.000000
  108        0.069346   0.000000
  109        0.127667   0.000000
  110        0.230896   0.000000
  111        0.303451   0.000000
  112        0.376700   0.000000
  113        0.645596   0.000000
  114        0.901586   0.000000
  115        0.956672   0.000000
  116        1.196553   0.000000
  117        1.210153   0.000000
  118        1.703490   0.000000
  119        1.891322   0.000000
  120        2.218539   0.000000
 
  0.2500000E+00  0.5551115E-16  0.0000000E+00  0.3125000E-01
    1      -17.733814   1.000000
    2      -17.009401   1.000000
    3      -16.718176   1.000000
    4      -16.682052   1.000000
    5      -16.602225   1.000000
    6      -16.402173   1.000000
    7      -16.285081   1.000000
    8      -16.275804   1.000000
    9      -16.150392   1.000000
   10      -16.140972   1.000000
   11      -15.949205   1.000000
   12      -15.911136   1.000000
   13      -15.854059   1.000000
   14      -15.715553   1.000000
   15      -15.618137   1.000000
   16      -15.543067   1.000000
   17      -15.266935   1.000000
   18      -15.152514   1.000000
   19       -9.590705   1.000000
   20       -9.217019   1.000000
   21       -9.161299   1.000000
   22       -9.070769   1.000000
   23       -8.856257   1.000000
   24       -8.852750   1.000000
   25       -8.657204   1.000000
   26       -8.476316   1.000000
   27       -8.461152   1.000000
   28       -8.356011   1.000000
   29       -8.338106   1.000000
   30       -8.203604   1.000000
   31       -8.200679   1.000000
   32       -8.132756   1.000000
   33       -7.900171   1.000000
   34       -7.839604   1.000000
   35       -7.813128   1.000000
   36       -7.671555   1.000000
   37       -7.597339   1.000000
   38       -7.538403   1.000000
   39       -7.447613   1.000000
   40       -7.378368   1.000000
   41       -7.282006   1.000000
   42       -7.254052   1.000000
   43       -7.119655   1.000000
   44       -7.045494   1.000000
   45       -6.832353   1.000000
   46       -6.772747   1.000000
   47       -6.733397   1.000000
   48       -6.615694   1.000000
   49       -6.523092   1.000000
   50       -6.467038   1.000000
   51       -6.373077   1.000000
   52       -6.315262   1.000000
   53       -6.253412   1.000000
   54       -6.239688   1.000000
   55       -6.102417   1.000000
   56       -6.082119   1.000000
   57       -6.048968   1.000000
   58       -5.830807   1.000000
   59       -5.749184   1.000000
   60       -5.724881   1.000000
   61       -5.640271   1.000000
   62       -5.613607   1.000000
   63       -5.466541   1.000000
   64       -5.350196   1.000000
   65       -5.287600   1.000000
   66       -4.951844   1.000000
   67       -4.789061   1.000000
   68       -4.780353   1.000000
   69       -4.692071   1.000000
   70       -4.522820   1.000000
   71       -4.522212   1.000000
   72       -4.428315   1.000000
   73       -4.385410   1.000000
   74       -4.381993   1.000000
   75       -4.254055   1.000000
   76       -4.193411   1.000000
   77       -3.840606   0.999985
   78       -3.756701   0.999833
   79       -3.590493   0.992064
   80       -3.084680   0.122054
   81       -3.034563   0.064361
   82       -2.671515   0.000022
   83       -2.652075   0.000012
   84       -2.568420   0.000001
   85       -2.448267   0.000000
   86       -2.407260   0.000000
   87       -2.178115   0.000000
   88       -2.067590   0.000000
   89       -2.052871   0.000000
   90       -1.962783   0.000000
   91       -1.887637   0.000000
   92       -1.624388   0.000000
   93       -1.408609   0.000000
   94       -1.337668   0.000000
   95       -1.314692   0.000000
   96       -1.036298   0.000000
   97       -0.950812   0.000000
   98       -0.875116   0.000000
   99       -0.836771   0.000000
  100       -0.793693   0.000000
  101       -0.759236   0.000000
  102       -0.753558   0.000000
  103       -0.569849   0.000000
  104       -0.560381   0.000000
  105       -0.217030   0.000000
  106       -0.175397   0.000000
  107       -0.144676   0.000000
  108        0.100977   0.000000
  109        0.110946   0.000000
  110        0.298914   0.000000
  111        0.373296   0.000000
  112        0.586445   0.000000
  113        0.788120   0.000000
  114        0.922547   0.000000
  115        0.973587   0.000000
  116        1.113705   0.000000
  117        1.128932   0.000000
  118        1.823526   0.000000
  119        2.010249   0.000000
  120        2.321870   0.000000
 
  0.3750000E+00  0.0000000E+00  0.0000000E+00  0.3125000E-01
    1      -17.613880   1.000000
    2      -17.227965   1.000000
    3      -16.731187   1.000000
    4      -16.716510   1.000000
    5      -16.609751   1.000000
    6      -16.417470   1.000000
    7      -16.275645   1.000000
    8      -16.248691   1.000000
    9      -16.133301   1.000000
   10      -16.088864   1.000000
   11      -15.889743   1.000000
   12      -15.874612   1.000000
   13      -15.799643   1.000000
   14      -15.695400   1.000000
   15      -15.667389   1.000000
   16      -15.552223   1.000000
   17      -15.274981   1.000000
   18      -15.164447   1.000000
   19       -9.804051   1.000000
   20       -9.285381   1.000000
   21       -9.248087   1.000000
   22       -9.068528   1.000000
   23       -8.918119   1.000000
   24       -8.880518   1.000000
   25       -8.563366   1.000000
   26       -8.472889   1.000000
   27       -8.442205   1.000000
   28       -8.334231   1.000000
   29       -8.275563   1.000000
   30       -8.217987   1.000000
   31       -8.150852   1.000000
   32       -8.117607   1.000000
   33       -7.914838   1.000000
   34       -7.837541   1.000000
   35       -7.757733   1.000000
   36       -7.676381   1.000000
   37       -7.532813   1.000000
   38       -7.500465   1.000000
   39       -7.340875   1.000000
   40       -7.250121   1.000000
   41       -7.249875   1.000000
   42       -7.191867   1.000000
   43       -7.073034   1.000000
   44       -7.031764   1.000000
   45       -6.791619   1.000000
   46       -6.746925   1.000000
   47       -6.720354   1.000000
   48       -6.616679   1.000000
   49       -6.514590   1.000000
   50       -6.458398   1.000000
   51       -6.359027   1.000000
   52       -6.331405   1.000000
   53       -6.235453   1.000000
   54       -6.229686   1.000000
   55       -6.125879   1.000000
   56       -6.073194   1.000000
   57       -6.057081   1.000000
   58       -5.897059   1.000000
   59       -5.871035   1.000000
   60       -5.754242   1.000000
   61       -5.686655   1.000000
   62       -5.639596   1.000000
   63       -5.518574   1.000000
   64       -5.473670   1.000000
   65       -5.324693   1.000000
   66       -5.004147   1.000000
   67       -4.807852   1.000000
   68       -4.791268   1.000000
   69       -4.699997   1.000000
   70       -4.651181   1.000000
   71       -4.484057   1.000000
   72       -4.403331   1.000000
   73       -4.376589   1.000000
   74       -4.314184   1.000000
   75       -4.209827   1.000000
   76       -4.133785   1.000000
   77       -3.955306   1.000000
   78       -3.727269   0.999636
   79       -3.577626   0.989853
   80       -3.063805   0.094694
   81       -2.982956   0.029777
   82       -2.675018   0.000024
   83       -2.640704   0.000008
   84       -2.524071   0.000000
   85       -2.406465   0.000000
   86       -2.329830   0.000000
   87       -2.115399   0.000000
   88       -2.006702   0.000000
   89       -1.967345   0.000000
   90       -1.905805   0.000000
   91       -1.748781   0.000000
   92       -1.627355   0.000000
   93       -1.482686   0.000000
   94       -1.454472   0.000000
   95       -1.352306   0.000000
   96       -1.133704   0.000000
   97       -1.004959   0.000000
   98       -0.991500   0.000000
   99       -0.922699   0.000000
  100       -0.871717   0.000000
  101       -0.815145   0.000000
  102       -0.753047   0.000000
  103       -0.655914   0.000000
  104       -0.630940   0.000000
  105       -0.294722   0.000000
  106       -0.247335   0.000000
  107       -0.193386   0.000000
  108        0.061683   0.000000
  109        0.066684   0.000000
  110        0.335418   0.000000
  111        0.404499   0.000000
  112        0.714129   0.000000
  113        0.810546   0.000000
  114        0.898896   0.000000
  115        0.978323   0.000000
  116        1.135374   0.000000
  117        1.164378   0.000000
  118        2.003382   0.000000
  119        2.191133   0.000000
  120        2.390031   0.000000
 
  0.5000000E+00  0.1110223E-15  0.0000000E+00  0.1562500E-01
    1      -17.495515   1.000000
    2      -17.381164   1.000000
    3      -16.737514   1.000000
    4      -16.728955   1.000000
    5      -16.609032   1.000000
    6      -16.424558   1.000000
    7      -16.275096   1.000000
    8      -16.245833   1.000000
    9      -16.124496   1.000000
   10      -16.057076   1.000000
   11      -15.881330   1.000000
   12      -15.831844   1.000000
   13      -15.788565   1.000000
   14      -15.709244   1.000000
   15      -15.691693   1.000000
   16      -15.538392   1.000000
   17      -15.278743   1.000000
   18      -15.170467   1.000000
   19       -9.880133   1.000000
   20       -9.328382   1.000000
   21       -9.285032   1.000000
   22       -9.027306   1.000000
   23       -8.942851   1.000000
   24       -8.881365   1.000000
   25       -8.540955   1.000000
   26       -8.468900   1.000000
   27       -8.427789   1.000000
   28       -8.331269   1.000000
   29       -8.248686   1.000000
   30       -8.236420   1.000000
   31       -8.116118   1.000000
   32       -8.096089   1.000000
   33       -7.953803   1.000000
   34       -7.887105   1.000000
   35       -7.810476   1.000000
   36       -7.718555   1.000000
   37       -7.482778   1.000000
   38       -7.364392   1.000000
   39       -7.335885   1.000000
   40       -7.232039   1.000000
   41       -7.128201   1.000000
   42       -7.122656   1.000000
   43       -7.063671   1.000000
   44       -7.054130   1.000000
   45       -6.797114   1.000000
   46       -6.760894   1.000000
   47       -6.661355   1.000000
   48       -6.573390   1.000000
   49       -6.560722   1.000000
   50       -6.456506   1.000000
   51       -6.327134   1.000000
   52       -6.305563   1.000000
   53       -6.246388   1.000000
   54       -6.237567   1.000000
   55       -6.162554   1.000000
   56       -6.143655   1.000000
   57       -6.088742   1.000000
   58       -5.906102   1.000000
   59       -5.883580   1.000000
   60       -5.808346   1.000000
   61       -5.716667   1.000000
   62       -5.571332   1.000000
   63       -5.534737   1.000000
   64       -5.411839   1.000000
   65       -5.262077   1.000000
   66       -5.247650   1.000000
   67       -4.905747   1.000000
   68       -4.793132   1.000000
   69       -4.719879   1.000000
   70       -4.635895   1.000000
   71       -4.468427   1.000000
   72       -4.356269   1.000000
   73       -4.344446   1.000000
   74       -4.321403   1.000000
   75       -4.205065   1.000000
   76       -4.094081   1.000000
   77       -3.990905   1.000000
   78       -3.711764   0.999461
   79       -3.559609   0.985863
   80       -3.060739   0.091090
   81       -2.964263   0.021886
   82       -2.677151   0.000026
   83       -2.640478   0.000008
   84       -2.514421   0.000000
   85       -2.392928   0.000000
   86       -2.283099   0.000000
   87       -2.072048   0.000000
   88       -1.995740   0.000000
   89       -1.938683   0.000000
   90       -1.822414   0.000000
   91       -1.661536   0.000000
   92       -1.639856   0.000000
   93       -1.586035   0.000000
   94       -1.489977   0.000000
   95       -1.385973   0.000000
   96       -1.187070   0.000000
   97       -1.056841   0.000000
   98       -1.005211   0.000000
   99       -0.971200   0.000000
  100       -0.902167   0.000000
  101       -0.853853   0.000000
  102       -0.747468   0.000000
  103       -0.663775   0.000000
  104       -0.622690   0.000000
  105       -0.348791   0.000000
  106       -0.244781   0.000000
  107       -0.219977   0.000000
  108        0.030659   0.000000
  109        0.044803   0.000000
  110        0.344347   0.000000
  111        0.411924   0.000000
  112        0.734973   0.000000
  113        0.815501   0.000000
  114        0.878809   0.000000
  115        0.976041   0.000000
  116        1.169861   0.000000
  117        1.200956   0.000000
  118        2.199939   0.000000
  119        2.255121   0.000000
  120        2.374050   0.000000
 
  0.0000000E+00  0.1250000E+00  0.0000000E+00  0.3125000E-01
    1      -17.808624   1.000000
    2      -16.780048   1.000000
    3      -16.740120   1.000000
    4      -16.600522   1.000000
    5      -16.559891   1.000000
    6      -16.444623   1.000000
    7      -16.380881   1.000000
    8      -16.282659   1.000000
    9      -16.209711   1.000000
   10      -16.083127   1.000000
   11      -16.042346   1.000000
   12      -15.991913   1.000000
   13      -15.874405   1.000000
   14      -15.749692   1.000000
   15      -15.565173   1.000000
   16      -15.504375   1.000000
   17      -15.273565   1.000000
   18      -15.147050   1.000000
   19       -9.284376   1.000000
   20       -9.184368   1.000000
   21       -9.046860   1.000000
   22       -8.967818   1.000000
   23       -8.823924   1.000000
   24       -8.723247   1.000000
   25       -8.678786   1.000000
   26       -8.579625   1.000000
   27       -8.518257   1.000000
   28       -8.472900   1.000000
   29       -8.418491   1.000000
   30       -8.353653   1.000000
   31       -8.282761   1.000000
   32       -8.092207   1.000000
   33       -8.019010   1.000000
   34       -7.984333   1.000000
   35       -7.827937   1.000000
   36       -7.716944   1.000000
   37       -7.681958   1.000000
   38       -7.530538   1.000000
   39       -7.444769   1.000000
   40       -7.370724   1.000000
   41       -7.265583   1.000000
   42       -7.205709   1.000000
   43       -7.166100   1.000000
   44       -6.926055   1.000000
   45       -6.881155   1.000000
   46       -6.826123   1.000000
   47       -6.751099   1.000000
   48       -6.652756   1.000000
   49       -6.606779   1.000000
   50       -6.544967   1.000000
   51       -6.493023   1.000000
   52       -6.270791   1.000000
   53       -6.232580   1.000000
   54       -6.128731   1.000000
   55       -6.097856   1.000000
   56       -6.048508   1.000000
   57       -5.941959   1.000000
   58       -5.872190   1.000000
   59       -5.845078   1.000000
   60       -5.701050   1.000000
   61       -5.578848   1.000000
   62       -5.404481   1.000000
   63       -5.345564   1.000000
   64       -5.129428   1.000000
   65       -5.067197   1.000000
   66       -4.984160   1.000000
   67       -4.966910   1.000000
   68       -4.878895   1.000000
   69       -4.782655   1.000000
   70       -4.692558   1.000000
   71       -4.533201   1.000000
   72       -4.421059   1.000000
   73       -4.391910   1.000000
   74       -4.360991   1.000000
   75       -4.311022   1.000000
   76       -3.897642   0.999998
   77       -3.806875   0.999960
   78       -3.709518   0.999430
   79       -3.490897   0.956145
   80       -3.396861   0.851449
   81       -2.922518   0.010404
   82       -2.795032   0.000657
   83       -2.718795   0.000088
   84       -2.642899   0.000009
   85       -2.506068   0.000000
   86       -2.457557   0.000000
   87       -2.218186   0.000000
   88       -2.127582   0.000000
   89       -2.081387   0.000000
   90       -1.986565   0.000000
   91       -1.933119   0.000000
   92       -1.650594   0.000000
   93       -1.390323   0.000000
   94       -1.311217   0.000000
   95       -1.231653   0.000000
   96       -0.975695   0.000000
   97       -0.915177   0.000000
   98       -0.837259   0.000000
   99       -0.807955   0.000000
  100       -0.705687   0.000000
  101       -0.667409   0.000000
  102       -0.603711   0.000000
  103       -0.345560   0.000000
  104       -0.292856   0.000000
  105       -0.215291   0.000000
  106       -0.124631   0.000000
  107       -0.027304   0.000000
  108       -0.002758   0.000000
  109        0.097867   0.000000
  110        0.191719   0.000000
  111        0.258093   0.000000
  112        0.451274   0.000000
  113        0.623804   0.000000
  114        0.762926   0.000000
  115        1.051481   0.000000
  116        1.235295   0.000000
  117        1.314471   0.000000
  118        1.705520   0.000000
  119        1.888748   0.000000
  120        2.219133   0.000000
 
  0.1250000E+00  0.1250000E+00  0.0000000E+00  0.3125000E-01
    1      -17.758454   1.000000
    2      -16.911704   1.000000
    3      -16.807378   1.000000
    4      -16.655086   1.000000
    5      -16.529221   1.000000
    6      -16.400181   1.000000
    7      -16.363017   1.000000
    8      -16.263396   1.000000
    9      -16.196894   1.000000
   10      -16.066122   1.000000
   11      -16.003734   1.000000
   12      -15.943727   1.000000
   13      -15.842397   1.000000
   14      -15.729894   1.000000
   15      -15.596420   1.000000
   16      -15.521212   1.000000
   17      -15.278102   1.000000
   18      -15.151692   1.000000
   19       -9.452783   1.000000
   20       -9.301220   1.000000
   21       -9.157341   1.000000
   22       -9.029271   1.000000
   23       -8.843598   1.000000
   24       -8.767741   1.000000
   25       -8.663943   1.000000
   26       -8.507951   1.000000
   27       -8.444778   1.000000
   28       -8.407048   1.000000
   29       -8.366751   1.000000
   30       -8.293954   1.000000
   31       -8.156015   1.000000
   32       -8.121238   1.000000
   33       -7.976219   1.000000
   34       -7.888105   1.000000
   35       -7.804044   1.000000
   36       -7.685813   1.000000
   37       -7.616079   1.000000
   38       -7.543712   1.000000
   39       -7.426305   1.000000
   40       -7.374837   1.000000
   41       -7.280383   1.000000
   42       -7.211503   1.000000
   43       -7.159760   1.000000
   44       -6.996380   1.000000
   45       -6.849802   1.000000
   46       -6.806846   1.000000
   47       -6.778317   1.000000
   48       -6.646127   1.000000
   49       -6.569586   1.000000
   50       -6.440225   1.000000
   51       -6.395383   1.000000
   52       -6.343287   1.000000
   53       -6.262682   1.000000
   54       -6.196369   1.000000
   55       -6.108573   1.000000
   56       -6.044710   1.000000
   57       -5.993880   1.000000
   58       -5.850742   1.000000
   59       -5.807037   1.000000
   60       -5.642683   1.000000
   61       -5.561422   1.000000
   62       -5.531957   1.000000
   63       -5.489467   1.000000
   64       -5.259300   1.000000
   65       -5.145613   1.000000
   66       -5.081936   1.000000
   67       -4.879840   1.000000
   68       -4.872853   1.000000
   69       -4.728439   1.000000
   70       -4.606268   1.000000
   71       -4.501998   1.000000
   72       -4.389023   1.000000
   73       -4.350145   1.000000
   74       -4.290354   1.000000
   75       -4.270840   1.000000
   76       -4.089794   1.000000
   77       -3.912488   0.999999
   78       -3.701106   0.999298
   79       -3.538820   0.979645
   80       -3.282506   0.592531
   81       -2.903399   0.007210
   82       -2.774136   0.000389
   83       -2.679273   0.000028
   84       -2.591075   0.000002
   85       -2.495644   0.000000
   86       -2.438522   0.000000
   87       -2.158360   0.000000
   88       -2.088485   0.000000
   89       -2.031358   0.000000
   90       -1.970003   0.000000
   91       -1.926338   0.000000
   92       -1.633749   0.000000
   93       -1.396891   0.000000
   94       -1.332791   0.000000
   95       -1.260763   0.000000
   96       -1.000642   0.000000
   97       -0.937611   0.000000
   98       -0.853750   0.000000
   99       -0.808202   0.000000
  100       -0.772128   0.000000
  101       -0.746203   0.000000
  102       -0.722836   0.000000
  103       -0.550799   0.000000
  104       -0.440217   0.000000
  105       -0.266205   0.000000
  106       -0.156199   0.000000
  107       -0.080936   0.000000
  108        0.034306   0.000000
  109        0.112088   0.000000
  110        0.217957   0.000000
  111        0.412976   0.000000
  112        0.476805   0.000000
  113        0.763782   0.000000
  114        0.823340   0.000000
  115        1.021132   0.000000
  116        1.179354   0.000000
  117        1.239292   0.000000
  118        1.787349   0.000000
  119        1.969357   0.000000
  120        2.288572   0.000000
 
  0.2500000E+00  0.1250000E+00  0.0000000E+00  0.3125000E-01
    1      -17.660680   1.000000
    2      -17.113526   1.000000
    3      -16.880463   1.000000
    4      -16.660970   1.000000
    5      -16.522493   1.000000
    6      -16.395162   1.000000
    7      -16.283530   1.000000
    8      -16.266377   1.000000
    9      -16.174684   1.000000
   10      -16.074381   1.000000
   11      -15.969984   1.000000
   12      -15.848071   1.000000
   13      -15.815956   1.000000
   14      -15.701330   1.000000
   15      -15.647555   1.000000
   16      -15.528999   1.000000
   17      -15.285391   1.000000
   18      -15.159969   1.000000
   19       -9.702269   1.000000
   20       -9.403087   1.000000
   21       -9.213128   1.000000
   22       -9.081537   1.000000
   23       -8.885787   1.000000
   24       -8.733969   1.000000
   25       -8.571375   1.000000
   26       -8.496429   1.000000
   27       -8.418383   1.000000
   28       -8.337838   1.000000
   29       -8.290305   1.000000
   30       -8.232765   1.000000
   31       -8.186960   1.000000
   32       -8.136072   1.000000
   33       -7.961072   1.000000
   34       -7.844546   1.000000
   35       -7.762217   1.000000
   36       -7.678926   1.000000
   37       -7.571738   1.000000
   38       -7.524153   1.000000
   39       -7.398609   1.000000
   40       -7.321173   1.000000
   41       -7.203234   1.000000
   42       -7.168318   1.000000
   43       -7.139840   1.000000
   44       -6.940015   1.000000
   45       -6.846162   1.000000
   46       -6.795793   1.000000
   47       -6.733382   1.000000