       N       E                     dE             d eps       ncg     rms          rms(c)
DAV:   1     0.112375216413E+04    0.11238E+04   -0.35871E+04  8160   0.577E+02
DAV:   2     0.127088388409E+01   -0.11225E+04   -0.10777E+04 11080   0.173E+02
DAV:   3    -0.199606523028E+03   -0.20088E+03   -0.19230E+03 10920   0.823E+01
DAV:   4    -0.208988159779E+03   -0.93816E+01   -0.91203E+01 12040   0.263E+01
DAV:   5    -0.209301386035E+03   -0.31323E+00   -0.31230E+00 11160   0.370E+00    0.275E+01
DAV:   6    -0.237861282019E+03   -0.28560E+02   -0.10792E+02 12560   0.601E+01    0.595E+01
DAV:   7    -0.196568786565E+03    0.41292E+02   -0.17522E+02 13400   0.152E+02    0.200E+01
DAV:   8    -0.189470831476E+03    0.70980E+01   -0.17616E+01 12040   0.127E+01    0.125E+01
DAV:   9    -0.188126571515E+03    0.13443E+01   -0.30324E+00 13560   0.635E+00    0.911E+00
DAV:  10    -0.186935978715E+03    0.11906E+01   -0.17259E+00 13520   0.760E+00    0.215E+00
DAV:  11    -0.187024746278E+03   -0.88768E-01   -0.58884E-01 13520   0.256E+00    0.370E+00
DAV:  12    -0.186948809068E+03    0.75937E-01   -0.70148E-01 12880   0.386E+00    0.327E+00
DAV:  13    -0.186865641530E+03    0.83168E-01   -0.24548E-01 13080   0.297E+00    0.183E+00
DAV:  14    -0.186827148679E+03    0.38493E-01   -0.91444E-02 12960   0.164E+00    0.610E-01
DAV:  15    -0.186823494052E+03    0.36546E-02   -0.10848E-02 11800   0.372E-01    0.352E-01
DAV:  16    -0.186825203583E+03   -0.17095E-02   -0.11950E-02 13080   0.597E-01    0.655E-01
DAV:  17    -0.186821467823E+03    0.37358E-02   -0.86684E-03 12920   0.496E-01    0.196E-01
DAV:  18    -0.186821093143E+03    0.37468E-03   -0.13477E-03 12240   0.174E-01    0.657E-02
DAV:  19    -0.186821664858E+03   -0.57171E-03   -0.81000E-04 10720   0.821E-02    0.818E-02
DAV:  20    -0.186821972802E+03   -0.30794E-03   -0.32575E-04  8160   0.507E-02    0.570E-02
DAV:  21    -0.186823171011E+03   -0.11982E-02   -0.30745E-04  8440   0.589E-02    0.253E-02
DAV:  22    -0.186823945857E+03   -0.77485E-03   -0.77542E-05  6680   0.244E-02    0.244E-02
DAV:  23    -0.186824781958E+03   -0.83610E-03   -0.86287E-05  7480   0.233E-02    0.860E-03
DAV:  24    -0.186825392919E+03   -0.61096E-03   -0.24727E-05  6240   0.129E-02    0.600E-03
DAV:  25    -0.186825838419E+03   -0.44550E-03   -0.17306E-05  6080   0.115E-02    0.320E-03
DAV:  26    -0.186826012648E+03   -0.17423E-03   -0.69206E-06  6960   0.641E-03    0.181E-03
DAV:  27    -0.186826116577E+03   -0.10393E-03   -0.38861E-06  6640   0.409E-03    0.130E-03
DAV:  28    -0.186826167994E+03   -0.51418E-04   -0.21947E-06  7120   0.289E-03
   1 F= -.18682617E+03 E0= -.18665559E+03  d E =-.186826E+03
       N       E                     dE             d eps       ncg     rms          rms(c)
DAV:   1    -0.187491789301E+03   -0.66567E+00   -0.27406E+02  8160   0.351E+01    0.461E+00
DAV:   2    -0.189351208777E+03   -0.18594E+01   -0.20007E+01 12280   0.151E+01    0.845E+00
DAV:   3    -0.189347681237E+03    0.35275E-02   -0.35686E+00 12480   0.119E+01    0.660E+00
DAV:   4    -0.188742910154E+03    0.60477E+00   -0.63171E-01 12760   0.472E+00    0.170E+00
DAV:   5    -0.188726205792E+03    0.16704E-01   -0.28808E-01 10480   0.144E+00    0.194E+00
DAV:   6    -0.188692705408E+03    0.33500E-01   -0.26307E-01 12200   0.181E+00    0.175E+00
DAV:   7    -0.188700728873E+03   -0.80235E-02   -0.18874E-01 12960   0.237E+00    0.220E+00
DAV:   8    -0.188657972661E+03    0.42756E-01   -0.65356E-02 13280   0.149E+00    0.361E-01
DAV:   9    -0.188656467294E+03    0.15054E-02   -0.65138E-03 10640   0.297E-01    0.248E-01
DAV:  10    -0.188657312655E+03   -0.84536E-03   -0.49885E-03 13400   0.386E-01    0.444E-01
DAV:  11    -0.188655912066E+03    0.14006E-02   -0.41555E-03 12960   0.349E-01    0.147E-01
DAV:  12    -0.188655849963E+03    0.62103E-04   -0.82887E-04 11800   0.102E-01
   2 F= -.18865585E+03 E0= -.18851778E+03  d E =-.182968E+01
       N       E                     dE             d eps       ncg     rms          rms(c)
DAV:   1    -0.190583835685E+03   -0.19279E+01   -0.31275E+01  9240   0.142E+01    0.444E+00
DAV:   2    -0.190519549792E+03    0.64286E-01   -0.27400E+00 11640   0.937E+00    0.711E+00
DAV:   3    -0.190071430317E+03    0.44812E+00   -0.12939E+00 12440   0.859E+00    0.426E+00
DAV:   4    -0.189855929658E+03    0.21550E+00   -0.67494E-01 12960   0.431E+00    0.247E+00
DAV:   5    -0.189765902334E+03    0.90027E-01   -0.28762E-01 11520   0.197E+00    0.934E-01
DAV:   6    -0.189755364411E+03    0.10538E-01   -0.48878E-02 11960   0.113E+00    0.719E-01
DAV:   7    -0.189751727429E+03    0.36370E-02   -0.12772E-02 12320   0.649E-01    0.251E-01
DAV:   8    -0.189751288437E+03    0.43899E-03   -0.19403E-03 11640   0.171E-01    0.122E-01
DAV:   9    -0.189752200699E+03   -0.91226E-03   -0.15931E-03 10840   0.234E-01    0.290E-01
DAV:  10    -0.189751534519E+03    0.66618E-03   -0.14709E-03 10680   0.248E-01    0.818E-02
DAV:  11    -0.189751492436E+03    0.42082E-04   -0.19604E-04  6600   0.677E-02
   3 F= -.18975149E+03 E0= -.18963572E+03  d E =-.109564E+01
       N       E                     dE             d eps       ncg     rms          rms(c)
DAV:   1    -0.191343614357E+03   -0.15921E+01   -0.77984E+01  8160   0.201E+01    0.458E+00
DAV:   2    -0.191129041663E+03    0.21457E+00   -0.53327E+00 13400   0.729E+00    0.415E+00
DAV:   3    -0.191324470701E+03   -0.19543E+00   -0.14783E+00 12240   0.896E+00    0.678E+00
DAV:   4    -0.190907727068E+03    0.41674E+00   -0.13027E+00 13000   0.788E+00    0.276E+00
DAV:   5    -0.190807242348E+03    0.10048E+00   -0.30117E-01 11000   0.253E+00    0.160E+00
DAV:   6    -0.190796255677E+03    0.10987E-01   -0.13763E-01 12720   0.249E+00    0.155E+00
DAV:   7    -0.190776572541E+03    0.19683E-01   -0.50702E-02 12080   0.148E+00    0.491E-01
DAV:   8    -0.190772469659E+03    0.41029E-02   -0.70031E-03 10200   0.370E-01    0.152E-01
DAV:   9    -0.190772905938E+03   -0.43628E-03   -0.19052E-03 10680   0.137E-01    0.139E-01
DAV:  10    -0.190772626128E+03    0.27981E-03   -0.93973E-04 10640   0.112E-01    0.468E-02
DAV:  11    -0.190772637990E+03   -0.11862E-04   -0.11282E-04  7240   0.473E-02
   4 F= -.19077264E+03 E0= -.19067624E+03  d E =-.102115E+01
       N       E                     dE             d eps       ncg     rms          rms(c)
DAV:   1    -0.192226929803E+03   -0.14543E+01   -0.18693E+02  8160   0.303E+01    0.571E+00
DAV:   2    -0.191947074570E+03    0.27986E+00   -0.97245E+00 10160   0.759E+00    0.311E+00
DAV:   3    -0.191762724395E+03    0.18435E+00   -0.12576E+00 10880   0.402E+00    0.260E+00
DAV:   4    -0.191812476911E+03   -0.49753E-01   -0.62533E-01 11920   0.538E+00    0.470E+00
DAV:   5    -0.191625637122E+03    0.18684E+00   -0.64907E-01 12120   0.570E+00    0.184E+00
DAV:   6    -0.191604259022E+03    0.21378E-01   -0.14551E-01 12320   0.250E+00    0.145E+00
DAV:   7    -0.191586902473E+03    0.17357E-01   -0.64463E-02 12400   0.194E+00    0.714E-01
DAV:   8    -0.191580115266E+03    0.67872E-02   -0.14238E-02 12400   0.778E-01    0.276E-01
DAV:   9    -0.191580415428E+03   -0.30016E-03   -0.42036E-03 12320   0.459E-01    0.304E-01
DAV:  10    -0.191579695615E+03    0.71981E-03   -0.22343E-03 11520   0.294E-01    0.551E-02
DAV:  11    -0.191579719542E+03   -0.23927E-04   -0.15978E-04  6880   0.546E-02
   5 F= -.19157972E+03 E0= -.19149354E+03  d E =-.807082E+00
       N       E                     dE             d eps       ncg     rms          rms(c)
DAV:   1    -0.191689825467E+03   -0.11013E+00   -0.91318E+00  8160   0.639E+00    0.765E-01
DAV:   2    -0.191760594698E+03   -0.70769E-01   -0.39203E-01 13000   0.327E+00    0.216E+00
DAV:   3    -0.191708838407E+03    0.51756E-01   -0.10324E-01 12560   0.247E+00    0.423E-01
DAV:   4    -0.191709620856E+03   -0.78245E-03   -0.11131E-02 11560   0.720E-01    0.638E-01
DAV:   5    -0.191706147230E+03    0.34736E-02   -0.87928E-03 11720   0.715E-01    0.271E-01
DAV:   6    -0.191705644951E+03    0.50228E-03   -0.32600E-03 11520   0.269E-01    0.108E-01
DAV:   7    -0.191705367105E+03    0.27785E-03   -0.73655E-04 11120   0.112E-01    0.420E-02
DAV:   8    -0.191705435114E+03   -0.68010E-04   -0.22736E-04  6960   0.103E-01
   6 F= -.19170544E+03 E0= -.19162016E+03  d E =-.125716E+00
       N       E                     dE             d eps       ncg     rms          rms(c)
DAV:   1    -0.191834322514E+03   -0.12896E+00   -0.17224E+01  8160   0.875E+00    0.885E-01
DAV:   2    -0.191902779565E+03   -0.68457E-01   -0.51738E-01 12440   0.305E+00    0.191E+00
DAV:   3    -0.191864885851E+03    0.37894E-01   -0.11215E-01 12520   0.253E+00    0.704E-01
DAV:   4    -0.191863706407E+03    0.11794E-02   -0.19481E-02 12200   0.991E-01    0.777E-01
DAV:   5    -0.191858402910E+03    0.53035E-02   -0.13866E-02 12440   0.928E-01    0.357E-01
DAV:   6    -0.191857799577E+03    0.60333E-03   -0.55212E-03 12480   0.369E-01    0.188E-01
DAV:   7    -0.191857337613E+03    0.46196E-03   -0.22296E-03 11600   0.272E-01    0.171E-01
DAV:   8    -0.191857102800E+03    0.23481E-03   -0.79931E-04  9240   0.208E-01    0.720E-02
DAV:   9    -0.191857050907E+03    0.51893E-04   -0.15093E-04  6280   0.749E-02
   7 F= -.19185705E+03 E0= -.19177539E+03  d E =-.151616E+00
       N       E                     dE             d eps       ncg     rms          rms(c)
DAV:   1    -0.191979155965E+03   -0.12205E+00   -0.27132E+01  8160   0.111E+01    0.114E+00
DAV:   2    -0.192068491944E+03   -0.89336E-01   -0.90912E-01 12520   0.362E+00    0.185E+00
DAV:   3    -0.192040847695E+03    0.27644E-01   -0.13419E-01 12280   0.284E+00    0.103E+00
DAV:   4    -0.192029364330E+03    0.11483E-01   -0.31077E-02 11280   0.128E+00    0.786E-01
DAV:   5    -0.192026876818E+03    0.24875E-02   -0.23480E-02 12440   0.119E+00    0.664E-01
DAV:   6    -0.192023720118E+03    0.31567E-02   -0.14608E-02 12600   0.725E-01    0.275E-01
DAV:   7    -0.192021941248E+03    0.17789E-02   -0.37338E-03 10640   0.238E-01    0.587E-02
DAV:   8    -0.192021918545E+03    0.22704E-04   -0.42135E-04 10040   0.613E-02
   8 F= -.19202192E+03 E0= -.19194174E+03  d E =-.164868E+00
       N       E                     dE             d eps       ncg     rms          rms(c)
DAV:   1    -0.192090912934E+03   -0.68972E-01   -0.13419E+01  8160   0.777E+00    0.815E-01
DAV:   2    -0.192129252972E+03   -0.38340E-01   -0.51135E-01 12000   0.193E+00    0.649E-01
DAV:   3    -0.192137711733E+03   -0.84588E-02   -0.52921E-02 12200   0.163E+00    0.120E+00
DAV:   4    -0.192123963776E+03    0.13748E-01   -0.28964E-02 12200   0.134E+00    0.459E-01
DAV:   5    -0.192122736919E+03    0.12269E-02   -0.88090E-03 12000   0.672E-01    0.398E-01
DAV:   6    -0.192122608652E+03    0.12827E-03   -0.70544E-03 12240   0.656E-01    0.340E-01
DAV:   7    -0.192121227844E+03    0.13808E-02   -0.35375E-03 11600   0.401E-01    0.171E-01
DAV:   8    -0.192120960816E+03    0.26703E-03   -0.70519E-04  9160   0.209E-01    0.614E-02
DAV:   9    -0.192120917277E+03    0.43539E-04   -0.13430E-04  6680   0.683E-02
   9 F= -.19212092E+03 E0= -.19204016E+03  d E =-.989987E-01
       N       E                     dE             d eps       ncg     rms          rms(c)
DAV:   1    -0.192168156857E+03   -0.47196E-01   -0.10201E+01  8160   0.683E+00    0.774E-01
DAV:   2    -0.192196441876E+03   -0.28285E-01   -0.39512E-01 11720   0.176E+00    0.793E-01
DAV:   3    -0.192205355704E+03   -0.89138E-02   -0.60229E-02 12240   0.181E+00    0.133E+00
DAV:   4    -0.192187803503E+03    0.17552E-01   -0.29664E-02 12320   0.131E+00    0.326E-01
DAV:   5    -0.192186606060E+03    0.11974E-02   -0.69710E-03 11000   0.424E-01    0.246E-01
DAV:   6    -0.192187152013E+03   -0.54595E-03   -0.50991E-03 12120   0.546E-01    0.337E-01
DAV:   7    -0.192185708250E+03    0.14438E-02   -0.24322E-03 12080   0.400E-01    0.696E-02
DAV:   8    -0.192185706175E+03    0.20754E-05   -0.29451E-04  8080   0.115E-01
  10 F= -.19218571E+03 E0= -.19210304E+03  d E =-.647889E-01
       N       E                     dE             d eps       ncg     rms          rms(c)
DAV:   1    -0.192213380406E+03   -0.27672E-01   -0.64141E+00  8160   0.536E+00    0.656E-01
DAV:   2    -0.192247313381E+03   -0.33933E-01   -0.28753E-01 12400   0.205E+00    0.123E+00
DAV:   3    -0.192232023965E+03    0.15289E-01   -0.50954E-02 11240   0.176E+00    0.632E-01
DAV:   4    -0.192230135213E+03    0.18888E-02   -0.13572E-02 12520   0.865E-01    0.514E-01
DAV:   5    -0.192227598625E+03    0.25366E-02   -0.69785E-03 11960   0.701E-01    0.263E-01
DAV:   6    -0.192227151066E+03    0.44756E-03   -0.29225E-03 12200   0.311E-01    0.141E-01
DAV:   7    -0.192226778178E+03    0.37289E-03   -0.12529E-03 10400   0.134E-01    0.414E-02
DAV:   8    -0.192226803877E+03   -0.25699E-04   -0.15948E-04  8400   0.948E-02
  11 F= -.19222680E+03 E0= -.19214404E+03  d E =-.410977E-01
       N       E                     dE             d eps       ncg     rms          rms(c)
DAV:   1    -0.192240807185E+03   -0.14029E-01   -0.88994E-01  8160   0.202E+00    0.287E-01
DAV:   2    -0.192246710109E+03   -0.59029E-02   -0.44235E-02 11720   0.876E-01    0.607E-01
DAV:   3    -0.192243004606E+03    0.37055E-02   -0.10998E-02 11600   0.817E-01    0.275E-01
DAV:   4    -0.192242584660E+03    0.41995E-03   -0.23062E-03 12040   0.358E-01    0.203E-01
DAV:   5    -0.192242196913E+03    0.38775E-03   -0.12153E-03 11160   0.299E-01    0.114E-01
DAV:   6    -0.192242086319E+03    0.11059E-03   -0.47562E-04 10120   0.130E-01    0.508E-02
DAV:   7    -0.192242047861E+03    0.38458E-04   -0.17643E-04  6800   0.587E-02
  12 F= -.19224205E+03 E0= -.19216018E+03  d E =-.152440E-01
       N       E                     dE             d eps       ncg     rms          rms(c)
DAV:   1    -0.192251717384E+03   -0.96311E-02   -0.40215E-01  8160   0.136E+00    0.216E-01
DAV:   2    -0.192255617878E+03   -0.39005E-02   -0.22965E-02 10720   0.824E-01    0.534E-01
DAV:   3    -0.192252284492E+03    0.33334E-02   -0.61494E-03 12160   0.636E-01    0.135E-01
DAV:   4    -0.192252471380E+03   -0.18689E-03   -0.12290E-03 10200   0.272E-01    0.193E-01
DAV:   5    -0.192252115269E+03    0.35611E-03   -0.89007E-04 10320   0.258E-01    0.922E-02
DAV:   6    -0.192252041552E+03    0.73718E-04   -0.32042E-04  8400   0.100E-01
  13 F= -.19225204E+03 E0= -.19217123E+03  d E =-.999369E-02
       N       E                     dE             d eps       ncg     rms          rms(c)
DAV:   1    -0.192265340410E+03   -0.13225E-01   -0.93799E-01  8160   0.207E+00    0.290E-01
DAV:   2    -0.192271601917E+03   -0.62615E-02   -0.42435E-02 11520   0.930E-01    0.636E-01
DAV:   3    -0.192267073048E+03    0.45289E-02   -0.10604E-02 12280   0.825E-01    0.223E-01
DAV:   4    -0.192267133458E+03   -0.60409E-04   -0.21909E-03 11600   0.361E-01    0.238E-01
DAV:   5    -0.192266534960E+03    0.59850E-03   -0.13602E-03 10720   0.321E-01    0.103E-01
DAV:   6    -0.192266480962E+03    0.53998E-04   -0.48603E-04 10080   0.119E-01
  14 F= -.19226648E+03 E0= -.19218716E+03  d E =-.144394E-01
       N       E                     dE             d eps       ncg     rms          rms(c)
DAV:   1    -0.192285967809E+03   -0.19433E-01   -0.29574E+00  8160   0.366E+00    0.521E-01
DAV:   2    -0.192305353932E+03   -0.19386E-01   -0.13707E-01 11400   0.174E+00    0.109E+00
DAV:   3    -0.192291398474E+03    0.13955E-01   -0.29098E-02 12000   0.141E+00    0.348E-01
DAV:   4    -0.192291517712E+03   -0.11924E-03   -0.62531E-03 12560   0.600E-01    0.403E-01
DAV:   5    -0.192289954818E+03    0.15629E-02   -0.42200E-03 11760   0.570E-01    0.205E-01
DAV:   6    -0.192289682616E+03    0.27220E-03   -0.18141E-03 12280   0.236E-01    0.100E-01
DAV:   7    -0.192289455585E+03    0.22703E-03   -0.60422E-04 10840   0.102E-01    0.362E-02
DAV:   8    -0.192289464795E+03   -0.92094E-05   -0.77207E-05  7920   0.739E-02
  15 F= -.19228946E+03 E0= -.19221341E+03  d E =-.229838E-01
       N       E                     dE             d eps       ncg     rms          rms(c)
DAV:   1    -0.192295961618E+03   -0.65060E-02   -0.17695E+01  8160   0.900E+00    0.112E+00
DAV:   2    -0.192367617045E+03   -0.71655E-01   -0.71554E-01 12120   0.303E+00    0.170E+00
DAV:   3    -0.192339383601E+03    0.28233E-01   -0.10527E-01 12240   0.273E+00    0.968E-01
DAV:   4    -0.192329135992E+03    0.10248E-01   -0.28055E-02 11480   0.125E+00    0.564E-01
DAV:   5    -0.192328235052E+03    0.90094E-03   -0.15280E-02 12760   0.107E+00    0.566E-01
DAV:   6    -0.192325580235E+03    0.26548E-02   -0.10197E-02 12760   0.741E-01    0.259E-01
DAV:   7    -0.192324135518E+03    0.14447E-02   -0.31312E-03 11800   0.255E-01    0.483E-02
DAV:   8    -0.192324125248E+03    0.10270E-04   -0.36118E-04 10640   0.583E-02
  16 F= -.19232413E+03 E0= -.19225485E+03  d E =-.346605E-01
       N       E                     dE             d eps       ncg     rms          rms(c)
DAV:   1    -0.192321393376E+03    0.27421E-02   -0.89095E-01  8160   0.203E+00    0.273E-01
DAV:   2    -0.192326175451E+03   -0.47821E-02   -0.31747E-02 11280   0.850E-01    0.574E-01
DAV:   3    -0.192322468442E+03    0.37070E-02   -0.87022E-03 11840   0.784E-01    0.203E-01
DAV:   4    -0.192322372180E+03    0.96262E-04   -0.17205E-03 11920   0.311E-01    0.198E-01
DAV:   5    -0.192321987898E+03    0.38428E-03   -0.11808E-03 10560   0.302E-01    0.115E-01
DAV:   6    -0.192321873409E+03    0.11449E-03   -0.50837E-04 10000   0.139E-01    0.523E-02
DAV:   7    -0.192321819425E+03    0.53984E-04   -0.13701E-04  7320   0.550E-02
  17 F= -.19232182E+03 E0= -.19225139E+03  d E =0.230582E-02
       N       E                     dE             d eps       ncg     rms          rms(c)
DAV:   1    -0.192324828075E+03   -0.29547E-02   -0.27174E-01  8160   0.110E+00    0.133E-01
DAV:   2    -0.192325989737E+03   -0.11617E-02   -0.11311E-02 10480   0.391E-01    0.214E-01
DAV:   3    -0.192325556357E+03    0.43338E-03   -0.15437E-03 13040   0.342E-01    0.119E-01
DAV:   4    -0.192325407784E+03    0.14857E-03   -0.33705E-04  8800   0.152E-01    0.720E-02
DAV:   5    -0.192325387662E+03    0.20122E-04   -0.21629E-04  8320   0.131E-01
  18 F= -.19232539E+03 E0= -.19225584E+03  d E =-.356824E-02
       N       E                     dE             d eps       ncg     rms          rms(c)
DAV:   1    -0.192326638810E+03   -0.12310E-02   -0.47192E-02  8160   0.465E-01    0.667E-02
DAV:   2    -0.192326829438E+03   -0.19063E-03   -0.24542E-03 11160   0.165E-01    0.805E-02
DAV:   3    -0.192326788309E+03    0.41129E-04   -0.32983E-04  9640   0.148E-01
  19 F= -.19232679E+03 E0= -.19225746E+03  d E =-.140065E-02
       N       E                     dE             d eps       ncg     rms          rms(c)
DAV:   1    -0.192328538111E+03   -0.17087E-02   -0.11643E-01  8160   0.727E-01    0.954E-02
DAV:   2    -0.192328915132E+03   -0.37702E-03   -0.50269E-03 11320   0.221E-01    0.106E-01
DAV:   3    -0.192328907842E+03    0.72904E-05   -0.62006E-04 11440   0.214E-01
  20 F= -.19232891E+03 E0= -.19225996E+03  d E =-.211953E-02
       N       E                     dE             d eps       ncg     rms          rms(c)
DAV:   1    -0.192329966625E+03   -0.10515E-02   -0.52994E-02  8160   0.502E-01    0.823E-02
DAV:   2    -0.192330145007E+03   -0.17838E-03   -0.23165E-03 12360   0.178E-01    0.110E-01
DAV:   3    -0.192330047785E+03    0.97222E-04   -0.47519E-04 10240   0.187E-01
  21 F= -.19233005E+03 E0= -.19226131E+03  d E =-.113994E-02
       N       E                     dE             d eps       ncg     rms          rms(c)
DAV:   1    -0.192331699642E+03   -0.15546E-02   -0.18337E-01  8160   0.908E-01    0.123E-01
DAV:   2    -0.192332381301E+03   -0.68166E-03   -0.86094E-03 11360   0.305E-01    0.142E-01
DAV:   3    -0.192332292481E+03    0.88821E-04   -0.10748E-03 11920   0.271E-01    0.129E-01
DAV:   4    -0.192332072300E+03    0.22018E-03   -0.30925E-04  8880   0.156E-01    0.410E-02
DAV:   5    -0.192332067163E+03    0.51376E-05   -0.13510E-04  6600   0.535E-02
  22 F= -.19233207E+03 E0= -.19226381E+03  d E =-.201938E-02
       N       E                     dE             d eps       ncg     rms          rms(c)
DAV:   1    -0.192332586681E+03   -0.51438E-03   -0.10356E-02  8440   0.239E-01    0.651E-02
DAV:   2    -0.192333104804E+03   -0.51812E-03   -0.14443E-03 11880   0.293E-01    0.215E-01
DAV:   3    -0.192332542208E+03    0.56260E-03   -0.64058E-04  9920   0.243E-01    0.284E-02
DAV:   4    -0.192332548577E+03   -0.63691E-05   -0.39726E-05  5600   0.509E-02
  23 F= -.19233255E+03 E0= -.19226441E+03  d E =-.481415E-03
       N       E                     dE             d eps       ncg     rms          rms(c)
DAV:   1    -0.192334301109E+03   -0.17589E-02   -0.18451E-01  8160   0.940E-01    0.148E-01
DAV:   2    -0.192334698179E+03   -0.39707E-03   -0.86260E-03 11600   0.352E-01    0.182E-01
DAV:   3    -0.192334489128E+03    0.20905E-03   -0.13856E-03 11080   0.328E-01    0.135E-01
DAV:   4    -0.192334247446E+03    0.24168E-03   -0.58204E-04  9720   0.188E-01    0.740E-02
DAV:   5    -0.192334249951E+03   -0.25052E-05   -0.31799E-04  8280   0.140E-01
  24 F= -.19233425E+03 E0= -.19226706E+03  d E =-.170137E-02
       N       E                     dE             d eps       ncg     rms          rms(c)
DAV:   1    -0.192334838480E+03   -0.59103E-03   -0.40064E-02  8160   0.439E-01    0.586E-02
DAV:   2    -0.192335049351E+03   -0.21087E-03   -0.21831E-03 11480   0.146E-01    0.848E-02
DAV:   3    -0.192334988906E+03    0.60445E-04   -0.28851E-04  9640   0.146E-01
  25 F= -.19233499E+03 E0= -.19226796E+03  d E =-.738955E-03
       N       E                     dE             d eps       ncg     rms          rms(c)
DAV:   1    -0.192334904347E+03    0.14500E-03   -0.22772E-02  8160   0.343E-01    0.776E-02
DAV:   2    -0.192334887948E+03    0.16399E-04   -0.14072E-03 11480   0.162E-01    0.926E-02
DAV:   3    -0.192334817636E+03    0.70313E-04   -0.37381E-04  8560   0.169E-01
  26 F= -.19233482E+03 E0= -.19226758E+03  d E =0.171270E-03
