<?xml version="1.0" encoding="ISO-8859-1"?>
<modeling>
 <generator>
  <i name="program" type="string">vasp </i>
  <i name="version" type="string">5.4.1  </i>
  <i name="subversion" type="string">05Feb16 (build Jul 05 2020 17:13:04) complex                          parallel </i>
  <i name="platform" type="string">IFC91_ompi </i>
  <i name="date" type="string">2024 04 29 </i>
  <i name="time" type="string">16:10:24 </i>
 </generator>
 <incar>
  <i type="int" name="ISTART">     0</i>
  <i type="string" name="PREC">normal</i>
  <i type="string" name="ALGO"> Normal</i>
  <i type="int" name="ISPIN">     1</i>
  <i type="int" name="ICHARG">     2</i>
  <i type="int" name="IBRION">     1</i>
  <i type="int" name="NSW">   100</i>
  <i type="int" name="ISIF">     3</i>
  <i type="int" name="ISYM">     0</i>
  <i name="SYMPREC">      0.00000001</i>
  <i name="POTIM">      0.50000000</i>
  <i type="logical" name="LREAL"> F  </i>
  <i type="logical" name="LPLANE"> F  </i>
  <i type="int" name="ISMEAR">     0</i>
  <i type="logical" name="LWAVE"> F  </i>
  <i type="logical" name="LCHARG"> F  </i>
  <v type="int" name="KPOINT_BSE">    -1     0     0     0</v>
 </incar>
 <kpoints>
  <generation param="Gamma">
   <v type="int" name="divisions">       8        8        1 </v>
   <v name="usershift">      0.00000000       0.00000000       0.00000000 </v>
   <v name="genvec1">      0.12500000       0.00000000       0.00000000 </v>
   <v name="genvec2">     -0.00000000       0.12500000       0.00000000 </v>
   <v name="genvec3">      0.00000000       0.00000000       1.00000000 </v>
   <v name="shift">      0.00000000       0.00000000       0.00000000 </v>
  </generation>
  <varray name="kpointlist" >
   <v>       0.00000000       0.00000000       0.00000000 </v>
   <v>       0.12500000       0.00000000       0.00000000 </v>
   <v>       0.25000000       0.00000000       0.00000000 </v>
   <v>       0.37500000       0.00000000       0.00000000 </v>
   <v>       0.50000000       0.00000000       0.00000000 </v>
   <v>       0.00000000       0.12500000       0.00000000 </v>
   <v>       0.12500000       0.12500000       0.00000000 </v>
   <v>       0.25000000       0.12500000       0.00000000 </v>
   <v>       0.37500000       0.12500000       0.00000000 </v>
   <v>       0.50000000       0.12500000       0.00000000 </v>
   <v>      -0.37500000       0.12500000       0.00000000 </v>
   <v>      -0.25000000       0.12500000       0.00000000 </v>
   <v>      -0.12500000       0.12500000       0.00000000 </v>
   <v>       0.00000000       0.25000000       0.00000000 </v>
   <v>       0.12500000       0.25000000       0.00000000 </v>
   <v>       0.25000000       0.25000000       0.00000000 </v>
   <v>       0.37500000       0.25000000       0.00000000 </v>
   <v>       0.50000000       0.25000000       0.00000000 </v>
   <v>      -0.37500000       0.25000000       0.00000000 </v>
   <v>      -0.25000000       0.25000000       0.00000000 </v>
   <v>      -0.12500000       0.25000000       0.00000000 </v>
   <v>      -0.00000000       0.37500000       0.00000000 </v>
   <v>       0.12500000       0.37500000       0.00000000 </v>
   <v>       0.25000000       0.37500000       0.00000000 </v>
   <v>       0.37500000       0.37500000       0.00000000 </v>
   <v>       0.50000000       0.37500000       0.00000000 </v>
   <v>      -0.37500000       0.37500000       0.00000000 </v>
   <v>      -0.25000000       0.37500000       0.00000000 </v>
   <v>      -0.12500000       0.37500000       0.00000000 </v>
   <v>       0.00000000       0.50000000       0.00000000 </v>
   <v>       0.12500000       0.50000000       0.00000000 </v>
   <v>       0.25000000       0.50000000       0.00000000 </v>
   <v>       0.37500000       0.50000000       0.00000000 </v>
   <v>       0.50000000       0.50000000       0.00000000 </v>
  </varray>
  <varray name="weights" >
   <v>       0.01562500 </v>
   <v>       0.03125000 </v>
   <v>       0.03125000 </v>
   <v>       0.03125000 </v>
   <v>       0.01562500 </v>
   <v>       0.03125000 </v>
   <v>       0.03125000 </v>
   <v>       0.03125000 </v>
   <v>       0.03125000 </v>
   <v>       0.03125000 </v>
   <v>       0.03125000 </v>
   <v>       0.03125000 </v>
   <v>       0.03125000 </v>
   <v>       0.03125000 </v>
   <v>       0.03125000 </v>
   <v>       0.03125000 </v>
   <v>       0.03125000 </v>
   <v>       0.03125000 </v>
   <v>       0.03125000 </v>
   <v>       0.03125000 </v>
   <v>       0.03125000 </v>
   <v>       0.03125000 </v>
   <v>       0.03125000 </v>
   <v>       0.03125000 </v>
   <v>       0.03125000 </v>
   <v>       0.03125000 </v>
   <v>       0.03125000 </v>
   <v>       0.03125000 </v>
   <v>       0.03125000 </v>
   <v>       0.01562500 </v>
   <v>       0.03125000 </v>
   <v>       0.03125000 </v>
   <v>       0.03125000 </v>
   <v>       0.01562500 </v>
  </varray>
 </kpoints>
 <parameters>
  <separator name="general" >
   <i type="string" name="SYSTEM">unknown system</i>
   <i type="logical" name="LCOMPAT"> F  </i>
  </separator>
  <separator name="electronic" >
   <i type="string" name="PREC">normal</i>
   <i name="ENMAX">    280.00000000</i>
   <i name="ENAUG">    373.43800000</i>
   <i name="EDIFF">      0.00010000</i>
   <i type="int" name="IALGO">    38</i>
   <i type="int" name="IWAVPR">    11</i>
   <i type="int" name="NBANDS">   120</i>
   <i name="NELECT">    159.00000000</i>
   <i type="int" name="TURBO">     0</i>
   <i type="int" name="IRESTART">     0</i>
   <i type="int" name="NREBOOT">     0</i>
   <i type="int" name="NMIN">     0</i>
   <i name="EREF">      0.00000000</i>
   <separator name="electronic smearing" >
    <i type="int" name="ISMEAR">     0</i>
    <i name="SIGMA">      0.20000000</i>
    <i name="KSPACING">      0.50000000</i>
    <i type="logical" name="KGAMMA"> T  </i>
   </separator>
   <separator name="electronic projectors" >
    <i type="logical" name="LREAL"> F  </i>
    <v name="ROPT">      0.00000000      0.00000000      0.00000000      0.00000000</v>
    <i type="int" name="LMAXPAW">  -100</i>
    <i type="int" name="LMAXMIX">     2</i>
    <i type="logical" name="NLSPLINE"> F  </i>
   </separator>
   <separator name="electronic startup" >
    <i type="int" name="ISTART">     0</i>
    <i type="int" name="ICHARG">     2</i>
    <i type="int" name="INIWAV">     1</i>
   </separator>
   <separator name="electronic spin" >
    <i type="int" name="ISPIN">     1</i>
    <i type="logical" name="LNONCOLLINEAR"> F  </i>
    <v name="MAGMOM">      1.00000000      1.00000000      1.00000000      1.00000000      1.00000000      1.00000000      1.00000000      1.00000000      1.00000000      1.00000000      1.00000000      1.00000000      1.00000000      1.00000000      1.00000000      1.00000000      1.00000000      1.00000000      1.00000000      1.00000000
      1.00000000      1.00000000      1.00000000      1.00000000      1.00000000      1.00000000      1.00000000</v>
    <i name="NUPDOWN">     -1.00000000</i>
    <i type="logical" name="LSORBIT"> F  </i>
    <v name="SAXIS">      0.00000000      0.00000000      1.00000000</v>
    <i type="logical" name="LSPIRAL"> F  </i>
    <v name="QSPIRAL">      0.00000000      0.00000000      0.00000000</v>
    <i type="logical" name="LZEROZ"> F  </i>
   </separator>
   <separator name="electronic exchange-correlation" >
    <i type="logical" name="LASPH"> F  </i>
    <i type="logical" name="LMETAGGA"> F  </i>
   </separator>
   <separator name="electronic convergence" >
    <i type="int" name="NELM">    60</i>
    <i type="int" name="NELMDL">    -5</i>
    <i type="int" name="NELMIN">     2</i>
    <i name="ENINI">    280.00000000</i>
    <separator name="electronic convergence detail" >
     <i type="logical" name="LDIAG"> T  </i>
     <i type="logical" name="LSUBROT"> F  </i>
     <i name="WEIMIN">      0.00100000</i>
     <i name="EBREAK">      0.00000021</i>
     <i name="DEPER">      0.30000000</i>
     <i type="int" name="NRMM">     4</i>
     <i name="TIME">      0.40000000</i>
    </separator>
   </separator>
   <separator name="electronic mixer" >
    <i name="AMIX">      0.40000000</i>
    <i name="BMIX">      1.00000000</i>
    <i name="AMIN">      0.10000000</i>
    <i name="AMIX_MAG">      1.60000000</i>
    <i name="BMIX_MAG">      1.00000000</i>
    <separator name="electronic mixer details" >
     <i type="int" name="IMIX">     4</i>
     <i type="logical" name="MIXFIRST"> F  </i>
     <i type="int" name="MAXMIX">   -45</i>
     <i name="WC">    100.00000000</i>
     <i type="int" name="INIMIX">     1</i>
     <i type="int" name="MIXPRE">     1</i>
     <i type="int" name="MREMOVE">     5</i>
    </separator>
   </separator>
   <separator name="electronic dipolcorrection" >
    <i type="logical" name="LDIPOL"> F  </i>
    <i type="logical" name="LMONO"> F  </i>
    <i type="int" name="IDIPOL">     0</i>
    <i name="EPSILON">      1.00000000</i>
    <v name="DIPOL">   -100.00000000   -100.00000000   -100.00000000</v>
    <i name="EFIELD">      0.00000000</i>
   </separator>
  </separator>
  <separator name="grids" >
   <i type="int" name="NGX">    42</i>
   <i type="int" name="NGY">    42</i>
   <i type="int" name="NGZ">   126</i>
   <i type="int" name="NGXF">    84</i>
   <i type="int" name="NGYF">    84</i>
   <i type="int" name="NGZF">   252</i>
   <i type="logical" name="ADDGRID"> F  </i>
  </separator>
  <separator name="ionic" >
   <i type="int" name="NSW">   100</i>
   <i type="int" name="IBRION">     1</i>
   <i type="int" name="ISIF">     3</i>
   <i name="PSTRESS">      0.00000000</i>
   <i name="EDIFFG">      0.00100000</i>
   <i type="int" name="NFREE">     0</i>
   <i name="POTIM">      0.50000000</i>
   <i name="SMASS">     -3.00000000</i>
   <i name="SCALEE">      1.00000000</i>
  </separator>
  <separator name="ionic md" >
   <i name="TEBEG">      0.00010000</i>
   <i name="TEEND">      0.00010000</i>
   <i type="int" name="NBLOCK">     1</i>
   <i type="int" name="KBLOCK">   100</i>
   <i type="int" name="NPACO">   256</i>
   <i name="APACO">     16.00000000</i>
  </separator>
  <separator name="symmetry" >
   <i type="int" name="ISYM">     0</i>
   <i name="SYMPREC">      0.00000001</i>
  </separator>
  <separator name="dos" >
   <i type="logical" name="LORBIT"> F  </i>
   <v name="RWIGS">     -1.00000000     -1.00000000     -1.00000000     -1.00000000</v>
   <i type="int" name="NEDOS">   301</i>
   <i name="EMIN">     10.00000000</i>
   <i name="EMAX">    -10.00000000</i>
   <i name="EFERMI">      0.00000000</i>
  </separator>
  <separator name="writing" >
   <i type="int" name="NWRITE">     2</i>
   <i type="logical" name="LWAVE"> F  </i>
   <i type="logical" name="LCHARG"> F  </i>
   <i type="logical" name="LPARD"> F  </i>
   <i type="logical" name="LVTOT"> F  </i>
   <i type="logical" name="LVHAR"> F  </i>
   <i type="logical" name="LELF"> F  </i>
   <i type="logical" name="LOPTICS"> F  </i>
   <v name="STM">      0.00000000      0.00000000      0.00000000      0.00000000      0.00000000      0.00000000      0.00000000</v>
  </separator>
  <separator name="performance" >
   <i type="int" name="NPAR">    40</i>
   <i type="int" name="NSIM">     4</i>
   <i type="int" name="NBLK">    -1</i>
   <i type="logical" name="LPLANE"> F  </i>
   <i type="logical" name="LSCALAPACK"> T  </i>
   <i type="logical" name="LSCAAWARE"> F  </i>
   <i type="logical" name="LSCALU"> F  </i>
   <i type="logical" name="LASYNC"> F  </i>
   <i type="logical" name="LORBITALREAL"> F  </i>
  </separator>
  <separator name="miscellaneous" >
   <i type="int" name="IDIOT">     3</i>
   <i type="logical" name="LMUSIC"> F  </i>
   <v name="POMASS">     50.94100000     95.94000000    183.85000000     32.06600000</v>
   <v name="DARWINR">      0.00000000      0.00000000      0.00000000      0.00000000</v>
   <v name="DARWINV">      1.00000000      1.00000000      1.00000000      1.00000000</v>
   <i type="logical" name="LCORR"> T  </i>
  </separator>
  <i type="logical" name="GGA_COMPAT"> T  </i>
  <i type="logical" name="LBERRY"> F  </i>
  <i type="int" name="ICORELEVEL">     0</i>
  <i type="logical" name="LDAU"> F  </i>
  <i type="int" name="I_CONSTRAINED_M">     0</i>
  <separator name="electronic exchange-correlation" >
   <i type="string" name="GGA">--</i>
   <i type="int" name="VOSKOWN">     0</i>
   <i type="logical" name="LHFCALC"> F  </i>
   <i type="string" name="PRECFOCK"></i>
   <i type="logical" name="LSYMGRAD"> F  </i>
   <i type="logical" name="LHFONE"> F  </i>
   <i type="logical" name="LRHFCALC"> F  </i>
   <i type="logical" name="LTHOMAS"> F  </i>
   <i type="logical" name="LMODELHF"> F  </i>
   <i name="ENCUT4O">     -1.00000000</i>
   <i type="int" name="EXXOEP">     0</i>
   <i type="int" name="FOURORBIT">     0</i>
   <i name="AEXX">      0.00000000</i>
   <i name="HFALPHA">      0.00000000</i>
   <i name="MCALPHA">      0.00000000</i>
   <i name="ALDAX">      1.00000000</i>
   <i name="AGGAX">      1.00000000</i>
   <i name="ALDAC">      1.00000000</i>
   <i name="AGGAC">      1.00000000</i>
   <i type="int" name="NKREDX">     1</i>
   <i type="int" name="NKREDY">     1</i>
   <i type="int" name="NKREDZ">     1</i>
   <i type="logical" name="SHIFTRED"> F  </i>
   <i type="logical" name="ODDONLY"> F  </i>
   <i type="logical" name="EVENONLY"> F  </i>
   <i type="int" name="LMAXFOCK">     0</i>
   <i type="int" name="NMAXFOCKAE">     0</i>
   <i type="logical" name="LFOCKAEDFT"> F  </i>
   <i name="HFSCREEN">      0.00000000</i>
   <i name="HFSCREENC">      0.00000000</i>
   <i type="int" name="NBANDSGWLOW">     0</i>
  </separator>
  <separator name="vdW DFT" >
   <i type="logical" name="LUSE_VDW"> F  </i>
   <i name="Zab_VDW">     -0.84910000</i>
   <i name="PARAM1">      0.12340000</i>
   <i name="PARAM2">      1.00000000</i>
   <i name="PARAM3">      0.00000000</i>
  </separator>
  <separator name="model GW" >
   <i type="int" name="MODEL_GW">     0</i>
   <i name="MODEL_EPS0">     58.26239943</i>
   <i name="MODEL_ALPHA">      1.00000000</i>
  </separator>
  <separator name="linear response parameters" >
   <i type="logical" name="LEPSILON"> F  </i>
   <i type="logical" name="LRPA"> F  </i>
   <i type="logical" name="LNABLA"> F  </i>
   <i type="logical" name="LVEL"> F  </i>
   <i type="int" name="KINTER">     0</i>
   <i name="CSHIFT">      0.10000000</i>
   <i name="OMEGAMAX">     -1.00000000</i>
   <i name="DEG_THRESHOLD">      0.00200000</i>
  </separator>
  <separator name="orbital magnetization" >
   <i type="logical" name="NUCIND"> F  </i>
   <v name="MAGPOS">      0.00000000      0.00000000      0.00000000</v>
   <i type="logical" name="LNICSALL"> T  </i>
   <i type="logical" name="ORBITALMAG"> F  </i>
   <i type="logical" name="LMAGBLOCH"> F  </i>
   <i type="logical" name="LCHIMAG"> F  </i>
   <i type="logical" name="LGAUGE"> T  </i>
   <i type="int" name="MAGATOM">     0</i>
   <v name="MAGDIPOL">      0.00000000      0.00000000      0.00000000</v>
   <v name="AVECCONST">      0.00000000      0.00000000      0.00000000</v>
  </separator>
  <separator name="response functions" >
   <i type="logical" name="LADDER"> F  </i>
   <i type="logical" name="LFXC"> F  </i>
   <i type="logical" name="LHARTREE"> T  </i>
   <i type="int" name="IBSE">     0</i>
   <v type="int" name="KPOINT">    -1     0     0     0</v>
   <i type="logical" name="LTCTE"> F  </i>
   <i type="logical" name="LTETE"> F  </i>
   <i type="logical" name="LTRIPLET"> F  </i>
   <i type="logical" name="LFXCEPS"> F  </i>
   <i type="logical" name="LFXHEG"> F  </i>
   <i type="int" name="NATURALO">     0</i>
   <i type="logical" name="L2ORDER"> F  </i>
   <i type="logical" name="LUSEW"> F  </i>
   <i name="ENCUTGW">     -2.00000000</i>
   <i name="ENCUTGWSOFT">     -2.00000000</i>
   <i name="ENCUTLF">     -1.00000000</i>
   <i type="int" name="LMAXMP2">    -1</i>
   <i name="SCISSOR">      0.00000000</i>
   <i type="int" name="NOMEGA">     0</i>
   <i type="int" name="NOMEGAR">     0</i>
   <i type="int" name="NBANDSGW">    -1</i>
   <i type="int" name="NBANDSO">    -1</i>
   <i type="int" name="NBANDSV">    -1</i>
   <i type="int" name="NELM">     1</i>
   <i type="int" name="NELMHF">     1</i>
   <i type="int" name="DIM">     3</i>
   <i type="int" name="ANTIRES">     0</i>
   <i name="OMEGAMAX">    -30.00000000</i>
   <i name="OMEGAMIN">    -30.00000000</i>
   <i name="OMEGATL">   -200.00000000</i>
   <i type="int" name="OMEGAGRID">     0</i>
   <i name="CSHIFT">     -0.10000000</i>
   <i type="logical" name="SELFENERGY"> F  </i>
   <i type="logical" name="LSPECTRAL"> F  </i>
   <i type="logical" name="LSPECTRALGW"> F  </i>
   <i type="logical" name="LSINGLES"> F  </i>
   <i type="logical" name="LFERMIGW"> F  </i>
   <i type="logical" name="ODDONLYGW"> F  </i>
   <i type="logical" name="EVENONLYGW"> F  </i>
   <i type="int" name="NKREDLFX">     1</i>
   <i type="int" name="NKREDLFY">     1</i>
   <i type="int" name="NKREDLFZ">     1</i>
   <i type="int" name="MAXMEM">  1800</i>
   <i type="int" name="TELESCOPE">     0</i>
   <i type="int" name="TAUPAR">     1</i>
   <i type="int" name="OMEGAPAR">    -1</i>
   <i name="LAMBDA">      1.00000000</i>
  </separator>
  <separator name="External order field" >
   <i name="OFIELD_KAPPA">      0.00000000</i>
   <v name="OFIELD_K">      0.00000000      0.00000000      0.00000000</v>
   <i name="OFIELD_Q6_NEAR">      0.00000000</i>
   <i name="OFIELD_Q6_FAR">      0.00000000</i>
   <i name="OFIELD_A">      0.00000000</i>
  </separator>
 </parameters>
 <atominfo>
  <atoms>      27 </atoms>
  <types>       4 </types>
  <array name="atoms" >
   <dimension dim="1">ion</dimension>
   <field type="string">element</field>
   <field type="int">atomtype</field>
   <set>
    <rc><c>V </c><c>   1</c></rc>
    <rc><c>V </c><c>   1</c></rc>
    <rc><c>V </c><c>   1</c></rc>
    <rc><c>Mo</c><c>   2</c></rc>
    <rc><c>Mo</c><c>   2</c></rc>
    <rc><c>Mo</c><c>   2</c></rc>
    <rc><c>W </c><c>   3</c></rc>
    <rc><c>W </c><c>   3</c></rc>
    <rc><c>W </c><c>   3</c></rc>
    <rc><c>S </c><c>   4</c></rc>
    <rc><c>S </c><c>   4</c></rc>
    <rc><c>S </c><c>   4</c></rc>
    <rc><c>S </c><c>   4</c></rc>
    <rc><c>S </c><c>   4</c></rc>
    <rc><c>S </c><c>   4</c></rc>
    <rc><c>S </c><c>   4</c></rc>
    <rc><c>S </c><c>   4</c></rc>
    <rc><c>S </c><c>   4</c></rc>
    <rc><c>S </c><c>   4</c></rc>
    <rc><c>S </c><c>   4</c></rc>
    <rc><c>S </c><c>   4</c></rc>
    <rc><c>S </c><c>   4</c></rc>
    <rc><c>S </c><c>   4</c></rc>
    <rc><c>S </c><c>   4</c></rc>
    <rc><c>S </c><c>   4</c></rc>
    <rc><c>S </c><c>   4</c></rc>
    <rc><c>S </c><c>   4</c></rc>
   </set>
  </array>
  <array name="atomtypes" >
   <dimension dim="1">type</dimension>
   <field type="int">atomspertype</field>
   <field type="string">element</field>
   <field>mass</field>
   <field>valence</field>
   <field type="string">pseudopotential</field>
   <set>
    <rc><c>   3</c><c>V </c><c>     50.94100000</c><c>      5.00000000</c><c> PAW_PBE V 08Apr2002                    </c></rc>
    <rc><c>   3</c><c>Mo</c><c>     95.94000000</c><c>      6.00000000</c><c> PAW_PBE Mo 08Apr2002                   </c></rc>
    <rc><c>   3</c><c>W </c><c>    183.85000000</c><c>      6.00000000</c><c> PAW_PBE W 08Apr2002                    </c></rc>
    <rc><c>  18</c><c>S </c><c>     32.06600000</c><c>      6.00000000</c><c>  PAW_PBE S 17Jan2003                   </c></rc>
   </set>
  </array>
 </atominfo>
 <structure name="initialpos" >
  <crystal>
   <varray name="basis" >
    <v>       8.66999996       5.03999989       0.00000000 </v>
    <v>      -8.66999982       5.04000013       0.00000000 </v>
    <v>       0.00000000       0.00000000      30.00000000 </v>
   </varray>
   <i name="volume">   2621.80797419 </i>
   <varray name="rec_basis" >
    <v>       0.05767013       0.09920635       0.00000000 </v>
    <v>      -0.05767013       0.09920635       0.00000000 </v>
    <v>       0.00000000       0.00000000       0.03333333 </v>
   </varray>
  </crystal>
  <varray name="positions" >
   <v>       0.00000000       0.66666669       0.00000000 </v>
   <v>       0.33333334       0.66666669       0.00000000 </v>
   <v>       0.33333334       0.00000000       0.00000000 </v>
   <v>       0.66666669       0.33333334       0.00000000 </v>
   <v>       0.66666669       0.66666669       0.00000000 </v>
   <v>       0.66666669       0.00000000       0.00000000 </v>
   <v>       0.00000000       0.00000000       0.00000000 </v>
   <v>       1.00000000       0.33333334       0.00000000 </v>
   <v>       0.33333334       0.33333334       0.00000000 </v>
   <v>       0.11068511       0.22244981       0.95539999 </v>
   <v>       0.22244981       0.11068511       0.04460000 </v>
   <v>       0.11068511       0.55578315       0.95539999 </v>
   <v>       0.22244981       0.44401845       0.04460000 </v>
   <v>       0.11068511       0.88911647       0.95539999 </v>
   <v>       0.22244981       0.77735180       0.04460000 </v>
   <v>       0.44401845       0.22244981       0.95539999 </v>
   <v>       0.55578315       0.11068511       0.04460000 </v>
   <v>       0.44401845       0.55578315       0.95539999 </v>
   <v>       0.55578315       0.44401845       0.04460000 </v>
   <v>       0.44401845       0.88911647       0.95539999 </v>
   <v>       0.55578315       0.77735180       0.04460000 </v>
   <v>       0.77735180       0.22244981       0.95539999 </v>
   <v>       0.88911647       0.11068511       0.04460000 </v>
   <v>       0.77735180       0.55578315       0.95539999 </v>
   <v>       0.88911647       0.44401845       0.04460000 </v>
   <v>       0.77735180       0.88911647       0.95539999 </v>
   <v>       0.88911647       0.77735180       0.04460000 </v>
  </varray>
 </structure>
 <calculation>
  <scstep>
   <time name="dav">   22.03   22.08</time>
   <time name="total">   22.07   22.13</time>
   <energy>
    <i name="alphaZ">     81.65567618 </i>
    <i name="ewald">  41891.17178115 </i>
    <i name="hartreedc"> -47723.81767910 </i>
    <i name="XCdc">   -242.92468722 </i>
    <i name="pawpsdc">   3467.42045192 </i>
    <i name="pawaedc">  -2871.19716117 </i>
    <i name="eentropy">     -0.53698751 </i>
    <i name="bandstr">   -239.46175439 </i>
    <i name="atom">   6761.44252427 </i>
    <i name="e_fr_energy">   1123.75216413 </i>
    <i name="e_wo_entrp">   1124.28915164 </i>
    <i name="e_0_energy">   1124.02065788 </i>
   </energy>
  </scstep>
  <scstep>
   <time name="dav">   28.29   28.36</time>
   <time name="total">   28.29   28.37</time>
   <energy>
    <i name="e_fr_energy">      1.27088388 </i>
    <i name="e_wo_entrp">      1.47953235 </i>
    <i name="e_0_energy">      1.37520812 </i>
   </energy>
  </scstep>
  <scstep>
   <time name="dav">   27.95   28.02</time>
   <time name="total">   27.96   28.03</time>
   <energy>
    <i name="e_fr_energy">   -199.60652303 </i>
    <i name="e_wo_entrp">   -199.34270949 </i>
    <i name="e_0_energy">   -199.47461626 </i>
   </energy>
  </scstep>
  <scstep>
   <time name="dav">   30.29   30.36</time>
   <time name="total">   30.29   30.37</time>
   <energy>
    <i name="e_fr_energy">   -208.98815978 </i>
    <i name="e_wo_entrp">   -208.69690820 </i>
    <i name="e_0_energy">   -208.84253399 </i>
   </energy>
  </scstep>
  <scstep>
   <time name="dav">   28.39   28.46</time>
   <time name="total">   28.86   28.93</time>
   <energy>
    <i name="e_fr_energy">   -209.30138604 </i>
    <i name="e_wo_entrp">   -209.01314478 </i>
    <i name="e_0_energy">   -209.15726541 </i>
   </energy>
  </scstep>
  <scstep>
   <time name="dav">   31.15   31.22</time>
   <time name="total">   31.65   31.95</time>
   <energy>
    <i name="e_fr_energy">   -237.86128202 </i>
    <i name="e_wo_entrp">   -237.60894038 </i>
    <i name="e_0_energy">   -237.73511120 </i>
   </energy>
  </scstep>
  <scstep>
   <time name="dav">   32.98   33.06</time>
   <time name="total">   33.48   33.57</time>
   <energy>
    <i name="e_fr_energy">   -196.56878657 </i>
    <i name="e_wo_entrp">   -196.21288890 </i>
    <i name="e_0_energy">   -196.39083773 </i>
   </energy>
  </scstep>
  <scstep>
   <time name="dav">   30.18   30.26</time>
   <time name="total">   30.69   30.78</time>
   <energy>
    <i name="e_fr_energy">   -189.47083148 </i>
    <i name="e_wo_entrp">   -189.15940917 </i>
    <i name="e_0_energy">   -189.31512032 </i>
   </energy>
  </scstep>
  <scstep>
   <time name="dav">   33.34   33.42</time>
   <time name="total">   33.86   33.95</time>
   <energy>
    <i name="e_fr_energy">   -188.12657152 </i>
    <i name="e_wo_entrp">   -187.80520494 </i>
    <i name="e_0_energy">   -187.96588823 </i>
   </energy>
  </scstep>
  <scstep>
   <time name="dav">   33.31   33.39</time>
   <time name="total">   33.84   33.93</time>
   <energy>
    <i name="e_fr_energy">   -186.93597872 </i>
    <i name="e_wo_entrp">   -186.58489246 </i>
    <i name="e_0_energy">   -186.76043559 </i>
   </energy>
  </scstep>
  <scstep>
   <time name="dav">   33.33   33.41</time>
   <time name="total">   33.86   33.95</time>
   <energy>
    <i name="e_fr_energy">   -187.02474628 </i>
    <i name="e_wo_entrp">   -186.68658994 </i>
    <i name="e_0_energy">   -186.85566811 </i>
   </energy>
  </scstep>
  <scstep>
   <time name="dav">   31.92   32.00</time>
   <time name="total">   32.45   32.54</time>
   <energy>
    <i name="e_fr_energy">   -186.94880907 </i>
    <i name="e_wo_entrp">   -186.61654840 </i>
    <i name="e_0_energy">   -186.78267873 </i>
   </energy>
  </scstep>
  <scstep>
   <time name="dav">   32.29   32.37</time>
   <time name="total">   32.83   32.92</time>
   <energy>
    <i name="e_fr_energy">   -186.86564153 </i>
    <i name="e_wo_entrp">   -186.53018888 </i>
    <i name="e_0_energy">   -186.69791521 </i>
   </energy>
  </scstep>
  <scstep>
   <time name="dav">   32.02   32.10</time>
   <time name="total">   32.56   32.65</time>
   <energy>
    <i name="e_fr_energy">   -186.82714868 </i>
    <i name="e_wo_entrp">   -186.48374431 </i>
    <i name="e_0_energy">   -186.65544650 </i>
   </energy>
  </scstep>
  <scstep>
   <time name="dav">   29.62   29.69</time>
   <time name="total">   30.16   30.24</time>
   <energy>
    <i name="e_fr_energy">   -186.82349405 </i>
    <i name="e_wo_entrp">   -186.48118811 </i>
    <i name="e_0_energy">   -186.65234108 </i>
   </energy>
  </scstep>
  <scstep>
   <time name="dav">   32.34   32.41</time>
   <time name="total">   32.88   32.96</time>
   <energy>
    <i name="e_fr_energy">   -186.82520358 </i>
    <i name="e_wo_entrp">   -186.48375359 </i>
    <i name="e_0_energy">   -186.65447859 </i>
   </energy>
  </scstep>
  <scstep>
   <time name="dav">   31.98   32.06</time>
   <time name="total">   32.52   32.60</time>
   <energy>
    <i name="e_fr_energy">   -186.82146782 </i>
    <i name="e_wo_entrp">   -186.48054290 </i>
    <i name="e_0_energy">   -186.65100536 </i>
   </energy>
  </scstep>
  <scstep>
   <time name="dav">   30.50   30.57</time>
   <time name="total">   31.03   31.12</time>
   <energy>
    <i name="e_fr_energy">   -186.82109314 </i>
    <i name="e_wo_entrp">   -186.47950152 </i>
    <i name="e_0_energy">   -186.65029733 </i>
   </energy>
  </scstep>
  <scstep>
   <time name="dav">   27.23   27.30</time>
   <time name="total">   27.77   27.84</time>
   <energy>
    <i name="e_fr_energy">   -186.82166486 </i>
    <i name="e_wo_entrp">   -186.48050372 </i>
    <i name="e_0_energy">   -186.65108429 </i>
   </energy>
  </scstep>
  <scstep>
   <time name="dav">   22.06   22.11</time>
   <time name="total">   22.60   22.66</time>
   <energy>
    <i name="e_fr_energy">   -186.82197280 </i>
    <i name="e_wo_entrp">   -186.48089271 </i>
    <i name="e_0_energy">   -186.65143276 </i>
   </energy>
  </scstep>
  <scstep>
   <time name="dav">   22.53   22.59</time>
   <time name="total">   23.07   23.14</time>
   <energy>
    <i name="e_fr_energy">   -186.82317101 </i>
    <i name="e_wo_entrp">   -186.48198263 </i>
    <i name="e_0_energy">   -186.65257682 </i>
   </energy>
  </scstep>
  <scstep>
   <time name="dav">   19.03   19.07</time>
   <time name="total">   19.57   19.62</time>
   <energy>
    <i name="e_fr_energy">   -186.82394586 </i>
    <i name="e_wo_entrp">   -186.48276990 </i>
    <i name="e_0_energy">   -186.65335788 </i>
   </energy>
  </scstep>
  <scstep>
   <time name="dav">   20.60   20.65</time>
   <time name="total">   21.14   21.20</time>
   <energy>
    <i name="e_fr_energy">   -186.82478196 </i>
    <i name="e_wo_entrp">   -186.48366170 </i>
    <i name="e_0_energy">   -186.65422183 </i>
   </energy>
  </scstep>
  <scstep>
   <time name="dav">   18.14   18.19</time>
   <time name="total">   18.68   18.73</time>
   <energy>
    <i name="e_fr_energy">   -186.82539292 </i>
    <i name="e_wo_entrp">   -186.48423988 </i>
    <i name="e_0_energy">   -186.65481640 </i>
   </energy>
  </scstep>
  <scstep>
   <time name="dav">   17.81   17.86</time>
   <time name="total">   18.35   18.40</time>
   <energy>
    <i name="e_fr_energy">   -186.82583842 </i>
    <i name="e_wo_entrp">   -186.48467313 </i>
    <i name="e_0_energy">   -186.65525577 </i>
   </energy>
  </scstep>
  <scstep>
   <time name="dav">   19.61   19.66</time>
   <time name="total">   20.15   20.21</time>
   <energy>
    <i name="e_fr_energy">   -186.82601265 </i>
    <i name="e_wo_entrp">   -186.48485267 </i>
    <i name="e_0_energy">   -186.65543266 </i>
   </energy>
  </scstep>
  <scstep>
   <time name="dav">   18.90   18.95</time>
   <time name="total">   19.44   19.50</time>
   <energy>
    <i name="e_fr_energy">   -186.82611658 </i>
    <i name="e_wo_entrp">   -186.48496035 </i>
    <i name="e_0_energy">   -186.65553846 </i>
   </energy>
  </scstep>
  <scstep>
   <time name="dav">   20.01   20.06</time>
   <time name="total">   20.05   20.10</time>
   <energy>
    <i name="alphaZ">     81.65567618 </i>
    <i name="ewald">  41891.17178115 </i>
    <i name="hartreedc"> -47833.71153231 </i>
    <i name="XCdc">   -231.60908230 </i>
    <i name="pawpsdc">   4192.06934021 </i>
    <i name="pawaedc">  -3610.06550608 </i>
    <i name="eentropy">     -0.34115733 </i>
    <i name="bandstr">  -1437.43821179 </i>
    <i name="atom">   6761.44252427 </i>
    <i name="e_fr_energy">   -186.82616799 </i>
    <i name="e_wo_entrp">   -186.48501067 </i>
    <i name="e_0_energy">   -186.65558933 </i>
   </energy>
  </scstep>
  <structure>
   <crystal>
    <varray name="basis" >
     <v>       8.66999996       5.03999989       0.00000000 </v>
     <v>      -8.66999982       5.04000013       0.00000000 </v>
     <v>       0.00000000       0.00000000      30.00000000 </v>
    </varray>
    <i name="volume">   2621.80797419 </i>
    <varray name="rec_basis" >
     <v>       0.05767013       0.09920635       0.00000000 </v>
     <v>      -0.05767013       0.09920635       0.00000000 </v>
     <v>       0.00000000       0.00000000       0.03333333 </v>
    </varray>
   </crystal>
   <varray name="positions" >
    <v>       0.00000000       0.66666669       0.00000000 </v>
    <v>       0.33333334       0.66666669       0.00000000 </v>
    <v>       0.33333334       0.00000000       0.00000000 </v>
    <v>       0.66666669       0.33333334       0.00000000 </v>
    <v>       0.66666669       0.66666669       0.00000000 </v>
    <v>       0.66666669       0.00000000       0.00000000 </v>
    <v>       0.00000000       0.00000000       0.00000000 </v>
    <v>       1.00000000       0.33333334       0.00000000 </v>
    <v>       0.33333334       0.33333334       0.00000000 </v>
    <v>       0.11068511       0.22244981       0.95539999 </v>
    <v>       0.22244981       0.11068511       0.04460000 </v>
    <v>       0.11068511       0.55578315       0.95539999 </v>
    <v>       0.22244981       0.44401845       0.04460000 </v>
    <v>       0.11068511       0.88911647       0.95539999 </v>
    <v>       0.22244981       0.77735180       0.04460000 </v>
    <v>       0.44401845       0.22244981       0.95539999 </v>
    <v>       0.55578315       0.11068511       0.04460000 </v>
    <v>       0.44401845       0.55578315       0.95539999 </v>
    <v>       0.55578315       0.44401845       0.04460000 </v>
    <v>       0.44401845       0.88911647       0.95539999 </v>
    <v>       0.55578315       0.77735180       0.04460000 </v>
    <v>       0.77735180       0.22244981       0.95539999 </v>
    <v>       0.88911647       0.11068511       0.04460000 </v>
    <v>       0.77735180       0.55578315       0.95539999 </v>
    <v>       0.88911647       0.44401845       0.04460000 </v>
    <v>       0.77735180       0.88911647       0.95539999 </v>
    <v>       0.88911647       0.77735180       0.04460000 </v>
   </varray>
  </structure>
  <varray name="forces" >
   <v>      -0.11899802      -0.20276225       0.00904468 </v>
   <v>       0.01992115       0.35210831       0.04449525 </v>
   <v>       0.30599742       0.20095493       0.03384009 </v>
   <v>      -0.00497643      -0.00692633      -0.11826545 </v>
   <v>       0.00440748      -0.01437543      -0.11691316 </v>
   <v>      -0.01645486      -0.01189801       0.13090724 </v>
   <v>      -0.15468596      -0.48508361       0.06928618 </v>
   <v>      -0.36051677      -0.38801457       0.08260970 </v>
   <v>       0.29273553       0.47940741      -0.13188742 </v>
   <v>       0.15751487       0.04056616      -2.86291474 </v>
   <v>       0.58235963      -0.01301120       2.08499608 </v>
   <v>      -0.23597362       0.52842938      -1.40071925 </v>
   <v>      -0.47196568       0.54850569       2.12848593 </v>
   <v>       0.74752997       0.00303505      -1.44413786 </v>
   <v>      -0.05913633       0.00993109       0.76439035 </v>
   <v>       0.35220292      -0.68447620      -2.18773238 </v>
   <v>      -0.50191280      -0.70103636       2.13709630 </v>
   <v>      -0.64594553      -0.15187698      -2.14406682 </v>
   <v>      -0.20439644      -0.13874171       2.88942977 </v>
   <v>      -0.32784745      -0.67692232      -1.42607819 </v>
   <v>      -0.54427653      -0.67765138       2.13296798 </v>
   <v>       0.17477807       0.14964855      -2.89773625 </v>
   <v>      -0.04452196       0.14516015       2.97870942 </v>
   <v>       0.51308031       0.68028733      -2.15103957 </v>
   <v>      -0.34132170       0.71119537       2.16776765 </v>
   <v>       0.22016398       0.12426593      -2.89261892 </v>
   <v>       0.66223874       0.17928096       2.12008338 </v>
  </varray>
  <varray name="stress" >
   <v>       7.25590518       0.12904444      -1.53279784 </v>
   <v>       0.12904446       4.49067807       0.04155360 </v>
   <v>      -1.53279794       0.04155353      30.31844044 </v>
  </varray>
  <energy>
   <i name="e_fr_energy">   -186.82616799 </i>
   <i name="e_wo_entrp">   -186.65558933 </i>
   <i name="e_0_energy">     -0.34115733 </i>
  </energy>
  <time name="totalsc">  812.58  814.97</time>
 </calculation>
 <calculation>
  <scstep>
   <time name="dav">   21.94   21.99</time>
   <time name="total">   22.48   22.54</time>
   <energy>
    <i name="alphaZ">     78.92305435 </i>
    <i name="ewald">  39379.95405047 </i>
    <i name="hartreedc"> -45337.29634529 </i>
    <i name="XCdc">   -239.07353766 </i>
    <i name="pawpsdc">   4192.05556440 </i>
    <i name="pawaedc">  -3610.05170850 </i>
    <i name="eentropy">     -0.27823517 </i>
    <i name="bandstr">  -1413.16715618 </i>
    <i name="atom">   6761.44252427 </i>
    <i name="e_fr_energy">   -187.49178930 </i>
    <i name="e_wo_entrp">   -187.21355413 </i>
    <i name="e_0_energy">   -187.35267172 </i>
   </energy>
  </scstep>
  <scstep>
   <time name="dav">   30.66   30.74</time>
   <time name="total">   31.20   31.28</time>
   <energy>
    <i name="e_fr_energy">   -189.35120878 </i>
    <i name="e_wo_entrp">   -189.03481411 </i>
    <i name="e_0_energy">   -189.19301145 </i>
   </energy>
  </scstep>
  <scstep>
   <time name="dav">   30.93   31.01</time>
   <time name="total">   31.48   31.57</time>
   <energy>
    <i name="e_fr_energy">   -189.34768124 </i>
    <i name="e_wo_entrp">   -189.08850874 </i>
    <i name="e_0_energy">   -189.21809499 </i>
   </energy>
  </scstep>
  <scstep>
   <time name="dav">   31.53   31.60</time>
   <time name="total">   32.07   32.16</time>
   <energy>
    <i name="e_fr_energy">   -188.74291015 </i>
    <i name="e_wo_entrp">   -188.46233860 </i>
    <i name="e_0_energy">   -188.60262438 </i>
   </energy>
  </scstep>
  <scstep>
   <time name="dav">   26.80   26.87</time>
   <time name="total">   27.35   27.42</time>
   <energy>
    <i name="e_fr_energy">   -188.72620579 </i>
    <i name="e_wo_entrp">   -188.44984591 </i>
    <i name="e_0_energy">   -188.58802585 </i>
   </energy>
  </scstep>
  <scstep>
   <time name="dav">   30.37   30.45</time>
   <time name="total">   30.92   31.00</time>
   <energy>
    <i name="e_fr_energy">   -188.69270541 </i>
    <i name="e_wo_entrp">   -188.41272874 </i>
    <i name="e_0_energy">   -188.55271707 </i>
   </energy>
  </scstep>
  <scstep>
   <time name="dav">   31.99   32.07</time>
   <time name="total">   32.54   32.63</time>
   <energy>
    <i name="e_fr_energy">   -188.70072887 </i>
    <i name="e_wo_entrp">   -188.42013786 </i>
    <i name="e_0_energy">   -188.56043337 </i>
   </energy>
  </scstep>
  <scstep>
   <time name="dav">   32.69   32.77</time>
   <time name="total">   33.24   33.32</time>
   <energy>
    <i name="e_fr_energy">   -188.65797266 </i>
    <i name="e_wo_entrp">   -188.38038510 </i>
    <i name="e_0_energy">   -188.51917888 </i>
   </energy>
  </scstep>
  <scstep>
   <time name="dav">   27.18   27.25</time>
   <time name="total">   27.73   27.80</time>
   <energy>
    <i name="e_fr_energy">   -188.65646729 </i>
    <i name="e_wo_entrp">   -188.37952937 </i>
    <i name="e_0_energy">   -188.51799833 </i>
   </energy>
  </scstep>
  <scstep>
   <time name="dav">   32.91   32.99</time>
   <time name="total">   33.46   33.55</time>
   <energy>
    <i name="e_fr_energy">   -188.65731265 </i>
    <i name="e_wo_entrp">   -188.38095537 </i>
    <i name="e_0_energy">   -188.51913401 </i>
   </energy>
  </scstep>
  <scstep>
   <time name="dav">   31.98   32.06</time>
   <time name="total">   32.53   32.62</time>
   <energy>
    <i name="e_fr_energy">   -188.65591207 </i>
    <i name="e_wo_entrp">   -188.37967989 </i>
    <i name="e_0_energy">   -188.51779598 </i>
   </energy>
  </scstep>
  <scstep>
   <time name="dav">   29.56   29.63</time>
   <time name="total">   29.60   29.68</time>
   <energy>
    <i name="alphaZ">     78.92305435 </i>
    <i name="ewald">  39379.95405047 </i>
    <i name="hartreedc"> -45348.36123440 </i>
    <i name="XCdc">   -237.97532029 </i>
    <i name="pawpsdc">   3952.64893982 </i>
    <i name="pawaedc">  -3367.17463476 </i>
    <i name="eentropy">     -0.27613881 </i>
    <i name="bandstr">  -1407.83709062 </i>
    <i name="atom">   6761.44252427 </i>
    <i name="e_fr_energy">   -188.65584996 </i>
    <i name="e_wo_entrp">   -188.37971116 </i>
    <i name="e_0_energy">   -188.51778056 </i>
   </energy>
  </scstep>
  <structure>
   <crystal>
    <varray name="basis" >
     <v>       8.85583830       5.10944711       0.00000000 </v>
     <v>      -8.85203489       5.10290482       0.00000000 </v>
     <v>       0.00000000       0.00000000      30.00000000 </v>
    </varray>
    <i name="volume">   2712.58512114 </i>
    <varray name="rec_basis" >
     <v>       0.05643589       0.09789962       0.00000000 </v>
     <v>      -0.05650824       0.09794168       0.00000000 </v>
     <v>       0.00000000       0.00000000       0.03333333 </v>
    </varray>
   </crystal>
   <varray name="positions" >
    <v>      -0.00130149       0.66602734       0.00001454 </v>
    <v>       0.33507395       0.66829645       0.00007155 </v>
    <v>       0.33514644       0.00011043       0.00005442 </v>
    <v>       0.66661969       0.33331404      -0.00019018 </v>
    <v>       0.66661015       0.66658562      -0.00018801 </v>
    <v>       0.66656396      -0.00001116       0.00021051 </v>
    <v>      -0.00275196      -0.00189124       0.00011142 </v>
    <v>       0.99713996       0.33247933       0.00013284 </v>
    <v>       0.33644221       0.33481334      -0.00021209 </v>
    <v>       0.11131749       0.22220573       0.95079617 </v>
    <v>       0.22400776       0.10900262       0.04795286 </v>
    <v>       0.11255764       0.55896872       0.95314751 </v>
    <v>       0.22376186       0.44795667       0.04802279 </v>
    <v>       0.11277938       0.88705124       0.95307769 </v>
    <v>       0.22233281       0.77756385       0.04582921 </v>
    <v>       0.44172245       0.21819404       0.95188192 </v>
    <v>       0.55103161       0.10872637       0.04803664 </v>
    <v>       0.44149445       0.55685340       0.95195214 </v>
    <v>       0.55455047       0.44392310       0.04924646 </v>
    <v>       0.43986659       0.88678886       0.95310673 </v>
    <v>       0.55102566       0.77562284       0.04803000 </v>
    <v>       0.77855427       0.22267976       0.95074017 </v>
    <v>       0.88968733       0.11150371       0.04939003 </v>
    <v>       0.78203511       0.55761152       0.95194093 </v>
    <v>       0.89157062       0.44837183       0.04808596 </v>
    <v>       0.77855906       0.88909867       0.95074840 </v>
    <v>       0.89181695       0.77636738       0.04800928 </v>
   </varray>
  </structure>
  <varray name="forces" >
   <v>      -0.11676764      -0.20348311      -0.09814064 </v>
   <v>       0.09966300       0.28286067       0.09323098 </v>
   <v>       0.19039497       0.22961961       0.08640802 </v>
   <v>      -0.06040055      -0.01971499      -0.03077012 </v>
   <v>       0.01193214      -0.06179461      -0.03120485 </v>
   <v>       0.19490697       0.33572493       0.05875819 </v>
   <v>      -0.42157318      -0.45777617      -0.05874299 </v>
   <v>      -0.18059325      -0.59780630      -0.05467135 </v>
   <v>       0.31863489       0.55493424       0.05551248 </v>
   <v>      -0.01433983       0.00305934       0.26418557 </v>
   <v>      -0.10334417      -0.00960051      -0.24095119 </v>
   <v>       0.04605629      -0.06293441       0.23385102 </v>
   <v>       0.05631117      -0.07671963      -0.26493473 </v>
   <v>      -0.08942654      -0.00797577       0.25334918 </v>
   <v>      -0.01139188       0.00464083      -0.20164174 </v>
   <v>      -0.09390988      -0.04807093      -0.10041613 </v>
   <v>      -0.02861354      -0.07423425       0.05741560 </v>
   <v>       0.01476243      -0.09142856      -0.11597398 </v>
   <v>      -0.05386486      -0.10239767       0.09492152 </v>
   <v>      -0.01011784      -0.05320140       0.00715789 </v>
   <v>      -0.03297813      -0.07001409       0.05449475 </v>
   <v>       0.05305409       0.10261737      -0.14031782 </v>
   <v>       0.06737024       0.08916265       0.18793695 </v>
   <v>       0.03257848       0.07662482      -0.09450744 </v>
   <v>       0.10051634       0.05174499       0.05198488 </v>
   <v>       0.05195661       0.10253309      -0.13687107 </v>
   <v>      -0.02081635       0.10362989       0.06993702 </v>
  </varray>
  <varray name="stress" >
   <v>     -19.99842292      -0.01388552      -0.01434714 </v>
   <v>      -0.01388545     -19.59496966      -0.10001043 </v>
   <v>      -0.01434719      -0.10001038      -1.84780443 </v>
  </varray>
  <energy>
   <i name="e_fr_energy">   -188.65584996 </i>
   <i name="e_wo_entrp">   -188.51778056 </i>
   <i name="e_0_energy">     -0.27613881 </i>
  </energy>
  <time name="totalsc">  407.05  408.12</time>
 </calculation>
 <calculation>
  <scstep>
   <time name="dav">   24.14   24.19</time>
   <time name="total">   24.67   24.73</time>
   <energy>
    <i name="alphaZ">     82.34929860 </i>
    <i name="ewald">  41304.27595402 </i>
    <i name="hartreedc"> -47303.23160632 </i>
    <i name="XCdc">   -233.85426480 </i>
    <i name="pawpsdc">   3950.51275241 </i>
    <i name="pawaedc">  -3365.01433638 </i>
    <i name="eentropy">     -0.23139216 </i>
    <i name="bandstr">  -1386.83276533 </i>
    <i name="atom">   6761.44252427 </i>
    <i name="e_fr_energy">   -190.58383569 </i>
    <i name="e_wo_entrp">   -190.35244353 </i>
    <i name="e_0_energy">   -190.46813961 </i>
   </energy>
  </scstep>
  <scstep>
   <time name="dav">   29.21   29.28</time>
   <time name="total">   29.74   29.82</time>
   <energy>
    <i name="e_fr_energy">   -190.51954979 </i>
    <i name="e_wo_entrp">   -190.30314270 </i>
    <i name="e_0_energy">   -190.41134625 </i>
   </energy>
  </scstep>
  <scstep>
   <time name="dav">   30.84   30.91</time>
   <time name="total">   31.36   31.45</time>
   <energy>
    <i name="e_fr_energy">   -190.07143032 </i>
    <i name="e_wo_entrp">   -189.82371670 </i>
    <i name="e_0_energy">   -189.94757351 </i>
   </energy>
  </scstep>
  <scstep>
   <time name="dav">   32.00   32.08</time>
   <time name="total">   32.54   32.63</time>
   <energy>
    <i name="e_fr_energy">   -189.85592966 </i>
    <i name="e_wo_entrp">   -189.63326543 </i>
    <i name="e_0_energy">   -189.74459755 </i>
   </energy>
  </scstep>
  <scstep>
   <time name="dav">   28.89   28.96</time>
   <time name="total">   29.43   29.52</time>
   <energy>
    <i name="e_fr_energy">   -189.76590233 </i>
    <i name="e_wo_entrp">   -189.53348806 </i>
    <i name="e_0_energy">   -189.64969519 </i>
   </energy>
  </scstep>
  <scstep>
   <time name="dav">   29.87   29.94</time>
   <time name="total">   30.40   30.48</time>
   <energy>
    <i name="e_fr_energy">   -189.75536441 </i>
    <i name="e_wo_entrp">   -189.52354542 </i>
    <i name="e_0_energy">   -189.63945492 </i>
   </energy>
  </scstep>
  <scstep>
   <time name="dav">   30.57   30.64</time>
   <time name="total">   31.10   31.18</time>
   <energy>
    <i name="e_fr_energy">   -189.75172743 </i>
    <i name="e_wo_entrp">   -189.52039185 </i>
    <i name="e_0_energy">   -189.63605964 </i>
   </energy>
  </scstep>
  <scstep>
   <time name="dav">   29.15   29.22</time>
   <time name="total">   29.68   29.76</time>
   <energy>
    <i name="e_fr_energy">   -189.75128844 </i>
    <i name="e_wo_entrp">   -189.51996843 </i>
    <i name="e_0_energy">   -189.63562843 </i>
   </energy>
  </scstep>
  <scstep>
   <time name="dav">   27.50   27.56</time>
   <time name="total">   28.03   28.10</time>
   <energy>
    <i name="e_fr_energy">   -189.75220070 </i>
    <i name="e_wo_entrp">   -189.52059699 </i>
    <i name="e_0_energy">   -189.63639885 </i>
   </energy>
  </scstep>
  <scstep>
   <time name="dav">   27.22   27.29</time>
   <time name="total">   27.75   27.83</time>
   <energy>
    <i name="e_fr_energy">   -189.75153452 </i>
    <i name="e_wo_entrp">   -189.51994655 </i>
    <i name="e_0_energy">   -189.63574053 </i>
   </energy>
  </scstep>
  <scstep>
   <time name="dav">   18.90   18.94</time>
   <time name="total">   18.93   18.98</time>
   <energy>
    <i name="alphaZ">     82.34929860 </i>
    <i name="ewald">  41304.27595402 </i>
    <i name="hartreedc"> -47276.34076318 </i>
    <i name="XCdc">   -235.24657966 </i>
    <i name="pawpsdc">   4038.45578700 </i>
    <i name="pawaedc">  -3454.15218605 </i>
    <i name="eentropy">     -0.23154491 </i>
    <i name="bandstr">  -1410.30398253 </i>
    <i name="atom">   6761.44252427 </i>
    <i name="e_fr_energy">   -189.75149244 </i>
    <i name="e_wo_entrp">   -189.51994752 </i>
    <i name="e_0_energy">   -189.63571998 </i>
   </energy>
  </scstep>
  <structure>
   <crystal>
    <varray name="basis" >
     <v>       8.66767970       5.00298960       0.00000000 </v>
     <v>      -8.66410766       4.99684458       0.00000000 </v>
     <v>       0.00000000       0.00000000      30.00000000 </v>
    </varray>
    <i name="volume">   2599.72466759 </i>
    <varray name="rec_basis" >
     <v>       0.05766201       0.09998106       0.00000000 </v>
     <v>      -0.05773292       0.10002228       0.00000000 </v>
     <v>       0.00000000       0.00000000       0.03333333 </v>
    </varray>
   </crystal>
   <varray name="positions" >
    <v>      -0.00175048       0.66580156      -0.00004086 </v>
    <v>       0.33563820       0.66867026       0.00012418 </v>
    <v>       0.33570914       0.00030910       0.00010320 </v>
    <v>       0.66652927       0.33333914      -0.00020755 </v>
    <v>       0.66651909       0.66647170      -0.00020562 </v>
    <v>       0.66730690       0.00035919       0.00024368 </v>
    <v>      -0.00391392      -0.00224712       0.00007826 </v>
    <v>       0.99597615       0.33166055       0.00010198 </v>
    <v>       0.33766687       0.33542890      -0.00018075 </v>
    <v>       0.11130886       0.22222452       0.95094531 </v>
    <v>       0.22389306       0.10908560       0.04781683 </v>
    <v>       0.11249732       0.55882025       0.95327953 </v>
    <v>       0.22368848       0.44777552       0.04787323 </v>
    <v>       0.11268068       0.88712360       0.95322071 </v>
    <v>       0.22232962       0.77758245       0.04571537 </v>
    <v>       0.44155299       0.21820417       0.95182523 </v>
    <v>       0.55088117       0.10863061       0.04806905 </v>
    <v>       0.44135697       0.55668761       0.95188667 </v>
    <v>       0.55432921       0.44380480       0.04930004 </v>
    <v>       0.43976871       0.88671029       0.95311077 </v>
    <v>       0.55087806       0.77553826       0.04806076 </v>
    <v>       0.77877513       0.22279921       0.95066096 </v>
    <v>       0.88989956       0.11158713       0.04949612 </v>
    <v>       0.78219329       0.55770744       0.95188757 </v>
    <v>       0.89175249       0.44836146       0.04811531 </v>
    <v>       0.77877873       0.88921902       0.95067113 </v>
    <v>       0.89196888       0.77655920       0.04804876 </v>
   </varray>
  </structure>
  <varray name="forces" >
   <v>      -0.12875173      -0.23057348      -0.10105219 </v>
   <v>       0.16408196       0.25341925       0.08048578 </v>
   <v>       0.13516709       0.26829016       0.07773709 </v>
   <v>      -0.08921399      -0.03301481      -0.00409972 </v>
   <v>       0.01431256      -0.09656190      -0.00483389 </v>
   <v>       0.26034924       0.44711602       0.02766684 </v>
   <v>      -0.51384755      -0.43927740      -0.06795902 </v>
   <v>      -0.11765627      -0.66873576      -0.06793773 </v>
   <v>       0.32630249       0.57337675       0.08381790 </v>
   <v>      -0.00715480       0.01612826      -0.25460270 </v>
   <v>       0.03091295      -0.01588280       0.22482986 </v>
   <v>      -0.02270400       0.07125294      -0.20061313 </v>
   <v>      -0.02058121       0.03368788       0.20424205 </v>
   <v>       0.06507700       0.00108534      -0.18368526 </v>
   <v>      -0.01773623      -0.00322198       0.20069379 </v>
   <v>       0.03951882      -0.11697184      -0.62306089 </v>
   <v>      -0.06308797      -0.12884459       0.54005408 </v>
   <v>      -0.11169927      -0.01376411      -0.63896943 </v>
   <v>      -0.00340156      -0.01548832       0.65888877 </v>
   <v>      -0.03869459      -0.10121677      -0.42943350 </v>
   <v>      -0.06785403      -0.12517590       0.53931785 </v>
   <v>       0.00596695       0.01396451      -0.70099361 </v>
   <v>       0.02483215       0.02215888       0.79293676 </v>
   <v>       0.07293777       0.14237721      -0.58898531 </v>
   <v>      -0.02965896       0.10870540       0.55916790 </v>
   <v>      -0.00146809       0.01610807      -0.70015824 </v>
   <v>       0.09405125       0.02105901       0.57654595 </v>
  </varray>
  <varray name="stress" >
   <v>     -10.15791499      -0.03052457      -0.04742430 </v>
   <v>      -0.03052459      -9.87408138      -0.11957622 </v>
   <v>      -0.04742427      -0.11957609       6.51018556 </v>
  </varray>
  <energy>
   <i name="e_fr_energy">   -189.75149244 </i>
   <i name="e_wo_entrp">   -189.63571998 </i>
   <i name="e_0_energy">     -0.23154491 </i>
  </energy>
  <time name="totalsc">  356.23  357.18</time>
 </calculation>
 <calculation>
  <scstep>
   <time name="dav">   21.88   21.93</time>
   <time name="total">   22.40   22.45</time>
   <energy>
    <i name="alphaZ">     85.81583288 </i>
    <i name="ewald">  42831.35137413 </i>
    <i name="hartreedc"> -48847.76223846 </i>
    <i name="XCdc">   -232.96822041 </i>
    <i name="pawpsdc">   4038.94416434 </i>
    <i name="pawaedc">  -3454.64163054 </i>
    <i name="eentropy">     -0.18914656 </i>
    <i name="bandstr">  -1373.33627402 </i>
    <i name="atom">   6761.44252427 </i>
    <i name="e_fr_energy">   -191.34361436 </i>
    <i name="e_wo_entrp">   -191.15446780 </i>
    <i name="e_0_energy">   -191.24904108 </i>
   </energy>
  </scstep>
  <scstep>
   <time name="dav">   32.97   33.05</time>
   <time name="total">   33.49   33.58</time>
   <energy>
    <i name="e_fr_energy">   -191.12904166 </i>
    <i name="e_wo_entrp">   -190.94582188 </i>
    <i name="e_0_energy">   -191.03743177 </i>
   </energy>
  </scstep>
  <scstep>
   <time name="dav">   30.40   30.47</time>
   <time name="total">   30.91   30.99</time>
   <energy>
    <i name="e_fr_energy">   -191.32447070 </i>
    <i name="e_wo_entrp">   -191.10621547 </i>
    <i name="e_0_energy">   -191.21534309 </i>
   </energy>
  </scstep>
  <scstep>
   <time name="dav">   32.13   32.21</time>
   <time name="total">   32.65   32.74</time>
   <energy>
    <i name="e_fr_energy">   -190.90772707 </i>
    <i name="e_wo_entrp">   -190.72462869 </i>
    <i name="e_0_energy">   -190.81617788 </i>
   </energy>
  </scstep>
  <scstep>
   <time name="dav">   27.79   27.86</time>
   <time name="total">   28.31   28.39</time>
   <energy>
    <i name="e_fr_energy">   -190.80724235 </i>
    <i name="e_wo_entrp">   -190.61429461 </i>
    <i name="e_0_energy">   -190.71076848 </i>
   </energy>
  </scstep>
  <scstep>
   <time name="dav">   31.41   31.49</time>
   <time name="total">   31.93   32.02</time>
   <energy>
    <i name="e_fr_energy">   -190.79625568 </i>
    <i name="e_wo_entrp">   -190.60167073 </i>
    <i name="e_0_energy">   -190.69896320 </i>
   </energy>
  </scstep>
  <scstep>
   <time name="dav">   30.07   30.14</time>
   <time name="total">   30.59   30.67</time>
   <energy>
    <i name="e_fr_energy">   -190.77657254 </i>
    <i name="e_wo_entrp">   -190.58499630 </i>
    <i name="e_0_energy">   -190.68078442 </i>
   </energy>
  </scstep>
  <scstep>
   <time name="dav">   26.12   26.18</time>
   <time name="total">   26.64   26.71</time>
   <energy>
    <i name="e_fr_energy">   -190.77246966 </i>
    <i name="e_wo_entrp">   -190.57989023 </i>
    <i name="e_0_energy">   -190.67617994 </i>
   </energy>
  </scstep>
  <scstep>
   <time name="dav">   27.11   27.18</time>
   <time name="total">   27.63   27.71</time>
   <energy>
    <i name="e_fr_energy">   -190.77290594 </i>
    <i name="e_wo_entrp">   -190.58000932 </i>
    <i name="e_0_energy">   -190.67645763 </i>
   </energy>
  </scstep>
  <scstep>
   <time name="dav">   27.15   27.22</time>
   <time name="total">   27.67   27.75</time>
   <energy>
    <i name="e_fr_energy">   -190.77262613 </i>
    <i name="e_wo_entrp">   -190.57987963 </i>
    <i name="e_0_energy">   -190.67625288 </i>
   </energy>
  </scstep>
  <scstep>
   <time name="dav">   20.22   20.27</time>
   <time name="total">   20.26   20.32</time>
   <energy>
    <i name="alphaZ">     85.81583288 </i>
    <i name="ewald">  42831.35137413 </i>
    <i name="hartreedc"> -48819.30609577 </i>
    <i name="XCdc">   -234.28983041 </i>
    <i name="pawpsdc">   4064.25910129 </i>
    <i name="pawaedc">  -3480.13457902 </i>
    <i name="eentropy">     -0.19278832 </i>
    <i name="bandstr">  -1399.71817705 </i>
    <i name="atom">   6761.44252427 </i>
    <i name="e_fr_energy">   -190.77263799 </i>
    <i name="e_wo_entrp">   -190.57984967 </i>
    <i name="e_0_energy">   -190.67624383 </i>
   </energy>
  </scstep>
  <structure>
   <crystal>
    <varray name="basis" >
     <v>       8.48657015       4.90176318       0.00000000 </v>
     <v>      -8.48444385       4.89811793       0.00000000 </v>
     <v>       0.00000000       0.00000000      30.00000000 </v>
    </varray>
    <i name="volume">   2494.70867722 </i>
    <varray name="rec_basis" >
     <v>       0.05890208       0.10202927       0.00000000 </v>
     <v>      -0.05894592       0.10205484       0.00000000 </v>
     <v>       0.00000000       0.00000000       0.03333333 </v>
    </varray>
   </crystal>
   <varray name="positions" >
    <v>      -0.00373941       0.66477490      -0.00025203 </v>
    <v>       0.33783190       0.66949671       0.00027964 </v>
    <v>       0.33788940       0.00167342       0.00025642 </v>
    <v>       0.66592725       0.33346295      -0.00019348 </v>
    <v>       0.66588449       0.66572678      -0.00019332 </v>
    <v>       0.67140874       0.00239721       0.00027454 </v>
    <v>      -0.00859630      -0.00296045      -0.00006989 </v>
    <v>       0.99128812       0.32763904      -0.00004955 </v>
    <v>       0.34248181       0.33787004       0.00001629 </v>
    <v>       0.11142656       0.22237331       0.94998098 </v>
    <v>       0.22408177       0.10866682       0.04867487 </v>
    <v>       0.11309537       0.55977929       0.95249797 </v>
    <v>       0.22398882       0.44844471       0.04869161 </v>
    <v>       0.11316558       0.88669669       0.95247195 </v>
    <v>       0.22221697       0.77761588       0.04646994 </v>
    <v>       0.44098451       0.21696819       0.95009665 </v>
    <v>       0.54966394       0.10796672       0.04959238 </v>
    <v>       0.44088025       0.55737870       0.95012493 </v>
    <v>       0.55450815       0.44386380       0.05113755 </v>
    <v>       0.43883681       0.88613899       0.95185483 </v>
    <v>       0.54966463       0.77491370       0.04958442 </v>
    <v>       0.77859642       0.22271226       0.94873927 </v>
    <v>       0.88990029       0.11153058       0.05164517 </v>
    <v>       0.78356665       0.55843962       0.95025318 </v>
    <v>       0.89227987       0.44947589       0.04969886 </v>
    <v>       0.77858308       0.88918691       0.94874897 </v>
    <v>       0.89239880       0.77598181       0.04966772 </v>
   </varray>
  </structure>
  <varray name="forces" >
   <v>      -0.11176818      -0.19991874      -0.07004558 </v>
   <v>       0.18154097       0.25130474       0.02462296 </v>
   <v>       0.12828929       0.27946050       0.02603924 </v>
   <v>      -0.14584579      -0.04655098       0.02533481 </v>
   <v>       0.03274266      -0.15540629       0.02615800 </v>
   <v>       0.32050276       0.55496654      -0.03415506 </v>
   <v>      -0.61429472      -0.49443631      -0.02523419 </v>
   <v>      -0.11977617      -0.78193600      -0.02598520 </v>
   <v>       0.40413396       0.70473669       0.03553786 </v>
   <v>       0.02122752       0.03902908      -0.04108380 </v>
   <v>      -0.03459312      -0.03385954       0.02923855 </v>
   <v>       0.01890562      -0.01990840      -0.07951871 </v>
   <v>      -0.01803191      -0.03698851       0.02396697 </v>
   <v>      -0.02296731      -0.00322532      -0.07421177 </v>
   <v>      -0.01353264      -0.00471163       0.20088386 </v>
   <v>       0.04741459      -0.01763529      -0.47404692 </v>
   <v>       0.02284271      -0.01527687       0.37926635 </v>
   <v>      -0.02894920       0.03259486      -0.47984651 </v>
   <v>       0.04870726       0.08650859       0.53604003 </v>
   <v>       0.02689575       0.02510714      -0.29381738 </v>
   <v>      -0.02675219       0.01362157       0.37946924 </v>
   <v>      -0.06546179      -0.07361179      -0.54403662 </v>
   <v>      -0.01442985      -0.02360166       0.71328586 </v>
   <v>       0.01523123       0.02579735      -0.44661146 </v>
   <v>      -0.02319422       0.00429458       0.36418165 </v>
   <v>      -0.03011091      -0.09339756      -0.54220876 </v>
   <v>       0.00127369      -0.01695677       0.36677658 </v>
  </varray>
  <varray name="stress" >
   <v>      -5.84782481       0.15688683      -0.02774375 </v>
   <v>       0.15688664      -5.66463445       0.07288010 </v>
   <v>      -0.02774383       0.07288021       4.55272286 </v>
  </varray>
  <energy>
   <i name="e_fr_energy">   -190.77263799 </i>
   <i name="e_wo_entrp">   -190.67624383 </i>
   <i name="e_0_energy">     -0.19278832 </i>
  </energy>
  <time name="totalsc">  354.60  355.53</time>
 </calculation>
 <calculation>
  <scstep>
   <time name="dav">   21.93   21.98</time>
   <time name="total">   22.44   22.49</time>
   <energy>
    <i name="alphaZ">     90.13172921 </i>
    <i name="ewald">  44648.19164491 </i>
    <i name="hartreedc"> -50690.65256631 </i>
    <i name="XCdc">   -231.86384231 </i>
    <i name="pawpsdc">   4064.24342294 </i>
    <i name="pawaedc">  -3480.11704937 </i>
    <i name="eentropy">     -0.16453104 </i>
    <i name="bandstr">  -1353.43826211 </i>
    <i name="atom">   6761.44252427 </i>
    <i name="e_fr_energy">   -192.22692980 </i>
    <i name="e_wo_entrp">   -192.06239877 </i>
    <i name="e_0_energy">   -192.14466428 </i>
   </energy>
  </scstep>
  <scstep>
   <time name="dav">   26.10   26.17</time>
   <time name="total">   26.61   26.68</time>
   <energy>
    <i name="e_fr_energy">   -191.94707457 </i>
    <i name="e_wo_entrp">   -191.77081741 </i>
    <i name="e_0_energy">   -191.85894599 </i>
   </energy>
  </scstep>
  <scstep>
   <time name="dav">   27.55   27.61</time>
   <time name="total">   28.05   28.13</time>
   <energy>
    <i name="e_fr_energy">   -191.76272440 </i>
    <i name="e_wo_entrp">   -191.60147047 </i>
    <i name="e_0_energy">   -191.68209743 </i>
   </energy>
  </scstep>
  <scstep>
   <time name="dav">   29.73   29.80</time>
   <time name="total">   30.23   30.31</time>
   <energy>
    <i name="e_fr_energy">   -191.81247691 </i>
    <i name="e_wo_entrp">   -191.62050710 </i>
    <i name="e_0_energy">   -191.71649201 </i>
   </energy>
  </scstep>
  <scstep>
   <time name="dav">   30.12   30.19</time>
   <time name="total">   30.62   30.70</time>
   <energy>
    <i name="e_fr_energy">   -191.62563712 </i>
    <i name="e_wo_entrp">   -191.44996814 </i>
    <i name="e_0_energy">   -191.53780263 </i>
   </energy>
  </scstep>
  <scstep>
   <time name="dav">   30.60   30.67</time>
   <time name="total">   31.11   31.19</time>
   <energy>
    <i name="e_fr_energy">   -191.60425902 </i>
    <i name="e_wo_entrp">   -191.43855763 </i>
    <i name="e_0_energy">   -191.52140832 </i>
   </energy>
  </scstep>
  <scstep>
   <time name="dav">   30.77   30.85</time>
   <time name="total">   31.28   31.36</time>
   <energy>
    <i name="e_fr_energy">   -191.58690247 </i>
    <i name="e_wo_entrp">   -191.41261948 </i>
    <i name="e_0_energy">   -191.49976098 </i>
   </energy>
  </scstep>
  <scstep>
   <time name="dav">   30.73   30.80</time>
   <time name="total">   31.23   31.32</time>
   <energy>
    <i name="e_fr_energy">   -191.58011527 </i>
    <i name="e_wo_entrp">   -191.40800718 </i>
    <i name="e_0_energy">   -191.49406122 </i>
   </energy>
  </scstep>
  <scstep>
   <time name="dav">   30.64   30.71</time>
   <time name="total">   31.14   31.24</time>
   <energy>
    <i name="e_fr_energy">   -191.58041543 </i>
    <i name="e_wo_entrp">   -191.40832100 </i>
    <i name="e_0_energy">   -191.49436821 </i>
   </energy>
  </scstep>
  <scstep>
   <time name="dav">   28.93   29.00</time>
   <time name="total">   29.45   29.52</time>
   <energy>
    <i name="e_fr_energy">   -191.57969562 </i>
    <i name="e_wo_entrp">   -191.40714651 </i>
    <i name="e_0_energy">   -191.49342106 </i>
   </energy>
  </scstep>
  <scstep>
   <time name="dav">   19.50   19.55</time>
   <time name="total">   19.53   19.59</time>
   <energy>
    <i name="alphaZ">     90.13172921 </i>
    <i name="ewald">  44648.19164491 </i>
    <i name="hartreedc"> -50657.34079132 </i>
    <i name="XCdc">   -233.34346193 </i>
    <i name="pawpsdc">   4088.72875556 </i>
    <i name="pawaedc">  -3504.71122858 </i>
    <i name="eentropy">     -0.17236897 </i>
    <i name="bandstr">  -1384.50652268 </i>
    <i name="atom">   6761.44252427 </i>
    <i name="e_fr_energy">   -191.57971954 </i>
    <i name="e_wo_entrp">   -191.40735057 </i>
    <i name="e_0_energy">   -191.49353506 </i>
   </energy>
  </scstep>
  <structure>
   <crystal>
    <varray name="basis" >
     <v>       8.28062500       4.79307709       0.00000000 </v>
     <v>      -8.26993260       4.77459338       0.00000000 </v>
     <v>       0.00000000       0.00000000      30.00000000 </v>
    </varray>
    <i name="volume">   2375.25125504 </i>
    <varray name="rec_basis" >
     <v>       0.06030427       0.10445126       0.00000000 </v>
     <v>      -0.06053773       0.10458630       0.00000000 </v>
     <v>       0.00000000       0.00000000       0.03333333 </v>
    </varray>
   </crystal>
   <varray name="positions" >
    <v>      -0.00711893       0.66303644      -0.00054880 </v>
    <v>       0.34217342       0.67110999       0.00039415 </v>
    <v>       0.34219826       0.00434800       0.00037831 </v>
    <v>       0.66432688       0.33389986      -0.00008264 </v>
    <v>       0.66420742       0.66361589      -0.00008031 </v>
    <v>       0.68060278       0.00698809       0.00014136 </v>
    <v>      -0.01884102      -0.00446095      -0.00020116 </v>
    <v>       0.98102106       0.31884291      -0.00018730 </v>
    <v>       0.35367289       0.34350512       0.00020973 </v>
    <v>       0.11203542       0.22271379       0.94920606 </v>
    <v>       0.22371904       0.10822820       0.04934232 </v>
    <v>       0.11336303       0.56008435       0.95170023 </v>
    <v>       0.22371191       0.44867743       0.04933344 </v>
    <v>       0.11333272       0.88651615       0.95169884 </v>
    <v>       0.22203043       0.77764812       0.04765468 </v>
    <v>       0.44095678       0.21585255       0.94763466 </v>
    <v>       0.54916217       0.10741782       0.05164604 </v>
    <v>       0.44093397       0.55840823       0.94763433 </v>
    <v>       0.55601676       0.44462114       0.05387160 </v>
    <v>       0.43888152       0.88602226       0.95019760 </v>
    <v>       0.54916494       0.77498106       0.05164050 </v>
    <v>       0.77712229       0.22217758       0.94595889 </v>
    <v>       0.88936366       0.11126195       0.05509916 </v>
    <v>       0.78448345       0.55890229       0.94793063 </v>
    <v>       0.89228166       0.45024149       0.05173423 </v>
    <v>       0.77710798       0.88825549       0.94597279 </v>
    <v>       0.89230397       0.77531919       0.05172055 </v>
   </varray>
  </structure>
  <varray name="forces" >
   <v>      -0.09076842      -0.15736374      -0.01754994 </v>
   <v>       0.11645261       0.34603575       0.01881992 </v>
   <v>       0.24274589       0.27098653       0.01959062 </v>
   <v>      -0.16480880       0.02304862       0.01155067 </v>
   <v>       0.10573352      -0.12985701       0.01262760 </v>
   <v>       0.08064034       0.13803803      -0.13330724 </v>
   <v>      -0.37956457      -0.37968729       0.11826918 </v>
   <v>      -0.13800515      -0.51146232       0.11963044 </v>
   <v>       0.31110229       0.53398961      -0.11092924 </v>
   <v>       0.06018989       0.10008586       0.34082247 </v>
   <v>      -0.19968784      -0.03491714      -0.34458878 </v>
   <v>       0.11807647      -0.21526021       0.17733773 </v>
   <v>       0.06239899      -0.19094114      -0.34171349 </v>
   <v>      -0.24342035      -0.00379527       0.17533549 </v>
   <v>       0.01650498       0.02479758      -0.03074134 </v>
   <v>       0.00918590       0.09601236      -0.15427814 </v>
   <v>       0.14329986       0.09522385       0.04860526 </v>
   <v>       0.08027960       0.05559758      -0.15405003 </v>
   <v>       0.12184824       0.21207087       0.36587925 </v>
   <v>       0.08566356       0.15351815      -0.04518567 </v>
   <v>       0.00717858       0.17269054       0.04966180 </v>
   <v>      -0.15928988      -0.15498972      -0.25539450 </v>
   <v>      -0.02207570      -0.03157865       0.40725878 </v>
   <v>      -0.04525927      -0.08050702      -0.12975061 </v>
   <v>       0.02921045      -0.09395252       0.05423687 </v>
   <v>      -0.05128378      -0.21465581      -0.25283454 </v>
   <v>      -0.09634740      -0.02312752       0.05069745 </v>
  </varray>
  <varray name="stress" >
   <v>      -0.02295916       0.38670166       0.24320901 </v>
   <v>       0.38670180       0.44820197       0.45783390 </v>
   <v>       0.24320893       0.45783402      -0.40351706 </v>
  </varray>
  <energy>
   <i name="e_fr_energy">   -191.57971954 </i>
   <i name="e_wo_entrp">   -191.49353506 </i>
   <i name="e_0_energy">     -0.17236897 </i>
  </energy>
  <time name="totalsc">  354.09  355.03</time>
 </calculation>
 <calculation>
  <scstep>
   <time name="dav">   21.94   21.99</time>
   <time name="total">   22.45   22.50</time>
   <energy>
    <i name="alphaZ">     90.00614052 </i>
    <i name="ewald">  44569.34307178 </i>
    <i name="hartreedc"> -50577.92160674 </i>
    <i name="XCdc">   -233.52546842 </i>
    <i name="pawpsdc">   4088.66948817 </i>
    <i name="pawaedc">  -3504.64669073 </i>
    <i name="eentropy">     -0.16701967 </i>
    <i name="bandstr">  -1384.89026464 </i>
    <i name="atom">   6761.44252427 </i>
    <i name="e_fr_energy">   -191.68982547 </i>
    <i name="e_wo_entrp">   -191.52280580 </i>
    <i name="e_0_energy">   -191.60631563 </i>
   </energy>
  </scstep>
  <scstep>
   <time name="dav">   32.11   32.19</time>
   <time name="total">   32.61   32.70</time>
   <energy>
    <i name="e_fr_energy">   -191.76059470 </i>
    <i name="e_wo_entrp">   -191.57461921 </i>
    <i name="e_0_energy">   -191.66760695 </i>
   </energy>
  </scstep>
  <scstep>
   <time name="dav">   31.10   31.18</time>
   <time name="total">   31.61   31.69</time>
   <energy>
    <i name="e_fr_energy">   -191.70883841 </i>
    <i name="e_wo_entrp">   -191.54007063 </i>
    <i name="e_0_energy">   -191.62445452 </i>
   </energy>
  </scstep>
  <scstep>
   <time name="dav">   29.03   29.10</time>
   <time name="total">   29.54   29.62</time>
   <energy>
    <i name="e_fr_energy">   -191.70962086 </i>
    <i name="e_wo_entrp">   -191.54013847 </i>
    <i name="e_0_energy">   -191.62487966 </i>
   </energy>
  </scstep>
  <scstep>
   <time name="dav">   29.34   29.42</time>
   <time name="total">   29.85   29.93</time>
   <energy>
    <i name="e_fr_energy">   -191.70614723 </i>
    <i name="e_wo_entrp">   -191.53474294 </i>
    <i name="e_0_energy">   -191.62044509 </i>
   </energy>
  </scstep>
  <scstep>
   <time name="dav">   28.94   29.01</time>
   <time name="total">   29.45   29.53</time>
   <energy>
    <i name="e_fr_energy">   -191.70564495 </i>
    <i name="e_wo_entrp">   -191.53477177 </i>
    <i name="e_0_energy">   -191.62020836 </i>
   </energy>
  </scstep>
  <scstep>
   <time name="dav">   28.12   28.19</time>
   <time name="total">   28.63   28.70</time>
   <energy>
    <i name="e_fr_energy">   -191.70536710 </i>
    <i name="e_wo_entrp">   -191.53488943 </i>
    <i name="e_0_energy">   -191.62012827 </i>
   </energy>
  </scstep>
  <scstep>
   <time name="dav">   19.60   19.65</time>
   <time name="total">   19.64   19.69</time>
   <energy>
    <i name="alphaZ">     90.00614052 </i>
    <i name="ewald">  44569.34307178 </i>
    <i name="hartreedc"> -50580.01606429 </i>
    <i name="XCdc">   -233.45176383 </i>
    <i name="pawpsdc">   4085.64587423 </i>
    <i name="pawaedc">  -3501.57271974 </i>
    <i name="eentropy">     -0.17055240 </i>
    <i name="bandstr">  -1382.93194565 </i>
    <i name="atom">   6761.44252427 </i>
    <i name="e_fr_energy">   -191.70543511 </i>
    <i name="e_wo_entrp">   -191.53488271 </i>
    <i name="e_0_energy">   -191.62015891 </i>
   </energy>
  </scstep>
  <structure>
   <crystal>
    <varray name="basis" >
     <v>       8.28615675       4.80760952       0.00000000 </v>
     <v>      -8.26590680       4.77257026       0.00000000 </v>
     <v>       0.00000000       0.00000000      30.00000000 </v>
    </varray>
    <i name="volume">   2378.56552572 </i>
    <varray name="rec_basis" >
     <v>       0.06019473       0.10425494       0.00000000 </v>
     <v>      -0.06063667       0.10451034       0.00000000 </v>
     <v>       0.00000000       0.00000000       0.03333333 </v>
    </varray>
   </crystal>
   <varray name="positions" >
    <v>      -0.00812217       0.66253501      -0.00057338 </v>
    <v>       0.34417574       0.67247639       0.00042261 </v>
    <v>       0.34419035       0.00496650       0.00040790 </v>
    <v>       0.66398621       0.33448291      -0.00006558 </v>
    <v>       0.66388387       0.66268993      -0.00006157 </v>
    <v>       0.68142174       0.00739362      -0.00006798 </v>
    <v>      -0.02170267      -0.00524035      -0.00001268 </v>
    <v>       0.97819770       0.31679343       0.00000343 </v>
    <v>       0.35709425       0.34520329       0.00003207 </v>
    <v>       0.11269709       0.22303376       0.94975689 </v>
    <v>       0.22297682       0.10863458       0.04878705 </v>
    <v>       0.11262921       0.55867012       0.95199200 </v>
    <v>       0.22294543       0.44754521       0.04878301 </v>
    <v>       0.11261365       0.88719999       0.95198717 </v>
    <v>       0.22220258       0.77772342       0.04759131 </v>
    <v>       0.44145985       0.21631765       0.94741999 </v>
    <v>       0.55005194       0.10748572       0.05169809 </v>
    <v>       0.44143928       0.55844001       0.94742035 </v>
    <v>       0.55739926       0.44531497       0.05441775 </v>
    <v>       0.43988943       0.88654048       0.95014651 </v>
    <v>       0.55004914       0.77581812       0.05169419 </v>
    <v>       0.77591512       0.22187237       0.94558793 </v>
    <v>       0.88915066       0.11117203       0.05570326 </v>
    <v>       0.78394251       0.55862647       0.94775309 </v>
    <v>       0.89189908       0.44968010       0.05179508 </v>
    <v>       0.77591420       0.88734779       0.94560586 </v>
    <v>       0.89191419       0.77549093       0.05177557 </v>
   </varray>
  </structure>
  <varray name="forces" >
   <v>      -0.08602087      -0.15584795      -0.07054466 </v>
   <v>       0.10987626       0.38099382       0.04144895 </v>
   <v>       0.27929462       0.26487462       0.04272980 </v>
   <v>      -0.16236454       0.06368485       0.01055468 </v>
   <v>       0.12348449      -0.11734162       0.01153088 </v>
   <v>       0.07506869       0.12163897      -0.06070459 </v>
   <v>      -0.35980483      -0.42047661       0.02465219 </v>
   <v>      -0.18486695      -0.51891476       0.02232925 </v>
   <v>       0.29704344       0.53429786      -0.00335161 </v>
   <v>       0.04922142       0.08180366       0.37184963 </v>
   <v>      -0.15899735      -0.02248675      -0.36463334 </v>
   <v>       0.09468006      -0.15160500       0.23643210 </v>
   <v>       0.05374464      -0.14344542      -0.36662616 </v>
   <v>      -0.17978440       0.00202057       0.23106978 </v>
   <v>       0.01775859       0.02224968      -0.09425195 </v>
   <v>       0.03502738       0.07916693      -0.14520199 </v>
   <v>       0.07888078       0.06617749       0.03038110 </v>
   <v>       0.04817113       0.06973692      -0.14288327 </v>
   <v>       0.07103335       0.12387110       0.23815599 </v>
   <v>       0.04851439       0.07605626      -0.09330134 </v>
   <v>       0.01218661       0.09595955       0.02522823 </v>
   <v>      -0.10390883      -0.08010952      -0.14828367 </v>
   <v>      -0.06098582      -0.10000679       0.29043515 </v>
   <v>      -0.02379792      -0.04443459      -0.09602578 </v>
   <v>      -0.00298537      -0.06310332       0.08087701 </v>
   <v>      -0.01690492      -0.13177175      -0.15087879 </v>
   <v>      -0.05356406      -0.03298821       0.07901242 </v>
  </varray>
  <varray name="stress" >
   <v>      -0.05062958       0.02578753       0.01397839 </v>
   <v>       0.02578763      -0.01482978       0.06482468 </v>
   <v>       0.01397835       0.06482462      -1.29323364 </v>
  </varray>
  <energy>
   <i name="e_fr_energy">   -191.70543511 </i>
   <i name="e_wo_entrp">   -191.62015891 </i>
   <i name="e_0_energy">     -0.17055240 </i>
  </energy>
  <time name="totalsc">  266.09  266.80</time>
 </calculation>
 <calculation>
  <scstep>
   <time name="dav">   21.91   21.96</time>
   <time name="total">   22.42   22.48</time>
   <energy>
    <i name="alphaZ">     90.03533920 </i>
    <i name="ewald">  44586.56987441 </i>
    <i name="hartreedc"> -50597.13954604 </i>
    <i name="XCdc">   -233.43078519 </i>
    <i name="pawpsdc">   4085.56938425 </i>
    <i name="pawaedc">  -3501.49535136 </i>
    <i name="eentropy">     -0.16057022 </i>
    <i name="bandstr">  -1383.22519183 </i>
    <i name="atom">   6761.44252427 </i>
    <i name="e_fr_energy">   -191.83432251 </i>
    <i name="e_wo_entrp">   -191.67375229 </i>
    <i name="e_0_energy">   -191.75403740 </i>
   </energy>
  </scstep>
  <scstep>
   <time name="dav">   30.86   30.93</time>
   <time name="total">   31.36   31.45</time>
   <energy>
    <i name="e_fr_energy">   -191.90277957 </i>
    <i name="e_wo_entrp">   -191.72450826 </i>
    <i name="e_0_energy">   -191.81364391 </i>
   </energy>
  </scstep>
  <scstep>
   <time name="dav">   30.99   31.07</time>
   <time name="total">   31.50   31.59</time>
   <energy>
    <i name="e_fr_energy">   -191.86488585 </i>
    <i name="e_wo_entrp">   -191.70462392 </i>
    <i name="e_0_energy">   -191.78475489 </i>
   </energy>
  </scstep>
  <scstep>
   <time name="dav">   30.37   30.44</time>
   <time name="total">   30.88   30.96</time>
   <energy>
    <i name="e_fr_energy">   -191.86370641 </i>
    <i name="e_wo_entrp">   -191.70192209 </i>
    <i name="e_0_energy">   -191.78281425 </i>
   </energy>
  </scstep>
  <scstep>
   <time name="dav">   30.79   30.86</time>
   <time name="total">   31.30   31.38</time>
   <energy>
    <i name="e_fr_energy">   -191.85840291 </i>
    <i name="e_wo_entrp">   -191.69432104 </i>
    <i name="e_0_energy">   -191.77636198 </i>
   </energy>
  </scstep>
  <scstep>
   <time name="dav">   30.90   30.98</time>
   <time name="total">   31.41   31.50</time>
   <energy>
    <i name="e_fr_energy">   -191.85779958 </i>
    <i name="e_wo_entrp">   -191.69400701 </i>
    <i name="e_0_energy">   -191.77590329 </i>
   </energy>
  </scstep>
  <scstep>
   <time name="dav">   29.09   29.16</time>
   <time name="total">   29.60   29.68</time>
   <energy>
    <i name="e_fr_energy">   -191.85733761 </i>
    <i name="e_wo_entrp">   -191.69389111 </i>
    <i name="e_0_energy">   -191.77561436 </i>
   </energy>
  </scstep>
  <scstep>
   <time name="dav">   24.32   24.37</time>
   <time name="total">   24.82   24.89</time>
   <energy>
    <i name="e_fr_energy">   -191.85710280 </i>
    <i name="e_wo_entrp">   -191.69375953 </i>
    <i name="e_0_energy">   -191.77543117 </i>
   </energy>
  </scstep>
  <scstep>
   <time name="dav">   18.25   18.29</time>
   <time name="total">   18.28   18.33</time>
   <energy>
    <i name="alphaZ">     90.03533920 </i>
    <i name="ewald">  44586.56987441 </i>
    <i name="hartreedc"> -50597.73318884 </i>
    <i name="XCdc">   -233.40137850 </i>
    <i name="pawpsdc">   4090.21044132 </i>
    <i name="pawaedc">  -3506.18884526 </i>
    <i name="eentropy">     -0.16331635 </i>
    <i name="bandstr">  -1382.62850115 </i>
    <i name="atom">   6761.44252427 </i>
    <i name="e_fr_energy">   -191.85705091 </i>
    <i name="e_wo_entrp">   -191.69373456 </i>
    <i name="e_0_energy">   -191.77539273 </i>
   </energy>
  </scstep>
  <structure>
   <crystal>
    <varray name="basis" >
     <v>       8.28472178       4.80801332       0.00000000 </v>
     <v>      -8.26349875       4.77128792       0.00000000 </v>
[...]
      <set comment="kpoint 31">
       <r>  -17.5286    1.0000 </r>
       <r>  -17.2917    1.0000 </r>
       <r>  -16.9246    1.0000 </r>
       <r>  -16.6147    1.0000 </r>
       <r>  -16.5775    1.0000 </r>
       <r>  -16.4684    1.0000 </r>
       <r>  -16.2816    1.0000 </r>
       <r>  -16.2051    1.0000 </r>
       <r>  -16.1260    1.0000 </r>
       <r>  -16.0797    1.0000 </r>
       <r>  -15.9674    1.0000 </r>
       <r>  -15.8496    1.0000 </r>
       <r>  -15.7510    1.0000 </r>
       <r>  -15.6968    1.0000 </r>
       <r>  -15.6103    1.0000 </r>
       <r>  -15.4323    1.0000 </r>
       <r>  -15.3409    1.0000 </r>
       <r>  -15.2196    1.0000 </r>
       <r>   -9.7744    1.0000 </r>
       <r>   -9.4761    1.0000 </r>
       <r>   -9.3639    1.0000 </r>
       <r>   -8.9193    1.0000 </r>
       <r>   -8.8543    1.0000 </r>
       <r>   -8.7798    1.0000 </r>
       <r>   -8.6674    1.0000 </r>
       <r>   -8.6166    1.0000 </r>
       <r>   -8.4226    1.0000 </r>
       <r>   -8.2939    1.0000 </r>
       <r>   -8.2402    1.0000 </r>
       <r>   -8.1763    1.0000 </r>
       <r>   -8.1117    1.0000 </r>
       <r>   -8.0629    1.0000 </r>
       <r>   -7.9961    1.0000 </r>
       <r>   -7.9105    1.0000 </r>
       <r>   -7.8141    1.0000 </r>
       <r>   -7.6721    1.0000 </r>
       <r>   -7.6139    1.0000 </r>
       <r>   -7.5537    1.0000 </r>
       <r>   -7.3991    1.0000 </r>
       <r>   -7.2863    1.0000 </r>
       <r>   -7.1858    1.0000 </r>
       <r>   -7.0146    1.0000 </r>
       <r>   -6.9672    1.0000 </r>
       <r>   -6.9051    1.0000 </r>
       <r>   -6.8323    1.0000 </r>
       <r>   -6.7837    1.0000 </r>
       <r>   -6.6311    1.0000 </r>
       <r>   -6.5680    1.0000 </r>
       <r>   -6.5148    1.0000 </r>
       <r>   -6.4752    1.0000 </r>
       <r>   -6.3988    1.0000 </r>
       <r>   -6.3333    1.0000 </r>
       <r>   -6.2636    1.0000 </r>
       <r>   -6.1943    1.0000 </r>
       <r>   -6.1150    1.0000 </r>
       <r>   -6.0198    1.0000 </r>
       <r>   -6.0133    1.0000 </r>
       <r>   -5.9078    1.0000 </r>
       <r>   -5.8459    1.0000 </r>
       <r>   -5.7261    1.0000 </r>
       <r>   -5.6665    1.0000 </r>
       <r>   -5.5405    1.0000 </r>
       <r>   -5.4741    1.0000 </r>
       <r>   -5.4632    1.0000 </r>
       <r>   -5.2125    1.0000 </r>
       <r>   -5.0797    1.0000 </r>
       <r>   -5.0601    1.0000 </r>
       <r>   -4.8889    1.0000 </r>
       <r>   -4.8214    1.0000 </r>
       <r>   -4.7251    1.0000 </r>
       <r>   -4.6497    1.0000 </r>
       <r>   -4.4776    1.0000 </r>
       <r>   -4.3123    1.0000 </r>
       <r>   -4.1337    1.0000 </r>
       <r>   -4.0469    1.0000 </r>
       <r>   -4.0096    1.0000 </r>
       <r>   -3.8396    1.0000 </r>
       <r>   -3.6640    0.9983 </r>
       <r>   -3.4645    0.9359 </r>
       <r>   -3.3450    0.7504 </r>
       <r>   -3.0236    0.0552 </r>
       <r>   -2.8986    0.0066 </r>
       <r>   -2.6766    0.0000 </r>
       <r>   -2.5930    0.0000 </r>
       <r>   -2.4508    0.0000 </r>
       <r>   -2.3698    0.0000 </r>
       <r>   -2.2110    0.0000 </r>
       <r>   -2.1193    0.0000 </r>
       <r>   -1.9294    0.0000 </r>
       <r>   -1.8450    0.0000 </r>
       <r>   -1.6598    0.0000 </r>
       <r>   -1.5611    0.0000 </r>
       <r>   -1.4037    0.0000 </r>
       <r>   -1.3897    0.0000 </r>
       <r>   -1.1882    0.0000 </r>
       <r>   -1.1201    0.0000 </r>
       <r>   -1.0424    0.0000 </r>
       <r>   -0.9702    0.0000 </r>
       <r>   -0.9410    0.0000 </r>
       <r>   -0.8747    0.0000 </r>
       <r>   -0.8255    0.0000 </r>
       <r>   -0.7151    0.0000 </r>
       <r>   -0.6192    0.0000 </r>
       <r>   -0.5568    0.0000 </r>
       <r>   -0.4812    0.0000 </r>
       <r>   -0.4046    0.0000 </r>
       <r>   -0.3458    0.0000 </r>
       <r>   -0.1079    0.0000 </r>
       <r>    0.0105    0.0000 </r>
       <r>    0.1339    0.0000 </r>
       <r>    0.3563    0.0000 </r>
       <r>    0.5841    0.0000 </r>
       <r>    0.7505    0.0000 </r>
       <r>    0.9857    0.0000 </r>
       <r>    1.1776    0.0000 </r>
       <r>    1.3038    0.0000 </r>
       <r>    1.5729    0.0000 </r>
       <r>    2.1621    0.0000 </r>
       <r>    2.3103    0.0000 </r>
       <r>    2.4204    0.0000 </r>
      </set>
      <set comment="kpoint 32">
       <r>  -17.5439    1.0000 </r>
       <r>  -17.2124    1.0000 </r>
       <r>  -17.0434    1.0000 </r>
       <r>  -16.6075    1.0000 </r>
       <r>  -16.5728    1.0000 </r>
       <r>  -16.3272    1.0000 </r>
       <r>  -16.2936    1.0000 </r>
       <r>  -16.2158    1.0000 </r>
       <r>  -16.1611    1.0000 </r>
       <r>  -16.0724    1.0000 </r>
       <r>  -16.0448    1.0000 </r>
       <r>  -15.8545    1.0000 </r>
       <r>  -15.7471    1.0000 </r>
       <r>  -15.6930    1.0000 </r>
       <r>  -15.5830    1.0000 </r>
       <r>  -15.4318    1.0000 </r>
       <r>  -15.3414    1.0000 </r>
       <r>  -15.2196    1.0000 </r>
       <r>   -9.6951    1.0000 </r>
       <r>   -9.6034    1.0000 </r>
       <r>   -9.4189    1.0000 </r>
       <r>   -8.9029    1.0000 </r>
       <r>   -8.7670    1.0000 </r>
       <r>   -8.7053    1.0000 </r>
       <r>   -8.6261    1.0000 </r>
       <r>   -8.5008    1.0000 </r>
       <r>   -8.3801    1.0000 </r>
       <r>   -8.3628    1.0000 </r>
       <r>   -8.3084    1.0000 </r>
       <r>   -8.2165    1.0000 </r>
       <r>   -8.1716    1.0000 </r>
       <r>   -8.1208    1.0000 </r>
       <r>   -8.0123    1.0000 </r>
       <r>   -7.9691    1.0000 </r>
       <r>   -7.8528    1.0000 </r>
       <r>   -7.6233    1.0000 </r>
       <r>   -7.5785    1.0000 </r>
       <r>   -7.5285    1.0000 </r>
       <r>   -7.3664    1.0000 </r>
       <r>   -7.3408    1.0000 </r>
       <r>   -7.1178    1.0000 </r>
       <r>   -7.0800    1.0000 </r>
       <r>   -6.9743    1.0000 </r>
       <r>   -6.9126    1.0000 </r>
       <r>   -6.8319    1.0000 </r>
       <r>   -6.6914    1.0000 </r>
       <r>   -6.6459    1.0000 </r>
       <r>   -6.5705    1.0000 </r>
       <r>   -6.5426    1.0000 </r>
       <r>   -6.4722    1.0000 </r>
       <r>   -6.4273    1.0000 </r>
       <r>   -6.3359    1.0000 </r>
       <r>   -6.3283    1.0000 </r>
       <r>   -6.2060    1.0000 </r>
       <r>   -6.0264    1.0000 </r>
       <r>   -5.9991    1.0000 </r>
       <r>   -5.9608    1.0000 </r>
       <r>   -5.9119    1.0000 </r>
       <r>   -5.7958    1.0000 </r>
       <r>   -5.7467    1.0000 </r>
       <r>   -5.6580    1.0000 </r>
       <r>   -5.5776    1.0000 </r>
       <r>   -5.5209    1.0000 </r>
       <r>   -5.4148    1.0000 </r>
       <r>   -5.1922    1.0000 </r>
       <r>   -5.0945    1.0000 </r>
       <r>   -4.9899    1.0000 </r>
       <r>   -4.8867    1.0000 </r>
       <r>   -4.8369    1.0000 </r>
       <r>   -4.7981    1.0000 </r>
       <r>   -4.7647    1.0000 </r>
       <r>   -4.4669    1.0000 </r>
       <r>   -4.2980    1.0000 </r>
       <r>   -4.1087    1.0000 </r>
       <r>   -4.0506    1.0000 </r>
       <r>   -4.0084    1.0000 </r>
       <r>   -3.8213    1.0000 </r>
       <r>   -3.6436    0.9973 </r>
       <r>   -3.4652    0.9365 </r>
       <r>   -3.3447    0.7497 </r>
       <r>   -3.0383    0.0678 </r>
       <r>   -2.8596    0.0029 </r>
       <r>   -2.6894    0.0000 </r>
       <r>   -2.5806    0.0000 </r>
       <r>   -2.4372    0.0000 </r>
       <r>   -2.3950    0.0000 </r>
       <r>   -2.2360    0.0000 </r>
       <r>   -2.1336    0.0000 </r>
       <r>   -1.9277    0.0000 </r>
       <r>   -1.8474    0.0000 </r>
       <r>   -1.6628    0.0000 </r>
       <r>   -1.5549    0.0000 </r>
       <r>   -1.4176    0.0000 </r>
       <r>   -1.4008    0.0000 </r>
       <r>   -1.1754    0.0000 </r>
       <r>   -1.1448    0.0000 </r>
       <r>   -0.9846    0.0000 </r>
       <r>   -0.9687    0.0000 </r>
       <r>   -0.9489    0.0000 </r>
       <r>   -0.8532    0.0000 </r>
       <r>   -0.8306    0.0000 </r>
       <r>   -0.7110    0.0000 </r>
       <r>   -0.6253    0.0000 </r>
       <r>   -0.5255    0.0000 </r>
       <r>   -0.4623    0.0000 </r>
       <r>   -0.4251    0.0000 </r>
       <r>   -0.3507    0.0000 </r>
       <r>   -0.1209    0.0000 </r>
       <r>   -0.0006    0.0000 </r>
       <r>    0.1022    0.0000 </r>
       <r>    0.4174    0.0000 </r>
       <r>    0.5889    0.0000 </r>
       <r>    0.7194    0.0000 </r>
       <r>    0.9451    0.0000 </r>
       <r>    1.2020    0.0000 </r>
       <r>    1.2817    0.0000 </r>
       <r>    1.5762    0.0000 </r>
       <r>    2.1305    0.0000 </r>
       <r>    2.2763    0.0000 </r>
       <r>    2.6025    0.0000 </r>
      </set>
      <set comment="kpoint 33">
       <r>  -17.5286    1.0000 </r>
       <r>  -17.2917    1.0000 </r>
       <r>  -16.9247    1.0000 </r>
       <r>  -16.6146    1.0000 </r>
       <r>  -16.5777    1.0000 </r>
       <r>  -16.4684    1.0000 </r>
       <r>  -16.2817    1.0000 </r>
       <r>  -16.2051    1.0000 </r>
       <r>  -16.1258    1.0000 </r>
       <r>  -16.0799    1.0000 </r>
       <r>  -15.9673    1.0000 </r>
       <r>  -15.8496    1.0000 </r>
       <r>  -15.7509    1.0000 </r>
       <r>  -15.6968    1.0000 </r>
       <r>  -15.6103    1.0000 </r>
       <r>  -15.4323    1.0000 </r>
       <r>  -15.3408    1.0000 </r>
       <r>  -15.2196    1.0000 </r>
       <r>   -9.7744    1.0000 </r>
       <r>   -9.4762    1.0000 </r>
       <r>   -9.3640    1.0000 </r>
       <r>   -8.9193    1.0000 </r>
       <r>   -8.8544    1.0000 </r>
       <r>   -8.7799    1.0000 </r>
       <r>   -8.6672    1.0000 </r>
       <r>   -8.6164    1.0000 </r>
       <r>   -8.4227    1.0000 </r>
       <r>   -8.2939    1.0000 </r>
       <r>   -8.2404    1.0000 </r>
       <r>   -8.1762    1.0000 </r>
       <r>   -8.1118    1.0000 </r>
       <r>   -8.0631    1.0000 </r>
       <r>   -7.9963    1.0000 </r>
       <r>   -7.9105    1.0000 </r>
       <r>   -7.8141    1.0000 </r>
       <r>   -7.6724    1.0000 </r>
       <r>   -7.6135    1.0000 </r>
       <r>   -7.5535    1.0000 </r>
       <r>   -7.3990    1.0000 </r>
       <r>   -7.2861    1.0000 </r>
       <r>   -7.1858    1.0000 </r>
       <r>   -7.0146    1.0000 </r>
       <r>   -6.9672    1.0000 </r>
       <r>   -6.9051    1.0000 </r>
       <r>   -6.8324    1.0000 </r>
       <r>   -6.7838    1.0000 </r>
       <r>   -6.6312    1.0000 </r>
       <r>   -6.5682    1.0000 </r>
       <r>   -6.5143    1.0000 </r>
       <r>   -6.4750    1.0000 </r>
       <r>   -6.3992    1.0000 </r>
       <r>   -6.3332    1.0000 </r>
       <r>   -6.2637    1.0000 </r>
       <r>   -6.1945    1.0000 </r>
       <r>   -6.1152    1.0000 </r>
       <r>   -6.0199    1.0000 </r>
       <r>   -6.0133    1.0000 </r>
       <r>   -5.9075    1.0000 </r>
       <r>   -5.8456    1.0000 </r>
       <r>   -5.7262    1.0000 </r>
       <r>   -5.6666    1.0000 </r>
       <r>   -5.5404    1.0000 </r>
       <r>   -5.4741    1.0000 </r>
       <r>   -5.4631    1.0000 </r>
       <r>   -5.2126    1.0000 </r>
       <r>   -5.0795    1.0000 </r>
       <r>   -5.0602    1.0000 </r>
       <r>   -4.8890    1.0000 </r>
       <r>   -4.8215    1.0000 </r>
       <r>   -4.7254    1.0000 </r>
       <r>   -4.6499    1.0000 </r>
       <r>   -4.4777    1.0000 </r>
       <r>   -4.3122    1.0000 </r>
       <r>   -4.1337    1.0000 </r>
       <r>   -4.0465    1.0000 </r>
       <r>   -4.0098    1.0000 </r>
       <r>   -3.8400    1.0000 </r>
       <r>   -3.6642    0.9983 </r>
       <r>   -3.4633    0.9348 </r>
       <r>   -3.3457    0.7519 </r>
       <r>   -3.0236    0.0551 </r>
       <r>   -2.8984    0.0065 </r>
       <r>   -2.6764    0.0000 </r>
       <r>   -2.5931    0.0000 </r>
       <r>   -2.4508    0.0000 </r>
       <r>   -2.3699    0.0000 </r>
       <r>   -2.2110    0.0000 </r>
       <r>   -2.1194    0.0000 </r>
       <r>   -1.9297    0.0000 </r>
       <r>   -1.8452    0.0000 </r>
       <r>   -1.6596    0.0000 </r>
       <r>   -1.5607    0.0000 </r>
       <r>   -1.4036    0.0000 </r>
       <r>   -1.3899    0.0000 </r>
       <r>   -1.1881    0.0000 </r>
       <r>   -1.1200    0.0000 </r>
       <r>   -1.0422    0.0000 </r>
       <r>   -0.9701    0.0000 </r>
       <r>   -0.9412    0.0000 </r>
       <r>   -0.8750    0.0000 </r>
       <r>   -0.8253    0.0000 </r>
       <r>   -0.7150    0.0000 </r>
       <r>   -0.6193    0.0000 </r>
       <r>   -0.5568    0.0000 </r>
       <r>   -0.4816    0.0000 </r>
       <r>   -0.4046    0.0000 </r>
       <r>   -0.3460    0.0000 </r>
       <r>   -0.1078    0.0000 </r>
       <r>    0.0104    0.0000 </r>
       <r>    0.1337    0.0000 </r>
       <r>    0.3561    0.0000 </r>
       <r>    0.5839    0.0000 </r>
       <r>    0.7504    0.0000 </r>
       <r>    0.9859    0.0000 </r>
       <r>    1.1776    0.0000 </r>
       <r>    1.3038    0.0000 </r>
       <r>    1.5729    0.0000 </r>
       <r>    2.1621    0.0000 </r>
       <r>    2.3103    0.0000 </r>
       <r>    2.4204    0.0000 </r>
      </set>
      <set comment="kpoint 34">
       <r>  -17.5072    1.0000 </r>
       <r>  -17.3500    1.0000 </r>
       <r>  -16.7472    1.0000 </r>
       <r>  -16.7177    1.0000 </r>
       <r>  -16.5842    1.0000 </r>
       <r>  -16.5507    1.0000 </r>
       <r>  -16.2801    1.0000 </r>
       <r>  -16.2008    1.0000 </r>
       <r>  -16.1183    1.0000 </r>
       <r>  -16.0846    1.0000 </r>
       <r>  -15.8821    1.0000 </r>
       <r>  -15.8351    1.0000 </r>
       <r>  -15.7703    1.0000 </r>
       <r>  -15.7008    1.0000 </r>
       <r>  -15.6444    1.0000 </r>
       <r>  -15.4327    1.0000 </r>
       <r>  -15.3403    1.0000 </r>
       <r>  -15.2196    1.0000 </r>
       <r>   -9.8139    1.0000 </r>
       <r>   -9.3527    1.0000 </r>
       <r>   -9.3028    1.0000 </r>
       <r>   -9.0085    1.0000 </r>
       <r>   -8.9416    1.0000 </r>
       <r>   -8.8335    1.0000 </r>
       <r>   -8.6772    1.0000 </r>
       <r>   -8.6619    1.0000 </r>
       <r>   -8.4420    1.0000 </r>
       <r>   -8.2941    1.0000 </r>
       <r>   -8.2315    1.0000 </r>
       <r>   -8.1335    1.0000 </r>
       <r>   -8.0838    1.0000 </r>
       <r>   -8.0159    1.0000 </r>
       <r>   -7.9267    1.0000 </r>
       <r>   -7.8479    1.0000 </r>
       <r>   -7.7453    1.0000 </r>
       <r>   -7.6838    1.0000 </r>
       <r>   -7.6439    1.0000 </r>
       <r>   -7.5940    1.0000 </r>
       <r>   -7.4666    1.0000 </r>
       <r>   -7.3367    1.0000 </r>
       <r>   -7.0945    1.0000 </r>
       <r>   -7.0713    1.0000 </r>
       <r>   -7.0043    1.0000 </r>
       <r>   -6.8538    1.0000 </r>
       <r>   -6.8286    1.0000 </r>
       <r>   -6.7142    1.0000 </r>
       <r>   -6.6511    1.0000 </r>
       <r>   -6.5909    1.0000 </r>
       <r>   -6.5221    1.0000 </r>
       <r>   -6.4611    1.0000 </r>
       <r>   -6.4147    1.0000 </r>
       <r>   -6.3481    1.0000 </r>
       <r>   -6.2711    1.0000 </r>
       <r>   -6.1833    1.0000 </r>
       <r>   -6.1147    1.0000 </r>
       <r>   -6.0994    1.0000 </r>
       <r>   -6.0106    1.0000 </r>
       <r>   -5.8468    1.0000 </r>
       <r>   -5.8158    1.0000 </r>
       <r>   -5.7944    1.0000 </r>
       <r>   -5.6349    1.0000 </r>
       <r>   -5.6009    1.0000 </r>
       <r>   -5.5368    1.0000 </r>
       <r>   -5.4118    1.0000 </r>
       <r>   -5.2279    1.0000 </r>
       <r>   -5.0690    1.0000 </r>
       <r>   -5.0035    1.0000 </r>
       <r>   -4.9570    1.0000 </r>
       <r>   -4.8341    1.0000 </r>
       <r>   -4.6323    1.0000 </r>
       <r>   -4.5759    1.0000 </r>
       <r>   -4.4452    1.0000 </r>
       <r>   -4.3406    1.0000 </r>
       <r>   -4.1793    1.0000 </r>
       <r>   -4.0438    1.0000 </r>
       <r>   -4.0104    1.0000 </r>
       <r>   -3.8607    1.0000 </r>
       <r>   -3.6805    0.9988 </r>
       <r>   -3.4627    0.9342 </r>
       <r>   -3.3463    0.7534 </r>
       <r>   -2.9932    0.0350 </r>
       <r>   -2.9503    0.0172 </r>
       <r>   -2.6617    0.0000 </r>
       <r>   -2.6096    0.0000 </r>
       <r>   -2.4598    0.0000 </r>
       <r>   -2.3478    0.0000 </r>
       <r>   -2.1857    0.0000 </r>
       <r>   -2.1054    0.0000 </r>
       <r>   -1.9299    0.0000 </r>
       <r>   -1.8483    0.0000 </r>
       <r>   -1.6577    0.0000 </r>
       <r>   -1.5657    0.0000 </r>
       <r>   -1.3916    0.0000 </r>
       <r>   -1.3725    0.0000 </r>
       <r>   -1.2010    0.0000 </r>
       <r>   -1.0889    0.0000 </r>
       <r>   -1.0741    0.0000 </r>
       <r>   -0.9985    0.0000 </r>
       <r>   -0.9328    0.0000 </r>
       <r>   -0.8986    0.0000 </r>
       <r>   -0.8220    0.0000 </r>
       <r>   -0.7116    0.0000 </r>
       <r>   -0.6301    0.0000 </r>
       <r>   -0.6000    0.0000 </r>
       <r>   -0.4801    0.0000 </r>
       <r>   -0.4083    0.0000 </r>
       <r>   -0.3023    0.0000 </r>
       <r>   -0.1146    0.0000 </r>
       <r>    0.0177    0.0000 </r>
       <r>    0.1966    0.0000 </r>
       <r>    0.2747    0.0000 </r>
       <r>    0.5834    0.0000 </r>
       <r>    0.7698    0.0000 </r>
       <r>    1.0443    0.0000 </r>
       <r>    1.1398    0.0000 </r>
       <r>    1.3232    0.0000 </r>
       <r>    1.5693    0.0000 </r>
       <r>    2.2519    0.0000 </r>
       <r>    2.2650    0.0000 </r>
       <r>    2.4055    0.0000 </r>
      </set>
     </set>
    </set>
   </array>
  </eigenvalues>
  <separator name="orbital magnetization" >
   <v name="MAGDIPOLOUT">      0.00000000      0.00000000      0.00000000</v>
  </separator>
 </calculation>
 <structure name="finalpos" >
  <crystal>
   <varray name="basis" >
    <v>       8.30937998       4.82371555       0.00000000 </v>
    <v>      -8.28684534       4.78472078       0.00000000 </v>
    <v>       0.00000000       0.00000000      30.00000000 </v>
   </varray>
   <i name="volume">   2391.94343402 </i>
   <varray name="rec_basis" >
    <v>       0.06001046       0.10393446       0.00000000 </v>
    <v>      -0.06049954       0.10421710       0.00000000 </v>
    <v>       0.00000000       0.00000000       0.03333333 </v>
   </varray>
  </crystal>
  <varray name="positions" >
   <v>      -0.03184203       0.65069473       0.00154201 </v>
   <v>       0.36755913       0.68324443      -0.00173261 </v>
   <v>       0.36756752       0.01757952      -0.00172880 </v>
   <v>       0.66647844       0.33922690      -0.00018692 </v>
   <v>       0.66649559       0.66059898      -0.00018674 </v>
   <v>       0.67552667       0.00432419      -0.00036128 </v>
   <v>      -0.03919281      -0.01738614       0.00227660 </v>
   <v>       0.96078837       0.31146177       0.00228197 </v>
   <v>       0.37316353       0.35322005      -0.00199790 </v>
   <v>       0.11217938       0.22273441       0.95557530 </v>
   <v>       0.22254527       0.11003904       0.04367555 </v>
   <v>       0.11107954       0.55640772       0.95716852 </v>
   <v>       0.22253592       0.44577433       0.04368055 </v>
   <v>       0.11110070       0.88793904       0.95717447 </v>
   <v>       0.22368987       0.77848199       0.04212769 </v>
   <v>       0.44716711       0.22032599       0.94453432 </v>
   <v>       0.55347392       0.11039686       0.05251873 </v>
   <v>       0.44719057       0.56010588       0.94452679 </v>
   <v>       0.56072640       0.44701289       0.05558758 </v>
   <v>       0.44277834       0.88802308       0.94689749 </v>
   <v>       0.55348476       0.77635434       0.05253320 </v>
   <v>       0.77217629       0.22050369       0.94507196 </v>
   <v>       0.88061821       0.10694014       0.05804493 </v>
   <v>       0.78226633       0.55776580       0.94582658 </v>
   <v>       0.88820529       0.44835127       0.05504852 </v>
   <v>       0.77221912       0.88494438       0.94505763 </v>
   <v>       0.88823303       0.77314918       0.05504378 </v>
  </varray>
 </structure>
</modeling>
