unknown system                          
           1
     8.855838    5.109447    0.000000
    -8.852035    5.102905    0.000000
     0.000000    0.000000   30.000000
   V    Mo   W    S 
   3   3   3  18
Direct configuration=     1
   0.00000000  0.66666669  0.00000000
   0.33333334  0.66666669  0.00000000
   0.33333334  0.00000000  0.00000000
   0.66666669  0.33333334  0.00000000
   0.66666669  0.66666669  0.00000000
   0.66666669  0.00000000  0.00000000
   0.00000000  0.00000000  0.00000000
   1.00000000  0.33333334  0.00000000
   0.33333334  0.33333334  0.00000000
   0.11068511  0.22244981  0.95539999
   0.22244981  0.11068511  0.04460000
   0.11068511  0.55578315  0.95539999
   0.22244981  0.44401845  0.04460000
   0.11068511  0.88911647  0.95539999
   0.22244981  0.77735180  0.04460000
   0.44401845  0.22244981  0.95539999
   0.55578315  0.11068511  0.04460000
   0.44401845  0.55578315  0.95539999
   0.55578315  0.44401845  0.04460000
   0.44401845  0.88911647  0.95539999
   0.55578315  0.77735180  0.04460000
   0.77735180  0.22244981  0.95539999
   0.88911647  0.11068511  0.04460000
   0.77735180  0.55578315  0.95539999
   0.88911647  0.44401845  0.04460000
   0.77735180  0.88911647  0.95539999
   0.88911647  0.77735180  0.04460000
unknown system                          
           1
     8.667680    5.002990    0.000000
    -8.664108    4.996845    0.000000
     0.000000    0.000000   30.000000
   V    Mo   W    S 
   3   3   3  18
Direct configuration=     2
  -0.00130149  0.66602734  0.00001454
   0.33507395  0.66829645  0.00007155
   0.33514644  0.00011043  0.00005442
   0.66661969  0.33331404 -0.00019018
   0.66661015  0.66658562 -0.00018801
   0.66656396 -0.00001116  0.00021051
  -0.00275196 -0.00189124  0.00011142
   0.99713996  0.33247933  0.00013284
   0.33644221  0.33481334 -0.00021209
   0.11131749  0.22220573  0.95079617
   0.22400776  0.10900262  0.04795286
   0.11255764  0.55896872  0.95314751
   0.22376186  0.44795667  0.04802279
   0.11277938  0.88705124  0.95307769
   0.22233281  0.77756385  0.04582921
   0.44172245  0.21819404  0.95188192
   0.55103161  0.10872637  0.04803664
   0.44149445  0.55685340  0.95195214
   0.55455047  0.44392310  0.04924646
   0.43986659  0.88678886  0.95310673
   0.55102566  0.77562284  0.04803000
   0.77855427  0.22267976  0.95074017
   0.88968733  0.11150371  0.04939003
   0.78203511  0.55761152  0.95194093
   0.89157062  0.44837183  0.04808596
   0.77855906  0.88909867  0.95074840
   0.89181695  0.77636738  0.04800928
unknown system                          
           1
     8.486570    4.901763    0.000000
    -8.484444    4.898118    0.000000
     0.000000    0.000000   30.000000
   V    Mo   W    S 
   3   3   3  18
Direct configuration=     3
  -0.00175048  0.66580156 -0.00004086
   0.33563820  0.66867026  0.00012418
   0.33570914  0.00030910  0.00010320
   0.66652927  0.33333914 -0.00020755
   0.66651909  0.66647170 -0.00020562
   0.66730690  0.00035919  0.00024368
  -0.00391392 -0.00224712  0.00007826
   0.99597615  0.33166055  0.00010198
   0.33766687  0.33542890 -0.00018075
   0.11130886  0.22222452  0.95094531
   0.22389306  0.10908560  0.04781683
   0.11249732  0.55882025  0.95327953
   0.22368848  0.44777552  0.04787323
   0.11268068  0.88712360  0.95322071
   0.22232962  0.77758245  0.04571537
   0.44155299  0.21820417  0.95182523
   0.55088117  0.10863061  0.04806905
   0.44135697  0.55668761  0.95188667
   0.55432921  0.44380480  0.04930004
   0.43976871  0.88671029  0.95311077
   0.55087806  0.77553826  0.04806076
   0.77877513  0.22279921  0.95066096
   0.88989956  0.11158713  0.04949612
   0.78219329  0.55770744  0.95188757
   0.89175249  0.44836146  0.04811531
   0.77877873  0.88921902  0.95067113
   0.89196888  0.77655920  0.04804876
unknown system                          
           1
     8.280625    4.793077    0.000000
    -8.269933    4.774593    0.000000
     0.000000    0.000000   30.000000
   V    Mo   W    S 
   3   3   3  18
Direct configuration=     4
  -0.00373941  0.66477490 -0.00025203
   0.33783190  0.66949671  0.00027964
   0.33788940  0.00167342  0.00025642
   0.66592725  0.33346295 -0.00019348
   0.66588449  0.66572678 -0.00019332
   0.67140874  0.00239721  0.00027454
  -0.00859630 -0.00296045 -0.00006989
   0.99128812  0.32763904 -0.00004955
   0.34248181  0.33787004  0.00001629
   0.11142656  0.22237331  0.94998098
   0.22408177  0.10866682  0.04867487
   0.11309537  0.55977929  0.95249797
   0.22398882  0.44844471  0.04869161
   0.11316558  0.88669669  0.95247195
   0.22221697  0.77761588  0.04646994
   0.44098451  0.21696819  0.95009665
   0.54966394  0.10796672  0.04959238
   0.44088025  0.55737870  0.95012493
   0.55450815  0.44386380  0.05113755
   0.43883681  0.88613899  0.95185483
   0.54966463  0.77491370  0.04958442
   0.77859642  0.22271226  0.94873927
   0.88990029  0.11153058  0.05164517
   0.78356665  0.55843962  0.95025318
   0.89227987  0.44947589  0.04969886
   0.77858308  0.88918691  0.94874897
   0.89239880  0.77598181  0.04966772
unknown system                          
           1
     8.286157    4.807610    0.000000
    -8.265907    4.772570    0.000000
     0.000000    0.000000   30.000000
   V    Mo   W    S 
   3   3   3  18
Direct configuration=     5
  -0.00711893  0.66303644 -0.00054880
   0.34217342  0.67110999  0.00039415
   0.34219826  0.00434800  0.00037831
   0.66432688  0.33389986 -0.00008264
   0.66420742  0.66361589 -0.00008031
   0.68060278  0.00698809  0.00014136
  -0.01884102 -0.00446095 -0.00020116
   0.98102106  0.31884291 -0.00018730
   0.35367289  0.34350512  0.00020973
   0.11203542  0.22271379  0.94920606
   0.22371904  0.10822820  0.04934232
   0.11336303  0.56008435  0.95170023
   0.22371191  0.44867743  0.04933344
   0.11333272  0.88651615  0.95169884
   0.22203043  0.77764812  0.04765468
   0.44095678  0.21585255  0.94763466
   0.54916217  0.10741782  0.05164604
   0.44093397  0.55840823  0.94763433
   0.55601676  0.44462114  0.05387160
   0.43888152  0.88602226  0.95019760
   0.54916494  0.77498106  0.05164050
   0.77712229  0.22217758  0.94595889
   0.88936366  0.11126195  0.05509916
   0.78448345  0.55890229  0.94793063
   0.89228166  0.45024149  0.05173423
   0.77710798  0.88825549  0.94597279
   0.89230397  0.77531919  0.05172055
unknown system                          
           1
     8.284722    4.808013    0.000000
    -8.263499    4.771288    0.000000
     0.000000    0.000000   30.000000
   V    Mo   W    S 
   3   3   3  18
Direct configuration=     6
  -0.00812217  0.66253501 -0.00057338
   0.34417574  0.67247639  0.00042261
   0.34419035  0.00496650  0.00040790
   0.66398621  0.33448291 -0.00006558
   0.66388387  0.66268993 -0.00006157
   0.68142174  0.00739362 -0.00006798
  -0.02170267 -0.00524035 -0.00001268
   0.97819770  0.31679343  0.00000343
   0.35709425  0.34520329  0.00003207
   0.11269709  0.22303376  0.94975689
   0.22297682  0.10863458  0.04878705
   0.11262921  0.55867012  0.95199200
   0.22294543  0.44754521  0.04878301
   0.11261365  0.88719999  0.95198717
   0.22220258  0.77772342  0.04759131
   0.44145985  0.21631765  0.94741999
   0.55005194  0.10748572  0.05169809
   0.44143928  0.55844001  0.94742035
   0.55739926  0.44531497  0.05441775
   0.43988943  0.88654048  0.95014651
   0.55004914  0.77581812  0.05169419
   0.77591512  0.22187237  0.94558793
   0.88915066  0.11117203  0.05570326
   0.78394251  0.55862647  0.94775309
   0.89189908  0.44968010  0.05179508
   0.77591420  0.88734779  0.94560586
   0.89191419  0.77549093  0.05177557
unknown system                          
           1
     8.299259    4.827667    0.000000
    -8.268435    4.774312    0.000000
     0.000000    0.000000   30.000000
   V    Mo   W    S 
   3   3   3  18
Direct configuration=     7
  -0.00955822  0.66179305 -0.00073027
   0.34726972  0.67468463  0.00051468
   0.34715782  0.00569088  0.00050283
   0.66377144  0.33558031 -0.00004180
   0.66355858  0.66136981 -0.00003562
   0.68259625  0.00795172 -0.00020359
  -0.02608967 -0.00671453  0.00004229
   0.97382857  0.31390351  0.00005324
   0.36202285  0.34773629  0.00002444
   0.11346375  0.22340522  0.95057685
   0.22218308  0.10911762  0.04798250
   0.11195758  0.55723533  0.95251181
   0.22216480  0.44633232  0.04797399
   0.11190830  0.88793844  0.95249521
   0.22242725  0.77780662  0.04738769
   0.44214843  0.21672252  0.94708881
   0.55082550  0.10762509  0.05177348
   0.44211546  0.55873378  0.94709418
   0.55855059  0.44589353  0.05495693
   0.44061267  0.88687403  0.94993368
   0.55076243  0.77643756  0.05175822
   0.77493595  0.22173149  0.94524793
   0.88821379  0.11072320  0.05636058
   0.78354201  0.55841507  0.94753120
   0.89144963  0.44925599  0.05198202
   0.77492523  0.88649552  0.94526016
   0.89147066  0.77547547  0.05195844
unknown system                          
           1
     8.304542    4.837636    0.000000
    -8.267698    4.773856    0.000000
     0.000000    0.000000   30.000000
   V    Mo   W    S 
   3   3   3  18
Direct configuration=     8
  -0.01177592  0.66066973 -0.00088037
   0.35170405  0.67793163  0.00056072
   0.35156762  0.00682354  0.00056109
   0.66380381  0.33727504 -0.00001828
   0.66360734  0.65970659 -0.00000647
   0.68278396  0.00804665 -0.00044638
  -0.03127337 -0.00874409  0.00031749
   0.96867945  0.31077876  0.00032259
   0.36743472  0.35042849 -0.00022955
   0.11454871  0.22393646  0.95175487
   0.22117445  0.10968340  0.04680631
   0.11113568  0.55543233  0.95328397
   0.22114275  0.44478204  0.04680903
   0.11108264  0.88891235  0.95326839
   0.22281903  0.77799566  0.04701931
   0.44300941  0.21721268  0.94675597
   0.55178207  0.10795266  0.05189812
   0.44298739  0.55911752  0.94673857
   0.56035960  0.44680647  0.05572740
   0.44121709  0.88718716  0.94960788
   0.55174563  0.77710147  0.05190008
   0.77337125  0.22137619  0.94478835
   0.88681540  0.11004167  0.05707255
   0.78304026  0.55816621  0.94720432
   0.89103442  0.44887199  0.05220945
   0.77336538  0.88526670  0.94479446
   0.89105164  0.77545514  0.05218004
unknown system                          
           1
     8.317537    4.845194    0.000000
    -8.280629    4.781303    0.000000
     0.000000    0.000000   30.000000
   V    Mo   W    S 
   3   3   3  18
Direct configuration=     9
  -0.01409141  0.65950436 -0.00093465
   0.35528904  0.68028034  0.00051892
   0.35515018  0.00802390  0.00052534
   0.66443202  0.33894587  0.00000245
   0.66426476  0.65868463  0.00001040
   0.68127651  0.00728480 -0.00065941
  -0.03399703 -0.01036411  0.00058826
   0.96598528  0.30969470  0.00060105
   0.36972807  0.35157403 -0.00053400
   0.11524679  0.22428076  0.95285302
   0.22048245  0.10991049  0.04574755
   0.11074293  0.55439360  0.95405333
   0.22045727  0.44387580  0.04575570
   0.11069066  0.88955714  0.95404621
   0.22328614  0.77823154  0.04652216
   0.44380976  0.21748919  0.94658455
   0.55248642  0.10853655  0.05203442
   0.44380631  0.55963602  0.94655662
   0.56152636  0.44739079  0.05611821
   0.44124812  0.88722263  0.94924599
   0.55248253  0.77724681  0.05204702
   0.77222119  0.22102537  0.94461137
   0.88502312  0.10916145  0.05738191
   0.78268717  0.55799354  0.94689729
   0.89086448  0.44890479  0.05241615
   0.77222974  0.88447002  0.94462021
   0.89088559  0.77525945  0.05238985
unknown system                          
           1
     8.318017    4.846368    0.000000
    -8.280275    4.781034    0.000000
     0.000000    0.000000   30.000000
   V    Mo   W    S 
   3   3   3  18
Direct configuration=    10
  -0.01673217  0.65817822 -0.00085877
   0.35845969  0.68210617  0.00041049
   0.35831272  0.00934034  0.00042147
   0.66512680  0.34028504 -0.00000207
   0.66498720  0.65806034  0.00000934
   0.67979733  0.00653969 -0.00073771
  -0.03648697 -0.01196236  0.00082104
   0.96349286  0.30880653  0.00082598
   0.37186560  0.35263784 -0.00074978
   0.11565349  0.22448486  0.95373273
   0.21995590  0.10988553  0.04492290
   0.11068272  0.55387806  0.95470186
   0.21994664  0.44339137  0.04493791
   0.11062624  0.89001339  0.95470149
   0.22373810  0.77845522  0.04600161
   0.44461341  0.21771240  0.94637927
   0.55315133  0.10923210  0.05218902
   0.44462249  0.56021593  0.94634613
   0.56203357  0.44764976  0.05630534
   0.44113025  0.88717209  0.94883679
   0.55316309  0.77722255  0.05220406
   0.77149923  0.22084493  0.94456801
   0.88311674  0.10821380  0.05754686
   0.78238849  0.55784496  0.94654246
   0.89077236  0.44918534  0.05270075
   0.77149978  0.88392299  0.94456897
   0.89079757  0.77489736  0.05267374
unknown system                          
           1
     8.321341    4.846853    0.000000
    -8.284825    4.783643    0.000000
     0.000000    0.000000   30.000000
   V    Mo   W    S 
   3   3   3  18
Direct configuration=    11
  -0.01945771  0.65681386 -0.00068824
   0.36081882  0.68317896  0.00022038
   0.36079180  0.01072401  0.00023355
   0.66577204  0.34119878 -0.00002694
   0.66574334  0.65781965 -0.00001540
   0.67827567  0.00579071 -0.00077099
  -0.03796854 -0.01317909  0.00106236
   0.96202856  0.30854739  0.00106836
   0.37286744  0.35308790 -0.00102319
   0.11559929  0.22446175  0.95443831
   0.21975562  0.10977964  0.04429849
   0.11077747  0.55379347  0.95527702
   0.21974912  0.44328150  0.04432118
   0.11075176  0.89021489  0.95529006
   0.22416874  0.77869392  0.04542052
   0.44532523  0.21799991  0.94623441
   0.55376145  0.10997670  0.05231056
   0.44536009  0.56062561  0.94619656
   0.56229438  0.44778316  0.05634844
   0.44095312  0.88711996  0.94849220
   0.55383978  0.77711671  0.05233520
   0.77094895  0.22063822  0.94462424
   0.88142808  0.10737113  0.05758077
   0.78214320  0.55772677  0.94622908
   0.89075243  0.44951718  0.05297046
   0.77096052  0.88358341  0.94462577
   0.89077382  0.77454835  0.05294673
unknown system                          
           1
     8.317864    4.844051    0.000000
    -8.282033    4.782028    0.000000
     0.000000    0.000000   30.000000
   V    Mo   W    S 
   3   3   3  18
Direct configuration=    12
  -0.02083394  0.65612976 -0.00051263
   0.36145275  0.68309741  0.00007554
   0.36127964  0.01134152  0.00007908
   0.66605822  0.34124581 -0.00003821
   0.66592590  0.65805555 -0.00003323
   0.67760769  0.00542577 -0.00072641
  -0.03794838 -0.01354625  0.00115769
   0.96203558  0.30893017  0.00116732
   0.37266990  0.35304486 -0.00109508
   0.11520471  0.22426347  0.95453685
   0.21993974  0.10969955  0.04424260
   0.11101806  0.55416091  0.95545347
   0.21995516  0.44357327  0.04425324
   0.11096339  0.89007651  0.95546110
   0.22425409  0.77871004  0.04512137
   0.44557423  0.21816399  0.94610424
   0.55400716  0.11031865  0.05237081
   0.44560556  0.56071511  0.94608687
   0.56211716  0.44769122  0.05625783
   0.44087343  0.88704342  0.94834803
   0.55399934  0.77697202  0.05236678
   0.77091545  0.22057433  0.94468805
   0.88094164  0.10713481  0.05758715
   0.78212696  0.55770540  0.94608497
   0.89075673  0.44968931  0.05314584
   0.77091725  0.88361831  0.94469023
   0.89079704  0.77437953  0.05312640
unknown system                          
           1
     8.318180    4.842532    0.000000
    -8.283798    4.783019    0.000000
     0.000000    0.000000   30.000000
   V    Mo   W    S 
   3   3   3  18
Direct configuration=    13
  -0.02179912  0.65564829 -0.00039948
   0.36192287  0.68310942 -0.00003034
   0.36181512  0.01185331 -0.00001803
   0.66616607  0.34123079 -0.00005803
   0.66607445  0.65818608 -0.00004992
   0.67730303  0.00528156 -0.00069778
  -0.03812016 -0.01386497  0.00122724
   0.96186520  0.30907957  0.00123147
   0.37271191  0.35303827 -0.00116117
   0.11494773  0.22413725  0.95462182
   0.22007433  0.10968882  0.04418867
   0.11111246  0.55435487  0.95558788
   0.22008521  0.44371223  0.04420170
   0.11106516  0.88998364  0.95559536
   0.22428200  0.77872748  0.04490612
   0.44572399  0.21832445  0.94603527
   0.55408452  0.11047900  0.05237948
   0.44575981  0.56070861  0.94600997
   0.56200113  0.44763537  0.05619458
   0.44084737  0.88703487  0.94826019
   0.55410894  0.77690234  0.05238751
   0.77093304  0.22053462  0.94474702
   0.88070392  0.10701134  0.05757822
   0.78211253  0.55770021  0.94602123
   0.89072872  0.44974787  0.05325875
   0.77093812  0.88367460  0.94474474
   0.89076609  0.77429455  0.05323742
unknown system                          
           1
     8.313786    4.836882    0.000000
    -8.282066    4.781978    0.000000
     0.000000    0.000000   30.000000
   V    Mo   W    S 
   3   3   3  18
Direct configuration=    14
  -0.02325411  0.65492644 -0.00020480
   0.36272928  0.68312623 -0.00019922
   0.36260968  0.01264235 -0.00018710
   0.66632372  0.34112871 -0.00007793
   0.66622944  0.65845604 -0.00007159
   0.67681130  0.00502316 -0.00065473
  -0.03829458 -0.01432117  0.00134379
   0.96169652  0.30936285  0.00135198
   0.37270348  0.35303791 -0.00125804
   0.11458677  0.22395707  0.95472247
   0.22029230  0.10969041  0.04413201
   0.11125719  0.55465620  0.95577412
   0.22030205  0.44392650  0.04414294
   0.11120808  0.88982851  0.95578207
   0.22427606  0.77872294  0.04458858
   0.44593257  0.21854084  0.94588350
   0.55419179  0.11068733  0.05242117
   0.44597168  0.56069657  0.94585953
   0.56185481  0.44756287  0.05613099
   0.44085099  0.88703620  0.94811186
   0.55421230  0.77679608  0.05242754
   0.77093702  0.22046595  0.94478585
   0.88042862  0.10687560  0.05760945
   0.78209363  0.55769007  0.94590466
   0.89063743  0.44979692  0.05345828
   0.77094972  0.88375089  0.94478480
   0.89067670  0.77415099  0.05343771
unknown system                          
           1
     8.312446    4.830386    0.000000
    -8.285636    4.783988    0.000000
     0.000000    0.000000   30.000000
   V    Mo   W    S 
   3   3   3  18
Direct configuration=    15
  -0.02580219  0.65366100  0.00014911
   0.36412674  0.68314201 -0.00051806
   0.36411062  0.01413272 -0.00050316
   0.66649177  0.34083333 -0.00012223
   0.66648250  0.65893747 -0.00011293
   0.67618310  0.00471829 -0.00058810
  -0.03865254 -0.01515452  0.00153544
   0.96132521  0.30982490  0.00153553
   0.37282481  0.35305447 -0.00141617
   0.11390968  0.22362084  0.95493236
   0.22071877  0.10974475  0.04401241
   0.11138746  0.55511746  0.95613415
   0.22071575  0.44426931  0.04402744
   0.11137536  0.88951856  0.95614778
   0.22421033  0.77871631  0.04398911
   0.44624102  0.21894910  0.94561356
   0.55427770  0.11092795  0.05247939
   0.44628991  0.56057726  0.94558349
   0.56158261  0.44743083  0.05598587
   0.44095335  0.88711382  0.94786176
   0.55434356  0.77665889  0.05249771
   0.77105828  0.22036460  0.94488342
   0.88012777  0.10671615  0.05766291
   0.78205018  0.55767012  0.94576138
   0.89038686  0.44975058  0.05380655
   0.77107471  0.88396964  0.94487558
   0.89042113  0.77394861  0.05378559
unknown system                          
           1
     8.311074    4.828349    0.000000
    -8.285401    4.783919    0.000000
     0.000000    0.000000   30.000000
   V    Mo   W    S 
   3   3   3  18
Direct configuration=    16
  -0.03186883  0.65065350  0.00105203
   0.36760653  0.68318583 -0.00129405
   0.36758294  0.01763075 -0.00129240
   0.66695192  0.34015237 -0.00020717
   0.66695646  0.66011001 -0.00020799
   0.67465211  0.00391530 -0.00040698
  -0.03939249 -0.01716742  0.00204214
   0.96058000  0.31107783  0.00204923
   0.37302848  0.35316432 -0.00181786
   0.11236283  0.22284470  0.95540634
   0.22178516  0.10989551  0.04375873
   0.11169453  0.55628315  0.95699189
   0.22178838  0.44517381  0.04376303
   0.11170520  0.88867874  0.95700817
   0.22394838  0.77859588  0.04252046
   0.44697340  0.21993234  0.94487759
   0.55449472  0.11142262  0.05266092
   0.44702487  0.56029330  0.94486819
   0.56106646  0.44717556  0.05568663
   0.44135369  0.88731466  0.94721732
   0.55451320  0.77634502  0.05265955
   0.77129318  0.22012098  0.94502321
   0.87961840  0.10645895  0.05783555
   0.78191229  0.55758952  0.94542729
   0.88960386  0.44950781  0.05468652
   0.77132776  0.88445665  0.94501637
   0.88965103  0.77340276  0.05467519
unknown system                          
           1
     8.310977    4.827548    0.000000
    -8.285950    4.784235    0.000000
     0.000000    0.000000   30.000000
   V    Mo   W    S 
   3   3   3  18
Direct configuration=    17
  -0.03009459  0.65153768  0.00088824
   0.36669729  0.68318280 -0.00115411
   0.36664869  0.01669181 -0.00114614
   0.66675270  0.34020502 -0.00019161
   0.66672739  0.65984834 -0.00019136
   0.67520224  0.00419284 -0.00043218
  -0.03919830 -0.01674303  0.00194223
   0.96077778  0.31084888  0.00194645
   0.37302667  0.35317389 -0.00174087
   0.11269429  0.22300811  0.95533179
   0.22167435  0.10991052  0.04380669
   0.11150744  0.55605083  0.95683411
   0.22168064  0.44506104  0.04381060
   0.11149990  0.88871255  0.95684496
   0.22388808  0.77855317  0.04277128
   0.44683315  0.21982266  0.94498126
   0.55431501  0.11115031  0.05259979
   0.44687459  0.56028375  0.94497181
   0.56116673  0.44722615  0.05574671
   0.44151695  0.88737808  0.94733062
   0.55432353  0.77643639  0.05260102
   0.77137087  0.22021681  0.94498603
   0.87998502  0.10664093  0.05782286
   0.78191274  0.55758850  0.94558204
   0.88949346  0.44932423  0.05454640
   0.77139861  0.88443451  0.94497777
   0.88953924  0.77347767  0.05453347
unknown system                          
           1
     8.310050    4.826371    0.000000
    -8.285565    4.784000    0.000000
     0.000000    0.000000   30.000000
   V    Mo   W    S 
   3   3   3  18
Direct configuration=    18
  -0.03058607  0.65129594  0.00103409
   0.36700536  0.68318712 -0.00128086
   0.36694766  0.01699349 -0.00127067
   0.66672630  0.34003558 -0.00019751
   0.66669936  0.65999831 -0.00019658
   0.67520685  0.00418774 -0.00041227
  -0.03925372 -0.01694399  0.00202884
   0.96072161  0.31098938  0.00203241
   0.37308197  0.35320172 -0.00181021
   0.11254928  0.22293335  0.95538717
   0.22185997  0.10995033  0.04378242
   0.11146186  0.55616663  0.95692025
   0.22186381  0.44520665  0.04378621
   0.11145233  0.88855023  0.95692927
   0.22379827  0.77850775  0.04259908
   0.44689784  0.21995297  0.94488363
   0.55421819  0.11106175  0.05259954
   0.44693491  0.56022405  0.94487338
   0.56112163  0.44720555  0.05571513
   0.44173566  0.88748191  0.94724841
   0.55422067  0.77642617  0.05260206
   0.77147934  0.22022743  0.94499685
   0.88012794  0.10671037  0.05785772
   0.78192201  0.55759192  0.94560705
   0.88923484  0.44914230  0.05465534
   0.77150803  0.88453020  0.94498637
   0.88927854  0.77339959  0.05464278
unknown system                          
           1
     8.310728    4.825837    0.000000
    -8.287023    4.784816    0.000000
     0.000000    0.000000   30.000000
   V    Mo   W    S 
   3   3   3  18
Direct configuration=    19
  -0.03068493  0.65125104  0.00109733
   0.36700652  0.68316173 -0.00133676
   0.36699402  0.01705975 -0.00132684
   0.66668090  0.33993595 -0.00019598
   0.66668599  0.66006073 -0.00019388
   0.67533342  0.00425537 -0.00040624
  -0.03924484 -0.01697854  0.00205351
   0.96073531  0.31103017  0.00205770
   0.37310268  0.35319565 -0.00182835
   0.11250880  0.22291217  0.95541135
   0.22194796  0.10997434  0.04377242
   0.11139194  0.55617645  0.95694393
   0.22194627  0.44526124  0.04377741
   0.11139365  0.88847468  0.95695323
   0.22375631  0.77849558  0.04254730
   0.44691430  0.21999244  0.94483992
   0.55411642  0.11095939  0.05258735
   0.44695198  0.56019593  0.94482575
   0.56108233  0.44718749  0.05569982
   0.44189197  0.88757178  0.94720640
   0.55413537  0.77643481  0.05259629
   0.77156901  0.22025920  0.94500549
   0.88023573  0.10676178  0.05788568
   0.78195956  0.55761291  0.94564196
   0.88908230  0.44902148  0.05470070
   0.77160235  0.88458637  0.94499550
   0.88911913  0.77336457  0.05468891
unknown system                          
           1
     8.311783    4.825810    0.000000
    -8.288641    4.785763    0.000000
     0.000000    0.000000   30.000000
   V    Mo   W    S 
   3   3   3  18
Direct configuration=    20
  -0.03093440  0.65113430  0.00119769
   0.36714796  0.68318767 -0.00142145
   0.36718376  0.01722518 -0.00141458
   0.66659226  0.33974895 -0.00019584
   0.66663312  0.66016773 -0.00019386
   0.67533201  0.00426042 -0.00039562
  -0.03921947 -0.01707321  0.00210073
   0.96076241  0.31114184  0.00210512
   0.37310824  0.35318321 -0.00186411
   0.11243948  0.22287552  0.95544343
   0.22208074  0.10998538  0.04375507
   0.11133547  0.55622746  0.95699005
   0.22207451  0.44536995  0.04376070
   0.11135603  0.88837450  0.95700122
   0.22373073  0.77849684  0.04244956
   0.44695338  0.22003874  0.94477420
   0.55397146  0.11083644  0.05257083
   0.44699189  0.56017431  0.94476110
   0.56102924  0.44716254  0.05568176
   0.44206941  0.88767754  0.94715160
   0.55400268  0.77641779  0.05258284
   0.77167751  0.22029903  0.94501322
   0.88034397  0.10681225  0.05792554
   0.78201960  0.55764397  0.94567266
   0.88889438  0.44888461  0.05477701
   0.77171251  0.88465122  0.94500405
   0.88892558  0.77331029  0.05476696
unknown system                          
           1
     8.312501    4.825460    0.000000
    -8.290039    4.786593    0.000000
     0.000000    0.000000   30.000000
   V    Mo   W    S 
   3   3   3  18
Direct configuration=    21
  -0.03113971  0.65103159  0.00126552
   0.36727664  0.68320733 -0.00148099
   0.36723214  0.01727110 -0.00147755
   0.66661745  0.33969787 -0.00019349
   0.66659272  0.66023834 -0.00019535
   0.67536441  0.00425506 -0.00038924
  -0.03921294 -0.01714528  0.00213350
   0.96076069  0.31121596  0.00213861
   0.37311670  0.35322307 -0.00188833
   0.11238886  0.22284734  0.95546926
   0.22216189  0.11000305  0.04374287
   0.11130149  0.55627083  0.95702694
   0.22216492  0.44545071  0.04374397
   0.11129868  0.88828668  0.95703332
   0.22370724  0.77846825  0.04238608
   0.44698070  0.22008939  0.94473119
   0.55389965  0.11076576  0.05256631
   0.44701056  0.56016350  0.94472696
   0.56098070  0.44713737  0.05566458
   0.44218973  0.88771240  0.94711207
   0.55388649  0.77639484  0.05256626
   0.77176894  0.22033632  0.94502653
   0.88041098  0.10684813  0.05794151
   0.78207639  0.55766766  0.94570523
   0.88877184  0.44879443  0.05481811
   0.77179690  0.88470512  0.94501608
   0.88881039  0.77327764  0.05480995
unknown system                          
           1
     8.311164    4.824843    0.000000
    -8.288528    4.785672    0.000000
     0.000000    0.000000   30.000000
   V    Mo   W    S 
   3   3   3  18
Direct configuration=    22
  -0.03143467  0.65089337  0.00138620
   0.36738004  0.68323093 -0.00159057
   0.36748239  0.01747834 -0.00158177
   0.66646759  0.33943475 -0.00019537
   0.66655065  0.66037192 -0.00019040
   0.67542678  0.00430949 -0.00037436
  -0.03921944 -0.01725447  0.00219240
   0.96076553  0.31131245  0.00219260
   0.37315583  0.35317736 -0.00193092
   0.11228119  0.22279320  0.95552792
   0.22234016  0.11002228  0.04370092
   0.11119866  0.55630809  0.95709329
   0.22232135  0.44557433  0.04371071
   0.11123798  0.88816413  0.95710389
   0.22371087  0.77850158  0.04226416
   0.44704235  0.22018120  0.94467160
   0.55369125  0.11060378  0.05252154
   0.44707866  0.56012015  0.94465086
   0.56088458  0.44709412  0.05561989
   0.44242270  0.88786866  0.94703769
   0.55375841  0.77639016  0.05255087
   0.77193567  0.22039833  0.94506068
   0.88051963  0.10688926  0.05796652
   0.78213515  0.55770550  0.94576026
   0.88854273  0.44860392  0.05490676
   0.77197527  0.88480482  0.94504746
   0.88856310  0.77323681  0.05489706
unknown system                          
           1
     8.306904    4.823615    0.000000
    -8.283232    4.782650    0.000000
     0.000000    0.000000   30.000000
   V    Mo   W    S 
   3   3   3  18
Direct configuration=    23
  -0.03149371  0.65086742  0.00140277
   0.36741299  0.68322867 -0.00160443
   0.36744352  0.01746313 -0.00160325
   0.66650397  0.33945342 -0.00019160
   0.66654211  0.66038833 -0.00019198
   0.67546057  0.00430971 -0.00037385
  -0.03921145 -0.01727229  0.00220156
   0.96076968  0.31133350  0.00220682
   0.37315145  0.35320618 -0.00193857
   0.11226203  0.22278075  0.95553874
   0.22237221  0.11003090  0.04369632
   0.11117549  0.55632189  0.95710912
   0.22236069  0.44560597  0.04370139
   0.11120321  0.88812193  0.95711859
   0.22370768  0.77849369  0.04223946
   0.44706234  0.22020877  0.94464343
   0.55367991  0.11058116  0.05252893
   0.44709303  0.56011140  0.94463575
   0.56086147  0.44708119  0.05561403
   0.44248283  0.88788576  0.94701363
   0.55370589  0.77637857  0.05254188
   0.77197112  0.22041408  0.94506210
   0.88053853  0.10690342  0.05797841
   0.78215571  0.55771237  0.94577431
   0.88848603  0.44855549  0.05492536
   0.77200611  0.88482445  0.94505210
   0.88851106  0.77322460  0.05491886
unknown system                          
           1
     8.306353    4.822839    0.000000
    -8.283126    4.782645    0.000000
     0.000000    0.000000   30.000000
   V    Mo   W    S 
   3   3   3  18
Direct configuration=    24
  -0.03175407  0.65073447  0.00152402
   0.36754739  0.68325836 -0.00170986
   0.36752152  0.01753977 -0.00170327
   0.66649905  0.33925713 -0.00018842
   0.66649128  0.66056754 -0.00018616
   0.67549587  0.00431865 -0.00036153
  -0.03917779 -0.01735117  0.00227673
   0.96077246  0.31143275  0.00226894
   0.37313333  0.35320397 -0.00200487
   0.11221980  0.22275191  0.95555875
   0.22250164  0.11002506  0.04368554
   0.11110422  0.55640611  0.95715128
   0.22249573  0.44574376  0.04369249
   0.11112716  0.88797076  0.95715630
   0.22367982  0.77847692  0.04215322
   0.44713084  0.22029955  0.94455643
   0.55353767  0.11044581  0.05252774
   0.44715539  0.56010302  0.94455019
   0.56078179  0.44703908  0.05561186
   0.44270597  0.88797495  0.94692571