       N       E                     dE             d eps       ncg     rms          rms(c)
DAV:   1     0.112388903227E+04    0.11239E+04   -0.35870E+04  8160   0.577E+02
DAV:   2    -0.473397541548E+01   -0.11286E+04   -0.10904E+04 11040   0.173E+02
DAV:   3    -0.199868614517E+03   -0.19513E+03   -0.18721E+03 10960   0.817E+01
DAV:   4    -0.209009489195E+03   -0.91409E+01   -0.88230E+01 12200   0.257E+01
DAV:   5    -0.209328228615E+03   -0.31874E+00   -0.31780E+00 11600   0.351E+00    0.275E+01
DAV:   6    -0.237159660481E+03   -0.27831E+02   -0.10981E+02 12600   0.604E+01    0.596E+01
DAV:   7    -0.196424582780E+03    0.40735E+02   -0.17753E+02 13360   0.152E+02    0.199E+01
DAV:   8    -0.189414941714E+03    0.70096E+01   -0.17538E+01 12080   0.127E+01    0.126E+01
DAV:   9    -0.188166900111E+03    0.12480E+01   -0.31268E+00 12920   0.633E+00    0.914E+00
DAV:  10    -0.187005889090E+03    0.11610E+01   -0.20691E+00 13400   0.742E+00    0.276E+00
DAV:  11    -0.186968938320E+03    0.36951E-01   -0.59654E-01 13280   0.250E+00    0.274E+00
DAV:  12    -0.187097988978E+03   -0.12905E+00   -0.87827E-01 12240   0.492E+00    0.482E+00
DAV:  13    -0.186883052575E+03    0.21494E+00   -0.49742E-01 12600   0.397E+00    0.209E+00
DAV:  14    -0.186858243285E+03    0.24809E-01   -0.12397E-01 13280   0.204E+00    0.164E+00
DAV:  15    -0.186839868665E+03    0.18375E-01   -0.66706E-02 12000   0.158E+00    0.875E-01
DAV:  16    -0.186832343738E+03    0.75249E-02   -0.11756E-02 12080   0.469E-01    0.451E-01
DAV:  17    -0.186830256972E+03    0.20868E-02   -0.79023E-03 12640   0.442E-01    0.224E-01
DAV:  18    -0.186829998938E+03    0.25803E-03   -0.22208E-03 11720   0.146E-01    0.167E-01
DAV:  19    -0.186829650037E+03    0.34890E-03   -0.96530E-04 11040   0.115E-01    0.489E-02
DAV:  20    -0.186830377658E+03   -0.72762E-03   -0.66731E-04  9320   0.580E-02    0.504E-02
DAV:  21    -0.186830972633E+03   -0.59498E-03   -0.27251E-04  8120   0.457E-02    0.457E-02
DAV:  22    -0.186832134713E+03   -0.11621E-02   -0.22864E-04  7520   0.644E-02    0.413E-02
DAV:  23    -0.186833369887E+03   -0.12352E-02   -0.15124E-04  7560   0.460E-02    0.118E-02
DAV:  24    -0.186833955677E+03   -0.58579E-03   -0.30896E-05  6520   0.144E-02    0.925E-03
DAV:  25    -0.186834317445E+03   -0.36177E-03   -0.16585E-05  5840   0.137E-02    0.555E-03
DAV:  26    -0.186834544379E+03   -0.22693E-03   -0.87679E-06  6720   0.744E-03    0.173E-03
DAV:  27    -0.186834647814E+03   -0.10343E-03   -0.39051E-06  7200   0.477E-03    0.171E-03
DAV:  28    -0.186834694315E+03   -0.46501E-04   -0.21365E-06  7360   0.379E-03
   1 F= -.18683469E+03 E0= -.18666215E+03  d E =-.186835E+03
       N       E                     dE             d eps       ncg     rms          rms(c)
DAV:   1    -0.187459288115E+03   -0.62464E+00   -0.27084E+02  8160   0.349E+01    0.462E+00
DAV:   2    -0.189360359148E+03   -0.19011E+01   -0.20169E+01 12280   0.153E+01    0.877E+00
DAV:   3    -0.189321689168E+03    0.38670E-01   -0.38994E+00 12440   0.120E+01    0.666E+00
DAV:   4    -0.188732051794E+03    0.58964E+00   -0.62893E-01 12520   0.461E+00    0.185E+00
DAV:   5    -0.188734235549E+03   -0.21838E-02   -0.29391E-01 10560   0.159E+00    0.234E+00
DAV:   6    -0.188690864024E+03    0.43372E-01   -0.34889E-01 11920   0.242E+00    0.233E+00
DAV:   7    -0.188675921240E+03    0.14943E-01   -0.20288E-01 12600   0.265E+00    0.218E+00
DAV:   8    -0.188640213436E+03    0.35708E-01   -0.91878E-02 12600   0.163E+00    0.648E-01
DAV:   9    -0.188634229839E+03    0.59836E-02   -0.11627E-02 10520   0.386E-01    0.212E-01
DAV:  10    -0.188634622353E+03   -0.39251E-03   -0.37227E-03 12520   0.271E-01    0.296E-01
DAV:  11    -0.188634278242E+03    0.34411E-03   -0.32395E-03 13200   0.331E-01    0.251E-01
DAV:  12    -0.188633805622E+03    0.47262E-03   -0.13420E-03 11840   0.183E-01    0.822E-02
DAV:  13    -0.188633848067E+03   -0.42445E-04   -0.20240E-04  7280   0.601E-02
   2 F= -.18863385E+03 E0= -.18849167E+03  d E =-.179915E+01
       N       E                     dE             d eps       ncg     rms          rms(c)
DAV:   1    -0.190545455109E+03   -0.19116E+01   -0.30740E+01  9240   0.141E+01    0.445E+00
DAV:   2    -0.190541960800E+03    0.34943E-02   -0.28284E+00 11400   0.970E+00    0.747E+00
DAV:   3    -0.190020510933E+03    0.52145E+00   -0.13356E+00 12320   0.863E+00    0.411E+00
DAV:   4    -0.189817837438E+03    0.20267E+00   -0.69369E-01 12880   0.402E+00    0.247E+00
DAV:   5    -0.189737548394E+03    0.80289E-01   -0.29871E-01 11360   0.198E+00    0.124E+00
DAV:   6    -0.189721347887E+03    0.16201E-01   -0.67009E-02 11920   0.142E+00    0.869E-01
DAV:   7    -0.189715274904E+03    0.60730E-02   -0.15691E-02 12360   0.718E-01    0.220E-01
DAV:   8    -0.189715183856E+03    0.91049E-04   -0.22891E-03 11080   0.175E-01    0.153E-01
DAV:   9    -0.189715236812E+03   -0.52957E-04   -0.99576E-04 10480   0.127E-01
   3 F= -.18971524E+03 E0= -.18959533E+03  d E =-.108139E+01
       N       E                     dE             d eps       ncg     rms          rms(c)
DAV:   1    -0.191297676672E+03   -0.15825E+01   -0.72354E+01  8160   0.195E+01    0.469E+00
DAV:   2    -0.191178586059E+03    0.11909E+00   -0.55269E+00 13400   0.849E+00    0.530E+00
DAV:   3    -0.191211220943E+03   -0.32635E-01   -0.16460E+00 12080   0.932E+00    0.675E+00
DAV:   4    -0.190876756258E+03    0.33446E+00   -0.17023E+00 11840   0.791E+00    0.361E+00
DAV:   5    -0.190848142393E+03    0.28614E-01   -0.62062E-01 12080   0.541E+00    0.351E+00
DAV:   6    -0.190690882827E+03    0.15726E+00   -0.24113E-01 12240   0.333E+00    0.875E-01
DAV:   7    -0.190684816198E+03    0.60666E-02   -0.41054E-02 11880   0.850E-01    0.487E-01
DAV:   8    -0.190683226793E+03    0.15894E-02   -0.11150E-02 11680   0.619E-01    0.499E-01
DAV:   9    -0.190681113206E+03    0.21136E-02   -0.39198E-03 11600   0.450E-01    0.155E-01
DAV:  10    -0.190681426360E+03   -0.31315E-03   -0.12109E-03 10360   0.140E-01    0.128E-01
DAV:  11    -0.190681233325E+03    0.19303E-03   -0.84632E-04 10480   0.108E-01    0.462E-02
DAV:  12    -0.190681239504E+03   -0.61784E-05   -0.15717E-04  7400   0.453E-02
   4 F= -.19068124E+03 E0= -.19058010E+03  d E =-.966003E+00
       N       E                     dE             d eps       ncg     rms          rms(c)
DAV:   1    -0.192027413987E+03   -0.13462E+01   -0.14702E+02  8160   0.271E+01    0.560E+00
DAV:   2    -0.191823923366E+03    0.20349E+00   -0.92348E+00 12040   0.858E+00    0.444E+00
DAV:   3    -0.192203379524E+03   -0.37946E+00   -0.23337E+00 12200   0.106E+01    0.903E+00
DAV:   4    -0.191550197529E+03    0.65318E+00   -0.22578E+00 12160   0.108E+01    0.344E+00
DAV:   5    -0.191378876236E+03    0.17132E+00   -0.46158E-01 12160   0.331E+00    0.161E+00
DAV:   6    -0.191370736407E+03    0.81398E-02   -0.19244E-01 12680   0.285E+00    0.183E+00
DAV:   7    -0.191345192977E+03    0.25543E-01   -0.10171E-01 11920   0.212E+00    0.678E-01
DAV:   8    -0.191337961259E+03    0.72317E-02   -0.11616E-02 11680   0.563E-01    0.221E-01
DAV:   9    -0.191338646450E+03   -0.68519E-03   -0.32690E-03 12800   0.397E-01    0.319E-01
DAV:  10    -0.191338147644E+03    0.49881E-03   -0.30458E-03 11560   0.338E-01    0.119E-01
DAV:  11    -0.191337966642E+03    0.18100E-03   -0.79073E-04 10640   0.120E-01    0.554E-02
DAV:  12    -0.191337938727E+03    0.27915E-04   -0.13089E-04  7200   0.444E-02
   5 F= -.19133794E+03 E0= -.19124359E+03  d E =-.656699E+00
       N       E                     dE             d eps       ncg     rms          rms(c)
DAV:   1    -0.191429709684E+03   -0.91743E-01   -0.86150E+00  8160   0.621E+00    0.747E-01
DAV:   2    -0.191486198579E+03   -0.56489E-01   -0.32578E-01 12960   0.244E+00    0.209E+00
DAV:   3    -0.191446704195E+03    0.39494E-01   -0.13527E-01 12040   0.238E+00    0.755E-01
DAV:   4    -0.191446029608E+03    0.67459E-03   -0.23062E-02 11720   0.102E+00    0.751E-01
DAV:   5    -0.191440280519E+03    0.57491E-02   -0.11588E-02 11480   0.832E-01    0.282E-01
DAV:   6    -0.191439593521E+03    0.68700E-03   -0.33287E-03 11040   0.287E-01    0.156E-01
DAV:   7    -0.191439298430E+03    0.29509E-03   -0.17087E-03 10440   0.158E-01    0.880E-02
DAV:   8    -0.191439262259E+03    0.36171E-04   -0.50571E-04  9800   0.143E-01
   6 F= -.19143926E+03 E0= -.19134370E+03  d E =-.101324E+00
       N       E                     dE             d eps       ncg     rms          rms(c)
DAV:   1    -0.191468149521E+03   -0.28851E-01   -0.69407E-01  8160   0.177E+00    0.227E-01
DAV:   2    -0.191473721859E+03   -0.55723E-02   -0.27845E-02 13440   0.874E-01    0.677E-01
DAV:   3    -0.191469033028E+03    0.46888E-02   -0.10684E-02 11920   0.714E-01    0.175E-01
DAV:   4    -0.191469387242E+03   -0.35421E-03   -0.20653E-03 10360   0.320E-01    0.260E-01
DAV:   5    -0.191468713553E+03    0.67369E-03   -0.12165E-03  9920   0.265E-01    0.760E-02
DAV:   6    -0.191468709246E+03    0.43067E-05   -0.30218E-04  7360   0.844E-02
   7 F= -.19146871E+03 E0= -.19137305E+03  d E =-.294470E-01
       N       E                     dE             d eps       ncg     rms          rms(c)
DAV:   1    -0.191393014775E+03    0.75699E-01   -0.50254E+00  8160   0.475E+00    0.557E-01
DAV:   2    -0.191424848297E+03   -0.31834E-01   -0.17742E-01 13440   0.204E+00    0.154E+00
DAV:   3    -0.191400082725E+03    0.24766E-01   -0.56252E-02 12440   0.172E+00    0.456E-01
DAV:   4    -0.191400698338E+03   -0.61561E-03   -0.10706E-02 10440   0.720E-01    0.551E-01
DAV:   5    -0.191397604764E+03    0.30936E-02   -0.67315E-03 11040   0.624E-01    0.224E-01
DAV:   6    -0.191397603805E+03    0.95849E-06   -0.28749E-03 11800   0.324E-01    0.225E-01
DAV:   7    -0.191397685581E+03   -0.81776E-04   -0.28676E-03 11720   0.377E-01    0.251E-01
DAV:   8    -0.191396975012E+03    0.71057E-03   -0.11468E-03  9720   0.222E-01    0.314E-02
DAV:   9    -0.191396988335E+03   -0.13323E-04   -0.72526E-05  6360   0.318E-02
   8 F= -.19139699E+03 E0= -.19130175E+03  d E =0.717209E-01
       N       E                     dE             d eps       ncg     rms          rms(c)
DAV:   1    -0.191418220994E+03   -0.21246E-01   -0.12933E+00  8160   0.248E+00    0.378E-01
DAV:   2    -0.191420702875E+03   -0.24819E-02   -0.57022E-02 11360   0.728E-01    0.456E-01
DAV:   3    -0.191421890575E+03   -0.11877E-02   -0.20402E-02 11840   0.912E-01    0.634E-01
DAV:   4    -0.191417875609E+03    0.40150E-02   -0.76436E-03 11360   0.585E-01    0.205E-01
DAV:   5    -0.191418148167E+03   -0.27256E-03   -0.29111E-03 10360   0.414E-01    0.291E-01
DAV:   6    -0.191417244436E+03    0.90373E-03   -0.19960E-03 10040   0.316E-01    0.773E-02
DAV:   7    -0.191417203375E+03    0.41061E-04   -0.42801E-04  8800   0.990E-02
   9 F= -.19141720E+03 E0= -.19132184E+03  d E =-.202150E-01
       N       E                     dE             d eps       ncg     rms          rms(c)
DAV:   1    -0.191489814792E+03   -0.72570E-01   -0.46504E+00  8160   0.463E+00    0.613E-01
DAV:   2    -0.191521649183E+03   -0.31834E-01   -0.17401E-01 13600   0.218E+00    0.172E+00
DAV:   3    -0.191493375554E+03    0.28274E-01   -0.72934E-02 12280   0.186E+00    0.497E-01
DAV:   4    -0.191495356662E+03   -0.19811E-02   -0.16996E-02 12240   0.898E-01    0.722E-01
DAV:   5    -0.191490266551E+03    0.50901E-02   -0.10879E-02 11840   0.776E-01    0.271E-01
DAV:   6    -0.191489782215E+03    0.48434E-03   -0.36786E-03 11200   0.334E-01    0.201E-01
DAV:   7    -0.191489896229E+03   -0.11401E-03   -0.27368E-03 11880   0.375E-01    0.249E-01
DAV:   8    -0.191489228993E+03    0.66724E-03   -0.11727E-03  9440   0.241E-01    0.443E-02
DAV:   9    -0.191489210187E+03    0.18806E-04   -0.84824E-05  5720   0.414E-02
  10 F= -.19148921E+03 E0= -.19139346E+03  d E =-.720068E-01
       N       E                     dE             d eps       ncg     rms          rms(c)
DAV:   1    -0.191549857504E+03   -0.60629E-01   -0.32096E+00  8160   0.381E+00    0.474E-01
DAV:   2    -0.191577971750E+03   -0.28114E-01   -0.12838E-01 13560   0.196E+00    0.159E+00
DAV:   3    -0.191554255212E+03    0.23717E-01   -0.57686E-02 12160   0.159E+00    0.404E-01
DAV:   4    -0.191554939746E+03   -0.68453E-03   -0.90805E-03 11240   0.681E-01    0.496E-01
DAV:   5    -0.191552364768E+03    0.25750E-02   -0.46226E-03 11240   0.511E-01    0.161E-01
DAV:   6    -0.191552239410E+03    0.12536E-03   -0.16104E-03 10640   0.169E-01    0.115E-01
DAV:   7    -0.191552130340E+03    0.10907E-03   -0.85802E-04 10880   0.162E-01    0.119E-01
DAV:   8    -0.191551990502E+03    0.13984E-03   -0.35504E-04  8720   0.139E-01    0.414E-02
DAV:   9    -0.191551976003E+03    0.14499E-04   -0.47866E-05  6080   0.421E-02
  11 F= -.19155198E+03 E0= -.19145696E+03  d E =-.627658E-01
       N       E                     dE             d eps       ncg     rms          rms(c)
DAV:   1    -0.191518084311E+03    0.33906E-01   -0.86790E-01  8160   0.198E+00    0.249E-01
DAV:   2    -0.191525890581E+03   -0.78063E-02   -0.37693E-02 13360   0.104E+00    0.775E-01
DAV:   3    -0.191519329198E+03    0.65614E-02   -0.12399E-02 11560   0.795E-01    0.180E-01
DAV:   4    -0.191519651911E+03   -0.32271E-03   -0.22191E-03 10280   0.323E-01    0.257E-01
DAV:   5    -0.191518971407E+03    0.68050E-03   -0.12444E-03  9600   0.271E-01    0.836E-02
DAV:   6    -0.191518954611E+03    0.16796E-04   -0.37658E-04  8160   0.969E-02
  12 F= -.19151895E+03 E0= -.19142352E+03  d E =0.330214E-01
       N       E                     dE             d eps       ncg     rms          rms(c)
DAV:   1    -0.191464487436E+03    0.54484E-01   -0.27422E+00  8160   0.353E+00    0.430E-01
DAV:   2    -0.191485940503E+03   -0.21453E-01   -0.11054E-01 13560   0.160E+00    0.124E+00
DAV:   3    -0.191468825120E+03    0.17115E-01   -0.33876E-02 11920   0.133E+00    0.329E-01
DAV:   4    -0.191469477959E+03   -0.65284E-03   -0.63668E-03 11400   0.529E-01    0.424E-01
DAV:   5    -0.191467653132E+03    0.18248E-02   -0.34305E-03 11240   0.451E-01    0.142E-01
DAV:   6    -0.191467577291E+03    0.75840E-04   -0.11152E-03 10360   0.173E-01    0.103E-01
DAV:   7    -0.191467724040E+03   -0.14675E-03   -0.10330E-03 10640   0.218E-01    0.173E-01
DAV:   8    -0.191467401038E+03    0.32300E-03   -0.49340E-04  8760   0.167E-01    0.234E-02
DAV:   9    -0.191467411866E+03   -0.10829E-04   -0.39115E-05  6280   0.270E-02
  13 F= -.19146741E+03 E0= -.19137178E+03  d E =0.515427E-01
       N       E                     dE             d eps       ncg     rms          rms(c)
DAV:   1    -0.191554311021E+03   -0.86910E-01   -0.66907E+00  8160   0.548E+00    0.588E-01
DAV:   2    -0.191590963937E+03   -0.36653E-01   -0.21416E-01 13440   0.210E+00    0.170E+00
DAV:   3    -0.191565285080E+03    0.25679E-01   -0.77195E-02 12000   0.183E+00    0.558E-01
DAV:   4    -0.191565937974E+03   -0.65289E-03   -0.13946E-02 11160   0.840E-01    0.630E-01
DAV:   5    -0.191561675552E+03    0.42624E-02   -0.72344E-03 11160   0.675E-01    0.213E-01
DAV:   6    -0.191561623912E+03    0.51640E-04   -0.27264E-03 11720   0.246E-01    0.171E-01
DAV:   7    -0.191561447377E+03    0.17653E-03   -0.17763E-03 11160   0.256E-01    0.185E-01
DAV:   8    -0.191561097546E+03    0.34983E-03   -0.70489E-04  8760   0.199E-01    0.431E-02
DAV:   9    -0.191561089667E+03    0.78789E-05   -0.73635E-05  5920   0.449E-02
  14 F= -.19156109E+03 E0= -.19146689E+03  d E =-.936778E-01
       N       E                     dE             d eps       ncg     rms          rms(c)
DAV:   1    -0.191526311432E+03    0.34786E-01   -0.85215E-01  8160   0.197E+00    0.231E-01
DAV:   2    -0.191531050427E+03   -0.47390E-02   -0.28753E-02 13520   0.821E-01    0.604E-01
DAV:   3    -0.191527229684E+03    0.38207E-02   -0.85251E-03 11280   0.656E-01    0.189E-01
DAV:   4    -0.191527442669E+03   -0.21299E-03   -0.21356E-03 10200   0.312E-01    0.248E-01
DAV:   5    -0.191526837468E+03    0.60520E-03   -0.13106E-03  9520   0.282E-01    0.101E-01
DAV:   6    -0.191526771867E+03    0.65601E-04   -0.46142E-04  9200   0.113E-01
  15 F= -.19152677E+03 E0= -.19143191E+03  d E =0.343178E-01
       N       E                     dE             d eps       ncg     rms          rms(c)
DAV:   1    -0.191604761795E+03   -0.77924E-01   -0.48170E+00  8160   0.471E+00    0.607E-01
DAV:   2    -0.191643349189E+03   -0.38587E-01   -0.19506E-01 13560   0.232E+00    0.190E+00
DAV:   3    -0.191610725702E+03    0.32623E-01   -0.81023E-02 12160   0.192E+00    0.514E-01
DAV:   4    -0.191612095062E+03   -0.13694E-02   -0.15165E-02 11400   0.906E-01    0.673E-01
DAV:   5    -0.191607325140E+03    0.47699E-02   -0.87485E-03 11440   0.724E-01    0.239E-01
DAV:   6    -0.191607048280E+03    0.27686E-03   -0.34738E-03 10640   0.294E-01    0.195E-01
DAV:   7    -0.191607110753E+03   -0.62473E-04   -0.26369E-03 11760   0.366E-01    0.244E-01
DAV:   8    -0.191606460231E+03    0.65052E-03   -0.11048E-03  9640   0.246E-01    0.422E-02
DAV:   9    -0.191606443927E+03    0.16304E-04   -0.78062E-05  5640   0.410E-02
  16 F= -.19160644E+03 E0= -.19151297E+03  d E =-.796721E-01
       N       E                     dE             d eps       ncg     rms          rms(c)
DAV:   1    -0.191664156209E+03   -0.57696E-01   -0.24594E+00  8160   0.333E+00    0.338E-01
DAV:   2    -0.191674304035E+03   -0.10148E-01   -0.69670E-02 12360   0.106E+00    0.870E-01
DAV:   3    -0.191668047391E+03    0.62566E-02   -0.19988E-02 11840   0.969E-01    0.339E-01
DAV:   4    -0.191667569081E+03    0.47831E-03   -0.35791E-03 11360   0.391E-01    0.270E-01
DAV:   5    -0.191666834508E+03    0.73457E-03   -0.19048E-03 10680   0.356E-01    0.155E-01
DAV:   6    -0.191666791483E+03    0.43025E-04   -0.11863E-03 11200   0.207E-01    0.116E-01
DAV:   7    -0.191666628717E+03    0.16277E-03   -0.58189E-04 10200   0.133E-01    0.788E-02
DAV:   8    -0.191666571987E+03    0.56730E-04   -0.15874E-04  6200   0.997E-02
  17 F= -.19166657E+03 E0= -.19157533E+03  d E =-.601281E-01
       N       E                     dE             d eps       ncg     rms          rms(c)
DAV:   1    -0.191736209209E+03   -0.69580E-01   -0.36219E+00  8160   0.406E+00    0.424E-01
DAV:   2    -0.191752811293E+03   -0.16602E-01   -0.10878E-01 12280   0.141E+00    0.114E+00
DAV:   3    -0.191742001949E+03    0.10809E-01   -0.30577E-02 11840   0.124E+00    0.397E-01
DAV:   4    -0.191741482290E+03    0.51966E-03   -0.53025E-03 11480   0.504E-01    0.350E-01
DAV:   5    -0.191740210892E+03    0.12714E-02   -0.29778E-03 11160   0.457E-01    0.188E-01
DAV:   6    -0.191740110802E+03    0.10009E-03   -0.17602E-03 11800   0.248E-01    0.137E-01
DAV:   7    -0.191739979419E+03    0.13138E-03   -0.10131E-03 10200   0.202E-01    0.133E-01
DAV:   8    -0.191739791493E+03    0.18793E-03   -0.36871E-04  8560   0.148E-01    0.308E-02
DAV:   9    -0.191739788628E+03    0.28649E-05   -0.40956E-05  6160   0.337E-02
  18 F= -.19173979E+03 E0= -.19165171E+03  d E =-.732166E-01
       N       E                     dE             d eps       ncg     rms          rms(c)
DAV:   1    -0.191795051515E+03   -0.55260E-01   -0.20890E+00  8160   0.312E+00    0.372E-01
DAV:   2    -0.191805403187E+03   -0.10352E-01   -0.72778E-02 12360   0.120E+00    0.930E-01
DAV:   3    -0.191798139301E+03    0.72639E-02   -0.19319E-02 11880   0.103E+00    0.336E-01
DAV:   4    -0.191797786291E+03    0.35301E-03   -0.42291E-03 11520   0.475E-01    0.321E-01
DAV:   5    -0.191796785958E+03    0.10003E-02   -0.26845E-03 10520   0.436E-01    0.185E-01
DAV:   6    -0.191796596421E+03    0.18954E-03   -0.15283E-03  9920   0.232E-01    0.123E-01
DAV:   7    -0.191796524918E+03    0.71504E-04   -0.89130E-04  9920   0.205E-01
  19 F= -.19179652E+03 E0= -.19171091E+03  d E =-.567363E-01
       N       E                     dE             d eps       ncg     rms          rms(c)
DAV:   1    -0.191942672599E+03   -0.14608E+00   -0.22413E+01  8160   0.102E+01    0.104E+00
DAV:   2    -0.192022151122E+03   -0.79479E-01   -0.67782E-01 11800   0.309E+00    0.228E+00
DAV:   3    -0.191987789151E+03    0.34362E-01   -0.14187E-01 12280   0.288E+00    0.109E+00
DAV:   4    -0.191974463253E+03    0.13326E-01   -0.23713E-02 12320   0.101E+00    0.490E-01
DAV:   5    -0.191973063526E+03    0.13997E-02   -0.13276E-02 12360   0.837E-01    0.531E-01
DAV:   6    -0.191972523946E+03    0.53958E-03   -0.12281E-02 12400   0.882E-01    0.435E-01
DAV:   7    -0.191969972319E+03    0.25516E-02   -0.51747E-03 11480   0.463E-01    0.177E-01
DAV:   8    -0.191969744720E+03    0.22760E-03   -0.12737E-03 10440   0.258E-01    0.102E-01
DAV:   9    -0.191969634236E+03    0.11048E-03   -0.30716E-04  8760   0.117E-01    0.448E-02
DAV:  10    -0.191969593011E+03    0.41225E-04   -0.15102E-04  6240   0.478E-02
  20 F= -.19196959E+03 E0= -.19189046E+03  d E =-.173068E+00
       N       E                     dE             d eps       ncg     rms          rms(c)
DAV:   1    -0.192052516906E+03   -0.82883E-01   -0.68024E+00  8160   0.567E+00    0.695E-01
DAV:   2    -0.192074073606E+03   -0.21557E-01   -0.24880E-01 12000   0.180E+00    0.114E+00
DAV:   3    -0.192067488951E+03    0.65847E-02   -0.44195E-02 12240   0.177E+00    0.815E-01
DAV:   4    -0.192059533336E+03    0.79556E-02   -0.12319E-02 12320   0.846E-01    0.326E-01
DAV:   5    -0.192060384040E+03   -0.85070E-03   -0.77688E-03 10760   0.691E-01    0.493E-01
DAV:   6    -0.192058302528E+03    0.20815E-02   -0.68657E-03 11640   0.622E-01    0.205E-01
DAV:   7    -0.192057868557E+03    0.43397E-03   -0.19811E-03 11040   0.284E-01    0.135E-01
DAV:   8    -0.192057658409E+03    0.21015E-03   -0.51024E-04  9520   0.180E-01    0.539E-02
DAV:   9    -0.192057618603E+03    0.39806E-04   -0.92846E-05  6120   0.651E-02
  21 F= -.19205762E+03 E0= -.19197924E+03  d E =-.880256E-01
       N       E                     dE             d eps       ncg     rms          rms(c)
DAV:   1    -0.192157338918E+03   -0.99681E-01   -0.36502E+01  8160   0.130E+01    0.134E+00
DAV:   2    -0.192255008957E+03   -0.97670E-01   -0.11648E+00 11640   0.335E+00    0.176E+00
DAV:   3    -0.192252375243E+03    0.26337E-02   -0.14819E-01 12280   0.331E+00    0.176E+00
DAV:   4    -0.192215074393E+03    0.37301E-01   -0.44777E-02 12360   0.180E+00    0.486E-01
DAV:   5    -0.192216012398E+03   -0.93800E-03   -0.21949E-02 12000   0.983E-01    0.659E-01
DAV:   6    -0.192214513887E+03    0.14985E-02   -0.22345E-02 12720   0.115E+00    0.552E-01
DAV:   7    -0.192210505454E+03    0.40084E-02   -0.84558E-03 11520   0.627E-01    0.181E-01
DAV:   8    -0.192210263564E+03    0.24189E-03   -0.13592E-03 10440   0.268E-01    0.102E-01
DAV:   9    -0.192210136331E+03    0.12723E-03   -0.43233E-04 10320   0.117E-01    0.473E-02
DAV:  10    -0.192210082322E+03    0.54010E-04   -0.15788E-04  7080   0.483E-02
  22 F= -.19221008E+03 E0= -.19213001E+03  d E =-.152464E+00
       N       E                     dE             d eps       ncg     rms          rms(c)
DAV:   1    -0.192225314164E+03   -0.15178E-01   -0.85019E-01  8160   0.200E+00    0.289E-01
DAV:   2    -0.192227859655E+03   -0.25455E-02   -0.37479E-02 10640   0.729E-01    0.426E-01
DAV:   3    -0.192227075828E+03    0.78383E-03   -0.83059E-03 12400   0.730E-01    0.361E-01
DAV:   4    -0.192225533101E+03    0.15427E-02   -0.24729E-03 11760   0.389E-01    0.123E-01
DAV:   5    -0.192225729182E+03   -0.19608E-03   -0.13252E-03 10920   0.287E-01    0.199E-01
DAV:   6    -0.192225267977E+03    0.46121E-03   -0.10056E-03 10760   0.255E-01    0.594E-02
DAV:   7    -0.192225241687E+03    0.26290E-04   -0.14922E-04  6240   0.915E-02
  23 F= -.19222524E+03 E0= -.19214423E+03  d E =-.151594E-01
       N       E                     dE             d eps       ncg     rms          rms(c)
DAV:   1    -0.192250592968E+03   -0.25325E-01   -0.16659E+00  8160   0.274E+00    0.318E-01
DAV:   2    -0.192257450936E+03   -0.68580E-02   -0.60168E-02 11000   0.980E-01    0.587E-01
DAV:   3    -0.192253939632E+03    0.35113E-02   -0.13413E-02 12520   0.867E-01    0.280E-01
DAV:   4    -0.192253312882E+03    0.62675E-03   -0.26791E-03 11600   0.367E-01    0.197E-01
DAV:   5    -0.192253075000E+03    0.23788E-03   -0.14783E-03 10360   0.331E-01    0.155E-01
DAV:   6    -0.192252937158E+03    0.13784E-03   -0.74502E-04 11120   0.184E-01    0.851E-02
DAV:   7    -0.192252861973E+03    0.75186E-04   -0.29245E-04  8840   0.127E-01
  24 F= -.19225286E+03 E0= -.19217079E+03  d E =-.276203E-01
       N       E                     dE             d eps       ncg     rms          rms(c)
DAV:   1    -0.192271207181E+03   -0.18270E-01   -0.88559E-01  8160   0.203E+00    0.273E-01
DAV:   2    -0.192273604946E+03   -0.23978E-02   -0.35557E-02 11080   0.621E-01    0.363E-01
DAV:   3    -0.192273328817E+03    0.27613E-03   -0.93765E-03 12440   0.695E-01    0.350E-01
DAV:   4    -0.192271822075E+03    0.15067E-02   -0.24953E-03 11400   0.366E-01    0.940E-02
DAV:   5    -0.192271928390E+03   -0.10632E-03   -0.10040E-03 10280   0.214E-01    0.146E-01
DAV:   6    -0.192271755434E+03    0.17296E-03   -0.60786E-04  9960   0.220E-01    0.885E-02
DAV:   7    -0.192271668347E+03    0.87087E-04   -0.18688E-04  7440   0.111E-01
  25 F= -.19227167E+03 E0= -.19218848E+03  d E =-.188064E-01
       N       E                     dE             d eps       ncg     rms          rms(c)
DAV:   1    -0.192294738908E+03   -0.22983E-01   -0.22562E+00  8160   0.318E+00    0.373E-01
DAV:   2    -0.192304166898E+03   -0.94280E-02   -0.83690E-02 10800   0.116E+00    0.697E-01
DAV:   3    -0.192299333269E+03    0.48336E-02   -0.20631E-02 12600   0.103E+00    0.334E-01
DAV:   4    -0.192298408342E+03    0.92493E-03   -0.36192E-03 11600   0.435E-01    0.220E-01
DAV:   5    -0.192298061034E+03    0.34731E-03   -0.19081E-03 11000   0.380E-01    0.175E-01
DAV:   6    -0.192297922402E+03    0.13863E-03   -0.10216E-03 10720   0.227E-01    0.109E-01
DAV:   7    -0.192297746518E+03    0.17588E-03   -0.40558E-04  9520   0.131E-01    0.661E-02
DAV:   8    -0.192297707088E+03    0.39430E-04   -0.99581E-05  6720   0.899E-02
  26 F= -.19229771E+03 E0= -.19221352E+03  d E =-.260387E-01
       N       E                     dE             d eps       ncg     rms          rms(c)
DAV:   1    -0.192309435301E+03   -0.11689E-01   -0.60214E-01  8160   0.169E+00    0.250E-01
DAV:   2    -0.192311063176E+03   -0.16279E-02   -0.27449E-02 10280   0.581E-01    0.334E-01
DAV:   3    -0.192310787507E+03    0.27567E-03   -0.68346E-03 12280   0.630E-01    0.307E-01
DAV:   4    -0.192309533976E+03    0.12535E-02   -0.20992E-03 11080   0.339E-01    0.827E-02
DAV:   5    -0.192309676853E+03   -0.14288E-03   -0.87589E-04 10040   0.214E-01    0.150E-01
DAV:   6    -0.192309413962E+03    0.26289E-03   -0.59346E-04  9520   0.197E-01    0.430E-02
DAV:   7    -0.192309408142E+03    0.58204E-05   -0.82495E-05  6080   0.738E-02
  27 F= -.19230941E+03 E0= -.19222424E+03  d E =-.117011E-01
       N       E                     dE             d eps       ncg     rms          rms(c)
DAV:   1    -0.192318552069E+03   -0.91381E-02   -0.50933E-01  8160   0.151E+00    0.199E-01
DAV:   2    -0.192321641838E+03   -0.30898E-02   -0.23311E-02 10200   0.742E-01    0.434E-01
DAV:   3    -0.192319504903E+03    0.21369E-02   -0.61437E-03 12360   0.577E-01    0.142E-01
DAV:   4    -0.192319411534E+03    0.93368E-04   -0.96975E-04  9200   0.224E-01
  28 F= -.19231941E+03 E0= -.19223409E+03  d E =-.100034E-01
       N       E                     dE             d eps       ncg     rms          rms(c)
DAV:   1    -0.192327509857E+03   -0.80050E-02   -0.47978E-01  8160   0.148E+00    0.208E-01
DAV:   2    -0.192330280972E+03   -0.27711E-02   -0.19510E-02 11760   0.601E-01    0.439E-01
DAV:   3    -0.192328235398E+03    0.20456E-02   -0.53790E-03 12160   0.586E-01    0.169E-01
DAV:   4    -0.192328011526E+03    0.22387E-03   -0.96594E-04  9960   0.200E-01    0.106E-01
DAV:   5    -0.192327956721E+03    0.54805E-04   -0.65552E-04  9920   0.191E-01
  29 F= -.19232796E+03 E0= -.19224205E+03  d E =-.854519E-02
       N       E                     dE             d eps       ncg     rms          rms(c)
DAV:   1    -0.192334913719E+03   -0.69022E-02   -0.44486E-01  8160   0.142E+00    0.219E-01
DAV:   2    -0.192337272853E+03   -0.23591E-02   -0.20320E-02 11040   0.675E-01    0.431E-01
DAV:   3    -0.192335411035E+03    0.18618E-02   -0.56897E-03 11880   0.608E-01    0.183E-01
DAV:   4    -0.192335082931E+03    0.32810E-03   -0.14263E-03 10000   0.242E-01    0.118E-01
DAV:   5    -0.192334988291E+03    0.94641E-04   -0.10211E-03 10600   0.215E-01    0.111E-01
DAV:   6    -0.192334878498E+03    0.10979E-03   -0.49380E-04  9320   0.163E-01    0.578E-02
DAV:   7    -0.192334825496E+03    0.53001E-04   -0.12335E-04  5800   0.643E-02
  30 F= -.19233483E+03 E0= -.19224855E+03  d E =-.686878E-02
       N       E                     dE             d eps       ncg     rms          rms(c)
DAV:   1    -0.192344295967E+03   -0.94175E-02   -0.25043E+00  8160   0.333E+00    0.394E-01
DAV:   2    -0.192357333055E+03   -0.13037E-01   -0.10055E-01 10960   0.132E+00    0.850E-01
DAV:   3    -0.192349791419E+03    0.75416E-02   -0.25655E-02 12680   0.118E+00    0.310E-01
DAV:   4    -0.192348688494E+03    0.11029E-02   -0.24529E-03 11480   0.348E-01    0.171E-01
DAV:   5    -0.192348708542E+03   -0.20048E-04   -0.16569E-03 11440   0.353E-01    0.182E-01
DAV:   6    -0.192348373663E+03    0.33488E-03   -0.92419E-04 10880   0.208E-01    0.615E-02
DAV:   7    -0.192348288567E+03    0.85097E-04   -0.17659E-04  6400   0.532E-02
  31 F= -.19234829E+03 E0= -.19226173E+03  d E =-.134631E-01
       N       E                     dE             d eps       ncg     rms          rms(c)
DAV:   1    -0.192352497802E+03   -0.41241E-02   -0.19240E+00  8160   0.291E+00    0.315E-01
DAV:   2    -0.192359005329E+03   -0.65075E-02   -0.74479E-02 12000   0.886E-01    0.411E-01
DAV:   3    -0.192358323728E+03    0.68160E-03   -0.11953E-02 12160   0.779E-01    0.366E-01
DAV:   4    -0.192356800020E+03    0.15237E-02   -0.31434E-03 11600   0.427E-01    0.143E-01
DAV:   5    -0.192356772203E+03    0.27818E-04   -0.13139E-03 10280   0.278E-01    0.153E-01
DAV:   6    -0.192356698259E+03    0.73943E-04   -0.94867E-04 10960   0.239E-01
  32 F= -.19235670E+03 E0= -.19227045E+03  d E =-.840969E-02
       N       E                     dE             d eps       ncg     rms          rms(c)
DAV:   1    -0.192357827068E+03   -0.10549E-02   -0.89841E-02  8160   0.642E-01    0.934E-02
DAV:   2    -0.192358079543E+03   -0.25248E-03   -0.39955E-03 12280   0.249E-01    0.119E-01
DAV:   3    -0.192358011907E+03    0.67636E-04   -0.65756E-04 10400   0.221E-01
  33 F= -.19235801E+03 E0= -.19227240E+03  d E =-.131365E-02
       N       E                     dE             d eps       ncg     rms          rms(c)
DAV:   1    -0.192359153451E+03   -0.10739E-02   -0.10041E-01  8160   0.676E-01    0.787E-02
DAV:   2    -0.192359334285E+03   -0.18083E-03   -0.27721E-03 12240   0.150E-01    0.735E-02
DAV:   3    -0.192359353783E+03   -0.19499E-04   -0.45924E-04 10080   0.161E-01
  34 F= -.19235935E+03 E0= -.19227415E+03  d E =-.134188E-02
       N       E                     dE             d eps       ncg     rms          rms(c)
DAV:   1    -0.192360094370E+03   -0.76009E-03   -0.32128E-02  8160   0.401E-01    0.773E-02
DAV:   2    -0.192360260141E+03   -0.16577E-03   -0.16599E-03 12600   0.175E-01    0.126E-01
DAV:   3    -0.192360081959E+03    0.17818E-03   -0.66996E-04  8960   0.195E-01    0.782E-02
DAV:   4    -0.192360038873E+03    0.43085E-04   -0.21995E-04  7120   0.111E-01
  35 F= -.19236004E+03 E0= -.19227514E+03  d E =-.685090E-03
       N       E                     dE             d eps       ncg     rms          rms(c)
DAV:   1    -0.192361456274E+03   -0.13743E-02   -0.16317E-01  8160   0.856E-01    0.978E-02
DAV:   2    -0.192361865194E+03   -0.40892E-03   -0.55585E-03 11880   0.214E-01    0.101E-01
DAV:   3    -0.192361884446E+03   -0.19252E-04   -0.72671E-04 11200   0.212E-01
  36 F= -.19236188E+03 E0= -.19227770E+03  d E =-.184557E-02
       N       E                     dE             d eps       ncg     rms          rms(c)
DAV:   1    -0.192361990709E+03   -0.12551E-03   -0.70296E-03  8160   0.224E-01    0.539E-02
DAV:   2    -0.192362077276E+03   -0.86568E-04   -0.50815E-04  9280   0.125E-01
  37 F= -.19236208E+03 E0= -.19227777E+03  d E =-.192830E-03
       N       E                     dE             d eps       ncg     rms          rms(c)
DAV:   1    -0.192362892732E+03   -0.90202E-03   -0.85217E-02  8160   0.630E-01    0.815E-02
DAV:   2    -0.192363214187E+03   -0.32145E-03   -0.27556E-03 12600   0.211E-01    0.139E-01
DAV:   3    -0.192363039489E+03    0.17470E-03   -0.57656E-04 10240   0.210E-01    0.763E-02
DAV:   4    -0.192362988624E+03    0.50865E-04   -0.10394E-04  5960   0.885E-02
  38 F= -.19236299E+03 E0= -.19227923E+03  d E =-.911348E-03
       N       E                     dE             d eps       ncg     rms          rms(c)
DAV:   1    -0.192363758354E+03   -0.71886E-03   -0.50686E-02  8160   0.485E-01    0.700E-02
DAV:   2    -0.192364135085E+03   -0.37673E-03   -0.22197E-03 13520   0.222E-01    0.156E-01
DAV:   3    -0.192363834203E+03    0.30088E-03   -0.56358E-04  9480   0.206E-01    0.516E-02
DAV:   4    -0.192363834712E+03   -0.50945E-06   -0.93163E-05  5760   0.753E-02
  39 F= -.19236383E+03 E0= -.19228040E+03  d E =-.846088E-03
       N       E                     dE             d eps       ncg     rms          rms(c)
DAV:   1    -0.192364534637E+03   -0.70043E-03   -0.46373E-02  8160   0.460E-01    0.654E-02
DAV:   2    -0.192364767094E+03   -0.23246E-03   -0.17035E-03 13000   0.186E-01    0.124E-01
DAV:   3    -0.192364584894E+03    0.18220E-03   -0.43051E-04  9200   0.177E-01    0.549E-02
DAV:   4    -0.192364571219E+03    0.13675E-04   -0.10703E-04  5880   0.799E-02
  40 F= -.19236457E+03 E0= -.19228144E+03  d E =-.736507E-03
