<?xml version="1.0" encoding="ISO-8859-1"?>
<modeling>
 <generator>
  <i name="program" type="string">vasp </i>
  <i name="version" type="string">5.4.1  </i>
  <i name="subversion" type="string">05Feb16 (build Jul 05 2020 17:13:04) complex                          parallel </i>
  <i name="platform" type="string">IFC91_ompi </i>
  <i name="date" type="string">2024 04 26 </i>
  <i name="time" type="string">09:01:34 </i>
 </generator>
 <incar>
  <i type="int" name="ISTART">     0</i>
  <i type="string" name="PREC">normal</i>
  <i type="string" name="ALGO"> Normal</i>
  <i type="int" name="ISPIN">     1</i>
  <i type="int" name="ICHARG">     2</i>
  <i type="int" name="IBRION">     1</i>
  <i type="int" name="NSW">   100</i>
  <i type="int" name="ISIF">     3</i>
  <i type="int" name="ISYM">     0</i>
  <i name="SYMPREC">      0.00000001</i>
  <i name="POTIM">      0.50000000</i>
  <i type="logical" name="LREAL"> F  </i>
  <i type="logical" name="LPLANE"> F  </i>
  <i type="int" name="ISMEAR">     0</i>
  <i type="logical" name="LWAVE"> F  </i>
  <i type="logical" name="LCHARG"> F  </i>
  <v type="int" name="KPOINT_BSE">    -1     0     0     0</v>
 </incar>
 <kpoints>
  <generation param="Gamma">
   <v type="int" name="divisions">       8        8        1 </v>
   <v name="usershift">      0.00000000       0.00000000       0.00000000 </v>
   <v name="genvec1">      0.12500000       0.00000000       0.00000000 </v>
   <v name="genvec2">     -0.00000000       0.12500000       0.00000000 </v>
   <v name="genvec3">      0.00000000       0.00000000       1.00000000 </v>
   <v name="shift">      0.00000000       0.00000000       0.00000000 </v>
  </generation>
  <varray name="kpointlist" >
   <v>       0.00000000       0.00000000       0.00000000 </v>
   <v>       0.12500000       0.00000000       0.00000000 </v>
   <v>       0.25000000       0.00000000       0.00000000 </v>
   <v>       0.37500000       0.00000000       0.00000000 </v>
   <v>       0.50000000       0.00000000       0.00000000 </v>
   <v>       0.00000000       0.12500000       0.00000000 </v>
   <v>       0.12500000       0.12500000       0.00000000 </v>
   <v>       0.25000000       0.12500000       0.00000000 </v>
   <v>       0.37500000       0.12500000       0.00000000 </v>
   <v>       0.50000000       0.12500000       0.00000000 </v>
   <v>      -0.37500000       0.12500000       0.00000000 </v>
   <v>      -0.25000000       0.12500000       0.00000000 </v>
   <v>      -0.12500000       0.12500000       0.00000000 </v>
   <v>       0.00000000       0.25000000       0.00000000 </v>
   <v>       0.12500000       0.25000000       0.00000000 </v>
   <v>       0.25000000       0.25000000       0.00000000 </v>
   <v>       0.37500000       0.25000000       0.00000000 </v>
   <v>       0.50000000       0.25000000       0.00000000 </v>
   <v>      -0.37500000       0.25000000       0.00000000 </v>
   <v>      -0.25000000       0.25000000       0.00000000 </v>
   <v>      -0.12500000       0.25000000       0.00000000 </v>
   <v>      -0.00000000       0.37500000       0.00000000 </v>
   <v>       0.12500000       0.37500000       0.00000000 </v>
   <v>       0.25000000       0.37500000       0.00000000 </v>
   <v>       0.37500000       0.37500000       0.00000000 </v>
   <v>       0.50000000       0.37500000       0.00000000 </v>
   <v>      -0.37500000       0.37500000       0.00000000 </v>
   <v>      -0.25000000       0.37500000       0.00000000 </v>
   <v>      -0.12500000       0.37500000       0.00000000 </v>
   <v>       0.00000000       0.50000000       0.00000000 </v>
   <v>       0.12500000       0.50000000       0.00000000 </v>
   <v>       0.25000000       0.50000000       0.00000000 </v>
   <v>       0.37500000       0.50000000       0.00000000 </v>
   <v>       0.50000000       0.50000000       0.00000000 </v>
  </varray>
  <varray name="weights" >
   <v>       0.01562500 </v>
   <v>       0.03125000 </v>
   <v>       0.03125000 </v>
   <v>       0.03125000 </v>
   <v>       0.01562500 </v>
   <v>       0.03125000 </v>
   <v>       0.03125000 </v>
   <v>       0.03125000 </v>
   <v>       0.03125000 </v>
   <v>       0.03125000 </v>
   <v>       0.03125000 </v>
   <v>       0.03125000 </v>
   <v>       0.03125000 </v>
   <v>       0.03125000 </v>
   <v>       0.03125000 </v>
   <v>       0.03125000 </v>
   <v>       0.03125000 </v>
   <v>       0.03125000 </v>
   <v>       0.03125000 </v>
   <v>       0.03125000 </v>
   <v>       0.03125000 </v>
   <v>       0.03125000 </v>
   <v>       0.03125000 </v>
   <v>       0.03125000 </v>
   <v>       0.03125000 </v>
   <v>       0.03125000 </v>
   <v>       0.03125000 </v>
   <v>       0.03125000 </v>
   <v>       0.03125000 </v>
   <v>       0.01562500 </v>
   <v>       0.03125000 </v>
   <v>       0.03125000 </v>
   <v>       0.03125000 </v>
   <v>       0.01562500 </v>
  </varray>
 </kpoints>
 <parameters>
  <separator name="general" >
   <i type="string" name="SYSTEM">unknown system</i>
   <i type="logical" name="LCOMPAT"> F  </i>
  </separator>
  <separator name="electronic" >
   <i type="string" name="PREC">normal</i>
   <i name="ENMAX">    280.00000000</i>
   <i name="ENAUG">    373.43800000</i>
   <i name="EDIFF">      0.00010000</i>
   <i type="int" name="IALGO">    38</i>
   <i type="int" name="IWAVPR">    11</i>
   <i type="int" name="NBANDS">   120</i>
   <i name="NELECT">    159.00000000</i>
   <i type="int" name="TURBO">     0</i>
   <i type="int" name="IRESTART">     0</i>
   <i type="int" name="NREBOOT">     0</i>
   <i type="int" name="NMIN">     0</i>
   <i name="EREF">      0.00000000</i>
   <separator name="electronic smearing" >
    <i type="int" name="ISMEAR">     0</i>
    <i name="SIGMA">      0.20000000</i>
    <i name="KSPACING">      0.50000000</i>
    <i type="logical" name="KGAMMA"> T  </i>
   </separator>
   <separator name="electronic projectors" >
    <i type="logical" name="LREAL"> F  </i>
    <v name="ROPT">      0.00000000      0.00000000      0.00000000      0.00000000</v>
    <i type="int" name="LMAXPAW">  -100</i>
    <i type="int" name="LMAXMIX">     2</i>
    <i type="logical" name="NLSPLINE"> F  </i>
   </separator>
   <separator name="electronic startup" >
    <i type="int" name="ISTART">     0</i>
    <i type="int" name="ICHARG">     2</i>
    <i type="int" name="INIWAV">     1</i>
   </separator>
   <separator name="electronic spin" >
    <i type="int" name="ISPIN">     1</i>
    <i type="logical" name="LNONCOLLINEAR"> F  </i>
    <v name="MAGMOM">      1.00000000      1.00000000      1.00000000      1.00000000      1.00000000      1.00000000      1.00000000      1.00000000      1.00000000      1.00000000      1.00000000      1.00000000      1.00000000      1.00000000      1.00000000      1.00000000      1.00000000      1.00000000      1.00000000      1.00000000
      1.00000000      1.00000000      1.00000000      1.00000000      1.00000000      1.00000000      1.00000000</v>
    <i name="NUPDOWN">     -1.00000000</i>
    <i type="logical" name="LSORBIT"> F  </i>
    <v name="SAXIS">      0.00000000      0.00000000      1.00000000</v>
    <i type="logical" name="LSPIRAL"> F  </i>
    <v name="QSPIRAL">      0.00000000      0.00000000      0.00000000</v>
    <i type="logical" name="LZEROZ"> F  </i>
   </separator>
   <separator name="electronic exchange-correlation" >
    <i type="logical" name="LASPH"> F  </i>
    <i type="logical" name="LMETAGGA"> F  </i>
   </separator>
   <separator name="electronic convergence" >
    <i type="int" name="NELM">    60</i>
    <i type="int" name="NELMDL">    -5</i>
    <i type="int" name="NELMIN">     2</i>
    <i name="ENINI">    280.00000000</i>
    <separator name="electronic convergence detail" >
     <i type="logical" name="LDIAG"> T  </i>
     <i type="logical" name="LSUBROT"> F  </i>
     <i name="WEIMIN">      0.00100000</i>
     <i name="EBREAK">      0.00000021</i>
     <i name="DEPER">      0.30000000</i>
     <i type="int" name="NRMM">     4</i>
     <i name="TIME">      0.40000000</i>
    </separator>
   </separator>
   <separator name="electronic mixer" >
    <i name="AMIX">      0.40000000</i>
    <i name="BMIX">      1.00000000</i>
    <i name="AMIN">      0.10000000</i>
    <i name="AMIX_MAG">      1.60000000</i>
    <i name="BMIX_MAG">      1.00000000</i>
    <separator name="electronic mixer details" >
     <i type="int" name="IMIX">     4</i>
     <i type="logical" name="MIXFIRST"> F  </i>
     <i type="int" name="MAXMIX">   -45</i>
     <i name="WC">    100.00000000</i>
     <i type="int" name="INIMIX">     1</i>
     <i type="int" name="MIXPRE">     1</i>
     <i type="int" name="MREMOVE">     5</i>
    </separator>
   </separator>
   <separator name="electronic dipolcorrection" >
    <i type="logical" name="LDIPOL"> F  </i>
    <i type="logical" name="LMONO"> F  </i>
    <i type="int" name="IDIPOL">     0</i>
    <i name="EPSILON">      1.00000000</i>
    <v name="DIPOL">   -100.00000000   -100.00000000   -100.00000000</v>
    <i name="EFIELD">      0.00000000</i>
   </separator>
  </separator>
  <separator name="grids" >
   <i type="int" name="NGX">    42</i>
   <i type="int" name="NGY">    42</i>
   <i type="int" name="NGZ">   126</i>
   <i type="int" name="NGXF">    84</i>
   <i type="int" name="NGYF">    84</i>
   <i type="int" name="NGZF">   252</i>
   <i type="logical" name="ADDGRID"> F  </i>
  </separator>
  <separator name="ionic" >
   <i type="int" name="NSW">   100</i>
   <i type="int" name="IBRION">     1</i>
   <i type="int" name="ISIF">     3</i>
   <i name="PSTRESS">      0.00000000</i>
   <i name="EDIFFG">      0.00100000</i>
   <i type="int" name="NFREE">     0</i>
   <i name="POTIM">      0.50000000</i>
   <i name="SMASS">     -3.00000000</i>
   <i name="SCALEE">      1.00000000</i>
  </separator>
  <separator name="ionic md" >
   <i name="TEBEG">      0.00010000</i>
   <i name="TEEND">      0.00010000</i>
   <i type="int" name="NBLOCK">     1</i>
   <i type="int" name="KBLOCK">   100</i>
   <i type="int" name="NPACO">   256</i>
   <i name="APACO">     16.00000000</i>
  </separator>
  <separator name="symmetry" >
   <i type="int" name="ISYM">     0</i>
   <i name="SYMPREC">      0.00000001</i>
  </separator>
  <separator name="dos" >
   <i type="logical" name="LORBIT"> F  </i>
   <v name="RWIGS">     -1.00000000     -1.00000000     -1.00000000     -1.00000000</v>
   <i type="int" name="NEDOS">   301</i>
   <i name="EMIN">     10.00000000</i>
   <i name="EMAX">    -10.00000000</i>
   <i name="EFERMI">      0.00000000</i>
  </separator>
  <separator name="writing" >
   <i type="int" name="NWRITE">     2</i>
   <i type="logical" name="LWAVE"> F  </i>
   <i type="logical" name="LCHARG"> F  </i>
   <i type="logical" name="LPARD"> F  </i>
   <i type="logical" name="LVTOT"> F  </i>
   <i type="logical" name="LVHAR"> F  </i>
   <i type="logical" name="LELF"> F  </i>
   <i type="logical" name="LOPTICS"> F  </i>
   <v name="STM">      0.00000000      0.00000000      0.00000000      0.00000000      0.00000000      0.00000000      0.00000000</v>
  </separator>
  <separator name="performance" >
   <i type="int" name="NPAR">    40</i>
   <i type="int" name="NSIM">     4</i>
   <i type="int" name="NBLK">    -1</i>
   <i type="logical" name="LPLANE"> F  </i>
   <i type="logical" name="LSCALAPACK"> T  </i>
   <i type="logical" name="LSCAAWARE"> F  </i>
   <i type="logical" name="LSCALU"> F  </i>
   <i type="logical" name="LASYNC"> F  </i>
   <i type="logical" name="LORBITALREAL"> F  </i>
  </separator>
  <separator name="miscellaneous" >
   <i type="int" name="IDIOT">     3</i>
   <i type="logical" name="LMUSIC"> F  </i>
   <v name="POMASS">     50.94100000     95.94000000    183.85000000     32.06600000</v>
   <v name="DARWINR">      0.00000000      0.00000000      0.00000000      0.00000000</v>
   <v name="DARWINV">      1.00000000      1.00000000      1.00000000      1.00000000</v>
   <i type="logical" name="LCORR"> T  </i>
  </separator>
  <i type="logical" name="GGA_COMPAT"> T  </i>
  <i type="logical" name="LBERRY"> F  </i>
  <i type="int" name="ICORELEVEL">     0</i>
  <i type="logical" name="LDAU"> F  </i>
  <i type="int" name="I_CONSTRAINED_M">     0</i>
  <separator name="electronic exchange-correlation" >
   <i type="string" name="GGA">--</i>
   <i type="int" name="VOSKOWN">     0</i>
   <i type="logical" name="LHFCALC"> F  </i>
   <i type="string" name="PRECFOCK"></i>
   <i type="logical" name="LSYMGRAD"> F  </i>
   <i type="logical" name="LHFONE"> F  </i>
   <i type="logical" name="LRHFCALC"> F  </i>
   <i type="logical" name="LTHOMAS"> F  </i>
   <i type="logical" name="LMODELHF"> F  </i>
   <i name="ENCUT4O">     -1.00000000</i>
   <i type="int" name="EXXOEP">     0</i>
   <i type="int" name="FOURORBIT">     0</i>
   <i name="AEXX">      0.00000000</i>
   <i name="HFALPHA">      0.00000000</i>
   <i name="MCALPHA">      0.00000000</i>
   <i name="ALDAX">      1.00000000</i>
   <i name="AGGAX">      1.00000000</i>
   <i name="ALDAC">      1.00000000</i>
   <i name="AGGAC">      1.00000000</i>
   <i type="int" name="NKREDX">     1</i>
   <i type="int" name="NKREDY">     1</i>
   <i type="int" name="NKREDZ">     1</i>
   <i type="logical" name="SHIFTRED"> F  </i>
   <i type="logical" name="ODDONLY"> F  </i>
   <i type="logical" name="EVENONLY"> F  </i>
   <i type="int" name="LMAXFOCK">     0</i>
   <i type="int" name="NMAXFOCKAE">     0</i>
   <i type="logical" name="LFOCKAEDFT"> F  </i>
   <i name="HFSCREEN">      0.00000000</i>
   <i name="HFSCREENC">      0.00000000</i>
   <i type="int" name="NBANDSGWLOW">     0</i>
  </separator>
  <separator name="vdW DFT" >
   <i type="logical" name="LUSE_VDW"> F  </i>
   <i name="Zab_VDW">     -0.84910000</i>
   <i name="PARAM1">      0.12340000</i>
   <i name="PARAM2">      1.00000000</i>
   <i name="PARAM3">      0.00000000</i>
  </separator>
  <separator name="model GW" >
   <i type="int" name="MODEL_GW">     0</i>
   <i name="MODEL_EPS0">     58.26239943</i>
   <i name="MODEL_ALPHA">      1.00000000</i>
  </separator>
  <separator name="linear response parameters" >
   <i type="logical" name="LEPSILON"> F  </i>
   <i type="logical" name="LRPA"> F  </i>
   <i type="logical" name="LNABLA"> F  </i>
   <i type="logical" name="LVEL"> F  </i>
   <i type="int" name="KINTER">     0</i>
   <i name="CSHIFT">      0.10000000</i>
   <i name="OMEGAMAX">     -1.00000000</i>
   <i name="DEG_THRESHOLD">      0.00200000</i>
  </separator>
  <separator name="orbital magnetization" >
   <i type="logical" name="NUCIND"> F  </i>
   <v name="MAGPOS">      0.00000000      0.00000000      0.00000000</v>
   <i type="logical" name="LNICSALL"> T  </i>
   <i type="logical" name="ORBITALMAG"> F  </i>
   <i type="logical" name="LMAGBLOCH"> F  </i>
   <i type="logical" name="LCHIMAG"> F  </i>
   <i type="logical" name="LGAUGE"> T  </i>
   <i type="int" name="MAGATOM">     0</i>
   <v name="MAGDIPOL">      0.00000000      0.00000000      0.00000000</v>
   <v name="AVECCONST">      0.00000000      0.00000000      0.00000000</v>
  </separator>
  <separator name="response functions" >
   <i type="logical" name="LADDER"> F  </i>
   <i type="logical" name="LFXC"> F  </i>
   <i type="logical" name="LHARTREE"> T  </i>
   <i type="int" name="IBSE">     0</i>
   <v type="int" name="KPOINT">    -1     0     0     0</v>
   <i type="logical" name="LTCTE"> F  </i>
   <i type="logical" name="LTETE"> F  </i>
   <i type="logical" name="LTRIPLET"> F  </i>
   <i type="logical" name="LFXCEPS"> F  </i>
   <i type="logical" name="LFXHEG"> F  </i>
   <i type="int" name="NATURALO">     0</i>
   <i type="logical" name="L2ORDER"> F  </i>
   <i type="logical" name="LUSEW"> F  </i>
   <i name="ENCUTGW">     -2.00000000</i>
   <i name="ENCUTGWSOFT">     -2.00000000</i>
   <i name="ENCUTLF">     -1.00000000</i>
   <i type="int" name="LMAXMP2">    -1</i>
   <i name="SCISSOR">      0.00000000</i>
   <i type="int" name="NOMEGA">     0</i>
   <i type="int" name="NOMEGAR">     0</i>
   <i type="int" name="NBANDSGW">    -1</i>
   <i type="int" name="NBANDSO">    -1</i>
   <i type="int" name="NBANDSV">    -1</i>
   <i type="int" name="NELM">     1</i>
   <i type="int" name="NELMHF">     1</i>
   <i type="int" name="DIM">     3</i>
   <i type="int" name="ANTIRES">     0</i>
   <i name="OMEGAMAX">    -30.00000000</i>
   <i name="OMEGAMIN">    -30.00000000</i>
   <i name="OMEGATL">   -200.00000000</i>
   <i type="int" name="OMEGAGRID">     0</i>
   <i name="CSHIFT">     -0.10000000</i>
   <i type="logical" name="SELFENERGY"> F  </i>
   <i type="logical" name="LSPECTRAL"> F  </i>
   <i type="logical" name="LSPECTRALGW"> F  </i>
   <i type="logical" name="LSINGLES"> F  </i>
   <i type="logical" name="LFERMIGW"> F  </i>
   <i type="logical" name="ODDONLYGW"> F  </i>
   <i type="logical" name="EVENONLYGW"> F  </i>
   <i type="int" name="NKREDLFX">     1</i>
   <i type="int" name="NKREDLFY">     1</i>
   <i type="int" name="NKREDLFZ">     1</i>
   <i type="int" name="MAXMEM">  1800</i>
   <i type="int" name="TELESCOPE">     0</i>
   <i type="int" name="TAUPAR">     1</i>
   <i type="int" name="OMEGAPAR">    -1</i>
   <i name="LAMBDA">      1.00000000</i>
  </separator>
  <separator name="External order field" >
   <i name="OFIELD_KAPPA">      0.00000000</i>
   <v name="OFIELD_K">      0.00000000      0.00000000      0.00000000</v>
   <i name="OFIELD_Q6_NEAR">      0.00000000</i>
   <i name="OFIELD_Q6_FAR">      0.00000000</i>
   <i name="OFIELD_A">      0.00000000</i>
  </separator>
 </parameters>
 <atominfo>
  <atoms>      27 </atoms>
  <types>       4 </types>
  <array name="atoms" >
   <dimension dim="1">ion</dimension>
   <field type="string">element</field>
   <field type="int">atomtype</field>
   <set>
    <rc><c>V </c><c>   1</c></rc>
    <rc><c>V </c><c>   1</c></rc>
    <rc><c>V </c><c>   1</c></rc>
    <rc><c>Mo</c><c>   2</c></rc>
    <rc><c>Mo</c><c>   2</c></rc>
    <rc><c>Mo</c><c>   2</c></rc>
    <rc><c>W </c><c>   3</c></rc>
    <rc><c>W </c><c>   3</c></rc>
    <rc><c>W </c><c>   3</c></rc>
    <rc><c>S </c><c>   4</c></rc>
    <rc><c>S </c><c>   4</c></rc>
    <rc><c>S </c><c>   4</c></rc>
    <rc><c>S </c><c>   4</c></rc>
    <rc><c>S </c><c>   4</c></rc>
    <rc><c>S </c><c>   4</c></rc>
    <rc><c>S </c><c>   4</c></rc>
    <rc><c>S </c><c>   4</c></rc>
    <rc><c>S </c><c>   4</c></rc>
    <rc><c>S </c><c>   4</c></rc>
    <rc><c>S </c><c>   4</c></rc>
    <rc><c>S </c><c>   4</c></rc>
    <rc><c>S </c><c>   4</c></rc>
    <rc><c>S </c><c>   4</c></rc>
    <rc><c>S </c><c>   4</c></rc>
    <rc><c>S </c><c>   4</c></rc>
    <rc><c>S </c><c>   4</c></rc>
    <rc><c>S </c><c>   4</c></rc>
   </set>
  </array>
  <array name="atomtypes" >
   <dimension dim="1">type</dimension>
   <field type="int">atomspertype</field>
   <field type="string">element</field>
   <field>mass</field>
   <field>valence</field>
   <field type="string">pseudopotential</field>
   <set>
    <rc><c>   3</c><c>V </c><c>     50.94100000</c><c>      5.00000000</c><c> PAW_PBE V 08Apr2002                    </c></rc>
    <rc><c>   3</c><c>Mo</c><c>     95.94000000</c><c>      6.00000000</c><c> PAW_PBE Mo 08Apr2002                   </c></rc>
    <rc><c>   3</c><c>W </c><c>    183.85000000</c><c>      6.00000000</c><c> PAW_PBE W 08Apr2002                    </c></rc>
    <rc><c>  18</c><c>S </c><c>     32.06600000</c><c>      6.00000000</c><c>  PAW_PBE S 17Jan2003                   </c></rc>
   </set>
  </array>
 </atominfo>
 <structure name="initialpos" >
  <crystal>
   <varray name="basis" >
    <v>       8.66999996       5.03999989       0.00000000 </v>
    <v>      -8.66999982       5.04000013       0.00000000 </v>
    <v>       0.00000000       0.00000000      30.00000000 </v>
   </varray>
   <i name="volume">   2621.80797419 </i>
   <varray name="rec_basis" >
    <v>       0.05767013       0.09920635       0.00000000 </v>
    <v>      -0.05767013       0.09920635       0.00000000 </v>
    <v>       0.00000000       0.00000000       0.03333333 </v>
   </varray>
  </crystal>
  <varray name="positions" >
   <v>       0.33333334       0.66666669       0.00000000 </v>
   <v>       0.00000000       0.66666669       0.00000000 </v>
   <v>       0.66666669       0.00000000       0.00000000 </v>
   <v>       1.00000000       0.33333334       0.00000000 </v>
   <v>       0.33333334       0.00000000       0.00000000 </v>
   <v>       0.66666669       0.33333334       0.00000000 </v>
   <v>       0.00000000       0.00000000       0.00000000 </v>
   <v>       0.33333334       0.33333334       0.00000000 </v>
   <v>       0.66666669       0.66666669       0.00000000 </v>
   <v>       0.11068511       0.22244981       0.95539999 </v>
   <v>       0.22244981       0.11068511       0.04460000 </v>
   <v>       0.11068511       0.55578315       0.95539999 </v>
   <v>       0.22244981       0.44401845       0.04460000 </v>
   <v>       0.11068511       0.88911647       0.95539999 </v>
   <v>       0.22244981       0.77735180       0.04460000 </v>
   <v>       0.44401845       0.22244981       0.95539999 </v>
   <v>       0.55578315       0.11068511       0.04460000 </v>
   <v>       0.44401845       0.55578315       0.95539999 </v>
   <v>       0.55578315       0.44401845       0.04460000 </v>
   <v>       0.44401845       0.88911647       0.95539999 </v>
   <v>       0.55578315       0.77735180       0.04460000 </v>
   <v>       0.77735180       0.22244981       0.95539999 </v>
   <v>       0.88911647       0.11068511       0.04460000 </v>
   <v>       0.77735180       0.55578315       0.95539999 </v>
   <v>       0.88911647       0.44401845       0.04460000 </v>
   <v>       0.77735180       0.88911647       0.95539999 </v>
   <v>       0.88911647       0.77735180       0.04460000 </v>
  </varray>
 </structure>
 <calculation>
  <scstep>
   <time name="dav">   22.10   22.15</time>
   <time name="total">   22.14   22.20</time>
   <energy>
    <i name="alphaZ">     81.65567618 </i>
    <i name="ewald">  41890.23009643 </i>
    <i name="hartreedc"> -47722.87397937 </i>
    <i name="XCdc">   -242.92731908 </i>
    <i name="pawpsdc">   3467.42045192 </i>
    <i name="pawaedc">  -2871.19716117 </i>
    <i name="eentropy">     -0.53814841 </i>
    <i name="bandstr">   -239.32310850 </i>
    <i name="atom">   6761.44252427 </i>
    <i name="e_fr_energy">   1123.88903227 </i>
    <i name="e_wo_entrp">   1124.42718067 </i>
    <i name="e_0_energy">   1124.15810647 </i>
   </energy>
  </scstep>
  <scstep>
   <time name="dav">   28.31   28.38</time>
   <time name="total">   28.31   28.39</time>
   <energy>
    <i name="e_fr_energy">     -4.73397542 </i>
    <i name="e_wo_entrp">     -4.56812181 </i>
    <i name="e_0_energy">     -4.65104861 </i>
   </energy>
  </scstep>
  <scstep>
   <time name="dav">   28.10   28.17</time>
   <time name="total">   28.10   28.18</time>
   <energy>
    <i name="e_fr_energy">   -199.86861452 </i>
    <i name="e_wo_entrp">   -199.60626593 </i>
    <i name="e_0_energy">   -199.73744022 </i>
   </energy>
  </scstep>
  <scstep>
   <time name="dav">   30.73   30.81</time>
   <time name="total">   30.73   30.82</time>
   <energy>
    <i name="e_fr_energy">   -209.00948920 </i>
    <i name="e_wo_entrp">   -208.70526610 </i>
    <i name="e_0_energy">   -208.85737765 </i>
   </energy>
  </scstep>
  <scstep>
   <time name="dav">   29.40   29.47</time>
   <time name="total">   29.86   29.94</time>
   <energy>
    <i name="e_fr_energy">   -209.32822862 </i>
    <i name="e_wo_entrp">   -209.02656328 </i>
    <i name="e_0_energy">   -209.17739595 </i>
   </energy>
  </scstep>
  <scstep>
   <time name="dav">   31.35   31.43</time>
   <time name="total">   31.85   31.94</time>
   <energy>
    <i name="e_fr_energy">   -237.15966048 </i>
    <i name="e_wo_entrp">   -236.88029358 </i>
    <i name="e_0_energy">   -237.01997703 </i>
   </energy>
  </scstep>
  <scstep>
   <time name="dav">   33.12   33.20</time>
   <time name="total">   33.62   33.71</time>
   <energy>
    <i name="e_fr_energy">   -196.42458278 </i>
    <i name="e_wo_entrp">   -196.11077506 </i>
    <i name="e_0_energy">   -196.26767892 </i>
   </energy>
  </scstep>
  <scstep>
   <time name="dav">   30.43   30.50</time>
   <time name="total">   30.95   31.03</time>
   <energy>
    <i name="e_fr_energy">   -189.41494171 </i>
    <i name="e_wo_entrp">   -189.12209707 </i>
    <i name="e_0_energy">   -189.26851939 </i>
   </energy>
  </scstep>
  <scstep>
   <time name="dav">   32.14   32.22</time>
   <time name="total">   32.66   32.74</time>
   <energy>
    <i name="e_fr_energy">   -188.16690011 </i>
    <i name="e_wo_entrp">   -187.83105237 </i>
    <i name="e_0_energy">   -187.99897624 </i>
   </energy>
  </scstep>
  <scstep>
   <time name="dav">   33.11   33.19</time>
   <time name="total">   33.64   33.73</time>
   <energy>
    <i name="e_fr_energy">   -187.00588909 </i>
    <i name="e_wo_entrp">   -186.65865369 </i>
    <i name="e_0_energy">   -186.83227139 </i>
   </energy>
  </scstep>
  <scstep>
   <time name="dav">   32.96   33.03</time>
   <time name="total">   33.49   33.58</time>
   <energy>
    <i name="e_fr_energy">   -186.96893832 </i>
    <i name="e_wo_entrp">   -186.61859818 </i>
    <i name="e_0_energy">   -186.79376825 </i>
   </energy>
  </scstep>
  <scstep>
   <time name="dav">   30.68   30.75</time>
   <time name="total">   31.20   31.29</time>
   <energy>
    <i name="e_fr_energy">   -187.09798898 </i>
    <i name="e_wo_entrp">   -186.75861868 </i>
    <i name="e_0_energy">   -186.92830383 </i>
   </energy>
  </scstep>
  <scstep>
   <time name="dav">   31.48   31.55</time>
   <time name="total">   32.01   32.09</time>
   <energy>
    <i name="e_fr_energy">   -186.88305257 </i>
    <i name="e_wo_entrp">   -186.54632073 </i>
    <i name="e_0_energy">   -186.71468665 </i>
   </energy>
  </scstep>
  <scstep>
   <time name="dav">   32.88   32.96</time>
   <time name="total">   33.41   33.50</time>
   <energy>
    <i name="e_fr_energy">   -186.85824329 </i>
    <i name="e_wo_entrp">   -186.51329327 </i>
    <i name="e_0_energy">   -186.68576828 </i>
   </energy>
  </scstep>
  <scstep>
   <time name="dav">   30.18   30.25</time>
   <time name="total">   30.71   30.79</time>
   <energy>
    <i name="e_fr_energy">   -186.83986867 </i>
    <i name="e_wo_entrp">   -186.49290773 </i>
    <i name="e_0_energy">   -186.66638820 </i>
   </energy>
  </scstep>
  <scstep>
   <time name="dav">   30.32   30.40</time>
   <time name="total">   30.85   30.94</time>
   <energy>
    <i name="e_fr_energy">   -186.83234374 </i>
    <i name="e_wo_entrp">   -186.48560125 </i>
    <i name="e_0_energy">   -186.65897249 </i>
   </energy>
  </scstep>
  <scstep>
   <time name="dav">   31.44   31.52</time>
   <time name="total">   31.97   32.06</time>
   <energy>
    <i name="e_fr_energy">   -186.83025697 </i>
    <i name="e_wo_entrp">   -186.48545967 </i>
    <i name="e_0_energy">   -186.65785832 </i>
   </energy>
  </scstep>
  <scstep>
   <time name="dav">   29.58   29.65</time>
   <time name="total">   30.11   30.19</time>
   <energy>
    <i name="e_fr_energy">   -186.82999894 </i>
    <i name="e_wo_entrp">   -186.48485555 </i>
    <i name="e_0_energy">   -186.65742724 </i>
   </energy>
  </scstep>
  <scstep>
   <time name="dav">   28.11   28.17</time>
   <time name="total">   28.64   28.71</time>
   <energy>
    <i name="e_fr_energy">   -186.82965004 </i>
    <i name="e_wo_entrp">   -186.48432167 </i>
    <i name="e_0_energy">   -186.65698585 </i>
   </energy>
  </scstep>
  <scstep>
   <time name="dav">   24.47   24.52</time>
   <time name="total">   25.00   25.06</time>
   <energy>
    <i name="e_fr_energy">   -186.83037766 </i>
    <i name="e_wo_entrp">   -186.48520986 </i>
    <i name="e_0_energy">   -186.65779376 </i>
   </energy>
  </scstep>
  <scstep>
   <time name="dav">   22.08   22.13</time>
   <time name="total">   22.61   22.67</time>
   <energy>
    <i name="e_fr_energy">   -186.83097263 </i>
    <i name="e_wo_entrp">   -186.48598274 </i>
    <i name="e_0_energy">   -186.65847769 </i>
   </energy>
  </scstep>
  <scstep>
   <time name="dav">   20.82   20.87</time>
   <time name="total">   21.35   21.41</time>
   <energy>
    <i name="e_fr_energy">   -186.83213471 </i>
    <i name="e_wo_entrp">   -186.48697626 </i>
    <i name="e_0_energy">   -186.65955548 </i>
   </energy>
  </scstep>
  <scstep>
   <time name="dav">   20.84   20.89</time>
   <time name="total">   21.38   21.44</time>
   <energy>
    <i name="e_fr_energy">   -186.83336989 </i>
    <i name="e_wo_entrp">   -186.48832762 </i>
    <i name="e_0_energy">   -186.66084875 </i>
   </energy>
  </scstep>
  <scstep>
   <time name="dav">   18.77   18.82</time>
   <time name="total">   19.31   19.36</time>
   <energy>
    <i name="e_fr_energy">   -186.83395568 </i>
    <i name="e_wo_entrp">   -186.48889815 </i>
    <i name="e_0_energy">   -186.66142691 </i>
   </energy>
  </scstep>
  <scstep>
   <time name="dav">   17.35   17.39</time>
   <time name="total">   17.88   17.93</time>
   <energy>
    <i name="e_fr_energy">   -186.83431744 </i>
    <i name="e_wo_entrp">   -186.48921216 </i>
    <i name="e_0_energy">   -186.66176480 </i>
   </energy>
  </scstep>
  <scstep>
   <time name="dav">   19.20   19.25</time>
   <time name="total">   19.74   19.79</time>
   <energy>
    <i name="e_fr_energy">   -186.83454438 </i>
    <i name="e_wo_entrp">   -186.48945601 </i>
    <i name="e_0_energy">   -186.66200020 </i>
   </energy>
  </scstep>
  <scstep>
   <time name="dav">   20.27   20.32</time>
   <time name="total">   20.81   20.86</time>
   <energy>
    <i name="e_fr_energy">   -186.83464781 </i>
    <i name="e_wo_entrp">   -186.48955948 </i>
    <i name="e_0_energy">   -186.66210364 </i>
   </energy>
  </scstep>
  <scstep>
   <time name="dav">   20.67   20.72</time>
   <time name="total">   20.71   20.76</time>
   <energy>
    <i name="alphaZ">     81.65567618 </i>
    <i name="ewald">  41890.23009643 </i>
    <i name="hartreedc"> -47832.88118829 </i>
    <i name="XCdc">   -231.61041107 </i>
    <i name="pawpsdc">   4192.02002988 </i>
    <i name="pawaedc">  -3610.02411275 </i>
    <i name="eentropy">     -0.34508558 </i>
    <i name="bandstr">  -1437.32222338 </i>
    <i name="atom">   6761.44252427 </i>
    <i name="e_fr_energy">   -186.83469431 </i>
    <i name="e_wo_entrp">   -186.48960873 </i>
    <i name="e_0_energy">   -186.66215152 </i>
   </energy>
  </scstep>
  <structure>
   <crystal>
    <varray name="basis" >
     <v>       8.66999996       5.03999989       0.00000000 </v>
     <v>      -8.66999982       5.04000013       0.00000000 </v>
     <v>       0.00000000       0.00000000      30.00000000 </v>
    </varray>
    <i name="volume">   2621.80797419 </i>
    <varray name="rec_basis" >
     <v>       0.05767013       0.09920635       0.00000000 </v>
     <v>      -0.05767013       0.09920635       0.00000000 </v>
     <v>       0.00000000       0.00000000       0.03333333 </v>
    </varray>
   </crystal>
   <varray name="positions" >
    <v>       0.33333334       0.66666669       0.00000000 </v>
    <v>       0.00000000       0.66666669       0.00000000 </v>
    <v>       0.66666669       0.00000000       0.00000000 </v>
    <v>       1.00000000       0.33333334       0.00000000 </v>
    <v>       0.33333334       0.00000000       0.00000000 </v>
    <v>       0.66666669       0.33333334       0.00000000 </v>
    <v>       0.00000000       0.00000000       0.00000000 </v>
    <v>       0.33333334       0.33333334       0.00000000 </v>
    <v>       0.66666669       0.66666669       0.00000000 </v>
    <v>       0.11068511       0.22244981       0.95539999 </v>
    <v>       0.22244981       0.11068511       0.04460000 </v>
    <v>       0.11068511       0.55578315       0.95539999 </v>
    <v>       0.22244981       0.44401845       0.04460000 </v>
    <v>       0.11068511       0.88911647       0.95539999 </v>
    <v>       0.22244981       0.77735180       0.04460000 </v>
    <v>       0.44401845       0.22244981       0.95539999 </v>
    <v>       0.55578315       0.11068511       0.04460000 </v>
    <v>       0.44401845       0.55578315       0.95539999 </v>
    <v>       0.55578315       0.44401845       0.04460000 </v>
    <v>       0.44401845       0.88911647       0.95539999 </v>
    <v>       0.55578315       0.77735180       0.04460000 </v>
    <v>       0.77735180       0.22244981       0.95539999 </v>
    <v>       0.88911647       0.11068511       0.04460000 </v>
    <v>       0.77735180       0.55578315       0.95539999 </v>
    <v>       0.88911647       0.44401845       0.04460000 </v>
    <v>       0.77735180       0.88911647       0.95539999 </v>
    <v>       0.88911647       0.77735180       0.04460000 </v>
   </varray>
  </structure>
  <varray name="forces" >
   <v>      -0.29315931      -0.05672817       0.01689328 </v>
   <v>       0.29919090      -0.09069889      -0.10642771 </v>
   <v>      -0.44581752       0.15970942       0.09310756 </v>
   <v>      -0.27985389      -0.13680382       0.01138327 </v>
   <v>       0.06252460       0.24079229      -0.02659958 </v>
   <v>       0.27903435      -0.12748050      -0.10552766 </v>
   <v>       0.00725864       0.27753101       0.09950105 </v>
   <v>       0.24226731      -0.15552046       0.02887650 </v>
   <v>       0.19784932      -0.13647450       0.03099121 </v>
   <v>       0.26134908       0.03144403      -2.90210245 </v>
   <v>      -0.29470835      -0.00370834       2.94535608 </v>
   <v>      -0.35634712       0.66946053      -1.45462445 </v>
   <v>      -0.35809295       0.69495498       2.11802906 </v>
   <v>       0.38390504      -0.72285776      -2.14134485 </v>
   <v>       0.32454842      -0.66237705       1.41680275 </v>
   <v>      -0.04840231       0.02757694      -2.91413145 </v>
   <v>       0.78041511      -0.01148023       2.14964718 </v>
   <v>      -0.59477712      -0.00561552      -2.12066519 </v>
   <v>      -0.29642729      -0.01049451       2.87694418 </v>
   <v>       0.89114786      -0.00362739      -1.46101030 </v>
   <v>      -0.74041229       0.01706252       1.45607840 </v>
   <v>       0.50826405      -0.68744992      -2.17921280 </v>
   <v>      -0.36321764      -0.72956478       2.17411467 </v>
   <v>       0.36849298       0.71507428      -2.18528703 </v>
   <v>      -0.51678998       0.69997753       2.15185262 </v>
   <v>      -0.59871034      -0.00459775      -2.07567803 </v>
   <v>       0.58046844       0.01189602       2.10303369 </v>
  </varray>
  <varray name="stress" >
   <v>       7.20082479      -0.08245123      -1.38631941 </v>
   <v>      -0.08245109       4.52965532      -0.01075447 </v>
   <v>      -1.38631955      -0.01075443      30.32972286 </v>
  </varray>
  <energy>
   <i name="e_fr_energy">   -186.83469431 </i>
   <i name="e_wo_entrp">   -186.66215152 </i>
   <i name="e_0_energy">     -0.34508558 </i>
  </energy>
  <time name="totalsc">  814.89  817.07</time>
 </calculation>
 <calculation>
  <scstep>
   <time name="dav">   22.02   22.08</time>
   <time name="total">   22.56   22.62</time>
   <energy>
    <i name="alphaZ">     78.92661800 </i>
    <i name="ewald">  39381.93165438 </i>
    <i name="hartreedc"> -45339.42708165 </i>
    <i name="XCdc">   -239.06652295 </i>
    <i name="pawpsdc">   4192.01868781 </i>
    <i name="pawaedc">  -3610.02275771 </i>
    <i name="eentropy">     -0.28629725 </i>
    <i name="bandstr">  -1412.97611303 </i>
    <i name="atom">   6761.44252427 </i>
    <i name="e_fr_energy">   -187.45928811 </i>
    <i name="e_wo_entrp">   -187.17299087 </i>
    <i name="e_0_energy">   -187.31613949 </i>
   </energy>
  </scstep>
  <scstep>
   <time name="dav">   30.82   30.90</time>
   <time name="total">   31.35   31.44</time>
   <energy>
    <i name="e_fr_energy">   -189.36035915 </i>
    <i name="e_wo_entrp">   -189.04001252 </i>
    <i name="e_0_energy">   -189.20018584 </i>
   </energy>
  </scstep>
  <scstep>
   <time name="dav">   31.07   31.15</time>
   <time name="total">   31.62   31.70</time>
   <energy>
    <i name="e_fr_energy">   -189.32168917 </i>
    <i name="e_wo_entrp">   -189.04241712 </i>
    <i name="e_0_energy">   -189.18205314 </i>
   </energy>
  </scstep>
  <scstep>
   <time name="dav">   31.22   31.29</time>
   <time name="total">   31.76   31.84</time>
   <energy>
    <i name="e_fr_energy">   -188.73205179 </i>
    <i name="e_wo_entrp">   -188.44565101 </i>
    <i name="e_0_energy">   -188.58885140 </i>
   </energy>
  </scstep>
  <scstep>
   <time name="dav">   27.07   27.14</time>
   <time name="total">   27.61   27.69</time>
   <energy>
    <i name="e_fr_energy">   -188.73423555 </i>
    <i name="e_wo_entrp">   -188.44792304 </i>
    <i name="e_0_energy">   -188.59107929 </i>
   </energy>
  </scstep>
  <scstep>
   <time name="dav">   29.94   30.01</time>
   <time name="total">   30.49   30.56</time>
   <energy>
    <i name="e_fr_energy">   -188.69086402 </i>
    <i name="e_wo_entrp">   -188.40174682 </i>
    <i name="e_0_energy">   -188.54630542 </i>
   </energy>
  </scstep>
  <scstep>
   <time name="dav">   31.35   31.42</time>
   <time name="total">   31.89   31.97</time>
   <energy>
    <i name="e_fr_energy">   -188.67592124 </i>
    <i name="e_wo_entrp">   -188.38992290 </i>
    <i name="e_0_energy">   -188.53292207 </i>
   </energy>
  </scstep>
  <scstep>
   <time name="dav">   31.39   31.47</time>
   <time name="total">   31.93   32.02</time>
   <energy>
    <i name="e_fr_energy">   -188.64021344 </i>
    <i name="e_wo_entrp">   -188.35468693 </i>
    <i name="e_0_energy">   -188.49745018 </i>
   </energy>
  </scstep>
  <scstep>
   <time name="dav">   27.03   27.10</time>
   <time name="total">   27.57   27.64</time>
   <energy>
    <i name="e_fr_energy">   -188.63422984 </i>
    <i name="e_wo_entrp">   -188.34934300 </i>
    <i name="e_0_energy">   -188.49178642 </i>
   </energy>
  </scstep>
  <scstep>
   <time name="dav">   31.26   31.34</time>
   <time name="total">   31.80   31.89</time>
   <energy>
    <i name="e_fr_energy">   -188.63462235 </i>
    <i name="e_wo_entrp">   -188.34954023 </i>
    <i name="e_0_energy">   -188.49208129 </i>
   </energy>
  </scstep>
  <scstep>
   <time name="dav">   32.69   32.77</time>
   <time name="total">   33.23   33.32</time>
   <energy>
    <i name="e_fr_energy">   -188.63427824 </i>
    <i name="e_wo_entrp">   -188.34988611 </i>
    <i name="e_0_energy">   -188.49208218 </i>
   </energy>
  </scstep>
  <scstep>
   <time name="dav">   29.83   29.91</time>
   <time name="total">   30.38   30.58</time>
   <energy>
    <i name="e_fr_energy">   -188.63380562 </i>
    <i name="e_wo_entrp">   -188.34960502 </i>
    <i name="e_0_energy">   -188.49170532 </i>
   </energy>
  </scstep>
  <scstep>
   <time name="dav">   20.44   20.49</time>
   <time name="total">   20.47   20.53</time>
   <energy>
    <i name="alphaZ">     78.92661800 </i>
    <i name="ewald">  39381.93165438 </i>
    <i name="hartreedc"> -45350.17104624 </i>
    <i name="XCdc">   -237.98209238 </i>
    <i name="pawpsdc">   3950.22211468 </i>
    <i name="pawaedc">  -3364.72330785 </i>
    <i name="eentropy">     -0.28436064 </i>
    <i name="bandstr">  -1407.99595230 </i>
    <i name="atom">   6761.44252427 </i>
    <i name="e_fr_energy">   -188.63384807 </i>
    <i name="e_wo_entrp">   -188.34948742 </i>
    <i name="e_0_energy">   -188.49166775 </i>
   </energy>
  </scstep>
  <structure>
   <crystal>
    <varray name="basis" >
     <v>       8.85132536       5.10466009       0.00000000 </v>
     <v>      -8.85375526       5.10884060       0.00000000 </v>
     <v>       0.00000000       0.00000000      30.00000000 </v>
    </varray>
    <i name="volume">   2712.46264376 </i>
    <varray name="rec_basis" >
     <v>       0.05650408       0.09792307       0.00000000 </v>
     <v>      -0.05645785       0.09789619       0.00000000 </v>
     <v>       0.00000000       0.00000000       0.03333333 </v>
    </varray>
   </crystal>
   <varray name="positions" >
    <v>       0.33224623       0.66721080       0.00002717 </v>
    <v>       0.00039831       0.66540021      -0.00017115 </v>
    <v>       0.66619072       0.00200470       0.00014973 </v>
    <v>       0.99856666       0.33345720       0.00001831 </v>
    <v>       0.33465972       0.00097847      -0.00004277 </v>
    <v>       0.66683289       0.33194691      -0.00016970 </v>
    <v>       0.00134845       0.00130806       0.00016001 </v>
    <v>       0.33326305       0.33191500       0.00004644 </v>
    <v>       0.66656397       0.66546307       0.00004984 </v>
    <v>       0.11156272       0.22187318       0.95073315 </v>
    <v>       0.22161214       0.11148729       0.04933639 </v>
    <v>       0.11289772       0.55997859       0.95306083 </v>
    <v>       0.22477958       0.44834076       0.04800598 </v>
    <v>       0.10829361       0.88458880       0.95195652 </v>
    <v>       0.22018263       0.77327873       0.04687834 </v>
    <v>       0.44401577       0.22271645       0.95071381 </v>
    <v>       0.55789945       0.10845893       0.04805682 </v>
    <v>       0.44233681       0.55741104       0.95198977 </v>
    <v>       0.55490822       0.44479294       0.04922638 </v>
    <v>       0.44648041       0.88661979       0.95305056 </v>
    <v>       0.55380487       0.77949340       0.04694150 </v>
    <v>       0.77547575       0.21774562       0.95189562 </v>
    <v>       0.88461426       0.10820396       0.04809617 </v>
    <v>       0.78179933       0.55818028       0.95188586 </v>
    <v>       0.89102875       0.44880632       0.04806037 </v>
    <v>       0.77566408       0.89076017       0.95206212 </v>
    <v>       0.89078836       0.77579377       0.04798186 </v>
   </varray>
  </structure>
  <varray name="forces" >
   <v>      -0.17859473      -0.05425063       0.07684004 </v>
   <v>       0.20174521      -0.14218820      -0.02887011 </v>
   <v>      -0.35703151       0.18374427       0.01898241 </v>
   <v>      -0.12031127      -0.20486051       0.07326151 </v>
   <v>      -0.28261245       0.35946172      -0.06883834 </v>
   <v>       0.08314474      -0.14863726      -0.02488591 </v>
   <v>       0.00462918       0.43785038      -0.06777433 </v>
   <v>       0.33937983      -0.24102175       0.00286827 </v>
   <v>       0.24048081      -0.19870204      -0.01498189 </v>
   <v>       0.10741073       0.00186853       0.00573602 </v>
   <v>      -0.10964057       0.00071087       0.15560502 </v>
   <v>      -0.02577248       0.04172056      -0.03389964 </v>
   <v>       0.09747027       0.05418238      -0.14067393 </v>
   <v>      -0.11220520      -0.05468383       0.10668578 </v>
   <v>       0.01098618      -0.03271254      -0.08363563 </v>
   <v>      -0.13130632       0.01705638      -0.17598909 </v>
   <v>       0.07838880       0.00126515       0.17834563 </v>
   <v>       0.08802155       0.00158235       0.12869393 </v>
   <v>      -0.08994042      -0.00192948       0.01108494 </v>
   <v>       0.03806994       0.00164186       0.08217015 </v>
   <v>       0.10501693       0.00429152      -0.21074241 </v>
   <v>       0.03076720      -0.07871481      -0.16008890 </v>
   <v>       0.09851123      -0.07399141       0.00839399 </v>
   <v>      -0.09587247       0.05618071      -0.01418448 </v>
   <v>      -0.03342132       0.07101831       0.04181942 </v>
   <v>       0.08630402      -0.00877636       0.25658754 </v>
   <v>      -0.07361789       0.00789383      -0.12250998 </v>
  </varray>
  <varray name="stress" >
   <v>     -19.89818861       0.01767766       0.07421137 </v>
   <v>       0.01767740     -19.50881121       0.05079843 </v>
   <v>       0.07421129       0.05079845      -1.73352179 </v>
  </varray>
  <energy>
   <i name="e_fr_energy">   -188.63384807 </i>
   <i name="e_wo_entrp">   -188.49166775 </i>
   <i name="e_0_energy">     -0.28436064 </i>
  </energy>
  <time name="totalsc">  424.80  426.03</time>
 </calculation>
 <calculation>
  <scstep>
   <time name="dav">   24.33   24.39</time>
   <time name="total">   24.86   24.92</time>
   <energy>
    <i name="alphaZ">     82.34456606 </i>
    <i name="ewald">  41301.66059947 </i>
    <i name="hartreedc"> -47300.37282766 </i>
    <i name="XCdc">   -233.86719938 </i>
    <i name="pawpsdc">   3949.52840389 </i>
    <i name="pawaedc">  -3364.02358041 </i>
    <i name="eentropy">     -0.23675488 </i>
    <i name="bandstr">  -1387.02118646 </i>
    <i name="atom">   6761.44252427 </i>
    <i name="e_fr_energy">   -190.54545511 </i>
    <i name="e_wo_entrp">   -190.30870023 </i>
    <i name="e_0_energy">   -190.42707767 </i>
   </energy>
  </scstep>
  <scstep>
   <time name="dav">   28.90   28.97</time>
   <time name="total">   29.42   29.50</time>
   <energy>
    <i name="e_fr_energy">   -190.54196080 </i>
    <i name="e_wo_entrp">   -190.30244124 </i>
    <i name="e_0_energy">   -190.42220102 </i>
   </energy>
  </scstep>
  <scstep>
   <time name="dav">   30.82   30.89</time>
   <time name="total">   31.34   31.43</time>
   <energy>
    <i name="e_fr_energy">   -190.02051093 </i>
    <i name="e_wo_entrp">   -189.77208304 </i>
    <i name="e_0_energy">   -189.89629699 </i>
   </energy>
  </scstep>
  <scstep>
   <time name="dav">   32.03   32.11</time>
   <time name="total">   32.56   32.65</time>
   <energy>
    <i name="e_fr_energy">   -189.81783744 </i>
    <i name="e_wo_entrp">   -189.58022864 </i>
    <i name="e_0_energy">   -189.69903304 </i>
   </energy>
  </scstep>
  <scstep>
   <time name="dav">   28.76   28.83</time>
   <time name="total">   29.29   29.37</time>
   <energy>
    <i name="e_fr_energy">   -189.73754839 </i>
    <i name="e_wo_entrp">   -189.49546534 </i>
    <i name="e_0_energy">   -189.61650687 </i>
   </energy>
  </scstep>
  <scstep>
   <time name="dav">   30.01   30.08</time>
   <time name="total">   30.53   30.62</time>
   <energy>
    <i name="e_fr_energy">   -189.72134789 </i>
    <i name="e_wo_entrp">   -189.48237955 </i>
    <i name="e_0_energy">   -189.60186372 </i>
   </energy>
  </scstep>
  <scstep>
   <time name="dav">   30.87   30.94</time>
   <time name="total">   31.40   31.48</time>
   <energy>
    <i name="e_fr_energy">   -189.71527490 </i>
    <i name="e_wo_entrp">   -189.47534743 </i>
    <i name="e_0_energy">   -189.59531117 </i>
   </energy>
  </scstep>
  <scstep>
   <time name="dav">   28.18   28.25</time>
   <time name="total">   28.71   28.79</time>
   <energy>
    <i name="e_fr_energy">   -189.71518386 </i>
    <i name="e_wo_entrp">   -189.47569011 </i>
    <i name="e_0_energy">   -189.59543698 </i>
   </energy>
  </scstep>
  <scstep>
   <time name="dav">   26.93   26.99</time>
   <time name="total">   26.96   27.03</time>
   <energy>
    <i name="alphaZ">     82.34456606 </i>
    <i name="ewald">  41301.66059947 </i>
    <i name="hartreedc"> -47272.77036842 </i>
    <i name="XCdc">   -235.25828489 </i>
    <i name="pawpsdc">   4029.44364134 </i>
    <i name="pawaedc">  -3445.05459800 </i>
    <i name="eentropy">     -0.23982100 </i>
    <i name="bandstr">  -1411.28349565 </i>
    <i name="atom">   6761.44252427 </i>
    <i name="e_fr_energy">   -189.71523681 </i>
    <i name="e_wo_entrp">   -189.47541581 </i>
    <i name="e_0_energy">   -189.59532631 </i>
   </energy>
  </scstep>
  <structure>
   <crystal>
    <varray name="basis" >
     <v>       8.66394052       4.99882008       0.00000000 </v>
     <v>      -8.66612677       5.00258061       0.00000000 </v>
     <v>       0.00000000       0.00000000      30.00000000 </v>
    </varray>
    <i name="volume">   2599.87408016 </i>
    <varray name="rec_basis" >
     <v>       0.05772488       0.09999861       0.00000000 </v>
     <v>      -0.05768149       0.09997339       0.00000000 </v>
     <v>       0.00000000       0.00000000       0.03333333 </v>
    </varray>
   </crystal>
   <varray name="positions" >
    <v>       0.33198473       0.66729182       0.00007065 </v>
    <v>       0.00035546       0.66497054      -0.00018748 </v>
    <v>       0.66615369       0.00265227       0.00016047 </v>
    <v>       0.99811070       0.33323205       0.00005976 </v>
    <v>       0.33498619       0.00184674      -0.00008173 </v>
    <v>       0.66666555       0.33162019      -0.00018378 </v>
    <v>       0.00208077       0.00203130       0.00012165 </v>
    <v>       0.33318793       0.33118916       0.00004806 </v>
    <v>       0.66646433       0.66490236       0.00004136 </v>
    <v>       0.11166885       0.22177334       0.95073640 </v>
    <v>       0.22150815       0.11159355       0.04942445 </v>
    <v>       0.11294235       0.56007263       0.95304164 </v>
    <v>       0.22496315       0.44833739       0.04792637 </v>
    <v>       0.10809508       0.88460546       0.95201689 </v>
    <v>       0.22013879       0.77321383       0.04683102 </v>
    <v>       0.44391817       0.22287065       0.95061422 </v>
    <v>       0.55797674       0.10838590       0.04815774 </v>
    <v>       0.44242388       0.55732931       0.95206260 </v>
    <v>       0.55481874       0.44487593       0.04923265 </v>
    <v>       0.44651966       0.88658603       0.95309705 </v>
    <v>       0.55391274       0.77939988       0.04682225 </v>
    <v>       0.77537441       0.21758531       0.95180503 </v>
    <v>       0.88458575       0.10798657       0.04810092 </v>
    <v>       0.78180076       0.55836553       0.95187783 </v>
    <v>       0.89111475       0.44895638       0.04808403 </v>
    <v>       0.77573228       0.89066287       0.95220731 </v>
    <v>       0.89073086       0.77587745       0.04791254 </v>
   </varray>
  </structure>
  <varray name="forces" >
   <v>      -0.12696282      -0.05730716       0.07442519 </v>
   <v>       0.15395318      -0.16763951      -0.00099149 </v>
   <v>      -0.33084154       0.20791377      -0.00512443 </v>
   <v>      -0.05404721      -0.22866305       0.06914057 </v>
   <v>      -0.39912486       0.38945788      -0.05479335 </v>
   <v>       0.02043394      -0.16409084       0.00064591 </v>
   <v>       0.00932773       0.49870340      -0.08401858 </v>
   <v>       0.37964474      -0.27922979       0.00285609 </v>
   <v>       0.25201043      -0.22106371      -0.02063890 </v>
   <v>       0.01696664       0.01381505      -0.55582462 </v>
   <v>      -0.02147199       0.00379145       0.74604852 </v>
   <v>      -0.04480499       0.09785163      -0.49315291 </v>
   <v>      -0.01015171       0.11148650       0.33638335 </v>
   <v>       0.00898970      -0.10464799      -0.38756773 </v>
   <v>       0.03200941      -0.07288211       0.35232751 </v>
   <v>      -0.04920748       0.02299623      -0.74907067 </v>
   <v>       0.14050047      -0.00147071       0.67836124 </v>
   <v>      -0.05769647      -0.01141487      -0.36949919 </v>
   <v>      -0.00747092      -0.01020306       0.56993095 </v>
   <v>       0.10799302       0.00452064      -0.35787252 </v>
   <v>      -0.05003791       0.00917287       0.24300491 </v>
   <v>       0.07517097      -0.14315578      -0.66051749 </v>
   <v>      -0.01747222      -0.14002573       0.51638209 </v>
   <v>       0.03424792       0.10919023      -0.52987523 </v>
   <v>      -0.07464530       0.12462402       0.52981705 </v>
   <v>      -0.05726139      -0.00973394      -0.22082374 </v>
   <v>       0.06994864       0.01800457       0.37044749 </v>
  </varray>
  <varray name="stress" >
   <v>     -10.18980029       0.01477384       0.02729188 </v>
   <v>       0.01477386      -9.96628181       0.06040042 </v>
   <v>       0.02729200       0.06040034       6.58112478 </v>
  </varray>
  <energy>
   <i name="e_fr_energy">   -189.71523681 </i>
   <i name="e_wo_entrp">   -189.59532631 </i>
   <i name="e_0_energy">     -0.23982100 </i>
  </energy>
  <time name="totalsc">  307.16  307.96</time>
 </calculation>
 <calculation>
  <scstep>
   <time name="dav">   22.06   22.11</time>
   <time name="total">   22.57   22.63</time>
   <energy>
    <i name="alphaZ">     85.87681673 </i>
    <i name="ewald">  42860.23149534 </i>
    <i name="hartreedc"> -48876.79529732 </i>
    <i name="XCdc">   -232.91825461 </i>
    <i name="pawpsdc">   4035.40695357 </i>
    <i name="pawaedc">  -3451.07727302 </i>
    <i name="eentropy">     -0.19598223 </i>
    <i name="bandstr">  -1373.26865941 </i>
    <i name="atom">   6761.44252427 </i>
    <i name="e_fr_energy">   -191.29767667 </i>
    <i name="e_wo_entrp">   -191.10169444 </i>
    <i name="e_0_energy">   -191.19968556 </i>
   </energy>
  </scstep>
  <scstep>
   <time name="dav">   33.20   33.28</time>
   <time name="total">   33.71   33.80</time>
   <energy>
    <i name="e_fr_energy">   -191.17858606 </i>
    <i name="e_wo_entrp">   -190.97586378 </i>
    <i name="e_0_energy">   -191.07722492 </i>
   </energy>
  </scstep>
  <scstep>
   <time name="dav">   30.27   30.35</time>
   <time name="total">   30.78   30.86</time>
   <energy>
    <i name="e_fr_energy">   -191.21122094 </i>
    <i name="e_wo_entrp">   -190.99567426 </i>
    <i name="e_0_energy">   -191.10344760 </i>
   </energy>
  </scstep>
  <scstep>
   <time name="dav">   29.78   29.85</time>
   <time name="total">   30.30   30.38</time>
   <energy>
    <i name="e_fr_energy">   -190.87675626 </i>
    <i name="e_wo_entrp">   -190.67197990 </i>
    <i name="e_0_energy">   -190.77436808 </i>
   </energy>
  </scstep>
  <scstep>
   <time name="dav">   30.26   30.33</time>
   <time name="total">   30.77   30.85</time>
   <energy>
    <i name="e_fr_energy">   -190.84814239 </i>
    <i name="e_wo_entrp">   -190.65062407 </i>
    <i name="e_0_energy">   -190.74938323 </i>
   </energy>
  </scstep>
  <scstep>
   <time name="dav">   30.62   30.69</time>
   <time name="total">   31.14   31.22</time>
   <energy>
    <i name="e_fr_energy">   -190.69088283 </i>
    <i name="e_wo_entrp">   -190.48720494 </i>
    <i name="e_0_energy">   -190.58904388 </i>
   </energy>
  </scstep>
  <scstep>
   <time name="dav">   29.91   29.99</time>
   <time name="total">   30.43   30.51</time>
   <energy>
    <i name="e_fr_energy">   -190.68481620 </i>
    <i name="e_wo_entrp">   -190.48261138 </i>
    <i name="e_0_energy">   -190.58371379 </i>
   </energy>
  </scstep>
  <scstep>
   <time name="dav">   29.49   29.56</time>
   <time name="total">   30.01   30.09</time>
   <energy>
    <i name="e_fr_energy">   -190.68322679 </i>
    <i name="e_wo_entrp">   -190.48141447 </i>
    <i name="e_0_energy">   -190.58232063 </i>
   </energy>
  </scstep>
  <scstep>
   <time name="dav">   29.36   29.43</time>
   <time name="total">   29.88   29.96</time>
   <energy>
    <i name="e_fr_energy">   -190.68111321 </i>
    <i name="e_wo_entrp">   -190.47882171 </i>
    <i name="e_0_energy">   -190.57996746 </i>
   </energy>
  </scstep>
  <scstep>
   <time name="dav">   26.66   26.72</time>
   <time name="total">   27.17   27.24</time>
   <energy>
    <i name="e_fr_energy">   -190.68142636 </i>
    <i name="e_wo_entrp">   -190.47894163 </i>
    <i name="e_0_energy">   -190.58018400 </i>
   </energy>
  </scstep>
  <scstep>
   <time name="dav">   26.93   27.00</time>
   <time name="total">   27.45   27.52</time>
   <energy>
    <i name="e_fr_energy">   -190.68123333 </i>
    <i name="e_wo_entrp">   -190.47901125 </i>
    <i name="e_0_energy">   -190.58012229 </i>
   </energy>
  </scstep>
  <scstep>
   <time name="dav">   20.72   20.77</time>
   <time name="total">   20.75   20.81</time>
   <energy>
    <i name="alphaZ">     85.87681673 </i>
    <i name="ewald">  42860.23149534 </i>
    <i name="hartreedc"> -48848.33836909 </i>
    <i name="XCdc">   -234.27499926 </i>
    <i name="pawpsdc">   4063.92663577 </i>
    <i name="pawaedc">  -3479.80417148 </i>
    <i name="eentropy">     -0.20228879 </i>
    <i name="bandstr">  -1399.53888300 </i>
    <i name="atom">   6761.44252427 </i>
    <i name="e_fr_energy">   -190.68123950 </i>
    <i name="e_wo_entrp">   -190.47895071 </i>
    <i name="e_0_energy">   -190.58009511 </i>
   </energy>
  </scstep>
  <structure>
   <crystal>
    <varray name="basis" >
     <v>       8.48185316       4.89666899       0.00000000 </v>
     <v>      -8.48350992       4.89951462       0.00000000 </v>
     <v>       0.00000000       0.00000000      30.00000000 </v>
    </varray>
    <i name="volume">   2492.93710553 </i>
    <varray name="rec_basis" >
     <v>       0.05896075       0.10209054       0.00000000 </v>
     <v>      -0.05892650       0.10207060       0.00000000 </v>
     <v>       0.00000000       0.00000000       0.03333333 </v>
    </varray>
   </crystal>
   <varray name="positions" >
    <v>       0.33123235       0.66730912       0.00022298 </v>
    <v>      -0.00027275       0.66336626      -0.00016559 </v>
    <v>       0.66635894       0.00517811       0.00012912 </v>
    <v>       0.99651588       0.33183626       0.00019966 </v>
    <v>       0.33589044       0.00598157      -0.00018334 </v>
    <v>       0.66557922       0.33056867      -0.00016050 </v>
    <v>       0.00540550       0.00527396      -0.00006661 </v>
    <v>       0.33277323       0.32790688       0.00005397 </v>
    <v>       0.66595034       0.66252915      -0.00000632 </v>
    <v>       0.11171549       0.22196036       0.94910078 </v>
    <v>       0.22159032       0.11157457       0.05147953 </v>
    <v>       0.11350817       0.56101832       0.95162394 </v>
    <v>       0.22561408       0.44937504       0.04903413 </v>
    <v>       0.10752116       0.88361371       0.95078817 </v>
    <v>       0.21972653       0.77250856       0.04793654 </v>
    <v>       0.44401876       0.22308869       0.94856779 </v>
    <v>       0.55856027       0.10777055       0.04999470 </v>
    <v>       0.44189808       0.55764588       0.95086798 </v>
    <v>       0.55482684       0.44469806       0.05089521 </v>
    <v>       0.44704853       0.88612881       0.95197652 </v>
    <v>       0.55357546       0.77987663       0.04771625 </v>
    <v>       0.77465023       0.21618744       0.95000474 </v>
    <v>       0.88330785       0.10717324       0.04960868 </v>
    <v>       0.78293362       0.55887115       0.95033545 </v>
    <v>       0.89170178       0.45020408       0.04960249 </v>
    <v>       0.77525214       0.89101566       0.95133899 </v>
    <v>       0.89133201       0.77555371       0.04910463 </v>
   </varray>
  </structure>
  <varray name="forces" >
   <v>      -0.09260676      -0.03297836       0.04552973 </v>
   <v>       0.11248787      -0.24649942       0.04976557 </v>
   <v>      -0.30943709       0.20106917      -0.05466092 </v>
   <v>      -0.06013786      -0.23318847       0.02979658 </v>
   <v>      -0.48012981       0.38239765      -0.00875337 </v>
   <v>      -0.05683088      -0.13594052       0.02632865 </v>
   <v>       0.04577788       0.59627407      -0.04802222 </v>
   <v>       0.44473829      -0.29802810      -0.00369746 </v>
   <v>       0.28059145      -0.28786530      -0.02724025 </v>
   <v>      -0.04794698       0.05794330      -0.41276598 </v>
   <v>       0.02265721       0.00881518       0.62758793 </v>
   <v>       0.00087340       0.00109126      -0.36969446 </v>
   <v>       0.01491072       0.00747758       0.19139712 </v>
   <v>       0.04276139       0.00529386      -0.25469399 </v>
   <v>      -0.04285745       0.03350454       0.21620112 </v>
   <v>       0.01886518       0.05310203      -0.61578384 </v>
   <v>       0.01021290       0.00324884       0.48802954 </v>
   <v>      -0.00882315      -0.05616649      -0.21957684 </v>
   <v>       0.05233695      -0.04812046       0.40878801 </v>
   <v>      -0.03007938       0.02088274      -0.24757168 </v>
   <v>      -0.02571837       0.01630493       0.17702568 </v>
   <v>       0.00219710      -0.05645626      -0.46387868 </v>
   <v>      -0.00768855      -0.06437594       0.38472379 </v>
   <v>       0.10542924       0.01039691      -0.40466305 </v>
   <v>      -0.02216674       0.01091286       0.35899985 </v>
   <v>      -0.00858513       0.01109386      -0.03036190 </v>
   <v>       0.03916856       0.03981052       0.15719106 </v>
  </varray>
  <varray name="stress" >
   <v>      -5.76577375      -0.07971853      -0.03062530 </v>
   <v>      -0.07971860      -5.65718327      -0.04618872 </v>
   <v>      -0.03062543      -0.04618892       4.59614625 </v>
  </varray>
  <energy>
   <i name="e_fr_energy">   -190.68123950 </i>
   <i name="e_wo_entrp">   -190.58009511 </i>
   <i name="e_0_energy">     -0.20228879 </i>
  </energy>
  <time name="totalsc">  387.02  388.04</time>
 </calculation>
 <calculation>
  <scstep>
   <time name="dav">   22.06   22.11</time>
   <time name="total">   22.56   22.62</time>
   <energy>
    <i name="alphaZ">     90.16745934 </i>
    <i name="ewald">  44658.82417099 </i>
    <i name="hartreedc"> -50701.72315921 </i>
    <i name="XCdc">   -231.88046734 </i>
    <i name="pawpsdc">   4063.90117134 </i>
    <i name="pawaedc">  -3479.77410565 </i>
    <i name="eentropy">     -0.18044236 </i>
    <i name="bandstr">  -1352.80456538 </i>
    <i name="atom">   6761.44252427 </i>
    <i name="e_fr_energy">   -192.02741399 </i>
    <i name="e_wo_entrp">   -191.84697163 </i>
    <i name="e_0_energy">   -191.93719281 </i>
   </energy>
  </scstep>
  <scstep>
   <time name="dav">   30.21   30.28</time>
   <time name="total">   30.71   30.79</time>
   <energy>
    <i name="e_fr_energy">   -191.82392337 </i>
    <i name="e_wo_entrp">   -191.63155593 </i>
    <i name="e_0_energy">   -191.72773965 </i>
   </energy>
  </scstep>
  <scstep>
   <time name="dav">   30.51   30.58</time>
   <time name="total">   31.01   31.10</time>
   <energy>
    <i name="e_fr_energy">   -192.20337952 </i>
    <i name="e_wo_entrp">   -192.00242936 </i>
    <i name="e_0_energy">   -192.10290444 </i>
   </energy>
  </scstep>
  <scstep>
   <time name="dav">   30.41   30.48</time>
   <time name="total">   30.91   31.00</time>
   <energy>
    <i name="e_fr_energy">   -191.55019753 </i>
    <i name="e_wo_entrp">   -191.36288372 </i>
    <i name="e_0_energy">   -191.45654063 </i>
   </energy>
  </scstep>
  <scstep>
   <time name="dav">   30.47   30.54</time>
   <time name="total">   30.97   31.06</time>
   <energy>
    <i name="e_fr_energy">   -191.37887624 </i>
    <i name="e_wo_entrp">   -191.19222143 </i>
    <i name="e_0_energy">   -191.28554884 </i>
   </energy>
  </scstep>
  <scstep>
   <time name="dav">   31.50   31.58</time>
   <time name="total">   32.00   32.09</time>
   <energy>
    <i name="e_fr_energy">   -191.37073641 </i>
    <i name="e_wo_entrp">   -191.17702963 </i>
    <i name="e_0_energy">   -191.27388302 </i>
   </energy>
  </scstep>
  <scstep>
   <time name="dav">   29.98   30.05</time>
   <time name="total">   30.48   30.56</time>
   <energy>
    <i name="e_fr_energy">   -191.34519298 </i>
    <i name="e_wo_entrp">   -191.15801775 </i>
    <i name="e_0_energy">   -191.25160536 </i>
   </energy>
  </scstep>
  <scstep>
   <time name="dav">   29.45   29.52</time>
   <time name="total">   29.96   30.04</time>
   <energy>
    <i name="e_fr_energy">   -191.33796126 </i>
    <i name="e_wo_entrp">   -191.14957937 </i>
    <i name="e_0_energy">   -191.24377031 </i>
   </energy>
  </scstep>
  <scstep>
   <time name="dav">   31.91   31.99</time>
   <time name="total">   32.42   32.50</time>
   <energy>
    <i name="e_fr_energy">   -191.33864645 </i>
    <i name="e_wo_entrp">   -191.14976474 </i>
    <i name="e_0_energy">   -191.24420559 </i>
   </energy>
  </scstep>
  <scstep>
   <time name="dav">   29.20   29.27</time>
   <time name="total">   29.70   29.78</time>
   <energy>
    <i name="e_fr_energy">   -191.33814764 </i>
    <i name="e_wo_entrp">   -191.14951432 </i>
    <i name="e_0_energy">   -191.24383098 </i>
   </energy>
  </scstep>
  <scstep>
   <time name="dav">   27.27   27.34</time>
   <time name="total">   27.77   27.85</time>
   <energy>
    <i name="e_fr_energy">   -191.33796664 </i>
    <i name="e_wo_entrp">   -191.14926147 </i>
    <i name="e_0_energy">   -191.24361406 </i>
   </energy>
  </scstep>
  <scstep>
   <time name="dav">   20.18   20.23</time>
   <time name="total">   20.22   20.27</time>
   <energy>
    <i name="alphaZ">     90.16745934 </i>
    <i name="ewald">  44658.82417099 </i>
    <i name="hartreedc"> -50668.19514311 </i>
    <i name="XCdc">   -233.39519730 </i>
    <i name="pawpsdc">   4083.41320747 </i>
    <i name="pawaedc">  -3499.33952552 </i>
    <i name="eentropy">     -0.18869767 </i>
    <i name="bandstr">  -1384.06673721 </i>
    <i name="atom">   6761.44252427 </i>
    <i name="e_fr_energy">   -191.33793873 </i>
    <i name="e_wo_entrp">   -191.14924106 </i>
    <i name="e_0_energy">   -191.24358989 </i>
   </energy>
  </scstep>
  <structure>
   <crystal>
    <varray name="basis" >
     <v>       8.27320026       4.77600714       0.00000000 </v>
     <v>      -8.27938336       4.78669346       0.00000000 </v>
     <v>       0.00000000       0.00000000      30.00000000 </v>
    </varray>
    <i name="volume">   2374.31002834 </i>
    <varray name="rec_basis" >
     <v>       0.06048107       0.10461208       0.00000000 </v>
     <v>      -0.06034604       0.10453395       0.00000000 </v>
     <v>       0.00000000       0.00000000       0.03333333 </v>
    </varray>
   </crystal>
   <varray name="positions" >
    <v>       0.33018715       0.66745661       0.00041580 </v>
    <v>      -0.00245742       0.65968495       0.00003140 </v>
    <v>       0.66673309       0.00984102      -0.00008419 </v>
    <v>       0.99332000       0.32925388       0.00033416 </v>
    <v>       0.33714765       0.01419360      -0.00022856 </v>
    <v>       0.66341169       0.32925742      -0.00004520 </v>
    <v>       0.01294638       0.01222576      -0.00029114 </v>
    <v>       0.33220022       0.32109530       0.00004280 </v>
    <v>       0.66446186       0.65712686      -0.00011599 </v>
    <v>       0.11195683       0.22304772       0.94684896 </v>
    <v>       0.22195978       0.11142023       0.05459540 </v>
    <v>       0.11377182       0.56141887       0.94965199 </v>
    <v>       0.22594256       0.44989612       0.05033008 </v>
    <v>       0.10772942       0.88288832       0.94923176 </v>
    <v>       0.21964909       0.77282038       0.04928595 </v>
    <v>       0.44483319       0.22349771       0.94550760 </v>
    <v>       0.55888145       0.10749729       0.05250914 </v>
    <v>       0.44090515       0.55734874       0.94943754 </v>
    <v>       0.55472742       0.44370766       0.05313820 </v>
    <v>       0.44731846       0.88632824       0.95051278 </v>
    <v>       0.55331706       0.78053468       0.04889113 </v>
    <v>       0.77379690       0.21501910       0.94758202 </v>
    <v>       0.88196036       0.10633381       0.05169166 </v>
    <v>       0.78425841       0.55842580       0.94816959 </v>
    <v>       0.89190081       0.45094865       0.05158505 </v>
    <v>       0.77500724       0.89145561       0.95065515 </v>
    <v>       0.89234787       0.77549010       0.05031681 </v>
   </varray>
  </structure>
  <varray name="forces" >
   <v>      -0.09054503       0.06766224       0.05828333 </v>
   <v>       0.14004857      -0.36813816       0.01467718 </v>
   <v>      -0.31283249       0.14375122      -0.00030744 </v>
   <v>      -0.08329787      -0.17125282      -0.02233852 </v>
   <v>      -0.25469620       0.18484907       0.01910353 </v>
   <v>      -0.08221554       0.03054067      -0.03877874 </v>
   <v>       0.03651837       0.51867789       0.04290041 </v>
   <v>       0.28553558      -0.08309574      -0.07489497 </v>
   <v>       0.26701615      -0.44360229      -0.04936020 </v>
   <v>      -0.06609317       0.14886954      -0.14459885 </v>
   <v>       0.01360142       0.02524319       0.36194639 </v>
   <v>       0.02076834      -0.08955510      -0.02627739 </v>
   <v>       0.12500379      -0.12440734      -0.12693157 </v>
   <v>       0.00827746       0.15251817       0.07417825 </v>
   <v>      -0.13301303       0.12951276      -0.09557834 </v>
   <v>       0.03641023       0.08584485      -0.27487534 </v>
   <v>      -0.11716833      -0.00776012       0.11713781 </v>
   <v>       0.10051333      -0.13810132       0.03099046 </v>
   <v>       0.04489863      -0.11348195       0.19630992 </v>
   <v>      -0.20277099       0.04357889       0.00890083 </v>
   <v>       0.05568170       0.04097532      -0.10275625 </v>
   <v>      -0.07859469       0.02020920      -0.12843010 </v>
   <v>       0.05852626       0.01388973       0.04676170 </v>
   <v>       0.10479313      -0.07659334      -0.13427910 </v>
   <v>       0.05081227      -0.12109040       0.11517358 </v>
   <v>       0.12784496       0.06516217       0.32351948 </v>
   <v>      -0.05502285       0.06579369      -0.19047605 </v>
  </varray>
  <varray name="stress" >
   <v>      -0.35371589      -0.25513726      -0.00477244 </v>
   <v>      -0.25513719      -0.19945080      -0.33913875 </v>
   <v>      -0.00477213      -0.33913879      -0.51995567 </v>
  </varray>
  <energy>
   <i name="e_fr_energy">   -191.33793873 </i>
   <i name="e_wo_entrp">   -191.24358989 </i>
   <i name="e_0_energy">     -0.18869767 </i>
  </energy>
  <time name="totalsc">  391.19  392.23</time>
 </calculation>
 <calculation>
  <scstep>
   <time name="dav">   22.04   22.09</time>
   <time name="total">   22.54   22.60</time>
   <energy>
    <i name="alphaZ">     90.36905360 </i>
    <i name="ewald">  44733.96070619 </i>
    <i name="hartreedc"> -50746.12388060 </i>
    <i name="XCdc">   -233.32414863 </i>
    <i name="pawpsdc">   4083.30709630 </i>
    <i name="pawaedc">  -3499.22838268 </i>
    <i name="eentropy">     -0.18888915 </i>
    <i name="bandstr">  -1381.64378898 </i>
    <i name="atom">   6761.44252427 </i>
    <i name="e_fr_energy">   -191.42970968 </i>
    <i name="e_wo_entrp">   -191.24082053 </i>
    <i name="e_0_energy">   -191.33526511 </i>
   </energy>
  </scstep>
  <scstep>
   <time name="dav">   32.31   32.39</time>
   <time name="total">   32.82   32.92</time>
   <energy>
    <i name="e_fr_energy">   -191.48619858 </i>
    <i name="e_wo_entrp">   -191.28656447 </i>
    <i name="e_0_energy">   -191.38638152 </i>
   </energy>
  </scstep>
  <scstep>
   <time name="dav">   30.20   30.27</time>
   <time name="total">   30.70   30.79</time>
   <energy>
    <i name="e_fr_energy">   -191.44670420 </i>
    <i name="e_wo_entrp">   -191.25742776 </i>
    <i name="e_0_energy">   -191.35206598 </i>
   </energy>
  </scstep>
  <scstep>
   <time name="dav">   29.59   29.66</time>
   <time name="total">   30.09   30.17</time>
   <energy>
    <i name="e_fr_energy">   -191.44602961 </i>
    <i name="e_wo_entrp">   -191.25575616 </i>
    <i name="e_0_energy">   -191.35089289 </i>
   </energy>
  </scstep>
  <scstep>
   <time name="dav">   29.04   29.11</time>
   <time name="total">   29.54   29.62</time>
   <energy>
    <i name="e_fr_energy">   -191.44028052 </i>
    <i name="e_wo_entrp">   -191.24951165 </i>
    <i name="e_0_energy">   -191.34489608 </i>
   </energy>
  </scstep>
  <scstep>
   <time name="dav">   28.12   28.20</time>
   <time name="total">   28.63   28.71</time>
   <energy>
    <i name="e_fr_energy">   -191.43959352 </i>
    <i name="e_wo_entrp">   -191.24852207 </i>
    <i name="e_0_energy">   -191.34405780 </i>
   </energy>
  </scstep>
  <scstep>
   <time name="dav">   26.87   26.93</time>
   <time name="total">   27.37   27.44</time>
   <energy>
    <i name="e_fr_energy">   -191.43929843 </i>
    <i name="e_wo_entrp">   -191.24798168 </i>
    <i name="e_0_energy">   -191.34364006 </i>
   </energy>
  </scstep>
  <scstep>
   <time name="dav">   25.60   25.66</time>
   <time name="total">   25.64   25.71</time>
   <energy>
    <i name="alphaZ">     90.36905360 </i>
    <i name="ewald">  44733.96070619 </i>
    <i name="hartreedc"> -50745.53622205 </i>
    <i name="XCdc">   -233.36937638 </i>
    <i name="pawpsdc">   4083.76210202 </i>
    <i name="pawaedc">  -3499.67695491 </i>
    <i name="eentropy">     -0.19111821 </i>
    <i name="bandstr">  -1382.19997681 </i>
    <i name="atom">   6761.44252427 </i>
    <i name="e_fr_energy">   -191.43926226 </i>
    <i name="e_wo_entrp">   -191.24814405 </i>
    <i name="e_0_energy">   -191.34370315 </i>
   </energy>
  </scstep>
  <structure>
   <crystal>
    <varray name="basis" >
     <v>       8.25876072       4.76580321       0.00000000 </v>
     <v>      -8.27176897       4.78830821       0.00000000 </v>
     <v>       0.00000000       0.00000000      30.00000000 </v>
    </varray>
    <i name="volume">   2369.01344428 </i>
    <varray name="rec_basis" >
     <v>       0.06063674       0.10474954       0.00000000 </v>
     <v>      -0.06035175       0.10458481       0.00000000 </v>
     <v>       0.00000000       0.00000000       0.03333333 </v>
    </varray>
   </crystal>
   <varray name="positions" >
    <v>       0.33024170       0.66808876       0.00051847 </v>
    <v>      -0.00402164       0.65723563       0.00006090 </v>
    <v>       0.66654901       0.01166249      -0.00008997 </v>
    <v>       0.99208751       0.32853936       0.00030036 </v>
    <v>       0.33737638       0.01614575      -0.00019786 </v>
    <v>       0.66326627       0.32963359      -0.00010712 </v>
    <v>       0.01597256       0.01501433      -0.00022544 </v>
    <v>       0.33261581       0.31962138      -0.00008291 </v>
    <v>       0.66290451       0.65385226      -0.00020146 </v>
    <v>       0.11254260       0.22405838       0.94654005 </v>
    <v>       0.22214485       0.11150602       0.05529024 </v>
    <v>       0.11337476       0.56090199       0.94955018 </v>
    <v>       0.22567886       0.44888532       0.05015885 </v>
    <v>       0.10855914       0.88363820       0.94930794 </v>
    <v>       0.21992069       0.77390544       0.04916783 </v>
    <v>       0.44541625       0.22384678       0.94496019 </v>
    <v>       0.55849602       0.10780101       0.05277797 </v>
    <v>       0.44045553       0.55631626       0.94944427 </v>
    <v>       0.55426670       0.44294980       0.05353365 </v>
    <v>       0.44694176       0.88717278       0.95048299 </v>
    <v>       0.55369067       0.78060226       0.04875630 </v>
    <v>       0.77363983       0.21532661       0.94729649 </v>
    <v>       0.88216902       0.10620643       0.05183144 </v>
    <v>       0.78421509       0.55769720       0.94788104 </v>
    <v>       0.89142728       0.45018458       0.05183698 </v>
    <v>       0.77572702       0.89142534       0.95117059 </v>
    <v>       0.89255629       0.77599650       0.05003790 </v>
   </varray>
  </structure>
  <varray name="forces" >
   <v>      -0.12844190       0.11705328       0.10425002 </v>
   <v>       0.17266303      -0.38994019       0.02223556 </v>
   <v>      -0.37866654       0.12999959       0.00185307 </v>
   <v>      -0.10551853      -0.19908560      -0.00577785 </v>
   <v>      -0.20811305       0.21705313       0.00624919 </v>
   <v>      -0.05795846       0.06676103      -0.01123353 </v>
   <v>       0.00630817       0.55893317       0.01187503 </v>
   <v>       0.29417816      -0.04881183      -0.00304803 </v>
   <v>       0.28788075      -0.54630789      -0.02463525 </v>
   <v>      -0.04691399       0.11847423      -0.09128823 </v>
   <v>      -0.00166931       0.06109888       0.25644171 </v>
   <v>       0.01236719      -0.06111451      -0.00195372 </v>
   <v>       0.09197886      -0.08150946      -0.18807037 </v>
   <v>      -0.00182905       0.09244764       0.12379025 </v>
   <v>      -0.10563633       0.07077841      -0.12452115 </v>
   <v>       0.04833733       0.06537298      -0.20714760 </v>
   <v>      -0.07687396       0.01690651       0.09437871 </v>
   <v>       0.06011094      -0.10812025      -0.01189112 </v>
   <v>       0.04044838      -0.08928546       0.17814160 </v>
   <v>      -0.13203342       0.03720424       0.02431848 </v>
   <v>       0.05892423       0.04679258      -0.15531010 </v>
   <v>      -0.05230109      -0.00533040      -0.11688123 </v>
   <v>       0.03592170       0.00219360       0.01473781 </v>
   <v>       0.07773825      -0.04999948      -0.15680715 </v>
   <v>       0.04369356      -0.09019348       0.10499705 </v>
   <v>       0.12202688       0.03101041       0.39796163 </v>
   <v>      -0.05662179       0.03761886      -0.24266477 </v>
  </varray>
  <varray name="stress" >
   <v>       0.20540850      -0.05286122      -0.05664114 </v>
   <v>      -0.05286121       0.30217551      -0.16132325 </v>
   <v>      -0.05664130      -0.16132314      -1.14302465 </v>
  </varray>
  <energy>
   <i name="e_fr_energy">   -191.43926226 </i>
   <i name="e_wo_entrp">   -191.34370315 </i>
   <i name="e_0_energy">     -0.19111821 </i>
  </energy>
  <time name="totalsc">  269.79  270.52</time>
 </calculation>
 <calculation>
  <scstep>
   <time name="dav">   22.04   22.10</time>
   <time name="total">   22.55   22.61</time>
   <energy>
    <i name="alphaZ">     90.30294932 </i>
    <i name="ewald">  44704.47610078 </i>
    <i name="hartreedc"> -50715.27226007 </i>
    <i name="XCdc">   -233.41303619 </i>
    <i name="pawpsdc">   4083.80497676 </i>
    <i name="pawaedc">  -3499.72054711 </i>
    <i name="eentropy">     -0.19070595 </i>
    <i name="bandstr">  -1382.89815133 </i>
    <i name="atom">   6761.44252427 </i>
    <i name="e_fr_energy">   -191.46814952 </i>
    <i name="e_wo_entrp">   -191.27744357 </i>
    <i name="e_0_energy">   -191.37279655 </i>
   </energy>
  </scstep>
  <scstep>
   <time name="dav">   33.27   33.35</time>
   <time name="total">   33.78   33.86</time>
   <energy>
    <i name="e_fr_energy">   -191.47372186 </i>
    <i name="e_wo_entrp">   -191.27944343 </i>
    <i name="e_0_energy">   -191.37658264 </i>
   </energy>
  </scstep>
  <scstep>
   <time name="dav">   29.97   30.04</time>
   <time name="total">   30.47   30.56</time>
   <energy>
    <i name="e_fr_energy">   -191.46903303 </i>
    <i name="e_wo_entrp">   -191.27818574 </i>
    <i name="e_0_energy">   -191.37360938 </i>
   </energy>
  </scstep>
  <scstep>
   <time name="dav">   26.66   26.72</time>
   <time name="total">   27.16   27.24</time>
   <energy>
    <i name="e_fr_energy">   -191.46938724 </i>
    <i name="e_wo_entrp">   -191.27818912 </i>
    <i name="e_0_energy">   -191.37378818 </i>
   </energy>
  </scstep>
  <scstep>
   <time name="dav">   25.80   25.86</time>
   <time name="total">   26.30   26.37</time>
   <energy>
    <i name="e_fr_energy">   -191.46871355 </i>
    <i name="e_wo_entrp">   -191.27740970 </i>
    <i name="e_0_energy">   -191.37306163 </i>
   </energy>
  </scstep>
  <scstep>
   <time name="dav">   20.43   20.48</time>
   <time name="total">   20.47   20.53</time>
   <energy>
    <i name="alphaZ">     90.30294932 </i>
    <i name="ewald">  44704.47610078 </i>
    <i name="hartreedc"> -50716.31958423 </i>
    <i name="XCdc">   -233.38070096 </i>
    <i name="pawpsdc">   4084.43846009 </i>
    <i name="pawaedc">  -3500.36070594 </i>
    <i name="eentropy">     -0.19132425 </i>
    <i name="bandstr">  -1381.87642833 </i>
    <i name="atom">   6761.44252427 </i>
    <i name="e_fr_energy">   -191.46870925 </i>
    <i name="e_wo_entrp">   -191.27738499 </i>
    <i name="e_0_energy">   -191.37304712 </i>
   </energy>
  </scstep>
  <structure>
   <crystal>
    <varray name="basis" >
     <v>       8.26131935       4.76746392       0.00000000 </v>
     <v>      -8.27463638       4.79050487       0.00000000 </v>
     <v>       0.00000000       0.00000000      30.00000000 </v>
    </varray>
    <i name="volume">   2370.74762845 </i>
    <varray name="rec_basis" >
     <v>       0.06062018       0.10470920       0.00000000 </v>
     <v>      -0.06032861       0.10454068       0.00000000 </v>
     <v>       0.00000000       0.00000000       0.03333333 </v>
    </varray>
   </crystal>
   <varray name="positions" >
    <v>       0.33032200       0.66839974       0.00057096 </v>
    <v>      -0.00446681       0.65648202       0.00007061 </v>
[...]
      <set comment="kpoint 31">
       <r>  -17.5278    1.0000 </r>
       <r>  -17.2707    1.0000 </r>
       <r>  -16.9151    1.0000 </r>
       <r>  -16.6713    1.0000 </r>
       <r>  -16.5141    1.0000 </r>
       <r>  -16.4260    1.0000 </r>
       <r>  -16.2904    1.0000 </r>
       <r>  -16.1921    1.0000 </r>
       <r>  -16.1101    1.0000 </r>
       <r>  -15.9891    1.0000 </r>
       <r>  -15.9312    1.0000 </r>
       <r>  -15.8450    1.0000 </r>
       <r>  -15.8064    1.0000 </r>
       <r>  -15.6996    1.0000 </r>
       <r>  -15.5763    1.0000 </r>
       <r>  -15.5187    1.0000 </r>
       <r>  -15.3820    1.0000 </r>
       <r>  -15.3440    1.0000 </r>
       <r>   -9.7361    1.0000 </r>
       <r>   -9.4515    1.0000 </r>
       <r>   -9.3346    1.0000 </r>
       <r>   -9.0646    1.0000 </r>
       <r>   -8.8579    1.0000 </r>
       <r>   -8.6774    1.0000 </r>
       <r>   -8.4854    1.0000 </r>
       <r>   -8.4505    1.0000 </r>
       <r>   -8.4240    1.0000 </r>
       <r>   -8.3346    1.0000 </r>
       <r>   -8.2756    1.0000 </r>
       <r>   -8.2042    1.0000 </r>
       <r>   -8.1487    1.0000 </r>
       <r>   -8.0190    1.0000 </r>
       <r>   -7.9853    1.0000 </r>
       <r>   -7.9109    1.0000 </r>
       <r>   -7.7984    1.0000 </r>
       <r>   -7.6837    1.0000 </r>
       <r>   -7.6098    1.0000 </r>
       <r>   -7.3881    1.0000 </r>
       <r>   -7.3551    1.0000 </r>
       <r>   -7.2486    1.0000 </r>
       <r>   -7.1657    1.0000 </r>
       <r>   -7.0861    1.0000 </r>
       <r>   -7.0275    1.0000 </r>
       <r>   -6.9670    1.0000 </r>
       <r>   -6.8428    1.0000 </r>
       <r>   -6.7573    1.0000 </r>
       <r>   -6.6388    1.0000 </r>
       <r>   -6.5891    1.0000 </r>
       <r>   -6.5286    1.0000 </r>
       <r>   -6.4768    1.0000 </r>
       <r>   -6.4269    1.0000 </r>
       <r>   -6.3698    1.0000 </r>
       <r>   -6.3099    1.0000 </r>
       <r>   -6.2141    1.0000 </r>
       <r>   -6.1097    1.0000 </r>
       <r>   -6.0782    1.0000 </r>
       <r>   -5.9987    1.0000 </r>
       <r>   -5.9135    1.0000 </r>
       <r>   -5.8536    1.0000 </r>
       <r>   -5.7803    1.0000 </r>
       <r>   -5.7373    1.0000 </r>
       <r>   -5.6829    1.0000 </r>
       <r>   -5.5814    1.0000 </r>
       <r>   -5.4505    1.0000 </r>
       <r>   -5.2422    1.0000 </r>
       <r>   -5.1264    1.0000 </r>
       <r>   -4.9755    1.0000 </r>
       <r>   -4.8434    1.0000 </r>
       <r>   -4.7696    1.0000 </r>
       <r>   -4.6308    1.0000 </r>
       <r>   -4.5259    1.0000 </r>
       <r>   -4.4137    1.0000 </r>
       <r>   -4.3610    1.0000 </r>
       <r>   -4.2892    1.0000 </r>
       <r>   -4.1837    1.0000 </r>
       <r>   -4.1171    1.0000 </r>
       <r>   -3.8633    0.9998 </r>
       <r>   -3.7319    0.9964 </r>
       <r>   -3.5449    0.9132 </r>
       <r>   -3.3539    0.5041 </r>
       <r>   -3.1034    0.0391 </r>
       <r>   -2.7024    0.0000 </r>
       <r>   -2.5715    0.0000 </r>
       <r>   -2.4918    0.0000 </r>
       <r>   -2.3941    0.0000 </r>
       <r>   -2.3369    0.0000 </r>
       <r>   -2.1652    0.0000 </r>
       <r>   -2.0863    0.0000 </r>
       <r>   -1.9369    0.0000 </r>
       <r>   -1.8980    0.0000 </r>
       <r>   -1.7013    0.0000 </r>
       <r>   -1.5894    0.0000 </r>
       <r>   -1.4547    0.0000 </r>
       <r>   -1.4061    0.0000 </r>
       <r>   -1.3604    0.0000 </r>
       <r>   -1.1880    0.0000 </r>
       <r>   -1.1620    0.0000 </r>
       <r>   -1.0650    0.0000 </r>
       <r>   -1.0282    0.0000 </r>
       <r>   -0.9026    0.0000 </r>
       <r>   -0.8419    0.0000 </r>
       <r>   -0.7551    0.0000 </r>
       <r>   -0.6224    0.0000 </r>
       <r>   -0.5431    0.0000 </r>
       <r>   -0.4867    0.0000 </r>
       <r>   -0.2695    0.0000 </r>
       <r>   -0.2423    0.0000 </r>
       <r>   -0.0536    0.0000 </r>
       <r>    0.0677    0.0000 </r>
       <r>    0.2027    0.0000 </r>
       <r>    0.4140    0.0000 </r>
       <r>    0.4937    0.0000 </r>
       <r>    0.8533    0.0000 </r>
       <r>    0.9202    0.0000 </r>
       <r>    1.0055    0.0000 </r>
       <r>    1.2444    0.0000 </r>
       <r>    1.3866    0.0000 </r>
       <r>    2.1220    0.0000 </r>
       <r>    2.2951    0.0000 </r>
       <r>    2.3742    0.0000 </r>
      </set>
      <set comment="kpoint 32">
       <r>  -17.5502    1.0000 </r>
       <r>  -17.1444    1.0000 </r>
       <r>  -17.0690    1.0000 </r>
       <r>  -16.6705    1.0000 </r>
       <r>  -16.4341    1.0000 </r>
       <r>  -16.4027    1.0000 </r>
       <r>  -16.2914    1.0000 </r>
       <r>  -16.2369    1.0000 </r>
       <r>  -16.1370    1.0000 </r>
       <r>  -15.9865    1.0000 </r>
       <r>  -15.9163    1.0000 </r>
       <r>  -15.8479    1.0000 </r>
       <r>  -15.7825    1.0000 </r>
       <r>  -15.7047    1.0000 </r>
       <r>  -15.6037    1.0000 </r>
       <r>  -15.5291    1.0000 </r>
       <r>  -15.3858    1.0000 </r>
       <r>  -15.3156    1.0000 </r>
       <r>   -9.6531    1.0000 </r>
       <r>   -9.6144    1.0000 </r>
       <r>   -9.3625    1.0000 </r>
       <r>   -9.0176    1.0000 </r>
       <r>   -8.7538    1.0000 </r>
       <r>   -8.5716    1.0000 </r>
       <r>   -8.4991    1.0000 </r>
       <r>   -8.4536    1.0000 </r>
       <r>   -8.3955    1.0000 </r>
       <r>   -8.3213    1.0000 </r>
       <r>   -8.2846    1.0000 </r>
       <r>   -8.2327    1.0000 </r>
       <r>   -8.1831    1.0000 </r>
       <r>   -8.1092    1.0000 </r>
       <r>   -8.0417    1.0000 </r>
       <r>   -7.9432    1.0000 </r>
       <r>   -7.8041    1.0000 </r>
       <r>   -7.6905    1.0000 </r>
       <r>   -7.5470    1.0000 </r>
       <r>   -7.3937    1.0000 </r>
       <r>   -7.3495    1.0000 </r>
       <r>   -7.2964    1.0000 </r>
       <r>   -7.1397    1.0000 </r>
       <r>   -7.0607    1.0000 </r>
       <r>   -7.0131    1.0000 </r>
       <r>   -6.9325    1.0000 </r>
       <r>   -6.8807    1.0000 </r>
       <r>   -6.7572    1.0000 </r>
       <r>   -6.7118    1.0000 </r>
       <r>   -6.6413    1.0000 </r>
       <r>   -6.5241    1.0000 </r>
       <r>   -6.4384    1.0000 </r>
       <r>   -6.4070    1.0000 </r>
       <r>   -6.3461    1.0000 </r>
       <r>   -6.2988    1.0000 </r>
       <r>   -6.2091    1.0000 </r>
       <r>   -6.1539    1.0000 </r>
       <r>   -6.0893    1.0000 </r>
       <r>   -5.9791    1.0000 </r>
       <r>   -5.8834    1.0000 </r>
       <r>   -5.8409    1.0000 </r>
       <r>   -5.7497    1.0000 </r>
       <r>   -5.6933    1.0000 </r>
       <r>   -5.6069    1.0000 </r>
       <r>   -5.4890    1.0000 </r>
       <r>   -5.4036    1.0000 </r>
       <r>   -5.3106    1.0000 </r>
       <r>   -5.1682    1.0000 </r>
       <r>   -5.0695    1.0000 </r>
       <r>   -4.9687    1.0000 </r>
       <r>   -4.7738    1.0000 </r>
       <r>   -4.6683    1.0000 </r>
       <r>   -4.4600    1.0000 </r>
       <r>   -4.4267    1.0000 </r>
       <r>   -4.3895    1.0000 </r>
       <r>   -4.2929    1.0000 </r>
       <r>   -4.1794    1.0000 </r>
       <r>   -4.0582    1.0000 </r>
       <r>   -3.8554    0.9998 </r>
       <r>   -3.6591    0.9849 </r>
       <r>   -3.5247    0.8884 </r>
       <r>   -3.4049    0.6445 </r>
       <r>   -3.0188    0.0092 </r>
       <r>   -2.7361    0.0000 </r>
       <r>   -2.5837    0.0000 </r>
       <r>   -2.5171    0.0000 </r>
       <r>   -2.4149    0.0000 </r>
       <r>   -2.3680    0.0000 </r>
       <r>   -2.1917    0.0000 </r>
       <r>   -2.0874    0.0000 </r>
       <r>   -1.9658    0.0000 </r>
       <r>   -1.9078    0.0000 </r>
       <r>   -1.7426    0.0000 </r>
       <r>   -1.5470    0.0000 </r>
       <r>   -1.4351    0.0000 </r>
       <r>   -1.3797    0.0000 </r>
       <r>   -1.3409    0.0000 </r>
       <r>   -1.2022    0.0000 </r>
       <r>   -1.1415    0.0000 </r>
       <r>   -1.0902    0.0000 </r>
       <r>   -1.0146    0.0000 </r>
       <r>   -0.9032    0.0000 </r>
       <r>   -0.8803    0.0000 </r>
       <r>   -0.7775    0.0000 </r>
       <r>   -0.6328    0.0000 </r>
       <r>   -0.5298    0.0000 </r>
       <r>   -0.4219    0.0000 </r>
       <r>   -0.3023    0.0000 </r>
       <r>   -0.2038    0.0000 </r>
       <r>   -0.0691    0.0000 </r>
       <r>    0.0570    0.0000 </r>
       <r>    0.1494    0.0000 </r>
       <r>    0.4364    0.0000 </r>
       <r>    0.5216    0.0000 </r>
       <r>    0.8291    0.0000 </r>
       <r>    0.8697    0.0000 </r>
       <r>    0.9990    0.0000 </r>
       <r>    1.3188    0.0000 </r>
       <r>    1.4009    0.0000 </r>
       <r>    2.0958    0.0000 </r>
       <r>    2.2633    0.0000 </r>
       <r>    2.5604    0.0000 </r>
      </set>
      <set comment="kpoint 33">
       <r>  -17.5480    1.0000 </r>
       <r>  -17.2195    1.0000 </r>
       <r>  -16.9390    1.0000 </r>
       <r>  -16.6706    1.0000 </r>
       <r>  -16.5320    1.0000 </r>
       <r>  -16.4123    1.0000 </r>
       <r>  -16.3222    1.0000 </r>
       <r>  -16.2389    1.0000 </r>
       <r>  -16.0819    1.0000 </r>
       <r>  -15.9689    1.0000 </r>
       <r>  -15.8927    1.0000 </r>
       <r>  -15.8600    1.0000 </r>
       <r>  -15.7428    1.0000 </r>
       <r>  -15.7109    1.0000 </r>
       <r>  -15.6107    1.0000 </r>
       <r>  -15.5293    1.0000 </r>
       <r>  -15.4311    1.0000 </r>
       <r>  -15.2966    1.0000 </r>
       <r>   -9.7567    1.0000 </r>
       <r>   -9.5029    1.0000 </r>
       <r>   -9.2700    1.0000 </r>
       <r>   -9.0099    1.0000 </r>
       <r>   -8.8318    1.0000 </r>
       <r>   -8.7112    1.0000 </r>
       <r>   -8.5788    1.0000 </r>
       <r>   -8.4357    1.0000 </r>
       <r>   -8.3734    1.0000 </r>
       <r>   -8.3328    1.0000 </r>
       <r>   -8.2645    1.0000 </r>
       <r>   -8.2118    1.0000 </r>
       <r>   -8.1752    1.0000 </r>
       <r>   -8.1054    1.0000 </r>
       <r>   -7.9754    1.0000 </r>
       <r>   -7.8971    1.0000 </r>
       <r>   -7.7856    1.0000 </r>
       <r>   -7.7097    1.0000 </r>
       <r>   -7.5652    1.0000 </r>
       <r>   -7.3979    1.0000 </r>
       <r>   -7.3435    1.0000 </r>
       <r>   -7.2080    1.0000 </r>
       <r>   -7.1109    1.0000 </r>
       <r>   -7.0655    1.0000 </r>
       <r>   -6.9949    1.0000 </r>
       <r>   -6.9552    1.0000 </r>
       <r>   -6.8662    1.0000 </r>
       <r>   -6.8017    1.0000 </r>
       <r>   -6.7206    1.0000 </r>
       <r>   -6.6196    1.0000 </r>
       <r>   -6.5777    1.0000 </r>
       <r>   -6.4683    1.0000 </r>
       <r>   -6.4160    1.0000 </r>
       <r>   -6.3410    1.0000 </r>
       <r>   -6.2548    1.0000 </r>
       <r>   -6.2050    1.0000 </r>
       <r>   -6.1304    1.0000 </r>
       <r>   -6.0799    1.0000 </r>
       <r>   -5.9928    1.0000 </r>
       <r>   -5.9599    1.0000 </r>
       <r>   -5.8642    1.0000 </r>
       <r>   -5.8110    1.0000 </r>
       <r>   -5.7264    1.0000 </r>
       <r>   -5.6136    1.0000 </r>
       <r>   -5.4978    1.0000 </r>
       <r>   -5.3268    1.0000 </r>
       <r>   -5.2313    1.0000 </r>
       <r>   -5.1688    1.0000 </r>
       <r>   -5.0880    1.0000 </r>
       <r>   -4.9303    1.0000 </r>
       <r>   -4.7736    1.0000 </r>
       <r>   -4.6430    1.0000 </r>
       <r>   -4.5029    1.0000 </r>
       <r>   -4.4518    1.0000 </r>
       <r>   -4.3550    1.0000 </r>
       <r>   -4.3189    1.0000 </r>
       <r>   -4.1746    1.0000 </r>
       <r>   -4.0119    1.0000 </r>
       <r>   -3.8363    0.9997 </r>
       <r>   -3.6090    0.9652 </r>
       <r>   -3.5870    0.9514 </r>
       <r>   -3.4284    0.7044 </r>
       <r>   -2.9107    0.0009 </r>
       <r>   -2.7574    0.0000 </r>
       <r>   -2.6303    0.0000 </r>
       <r>   -2.5567    0.0000 </r>
       <r>   -2.4397    0.0000 </r>
       <r>   -2.3900    0.0000 </r>
       <r>   -2.2391    0.0000 </r>
       <r>   -2.0932    0.0000 </r>
       <r>   -2.0129    0.0000 </r>
       <r>   -1.8804    0.0000 </r>
       <r>   -1.7171    0.0000 </r>
       <r>   -1.4987    0.0000 </r>
       <r>   -1.4240    0.0000 </r>
       <r>   -1.3485    0.0000 </r>
       <r>   -1.3071    0.0000 </r>
       <r>   -1.2267    0.0000 </r>
       <r>   -1.1628    0.0000 </r>
       <r>   -1.1423    0.0000 </r>
       <r>   -0.9941    0.0000 </r>
       <r>   -0.9244    0.0000 </r>
       <r>   -0.8619    0.0000 </r>
       <r>   -0.7785    0.0000 </r>
       <r>   -0.6625    0.0000 </r>
       <r>   -0.5194    0.0000 </r>
       <r>   -0.3932    0.0000 </r>
       <r>   -0.3039    0.0000 </r>
       <r>   -0.2389    0.0000 </r>
       <r>   -0.0770    0.0000 </r>
       <r>    0.0071    0.0000 </r>
       <r>    0.1520    0.0000 </r>
       <r>    0.4837    0.0000 </r>
       <r>    0.5152    0.0000 </r>
       <r>    0.7339    0.0000 </r>
       <r>    0.9165    0.0000 </r>
       <r>    1.0050    0.0000 </r>
       <r>    1.3685    0.0000 </r>
       <r>    1.5027    0.0000 </r>
       <r>    2.1294    0.0000 </r>
       <r>    2.2922    0.0000 </r>
       <r>    2.3909    0.0000 </r>
      </set>
      <set comment="kpoint 34">
       <r>  -17.5400    1.0000 </r>
       <r>  -17.2688    1.0000 </r>
       <r>  -16.7530    1.0000 </r>
       <r>  -16.7185    1.0000 </r>
       <r>  -16.6687    1.0000 </r>
       <r>  -16.4182    1.0000 </r>
       <r>  -16.3103    1.0000 </r>
       <r>  -16.2480    1.0000 </r>
       <r>  -16.0600    1.0000 </r>
       <r>  -15.9573    1.0000 </r>
       <r>  -15.8745    1.0000 </r>
       <r>  -15.8605    1.0000 </r>
       <r>  -15.7454    1.0000 </r>
       <r>  -15.7062    1.0000 </r>
       <r>  -15.5788    1.0000 </r>
       <r>  -15.5222    1.0000 </r>
       <r>  -15.4863    1.0000 </r>
       <r>  -15.2905    1.0000 </r>
       <r>   -9.8004    1.0000 </r>
       <r>   -9.4142    1.0000 </r>
       <r>   -9.1600    1.0000 </r>
       <r>   -9.0522    1.0000 </r>
       <r>   -8.8907    1.0000 </r>
       <r>   -8.8634    1.0000 </r>
       <r>   -8.5927    1.0000 </r>
       <r>   -8.4744    1.0000 </r>
       <r>   -8.3857    1.0000 </r>
       <r>   -8.3052    1.0000 </r>
       <r>   -8.2494    1.0000 </r>
       <r>   -8.1976    1.0000 </r>
       <r>   -8.1362    1.0000 </r>
       <r>   -8.0470    1.0000 </r>
       <r>   -8.0085    1.0000 </r>
       <r>   -7.8306    1.0000 </r>
       <r>   -7.7967    1.0000 </r>
       <r>   -7.7367    1.0000 </r>
       <r>   -7.4608    1.0000 </r>
       <r>   -7.4273    1.0000 </r>
       <r>   -7.3656    1.0000 </r>
       <r>   -7.2744    1.0000 </r>
       <r>   -7.0761    1.0000 </r>
       <r>   -7.0569    1.0000 </r>
       <r>   -6.9614    1.0000 </r>
       <r>   -6.9138    1.0000 </r>
       <r>   -6.8821    1.0000 </r>
       <r>   -6.7425    1.0000 </r>
       <r>   -6.7009    1.0000 </r>
       <r>   -6.6745    1.0000 </r>
       <r>   -6.5430    1.0000 </r>
       <r>   -6.5073    1.0000 </r>
       <r>   -6.4340    1.0000 </r>
       <r>   -6.3426    1.0000 </r>
       <r>   -6.3365    1.0000 </r>
       <r>   -6.2330    1.0000 </r>
       <r>   -6.1239    1.0000 </r>
       <r>   -6.0405    1.0000 </r>
       <r>   -6.0121    1.0000 </r>
       <r>   -5.9619    1.0000 </r>
       <r>   -5.8926    1.0000 </r>
       <r>   -5.8152    1.0000 </r>
       <r>   -5.7869    1.0000 </r>
       <r>   -5.6214    1.0000 </r>
       <r>   -5.4480    1.0000 </r>
       <r>   -5.3697    1.0000 </r>
       <r>   -5.2636    1.0000 </r>
       <r>   -5.1044    1.0000 </r>
       <r>   -5.0350    1.0000 </r>
       <r>   -4.8992    1.0000 </r>
       <r>   -4.7303    1.0000 </r>
       <r>   -4.6445    1.0000 </r>
       <r>   -4.5142    1.0000 </r>
       <r>   -4.4411    1.0000 </r>
       <r>   -4.3889    1.0000 </r>
       <r>   -4.3114    1.0000 </r>
       <r>   -4.1879    1.0000 </r>
       <r>   -3.9864    1.0000 </r>
       <r>   -3.8365    0.9997 </r>
       <r>   -3.6556    0.9840 </r>
       <r>   -3.5596    0.9285 </r>
       <r>   -3.4355    0.7215 </r>
       <r>   -2.8510    0.0002 </r>
       <r>   -2.7581    0.0000 </r>
       <r>   -2.6879    0.0000 </r>
       <r>   -2.5584    0.0000 </r>
       <r>   -2.4512    0.0000 </r>
       <r>   -2.4029    0.0000 </r>
       <r>   -2.2657    0.0000 </r>
       <r>   -2.0876    0.0000 </r>
       <r>   -2.0357    0.0000 </r>
       <r>   -1.8717    0.0000 </r>
       <r>   -1.6826    0.0000 </r>
       <r>   -1.4696    0.0000 </r>
       <r>   -1.4351    0.0000 </r>
       <r>   -1.3241    0.0000 </r>
       <r>   -1.2829    0.0000 </r>
       <r>   -1.2332    0.0000 </r>
       <r>   -1.2022    0.0000 </r>
       <r>   -1.1717    0.0000 </r>
       <r>   -0.9902    0.0000 </r>
       <r>   -0.9185    0.0000 </r>
       <r>   -0.8575    0.0000 </r>
       <r>   -0.7538    0.0000 </r>
       <r>   -0.6895    0.0000 </r>
       <r>   -0.4847    0.0000 </r>
       <r>   -0.4711    0.0000 </r>
       <r>   -0.3042    0.0000 </r>
       <r>   -0.1745    0.0000 </r>
       <r>   -0.1311    0.0000 </r>
       <r>   -0.0186    0.0000 </r>
       <r>    0.1865    0.0000 </r>
       <r>    0.4429    0.0000 </r>
       <r>    0.5520    0.0000 </r>
       <r>    0.6868    0.0000 </r>
       <r>    0.9740    0.0000 </r>
       <r>    0.9900    0.0000 </r>
       <r>    1.3941    0.0000 </r>
       <r>    1.5566    0.0000 </r>
       <r>    2.2040    0.0000 </r>
       <r>    2.2534    0.0000 </r>
       <r>    2.3783    0.0000 </r>
      </set>
     </set>
    </set>
   </array>
  </eigenvalues>
  <separator name="orbital magnetization" >
   <v name="MAGDIPOLOUT">      0.00000000      0.00000000      0.00000000</v>
  </separator>
 </calculation>
 <structure name="finalpos" >
  <crystal>
   <varray name="basis" >
    <v>       8.32943247       4.83607193       0.00000000 </v>
    <v>      -8.33404393       4.84444097       0.00000000 </v>
    <v>       0.00000000       0.00000000      30.00000000 </v>
   </varray>
   <i name="volume">   2419.66439483 </i>
   <varray name="rec_basis" >
    <v>       0.06006338       0.10332892       0.00000000 </v>
    <v>      -0.05995962       0.10327175       0.00000000 </v>
    <v>       0.00000000       0.00000000       0.03333333 </v>
   </varray>
  </crystal>
  <varray name="positions" >
   <v>       0.34594493       0.70444700       0.00265381 </v>
   <v>      -0.02086546       0.62711765      -0.00176567 </v>
   <v>       0.65876101       0.02154473       0.00025972 </v>
   <v>       0.96891033       0.31578920      -0.00072391 </v>
   <v>       0.34896075       0.02549204       0.00070907 </v>
   <v>       0.66289385       0.32938196      -0.00028958 </v>
   <v>       0.03155800       0.03631003       0.00194597 </v>
   <v>       0.34666182       0.31699394       0.00003777 </v>
   <v>       0.65238579       0.62772427      -0.00168930 </v>
   <v>       0.11857388       0.23117585       0.94725317 </v>
   <v>       0.22883358       0.11701395       0.05765307 </v>
   <v>       0.11448115       0.55760421       0.95106857 </v>
   <v>       0.22606644       0.45188013       0.04071360 </v>
   <v>       0.10638552       0.88143651       0.95530987 </v>
   <v>       0.21259781       0.77756837       0.04815306 </v>
   <v>       0.44912316       0.22355650       0.94310047 </v>
   <v>       0.55754652       0.10980728       0.05512125 </v>
   <v>       0.43835505       0.55556325       0.95051644 </v>
   <v>       0.55395475       0.43716979       0.05580602 </v>
   <v>       0.44950099       0.89575749       0.94863121 </v>
   <v>       0.56023385       0.78202959       0.04667194 </v>
   <v>       0.76929328       0.21301643       0.94465317 </v>
   <v>       0.87991751       0.10503261       0.05241002 </v>
   <v>       0.78132290       0.54973171       0.94517681 </v>
   <v>       0.88619120       0.44121285       0.05332921 </v>
   <v>       0.77820063       0.88850372       0.95895987 </v>
   <v>       0.89242521       0.77535342       0.04433426 </v>
  </varray>
 </structure>
</modeling>
