unknown system                          
           1
     8.851325    5.104660    0.000000
    -8.853755    5.108841    0.000000
     0.000000    0.000000   30.000000
   V    Mo   W    S 
   3   3   3  18
Direct configuration=     1
   0.33333334  0.66666669  0.00000000
   0.00000000  0.66666669  0.00000000
   0.66666669  0.00000000  0.00000000
   1.00000000  0.33333334  0.00000000
   0.33333334  0.00000000  0.00000000
   0.66666669  0.33333334  0.00000000
   0.00000000  0.00000000  0.00000000
   0.33333334  0.33333334  0.00000000
   0.66666669  0.66666669  0.00000000
   0.11068511  0.22244981  0.95539999
   0.22244981  0.11068511  0.04460000
   0.11068511  0.55578315  0.95539999
   0.22244981  0.44401845  0.04460000
   0.11068511  0.88911647  0.95539999
   0.22244981  0.77735180  0.04460000
   0.44401845  0.22244981  0.95539999
   0.55578315  0.11068511  0.04460000
   0.44401845  0.55578315  0.95539999
   0.55578315  0.44401845  0.04460000
   0.44401845  0.88911647  0.95539999
   0.55578315  0.77735180  0.04460000
   0.77735180  0.22244981  0.95539999
   0.88911647  0.11068511  0.04460000
   0.77735180  0.55578315  0.95539999
   0.88911647  0.44401845  0.04460000
   0.77735180  0.88911647  0.95539999
   0.88911647  0.77735180  0.04460000
unknown system                          
           1
     8.663941    4.998820    0.000000
    -8.666127    5.002581    0.000000
     0.000000    0.000000   30.000000
   V    Mo   W    S 
   3   3   3  18
Direct configuration=     2
   0.33224623  0.66721080  0.00002717
   0.00039831  0.66540021 -0.00017115
   0.66619072  0.00200470  0.00014973
   0.99856666  0.33345720  0.00001831
   0.33465972  0.00097847 -0.00004277
   0.66683289  0.33194691 -0.00016970
   0.00134845  0.00130806  0.00016001
   0.33326305  0.33191500  0.00004644
   0.66656397  0.66546307  0.00004984
   0.11156272  0.22187318  0.95073315
   0.22161214  0.11148729  0.04933639
   0.11289772  0.55997859  0.95306083
   0.22477958  0.44834076  0.04800598
   0.10829361  0.88458880  0.95195652
   0.22018263  0.77327873  0.04687834
   0.44401577  0.22271645  0.95071381
   0.55789945  0.10845893  0.04805682
   0.44233681  0.55741104  0.95198977
   0.55490822  0.44479294  0.04922638
   0.44648041  0.88661979  0.95305056
   0.55380487  0.77949340  0.04694150
   0.77547575  0.21774562  0.95189562
   0.88461426  0.10820396  0.04809617
   0.78179933  0.55818028  0.95188586
   0.89102875  0.44880632  0.04806037
   0.77566408  0.89076017  0.95206212
   0.89078836  0.77579377  0.04798186
unknown system                          
           1
     8.481853    4.896669    0.000000
    -8.483510    4.899515    0.000000
     0.000000    0.000000   30.000000
   V    Mo   W    S 
   3   3   3  18
Direct configuration=     3
   0.33198473  0.66729182  0.00007065
   0.00035546  0.66497054 -0.00018748
   0.66615369  0.00265227  0.00016047
   0.99811070  0.33323205  0.00005976
   0.33498619  0.00184674 -0.00008173
   0.66666555  0.33162019 -0.00018378
   0.00208077  0.00203130  0.00012165
   0.33318793  0.33118916  0.00004806
   0.66646433  0.66490236  0.00004136
   0.11166885  0.22177334  0.95073640
   0.22150815  0.11159355  0.04942445
   0.11294235  0.56007263  0.95304164
   0.22496315  0.44833739  0.04792637
   0.10809508  0.88460546  0.95201689
   0.22013879  0.77321383  0.04683102
   0.44391817  0.22287065  0.95061422
   0.55797674  0.10838590  0.04815774
   0.44242388  0.55732931  0.95206260
   0.55481874  0.44487593  0.04923265
   0.44651966  0.88658603  0.95309705
   0.55391274  0.77939988  0.04682225
   0.77537441  0.21758531  0.95180503
   0.88458575  0.10798657  0.04810092
   0.78180076  0.55836553  0.95187783
   0.89111475  0.44895638  0.04808403
   0.77573228  0.89066287  0.95220731
   0.89073086  0.77587745  0.04791254
unknown system                          
           1
     8.273200    4.776007    0.000000
    -8.279383    4.786693    0.000000
     0.000000    0.000000   30.000000
   V    Mo   W    S 
   3   3   3  18
Direct configuration=     4
   0.33123235  0.66730912  0.00022298
  -0.00027275  0.66336626 -0.00016559
   0.66635894  0.00517811  0.00012912
   0.99651588  0.33183626  0.00019966
   0.33589044  0.00598157 -0.00018334
   0.66557922  0.33056867 -0.00016050
   0.00540550  0.00527396 -0.00006661
   0.33277323  0.32790688  0.00005397
   0.66595034  0.66252915 -0.00000632
   0.11171549  0.22196036  0.94910078
   0.22159032  0.11157457  0.05147953
   0.11350817  0.56101832  0.95162394
   0.22561408  0.44937504  0.04903413
   0.10752116  0.88361371  0.95078817
   0.21972653  0.77250856  0.04793654
   0.44401876  0.22308869  0.94856779
   0.55856027  0.10777055  0.04999470
   0.44189808  0.55764588  0.95086798
   0.55482684  0.44469806  0.05089521
   0.44704853  0.88612881  0.95197652
   0.55357546  0.77987663  0.04771625
   0.77465023  0.21618744  0.95000474
   0.88330785  0.10717324  0.04960868
   0.78293362  0.55887115  0.95033545
   0.89170178  0.45020408  0.04960249
   0.77525214  0.89101566  0.95133899
   0.89133201  0.77555371  0.04910463
unknown system                          
           1
     8.258761    4.765803    0.000000
    -8.271769    4.788308    0.000000
     0.000000    0.000000   30.000000
   V    Mo   W    S 
   3   3   3  18
Direct configuration=     5
   0.33018715  0.66745661  0.00041580
  -0.00245742  0.65968495  0.00003140
   0.66673309  0.00984102 -0.00008419
   0.99332000  0.32925388  0.00033416
   0.33714765  0.01419360 -0.00022856
   0.66341169  0.32925742 -0.00004520
   0.01294638  0.01222576 -0.00029114
   0.33220022  0.32109530  0.00004280
   0.66446186  0.65712686 -0.00011599
   0.11195683  0.22304772  0.94684896
   0.22195978  0.11142023  0.05459540
   0.11377182  0.56141887  0.94965199
   0.22594256  0.44989612  0.05033008
   0.10772942  0.88288832  0.94923176
   0.21964909  0.77282038  0.04928595
   0.44483319  0.22349771  0.94550760
   0.55888145  0.10749729  0.05250914
   0.44090515  0.55734874  0.94943754
   0.55472742  0.44370766  0.05313820
   0.44731846  0.88632824  0.95051278
   0.55331706  0.78053468  0.04889113
   0.77379690  0.21501910  0.94758202
   0.88196036  0.10633381  0.05169166
   0.78425841  0.55842580  0.94816959
   0.89190081  0.45094865  0.05158505
   0.77500724  0.89145561  0.95065515
   0.89234787  0.77549010  0.05031681
unknown system                          
           1
     8.261319    4.767464    0.000000
    -8.274636    4.790505    0.000000
     0.000000    0.000000   30.000000
   V    Mo   W    S 
   3   3   3  18
Direct configuration=     6
   0.33024170  0.66808876  0.00051847
  -0.00402164  0.65723563  0.00006090
   0.66654901  0.01166249 -0.00008997
   0.99208751  0.32853936  0.00030036
   0.33737638  0.01614575 -0.00019786
   0.66326627  0.32963359 -0.00010712
   0.01597256  0.01501433 -0.00022544
   0.33261581  0.31962138 -0.00008291
   0.66290451  0.65385226 -0.00020146
   0.11254260  0.22405838  0.94654005
   0.22214485  0.11150602  0.05529024
   0.11337476  0.56090199  0.94955018
   0.22567886  0.44888532  0.05015885
   0.10855914  0.88363820  0.94930794
   0.21992069  0.77390544  0.04916783
   0.44541625  0.22384678  0.94496019
   0.55849602  0.10780101  0.05277797
   0.44045553  0.55631626  0.94944427
   0.55426670  0.44294980  0.05353365
   0.44694176  0.88717278  0.95048299
   0.55369067  0.78060226  0.04875630
   0.77363983  0.21532661  0.94729649
   0.88216902  0.10620643  0.05183144
   0.78421509  0.55769720  0.94788104
   0.89142728  0.45018458  0.05183698
   0.77572702  0.89142534  0.95117059
   0.89255629  0.77599650  0.05003790
unknown system                          
           1
     8.257320    4.765121    0.000000
    -8.267578    4.782862    0.000000
     0.000000    0.000000   30.000000
   V    Mo   W    S 
   3   3   3  18
Direct configuration=     7
   0.33032200  0.66839974  0.00057096
  -0.00446681  0.65648202  0.00007061
   0.66639773  0.01217887 -0.00008701
   0.99169632  0.32834193  0.00029648
   0.33752438  0.01660858 -0.00019451
   0.66334433  0.32980831 -0.00011330
   0.01680683  0.01584334 -0.00021786
   0.33281952  0.31933735 -0.00008258
   0.66230205  0.65275220 -0.00021238
   0.11268609  0.22427778  0.94651957
   0.22223934  0.11161099  0.05538561
   0.11328610  0.56078912  0.94957127
   0.22563152  0.44866648  0.05004593
   0.10869957  0.88379348  0.94939024
   0.21993463  0.77411012  0.04908793
   0.44555711  0.22390150  0.94488846
   0.55845123  0.10790328  0.05279859
   0.44034924  0.55609251  0.94945393
   0.55416294  0.44278100  0.05359937
   0.44687762  0.88735046  0.95051241
   0.55382517  0.78061518  0.04866184
   0.77359098  0.21537699  0.94726328
   0.88221967  0.10618534  0.05181532
   0.78419275  0.55755171  0.94782408
   0.89132205  0.44999275  0.05186839
   0.77589139  0.89135420  0.95138545
   0.89255071  0.77610922  0.04989779
unknown system                          
           1
     8.242316    4.755739    0.000000
    -8.256204    4.779767    0.000000
     0.000000    0.000000   30.000000
   V    Mo   W    S 
   3   3   3  18
Direct configuration=     8
   0.33020211  0.66730153  0.00041795
  -0.00318975  0.65875200  0.00008484
   0.66720827  0.01145573 -0.00009311
   0.99255779  0.32826052  0.00031935
   0.33742095  0.01604992 -0.00018723
   0.66245419  0.32854087 -0.00005663
   0.01488437  0.01398968 -0.00024263
   0.33199977  0.31952769 -0.00000842
   0.66398498  0.65586883 -0.00007353
   0.11226165  0.22371933  0.94643139
   0.22197248  0.11138888  0.05529991
   0.11342145  0.56087005  0.94940000
   0.22567184  0.44892771  0.05042416
   0.10861714  0.88367039  0.94905492
   0.22022631  0.77401437  0.04933664
   0.44529643  0.22379957  0.94488490
   0.55852058  0.10767988  0.05274099
   0.44049023  0.55635334  0.94937472
   0.55435528  0.44318316  0.05339427
   0.44696687  0.88716682  0.95046058
   0.55349851  0.78073511  0.04894225
   0.77351730  0.21516962  0.94731366
   0.88203110  0.10619814  0.05193310
   0.78415961  0.55763528  0.94788572
   0.89128868  0.45017049  0.05184397
   0.77563105  0.89177988  0.95073035
   0.89276527  0.77600562  0.05038777
unknown system                          
           1
     8.254683    4.763129    0.000000
    -8.269355    4.788516    0.000000
     0.000000    0.000000   30.000000
   V    Mo   W    S 
   3   3   3  18
Direct configuration=     9
   0.32990963  0.66675223  0.00041431
  -0.00344111  0.65835366  0.00009750
   0.66762817  0.01209193 -0.00012778
   0.99257678  0.32798084  0.00031394
   0.33732640  0.01709177 -0.00021188
   0.66194001  0.32830722 -0.00015422
   0.01571725  0.01468129 -0.00026463
   0.33167710  0.31876705 -0.00011904
   0.66416199  0.65562983 -0.00016956
   0.11244651  0.22393523  0.94634388
   0.22192368  0.11138013  0.05555451
   0.11314122  0.56057731  0.94946059
   0.22546448  0.44836584  0.05038894
   0.10904319  0.88417988  0.94909563
   0.22054074  0.77450551  0.04919265
   0.44537525  0.22398956  0.94470514
   0.55825737  0.10771117  0.05288664
   0.44048652  0.55587339  0.94948127
   0.55408752  0.44292895  0.05344802
   0.44673912  0.88759817  0.95057332
   0.55362496  0.78080650  0.04887607
   0.77342061  0.21535200  0.94721880
   0.88213013  0.10607315  0.05202900
   0.78402093  0.55735265  0.94799021
   0.89099404  0.44975255  0.05177021
   0.77603684  0.89187662  0.95086811
   0.89298512  0.77630003  0.05033826
unknown system                          
           1
     8.259569    4.765605    0.000000
    -8.275904    4.793872    0.000000
     0.000000    0.000000   30.000000
   V    Mo   W    S 
   3   3   3  18
Direct configuration=    10
   0.33010382  0.66780988  0.00057090
  -0.00464423  0.65623047  0.00011697
   0.66691808  0.01308868 -0.00010304
   0.99157970  0.32779016  0.00030078
   0.33765928  0.01789866 -0.00018807
   0.66255914  0.32918359 -0.00013885
   0.01770140  0.01666130 -0.00021613
   0.33243767  0.31838165 -0.00010580
   0.66243980  0.65255568 -0.00019803
   0.11279055  0.22447839  0.94630937
   0.22220468  0.11164790  0.05572448
   0.11303535  0.56047601  0.94950294
   0.22544795  0.44811472  0.05010151
   0.10914646  0.88426200  0.94931364
   0.22031723  0.77469417  0.04902770
   0.44568543  0.22407111  0.94456897
   0.55824244  0.10794789  0.05295069
   0.44023949  0.55557928  0.94945074
   0.55392343  0.44256543  0.05366768
   0.44667114  0.88779968  0.95057809
   0.55392771  0.78076600  0.04864999
   0.77341303  0.21544384  0.94711042
   0.88223584  0.10605469  0.05197224
   0.78411507  0.55719199  0.94777889
   0.89095147  0.44954412  0.05188958
   0.77626774  0.89155837  0.95141519
   0.89284476  0.77641880  0.04994904
unknown system                          
           1
     8.258274    4.764911    0.000000
    -8.272978    4.790351    0.000000
     0.000000    0.000000   30.000000
   V    Mo   W    S 
   3   3   3  18
Direct configuration=    11
   0.33010676  0.66824769  0.00068707
  -0.00559514  0.65453264  0.00015128
   0.66662642  0.01424581 -0.00009117
   0.99082545  0.32742734  0.00028516
   0.33804236  0.01909715 -0.00016696
   0.66265746  0.32952738 -0.00014573
   0.01946327  0.01843942 -0.00017362
   0.33285306  0.31776672 -0.00012034
   0.66123212  0.65019437 -0.00021719
   0.11308626  0.22493626  0.94620829
   0.22238333  0.11186448  0.05597346
   0.11286478  0.56029000  0.94951586
   0.22536714  0.44772464  0.04991515
   0.10937393  0.88450250  0.94945955
   0.22029587  0.77503794  0.04886232
   0.44594849  0.22421873  0.94435384
   0.55815324  0.10812742  0.05305439
   0.44004514  0.55519240  0.94943314
   0.55370117  0.44222041  0.05384803
   0.44655563  0.88810990  0.95063523
   0.55420039  0.78080518  0.04845988
   0.77334210  0.21552613  0.94697858
   0.88231328  0.10597314  0.05198737
   0.78416563  0.55696124  0.94761794
   0.89076547  0.44920985  0.05197079
   0.77657901  0.89140736  0.95184612
   0.89286185  0.77662836  0.04967146
unknown system                          
           1
     8.258531    4.764711    0.000000
    -8.270713    4.785773    0.000000
     0.000000    0.000000   30.000000
   V    Mo   W    S 
   3   3   3  18
Direct configuration=    12
   0.33021242  0.66820994  0.00062517
  -0.00511841  0.65544378  0.00014256
   0.66672290  0.01352435 -0.00008992
   0.99119193  0.32762868  0.00029553
   0.33771564  0.01831648 -0.00017037
   0.66272721  0.32953550 -0.00012129
   0.01867276  0.01756715 -0.00019533
   0.33266048  0.31808241 -0.00009300
   0.66173482  0.65127311 -0.00017882
   0.11290838  0.22468056  0.94627202
   0.22227902  0.11173368  0.05582083
   0.11296707  0.56040581  0.94951182
   0.22542809  0.44795797  0.05001011
   0.10922909  0.88432275  0.94936195
   0.22029157  0.77483094  0.04896429
   0.44579479  0.22409445  0.94448300
   0.55821179  0.10804567  0.05297374
   0.44012256  0.55540972  0.94943553
   0.55385198  0.44244996  0.05374314
   0.44660704  0.88791188  0.95057488
   0.55402897  0.78076526  0.04857892
   0.77338514  0.21547748  0.94705524
   0.88228394  0.10602430  0.05196763
   0.78415194  0.55709641  0.94768417
   0.89090344  0.44944683  0.05193229
   0.77642482  0.89148454  0.95159199
   0.89282507  0.77649485  0.04982381
unknown system                          
           1
     8.256632    4.764464    0.000000
    -8.272195    4.791388    0.000000
     0.000000    0.000000   30.000000
   V    Mo   W    S 
   3   3   3  18
Direct configuration=    13
   0.33080230  0.66893156  0.00048088
  -0.00455143  0.65703359  0.00011985
   0.66669141  0.01182968 -0.00012098
   0.99158376  0.32805320  0.00032153
   0.33669199  0.01664647 -0.00023497
   0.66323368  0.33026108 -0.00013044
   0.01763821  0.01594939 -0.00030322
   0.33246328  0.31847467 -0.00010962
   0.66246078  0.65275826 -0.00019941
   0.11274428  0.22438336  0.94637587
   0.22211814  0.11144457  0.05569039
   0.11312226  0.56070161  0.94954991
   0.22560696  0.44838046  0.05014157
   0.10891716  0.88389481  0.94913044
   0.22020135  0.77439971  0.04918742
   0.44556004  0.22380502  0.94476134
   0.55829971  0.10796641  0.05279746
   0.44015332  0.55566608  0.94947461
   0.55400578  0.44267052  0.05370200
   0.44661619  0.88756470  0.95038682
   0.55369548  0.78065477  0.04886388
   0.77335990  0.21546088  0.94721961
   0.88228951  0.10600667  0.05191869
   0.78418394  0.55739468  0.94781131
   0.89124054  0.45003208  0.05189813
   0.77636284  0.89156021  0.95117607
   0.89272306  0.77628999  0.05009076
unknown system                          
           1
     8.254148    4.762668    0.000000
    -8.268764    4.787952    0.000000
     0.000000    0.000000   30.000000
   V    Mo   W    S 
   3   3   3  18
Direct configuration=    14
   0.33105899  0.67010629  0.00070414
  -0.00587105  0.65468826  0.00016271
   0.66608802  0.01339075 -0.00009372
   0.99025375  0.32747400  0.00033167
   0.33714451  0.01805846 -0.00016383
   0.66358444  0.33080628 -0.00009232
   0.02010415  0.01838693 -0.00021636
   0.33317392  0.31765587 -0.00005396
   0.66058813  0.64936628 -0.00023501
   0.11320748  0.22509926  0.94629789
   0.22242753  0.11176051  0.05594293
   0.11289376  0.56046567  0.94961551
   0.22552681  0.44791459  0.04973345
   0.10918602  0.88423328  0.94935391
   0.22009889  0.77479977  0.04894664
   0.44599780  0.22400941  0.94448111
   0.55820965  0.10819994  0.05286454
   0.43989939  0.55513506  0.94948387
   0.55367971  0.44216176  0.05393884
   0.44653110  0.88800805  0.95044722
   0.55413278  0.78063317  0.04854090
   0.77328174  0.21555437  0.94707325
   0.88241617  0.10587596  0.05183896
   0.78422662  0.55714590  0.94755904
   0.89102147  0.44953161  0.05202284
   0.77674982  0.89118786  0.95189438
   0.89260285  0.77656516  0.04962127
unknown system                          
           1
     8.264002    4.768260    0.000000
    -8.281153    4.797936    0.000000
     0.000000    0.000000   30.000000
   V    Mo   W    S 
   3   3   3  18
Direct configuration=    15
   0.33086711  0.66948622  0.00064458
  -0.00536848  0.65552479  0.00017304
   0.66638969  0.01291214 -0.00008530
   0.99082347  0.32766329  0.00034476
   0.33696320  0.01768304 -0.00014218
   0.66335474  0.33053381 -0.00006969
   0.01930459  0.01759944 -0.00021212
   0.33282124  0.31786260 -0.00002991
   0.66128449  0.65061192 -0.00018244
   0.11302829  0.22484637  0.94630463
   0.22230720  0.11167103  0.05582603
   0.11293658  0.56050990  0.94958897
   0.22552880  0.44801635  0.04987495
   0.10912322  0.88416119  0.94927162
   0.22019322  0.77470424  0.04899153
   0.44584672  0.22396588  0.94453600
   0.55821323  0.10812748  0.05281327
   0.44001808  0.55529835  0.94948085
   0.55377050  0.44235513  0.05381317
   0.44653467  0.88789373  0.95045454
   0.55397663  0.78062555  0.04862417
   0.77331484  0.21553814  0.94712318
   0.88240237  0.10593065  0.05185452
   0.78421064  0.55722024  0.94763776
   0.89105877  0.44964988  0.05194937
   0.77664600  0.89132925  0.95164095
   0.89266462  0.77649385  0.04977364
unknown system                          
           1
     8.262020    4.768000    0.000000
    -8.280869    4.800625    0.000000
     0.000000    0.000000   30.000000
   V    Mo   W    S 
   3   3   3  18
Direct configuration=    16
   0.33101776  0.67027466  0.00074564
  -0.00657510  0.65346665  0.00013044
   0.66587718  0.01424101 -0.00013244
   0.98973765  0.32722726  0.00026725
   0.33757716  0.01893605 -0.00024760
   0.66363216  0.33100540 -0.00019670
   0.02112582  0.01955114 -0.00025893
   0.33355396  0.31741687 -0.00017838
   0.65975859  0.64773034 -0.00033341
   0.11344226  0.22539630  0.94625856
   0.22256466  0.11191539  0.05620337
   0.11280689  0.56036284  0.94962106
   0.22548930  0.44768468  0.04963991
   0.10933024  0.88441351  0.94949151
   0.22004509  0.77502061  0.04886220
   0.44618444  0.22413418  0.94438987
   0.55818781  0.10831153  0.05300156
   0.43979042  0.55489273  0.94948049
   0.55352097  0.44188026  0.05414197
   0.44648579  0.88821614  0.95051579
   0.55435961  0.78068832  0.04841681
   0.77321625  0.21559118  0.94700389
   0.88242352  0.10580064  0.05188615
   0.78424691  0.55699615  0.94747613
   0.89087555  0.44928134  0.05213367
   0.77691739  0.89105806  0.95223702
   0.89262218  0.77672121  0.04944407
unknown system                          
           1
     8.262164    4.768915    0.000000
    -8.283271    4.805457    0.000000
     0.000000    0.000000   30.000000
   V    Mo   W    S 
   3   3   3  18
Direct configuration=    17
   0.33122699  0.67119550  0.00088980
  -0.00740739  0.65195214  0.00014385
   0.66533934  0.01514282 -0.00010599
   0.98880676  0.32696317  0.00029054
   0.33800252  0.01964802 -0.00020132
   0.66397488  0.33134339 -0.00016237
   0.02244535  0.02091417 -0.00019240
   0.33415463  0.31707963 -0.00013013
   0.65860572  0.64565056 -0.00037314
   0.11372907  0.22582967  0.94623763
   0.22278226  0.11210228  0.05628194
   0.11274429  0.56027248  0.94965952
   0.22546466  0.44750443  0.04936731
   0.10943007  0.88454035  0.94966205
   0.21988243  0.77517049  0.04874027
   0.44646183  0.22424138  0.94426374
   0.55818247  0.10844322  0.05305443
   0.43960270  0.55465126  0.94947138
   0.55339235  0.44156852  0.05427515
   0.44650418  0.88840366  0.95051126
   0.55462784  0.78068409  0.04823150
   0.77319075  0.21562277  0.94689970
   0.88246479  0.10576237  0.05182418
   0.78425873  0.55685666  0.94733680
   0.89080551  0.44905257  0.05220534
   0.77703979  0.89080929  0.95267924
   0.89250194  0.77680955  0.04913963
unknown system                          
           1
     8.267470    4.772737    0.000000
    -8.290348    4.812353    0.000000
     0.000000    0.000000   30.000000
   V    Mo   W    S 
   3   3   3  18
Direct configuration=    18
   0.33144433  0.67224112  0.00105946
  -0.00844749  0.65006292  0.00014448
   0.66465689  0.01625890 -0.00008154
   0.98768295  0.32665786  0.00030097
   0.33862486  0.02056592 -0.00016286
   0.66433474  0.33169912 -0.00014163
   0.02397006  0.02254869 -0.00012224
   0.33493172  0.31672828 -0.00009859
   0.65724916  0.64316621 -0.00044112
   0.11409800  0.22637342  0.94621260
   0.22306266  0.11234488  0.05640598
   0.11267369  0.56015516  0.94969830
   0.22543442  0.44727449  0.04904376
   0.10955602  0.88469993  0.94988915
   0.21966757  0.77536535  0.04859382
   0.44682038  0.22439788  0.94410825
   0.55818614  0.10861444  0.05314642
   0.43936430  0.55434478  0.94945706
   0.55322743  0.44115207  0.05445793
   0.44653875  0.88865110  0.95051422
   0.55497564  0.78069529  0.04799959
   0.77315254  0.21566433  0.94676761
   0.88249870  0.10571554  0.05176513
   0.78427067  0.55665870  0.94716642
   0.89069230  0.44874703  0.05231150
   0.77717435  0.89050410  0.95323977
   0.89237365  0.77692697  0.04876546
unknown system                          
           1
     8.269588    4.776607    0.000000
    -8.297538    4.825031    0.000000
     0.000000    0.000000   30.000000
   V    Mo   W    S 
   3   3   3  18
Direct configuration=    19
   0.33171762  0.67326640  0.00116996
  -0.00924433  0.64864271  0.00009990
   0.66403828  0.01699881 -0.00009090
   0.98671008  0.32642769  0.00026722
   0.33916430  0.02112392 -0.00019391
   0.66464660  0.33193895 -0.00017814
   0.02494526  0.02365089 -0.00011874
   0.33563566  0.31655512 -0.00013999
   0.65629671  0.64143841 -0.00054960
   0.11440546  0.22680678  0.94622560
   0.22331087  0.11250983  0.05656151
   0.11264618  0.56007992  0.94973108
   0.22543098  0.44714311  0.04878834
   0.10963840  0.88478925  0.95007579
   0.21943661  0.77549737  0.04853096
   0.44710818  0.22450432  0.94402553
   0.55820294  0.10873744  0.05327035
   0.43914748  0.55410800  0.94945654
   0.55311020  0.44078916  0.05465381
   0.44660023  0.88883370  0.95048902
   0.55526129  0.78073012  0.04784780
   0.77312507  0.21568916  0.94666829
   0.88247685  0.10566802  0.05174421
   0.78427907  0.55648523  0.94704215
   0.89061512  0.44853182  0.05244835
   0.77723387  0.89026231  0.95367942
   0.89227549  0.77700603  0.04849533
unknown system                          
           1
     8.284200    4.786956    0.000000
    -8.312509    4.836020    0.000000
     0.000000    0.000000   30.000000
   V    Mo   W    S 
   3   3   3  18
Direct configuration=    20
   0.33256773  0.67686549  0.00160372
  -0.01201947  0.64369168 -0.00003261
   0.66183566  0.01906276 -0.00006597
   0.98346844  0.32595001  0.00022884
   0.34092998  0.02298564 -0.00017506
   0.66564065  0.33280789 -0.00017136
   0.02812069  0.02718464  0.00002461
   0.33808677  0.31584990 -0.00011347
   0.65352432  0.63607464 -0.00083712
   0.11543303  0.22827142  0.94630599
   0.22419483  0.11311110  0.05687012
   0.11253984  0.55980791  0.94986800
   0.22540764  0.44671348  0.04779823
   0.10985931  0.88498953  0.95076567
   0.21853237  0.77589485  0.04827820
   0.44813442  0.22487138  0.94373226
   0.55818703  0.10923025  0.05363253
   0.43840982  0.55332081  0.94948209
   0.55277909  0.43959083  0.05513427
   0.44679369  0.88944412  0.95036428
   0.55620284  0.78076046  0.04729516
   0.77309770  0.21587254  0.94630823
   0.88249721  0.10563874  0.05159583
   0.78431376  0.55583063  0.94664764
   0.89034358  0.44782423  0.05280675
   0.77737829  0.88937515  0.95515654
   0.89195525  0.77719436  0.04749652
unknown system                          
           1
     8.290846    4.796733    0.000000
    -8.319611    4.846650    0.000000
     0.000000    0.000000   30.000000
   V    Mo   W    S 
   3   3   3  18
Direct configuration=    21
   0.33350978  0.67964075  0.00184638
  -0.01353176  0.64120331 -0.00018930
   0.66046491  0.01983296 -0.00006615
   0.98129384  0.32549069  0.00016083
   0.34233698  0.02369039 -0.00014495
   0.66586177  0.33269684 -0.00014948
   0.02918407  0.02859773  0.00011863
   0.33975677  0.31583841 -0.00008625
   0.65253173  0.63403832 -0.00101060
   0.11607333  0.22918574  0.94641346
   0.22482428  0.11344012  0.05705671
   0.11263177  0.55963661  0.94992435
   0.22548647  0.44665072  0.04710143
   0.10981451  0.88480733  0.95118631
   0.21775959  0.77611207  0.04824666
   0.44887440  0.22505713  0.94354952
   0.55819654  0.10953254  0.05386431
   0.43788573  0.55284867  0.94952109
   0.55272471  0.43893053  0.05538546
   0.44699848  0.88980604  0.95021083
   0.55677831  0.78086871  0.04702612
   0.77296268  0.21583943  0.94610591
   0.88233394  0.10570351  0.05151714
   0.78429921  0.55530754  0.94638493
   0.89003590  0.44734502  0.05312021
   0.77726688  0.88891765  0.95595815
   0.89185967  0.77719568  0.04694819
unknown system                          
           1
     8.302069    4.805448    0.000000
    -8.325618    4.846372    0.000000
     0.000000    0.000000   30.000000
   V    Mo   W    S 
   3   3   3  18
Direct configuration=    22
   0.33574990  0.68628945  0.00243295
  -0.01707929  0.63523375 -0.00054177
   0.65745229  0.02150617 -0.00004721
   0.97630347  0.32443825  0.00006404
   0.34526153  0.02542409 -0.00005425
   0.66646975  0.33272347 -0.00009570
   0.03216976  0.03223290  0.00035182
   0.34348596  0.31544350  0.00001392
   0.65011168  0.62896724 -0.00140318
   0.11749194  0.23110730  0.94677624
   0.22619169  0.11419814  0.05729365
   0.11276003  0.55920776  0.95016569
   0.22561323  0.44651094  0.04536014
   0.10975778  0.88452499  0.95227500
   0.21604689  0.77660504  0.04808360
   0.45041563  0.22539233  0.94323003
   0.55815161  0.11020383  0.05436407
   0.43688764  0.55186832  0.94970525
   0.55269282  0.43758069  0.05583192
   0.44743187  0.89068762  0.94986875
   0.55805127  0.78106476  0.04637830
   0.77260432  0.21576073  0.94565686
   0.88202398  0.10587737  0.05127630
   0.78409377  0.55402401  0.94589916
   0.88932877  0.44622099  0.05366529
   0.77711729  0.88795869  0.95781095
   0.89162887  0.77716213  0.04563807
unknown system                          
           1
     8.301641    4.807472    0.000000
    -8.323626    4.845715    0.000000
     0.000000    0.000000   30.000000
   V    Mo   W    S 
   3   3   3  18
Direct configuration=    23
   0.33644075  0.68746098  0.00243014
  -0.01717315  0.63531500 -0.00063989
   0.65762467  0.02091238 -0.00005685
   0.97621975  0.32414865  0.00003378
   0.34528058  0.02502534 -0.00000779
   0.66610606  0.33230697 -0.00008210
   0.03177230  0.03182438  0.00041201
   0.34357162  0.31577360  0.00005607
   0.65087904  0.62983088 -0.00137354
   0.11759876  0.23123256  0.94687903
   0.22637301  0.11423495  0.05725542
   0.11290846  0.55912157  0.95024078
   0.22565131  0.44684498  0.04502736
   0.10948729  0.88412328  0.95243367
   0.21567882  0.77670978  0.04817375
   0.45051574  0.22519809  0.94322106
   0.55805263  0.11024290  0.05444945
   0.43687332  0.55195682  0.94975457
   0.55295734  0.43771232  0.05578481
   0.44743542  0.89077679  0.94973164
   0.55811658  0.78113100  0.04644188
   0.77229787  0.21552077  0.94557898
   0.88180665  0.10592419  0.05130405
   0.78391715  0.55372351  0.94586712
   0.88905376  0.44606580  0.05370119
   0.77701552  0.88814465  0.95778025
   0.89175320  0.77695233  0.04560304
unknown system                          
           1
     8.308051    4.812965    0.000000
    -8.328449    4.848481    0.000000
     0.000000    0.000000   30.000000
   V    Mo   W    S 
   3   3   3  18
Direct configuration=    24
   0.33742664  0.68965760  0.00250625
  -0.01783260  0.63424377 -0.00076048
   0.65724037  0.02089697 -0.00003744
   0.97505892  0.32359324 -0.00001660
   0.34583810  0.02509425  0.00005317
   0.66595051  0.33206332 -0.00007493
   0.03211572  0.03235157  0.00050895
   0.34434156  0.31578112  0.00005154
   0.65081313  0.62932892 -0.00145381
   0.11786759  0.23150988  0.94703255
   0.22665292  0.11439414  0.05724850
   0.11302417  0.55900030  0.95036493
   0.22572156  0.44716065  0.04449133
   0.10925406  0.88377956  0.95273411
   0.21518288  0.77681487  0.04818583
   0.45068298  0.22508275  0.94323047
   0.55797629  0.11027917  0.05452404
   0.43691024  0.55203195  0.94988322
   0.55316796  0.43767620  0.05579795
   0.44749772  0.89098820  0.94958969