   27   27  100    1
  0.9710400E+02  0.1002848E-08  0.1002848E-08  0.3000000E-08  0.5000000E-15
  1.000000000000000E-004
  CAR 
 unknown system                          
    159     34    120
 
  0.0000000E+00  0.0000000E+00  0.0000000E+00  0.1562500E-01
    1      -17.804346   1.000000
    2      -16.729029   1.000000
    3      -16.678747   1.000000
    4      -16.578661   1.000000
    5      -16.536893   1.000000
    6      -16.460785   1.000000
    7      -16.428476   1.000000
    8      -16.313945   1.000000
    9      -16.157233   1.000000
   10      -16.098082   1.000000
   11      -16.075109   1.000000
   12      -15.951063   1.000000
   13      -15.916647   1.000000
   14      -15.676213   1.000000
   15      -15.591605   1.000000
   16      -15.532330   1.000000
   17      -15.322845   1.000000
   18      -15.254209   1.000000
   19       -9.285940   1.000000
   20       -9.002178   1.000000
   21       -8.926342   1.000000
   22       -8.822787   1.000000
   23       -8.768925   1.000000
   24       -8.707304   1.000000
   25       -8.654537   1.000000
   26       -8.604652   1.000000
   27       -8.556940   1.000000
   28       -8.424129   1.000000
   29       -8.403627   1.000000
   30       -8.352904   1.000000
   31       -8.287994   1.000000
   32       -8.197707   1.000000
   33       -8.122185   1.000000
   34       -8.032183   1.000000
   35       -7.873688   1.000000
   36       -7.769156   1.000000
   37       -7.691863   1.000000
   38       -7.518536   1.000000
   39       -7.501211   1.000000
   40       -7.431095   1.000000
   41       -7.312884   1.000000
   42       -7.209776   1.000000
   43       -7.134849   1.000000
   44       -6.897717   1.000000
   45       -6.812690   1.000000
   46       -6.806855   1.000000
   47       -6.683460   1.000000
   48       -6.639749   1.000000
   49       -6.541291   1.000000
   50       -6.535502   1.000000
   51       -6.483255   1.000000
   52       -6.427217   1.000000
   53       -6.322695   1.000000
   54       -6.222983   1.000000
   55       -6.175666   1.000000
   56       -6.066791   1.000000
   57       -6.037466   1.000000
   58       -5.863494   1.000000
   59       -5.822817   1.000000
   60       -5.572067   1.000000
   61       -5.505363   1.000000
   62       -5.458813   1.000000
   63       -5.254297   1.000000
   64       -5.115382   1.000000
   65       -5.057237   1.000000
   66       -4.996214   1.000000
   67       -4.958375   1.000000
   68       -4.825574   1.000000
   69       -4.789566   1.000000
   70       -4.689562   1.000000
   71       -4.588544   1.000000
   72       -4.568716   1.000000
   73       -4.538147   1.000000
   74       -4.370057   1.000000
   75       -4.155168   1.000000
   76       -4.019211   0.999999
   77       -3.759804   0.998856
   78       -3.628706   0.983122
   79       -3.536552   0.929401
   80       -3.360106   0.588498
   81       -3.266586   0.330838
   82       -2.847074   0.000332
   83       -2.758937   0.000028
   84       -2.544383   0.000000
   85       -2.479058   0.000000
   86       -2.358665   0.000000
   87       -2.312849   0.000000
   88       -2.199837   0.000000
   89       -2.138356   0.000000
   90       -2.030440   0.000000
   91       -1.774390   0.000000
   92       -1.524471   0.000000
   93       -1.495900   0.000000
   94       -1.367860   0.000000
   95       -1.260555   0.000000
   96       -1.012124   0.000000
   97       -0.968803   0.000000
   98       -0.843945   0.000000
   99       -0.824192   0.000000
  100       -0.636099   0.000000
  101       -0.511771   0.000000
  102       -0.466402   0.000000
  103       -0.463399   0.000000
  104       -0.309991   0.000000
  105       -0.281775   0.000000
  106       -0.160655   0.000000
  107       -0.077633   0.000000
  108       -0.043952   0.000000
  109        0.076907   0.000000
  110        0.184172   0.000000
  111        0.378791   0.000000
  112        0.490388   0.000000
  113        0.681551   0.000000
  114        0.821191   0.000000
  115        0.837192   0.000000
  116        1.093583   0.000000
  117        1.301794   0.000000
  118        1.645097   0.000000
  119        1.836072   0.000000
  120        2.151066   0.000000
 
  0.1250000E+00  0.2775558E-16  0.0000000E+00  0.3125000E-01
    1      -17.779483   1.000000
    2      -16.798602   1.000000
    3      -16.710775   1.000000
    4      -16.636083   1.000000
    5      -16.555539   1.000000
    6      -16.430082   1.000000
    7      -16.371482   1.000000
    8      -16.301819   1.000000
    9      -16.149248   1.000000
   10      -16.091292   1.000000
   11      -16.044447   1.000000
   12      -15.935818   1.000000
   13      -15.880559   1.000000
   14      -15.683624   1.000000
   15      -15.598226   1.000000
   16      -15.544077   1.000000
   17      -15.327326   1.000000
   18      -15.256864   1.000000
   19       -9.285173   1.000000
   20       -9.168170   1.000000
   21       -9.019171   1.000000
   22       -8.912588   1.000000
   23       -8.810500   1.000000
   24       -8.746331   1.000000
   25       -8.676281   1.000000
   26       -8.570844   1.000000
   27       -8.458288   1.000000
   28       -8.394163   1.000000
   29       -8.371652   1.000000
   30       -8.300863   1.000000
   31       -8.191351   1.000000
   32       -8.128874   1.000000
   33       -8.105679   1.000000
   34       -7.953781   1.000000
   35       -7.831900   1.000000
   36       -7.712964   1.000000
   37       -7.636441   1.000000
   38       -7.578581   1.000000
   39       -7.516907   1.000000
   40       -7.449320   1.000000
   41       -7.290715   1.000000
   42       -7.235459   1.000000
   43       -7.124821   1.000000
   44       -6.951724   1.000000
   45       -6.863632   1.000000
   46       -6.761502   1.000000
   47       -6.676407   1.000000
   48       -6.612791   1.000000
   49       -6.565738   1.000000
   50       -6.527985   1.000000
   51       -6.454664   1.000000
   52       -6.413557   1.000000
   53       -6.324703   1.000000
   54       -6.254199   1.000000
   55       -6.192830   1.000000
   56       -6.083001   1.000000
   57       -5.976684   1.000000
   58       -5.878668   1.000000
   59       -5.785408   1.000000
   60       -5.576818   1.000000
   61       -5.538491   1.000000
   62       -5.461444   1.000000
   63       -5.368648   1.000000
   64       -5.273370   1.000000
   65       -5.036893   1.000000
   66       -4.971976   1.000000
   67       -4.936057   1.000000
   68       -4.885857   1.000000
   69       -4.719891   1.000000
   70       -4.646335   1.000000
   71       -4.609662   1.000000
   72       -4.546265   1.000000
   73       -4.460871   1.000000
   74       -4.324382   1.000000
   75       -4.128105   1.000000
   76       -4.079196   1.000000
   77       -3.798436   0.999555
   78       -3.693855   0.995112
   79       -3.589981   0.967782
   80       -3.315645   0.463866
   81       -3.234563   0.253332
   82       -2.812841   0.000133
   83       -2.724573   0.000010
   84       -2.538100   0.000000
   85       -2.470756   0.000000
   86       -2.349524   0.000000
   87       -2.293110   0.000000
   88       -2.165292   0.000000
   89       -2.142748   0.000000
   90       -2.006507   0.000000
   91       -1.783581   0.000000
   92       -1.546993   0.000000
   93       -1.476967   0.000000
   94       -1.364249   0.000000
   95       -1.255134   0.000000
   96       -1.026246   0.000000
   97       -0.964381   0.000000
   98       -0.881203   0.000000
   99       -0.844985   0.000000
  100       -0.692541   0.000000
  101       -0.590014   0.000000
  102       -0.509699   0.000000
  103       -0.459402   0.000000
  104       -0.442608   0.000000
  105       -0.333513   0.000000
  106       -0.188970   0.000000
  107       -0.116191   0.000000
  108        0.046968   0.000000
  109        0.099308   0.000000
  110        0.191441   0.000000
  111        0.358520   0.000000
  112        0.568201   0.000000
  113        0.665587   0.000000
  114        0.826603   0.000000
  115        0.897468   0.000000
  116        1.111555   0.000000
  117        1.262429   0.000000
  118        1.686906   0.000000
  119        1.877245   0.000000
  120        2.185793   0.000000
 
  0.2500000E+00  0.5551115E-16  0.0000000E+00  0.3125000E-01
    1      -17.706127   1.000000
    2      -16.997349   1.000000
    3      -16.735611   1.000000
    4      -16.679888   1.000000
    5      -16.588991   1.000000
    6      -16.415076   1.000000
    7      -16.309532   1.000000
    8      -16.243693   1.000000
    9      -16.143646   1.000000
   10      -16.084232   1.000000
   11      -15.979776   1.000000
   12      -15.906834   1.000000
   13      -15.787505   1.000000
   14      -15.705993   1.000000
   15      -15.619546   1.000000
   16      -15.559413   1.000000
   17      -15.341420   1.000000
   18      -15.264267   1.000000
   19       -9.494037   1.000000
   20       -9.256917   1.000000
   21       -9.130081   1.000000
   22       -9.000301   1.000000
   23       -8.913164   1.000000
   24       -8.805660   1.000000
   25       -8.634928   1.000000
   26       -8.518461   1.000000
   27       -8.440721   1.000000
   28       -8.359432   1.000000
   29       -8.312661   1.000000
   30       -8.215277   1.000000
   31       -8.136010   1.000000
   32       -8.072864   1.000000
   33       -7.968509   1.000000
   34       -7.833802   1.000000
   35       -7.757173   1.000000
   36       -7.670116   1.000000
   37       -7.595317   1.000000
   38       -7.514438   1.000000
   39       -7.498869   1.000000
   40       -7.375353   1.000000
   41       -7.342973   1.000000
   42       -7.201950   1.000000
   43       -7.113291   1.000000
   44       -7.009839   1.000000
   45       -6.847332   1.000000
   46       -6.770933   1.000000
   47       -6.656416   1.000000
   48       -6.635224   1.000000
   49       -6.583116   1.000000
   50       -6.546219   1.000000
   51       -6.405277   1.000000
   52       -6.373896   1.000000
   53       -6.351298   1.000000
   54       -6.227156   1.000000
   55       -6.133469   1.000000
   56       -6.084668   1.000000
   57       -5.956452   1.000000
   58       -5.890338   1.000000
   59       -5.750829   1.000000
   60       -5.687086   1.000000
   61       -5.660322   1.000000
   62       -5.569791   1.000000
   63       -5.495699   1.000000
   64       -5.415289   1.000000
   65       -5.190194   1.000000
   66       -4.922138   1.000000
   67       -4.865158   1.000000
   68       -4.806092   1.000000
   69       -4.677801   1.000000
   70       -4.640221   1.000000
   71       -4.577483   1.000000
   72       -4.490481   1.000000
   73       -4.383443   1.000000
   74       -4.284927   1.000000
   75       -4.216878   1.000000
   76       -4.063492   1.000000
   77       -3.875497   0.999945
   78       -3.801004   0.999583
   79       -3.604370   0.974465
   80       -3.306887   0.439343
   81       -3.162872   0.120805
   82       -2.754449   0.000025
   83       -2.635287   0.000000
   84       -2.509610   0.000000
   85       -2.456123   0.000000
   86       -2.336842   0.000000
   87       -2.238362   0.000000
   88       -2.146719   0.000000
   89       -2.069794   0.000000
   90       -1.944339   0.000000
   91       -1.790539   0.000000
   92       -1.577725   0.000000
   93       -1.464987   0.000000
   94       -1.364704   0.000000
   95       -1.256388   0.000000
   96       -1.104052   0.000000
   97       -0.984032   0.000000
   98       -0.945311   0.000000
   99       -0.910284   0.000000
  100       -0.811698   0.000000
  101       -0.681587   0.000000
  102       -0.600381   0.000000
  103       -0.557542   0.000000
  104       -0.509545   0.000000
  105       -0.476842   0.000000
  106       -0.248309   0.000000
  107       -0.200736   0.000000
  108        0.061717   0.000000
  109        0.130553   0.000000
  110        0.233873   0.000000
  111        0.379880   0.000000
  112        0.541407   0.000000
  113        0.719350   0.000000
  114        0.880060   0.000000
  115        0.997757   0.000000
  116        1.145050   0.000000
  117        1.243895   0.000000
  118        1.805650   0.000000
  119        1.993211   0.000000
  120        2.288818   0.000000
 
  0.3750000E+00  0.0000000E+00  0.0000000E+00  0.3125000E-01
    1      -17.589483   1.000000
    2      -17.208070   1.000000
    3      -16.766773   1.000000
    4      -16.698760   1.000000
    5      -16.601282   1.000000
    6      -16.425791   1.000000
    7      -16.283685   1.000000
    8      -16.192431   1.000000
    9      -16.112236   1.000000
   10      -16.060320   1.000000
   11      -15.930167   1.000000
   12      -15.874767   1.000000
   13      -15.788443   1.000000
   14      -15.700530   1.000000
   15      -15.626061   1.000000
   16      -15.546567   1.000000
   17      -15.363349   1.000000
   18      -15.273183   1.000000
   19       -9.701564   1.000000
   20       -9.326432   1.000000
   21       -9.192650   1.000000
   22       -9.043526   1.000000
   23       -8.930920   1.000000
   24       -8.845930   1.000000
   25       -8.538435   1.000000
   26       -8.488384   1.000000
   27       -8.424024   1.000000
   28       -8.374073   1.000000
   29       -8.280367   1.000000
   30       -8.206967   1.000000
   31       -8.137779   1.000000
   32       -8.024596   1.000000
   33       -7.981598   1.000000
   34       -7.770171   1.000000
   35       -7.755013   1.000000
   36       -7.684309   1.000000
   37       -7.559242   1.000000
   38       -7.459371   1.000000
   39       -7.381170   1.000000
   40       -7.269027   1.000000
   41       -7.238347   1.000000
   42       -7.169450   1.000000
   43       -7.072368   1.000000
   44       -6.963833   1.000000
   45       -6.843410   1.000000
   46       -6.786930   1.000000
   47       -6.670716   1.000000
   48       -6.636412   1.000000
   49       -6.587279   1.000000
   50       -6.474292   1.000000
   51       -6.399883   1.000000
   52       -6.349049   1.000000
   53       -6.312003   1.000000
   54       -6.155449   1.000000
   55       -6.122847   1.000000
   56       -6.072821   1.000000
   57       -5.990378   1.000000
   58       -5.928970   1.000000
   59       -5.889196   1.000000
   60       -5.828289   1.000000
   61       -5.738577   1.000000
   62       -5.639076   1.000000
   63       -5.604675   1.000000
   64       -5.484019   1.000000
   65       -5.207352   1.000000
   66       -4.904217   1.000000
   67       -4.852279   1.000000
   68       -4.777887   1.000000
   69       -4.747067   1.000000
   70       -4.649597   1.000000
   71       -4.589691   1.000000
   72       -4.467493   1.000000
   73       -4.360584   1.000000
   74       -4.277773   1.000000
   75       -4.147400   1.000000
   76       -4.075071   1.000000
   77       -3.930160   0.999990
   78       -3.792849   0.999488
   79       -3.598703   0.971986
   80       -3.316358   0.465869
   81       -3.119215   0.069481
   82       -2.718822   0.000008
   83       -2.563215   0.000000
   84       -2.467098   0.000000
   85       -2.423067   0.000000
   86       -2.324388   0.000000
   87       -2.197613   0.000000
   88       -2.117128   0.000000
   89       -1.957286   0.000000
   90       -1.884907   0.000000
   91       -1.769798   0.000000
   92       -1.598618   0.000000
   93       -1.486954   0.000000
   94       -1.384818   0.000000
   95       -1.300702   0.000000
   96       -1.209667   0.000000
   97       -1.044702   0.000000
   98       -1.031756   0.000000
   99       -0.922908   0.000000
  100       -0.877378   0.000000
  101       -0.753927   0.000000
  102       -0.691756   0.000000
  103       -0.652408   0.000000
  104       -0.585960   0.000000
  105       -0.509275   0.000000
  106       -0.330693   0.000000
  107       -0.247826   0.000000
  108        0.016670   0.000000
  109        0.140482   0.000000
  110        0.232879   0.000000
  111        0.372475   0.000000
  112        0.509603   0.000000
  113        0.780057   0.000000
  114        0.905016   0.000000
  115        1.074131   0.000000
  116        1.176963   0.000000
  117        1.317500   0.000000
  118        1.984916   0.000000
  119        2.168841   0.000000
  120        2.446029   0.000000
 
  0.5000000E+00  0.1110223E-15  0.0000000E+00  0.1562500E-01
    1      -17.478278   1.000000
    2      -17.352688   1.000000
    3      -16.779349   1.000000
    4      -16.705925   1.000000
    5      -16.601498   1.000000
    6      -16.433256   1.000000
    7      -16.278033   1.000000
    8      -16.184536   1.000000
    9      -16.072703   1.000000
   10      -16.055861   1.000000
   11      -15.893321   1.000000
   12      -15.864486   1.000000
   13      -15.821191   1.000000
   14      -15.722191   1.000000
   15      -15.605076   1.000000
   16      -15.527153   1.000000
   17      -15.377624   1.000000
   18      -15.277393   1.000000
   19       -9.776096   1.000000
   20       -9.361025   1.000000
   21       -9.219092   1.000000
   22       -9.065715   1.000000
   23       -8.890211   1.000000
   24       -8.861426   1.000000
   25       -8.503975   1.000000
   26       -8.475600   1.000000
   27       -8.447047   1.000000
   28       -8.382484   1.000000
   29       -8.274576   1.000000
   30       -8.175529   1.000000
   31       -8.094687   1.000000
   32       -8.026085   1.000000
   33       -8.017621   1.000000
   34       -7.821394   1.000000
   35       -7.805149   1.000000
   36       -7.693081   1.000000
   37       -7.476723   1.000000
   38       -7.429313   1.000000
   39       -7.345337   1.000000
   40       -7.233442   1.000000
   41       -7.201449   1.000000
   42       -7.067317   1.000000
   43       -7.040929   1.000000
   44       -6.983523   1.000000
   45       -6.882681   1.000000
   46       -6.693273   1.000000
   47       -6.686168   1.000000
   48       -6.604261   1.000000
   49       -6.572223   1.000000
   50       -6.461592   1.000000
   51       -6.408875   1.000000
   52       -6.323201   1.000000
   53       -6.283413   1.000000
   54       -6.234346   1.000000
   55       -6.163406   1.000000
   56       -6.107294   1.000000
   57       -6.034477   1.000000
   58       -5.924778   1.000000
   59       -5.896303   1.000000
   60       -5.833631   1.000000
   61       -5.714025   1.000000
   62       -5.646951   1.000000
   63       -5.606302   1.000000
   64       -5.548612   1.000000
   65       -5.180759   1.000000
   66       -5.136725   1.000000
   67       -4.845393   1.000000
   68       -4.761676   1.000000
   69       -4.726321   1.000000
   70       -4.637697   1.000000
   71       -4.572600   1.000000
   72       -4.458314   1.000000
   73       -4.331286   1.000000
   74       -4.261842   1.000000
   75       -4.166451   1.000000
   76       -4.086955   1.000000
   77       -3.905337   0.999977
   78       -3.781801   0.999326
   79       -3.589426   0.967497
   80       -3.326130   0.493393
   81       -3.105712   0.057611
   82       -2.709298   0.000006
   83       -2.540901   0.000000
   84       -2.451733   0.000000
   85       -2.398791   0.000000
   86       -2.313170   0.000000
   87       -2.190226   0.000000
   88       -2.089471   0.000000
   89       -1.895674   0.000000
   90       -1.868817   0.000000
   91       -1.753981   0.000000
   92       -1.595529   0.000000
   93       -1.522424   0.000000
   94       -1.403155   0.000000
   95       -1.330767   0.000000
   96       -1.243003   0.000000
   97       -1.085863   0.000000
   98       -1.062240   0.000000
   99       -0.933983   0.000000
  100       -0.895132   0.000000
  101       -0.784323   0.000000
  102       -0.718593   0.000000
  103       -0.698689   0.000000
  104       -0.596039   0.000000
  105       -0.515906   0.000000
  106       -0.364254   0.000000
  107       -0.274403   0.000000
  108       -0.003703   0.000000
  109        0.144835   0.000000
  110        0.226748   0.000000
  111        0.347353   0.000000
  112        0.508260   0.000000
  113        0.803552   0.000000
  114        0.906485   0.000000
  115        1.098735   0.000000
  116        1.203647   0.000000
  117        1.354750   0.000000
  118        2.186346   0.000000
  119        2.238252   0.000000
  120        2.375967   0.000000
 
  0.0000000E+00  0.1250000E+00  0.0000000E+00  0.3125000E-01
    1      -17.779525   1.000000
    2      -16.782723   1.000000
    3      -16.725284   1.000000
    4      -16.624856   1.000000
    5      -16.544210   1.000000
    6      -16.471891   1.000000
    7      -16.387630   1.000000
    8      -16.268281   1.000000
    9      -16.183534   1.000000
   10      -16.070045   1.000000
   11      -16.012662   1.000000
   12      -15.944110   1.000000
   13      -15.894736   1.000000
   14      -15.676836   1.000000
   15      -15.607567   1.000000
   16      -15.528401   1.000000
   17      -15.334213   1.000000
   18      -15.258359   1.000000
   19       -9.279077   1.000000
   20       -9.156131   1.000000
   21       -9.025640   1.000000
   22       -8.944385   1.000000
   23       -8.803295   1.000000
   24       -8.722454   1.000000
   25       -8.648209   1.000000
   26       -8.579066   1.000000
   27       -8.518421   1.000000
   28       -8.408987   1.000000
   29       -8.372919   1.000000
   30       -8.329924   1.000000
   31       -8.228079   1.000000
   32       -8.107096   1.000000
   33       -8.007926   1.000000
   34       -7.941088   1.000000
   35       -7.826049   1.000000
   36       -7.756545   1.000000
   37       -7.618639   1.000000
   38       -7.589862   1.000000
   39       -7.494686   1.000000
   40       -7.432340   1.000000
   41       -7.270496   1.000000
   42       -7.217975   1.000000
   43       -7.151587   1.000000
   44       -6.956871   1.000000
   45       -6.885479   1.000000
   46       -6.781918   1.000000
   47       -6.691203   1.000000
   48       -6.632395   1.000000
   49       -6.583760   1.000000
   50       -6.533067   1.000000
   51       -6.465110   1.000000
   52       -6.395114   1.000000
   53       -6.282606   1.000000
   54       -6.235525   1.000000
   55       -6.195201   1.000000
   56       -6.092934   1.000000
   57       -5.987410   1.000000
   58       -5.859457   1.000000
   59       -5.774133   1.000000
   60       -5.557609   1.000000
   61       -5.533717   1.000000
   62       -5.465239   1.000000
   63       -5.320419   1.000000
   64       -5.195963   1.000000
   65       -5.144403   1.000000
   66       -5.064681   1.000000
   67       -4.927430   1.000000
   68       -4.869856   1.000000
   69       -4.791959   1.000000
   70       -4.672546   1.000000
   71       -4.607199   1.000000
   72       -4.519471   1.000000
   73       -4.413023   1.000000
   74       -4.299268   1.000000
   75       -4.132135   1.000000
   76       -4.005713   0.999999
   77       -3.784686   0.999372
   78       -3.742349   0.998286
   79       -3.522260   0.914701
   80       -3.457213   0.818677
   81       -3.124905   0.075013
   82       -2.847095   0.000332
   83       -2.737255   0.000015
   84       -2.569863   0.000000
   85       -2.448709   0.000000
   86       -2.377003   0.000000
   87       -2.292802   0.000000
   88       -2.166396   0.000000
   89       -2.137307   0.000000
   90       -2.002833   0.000000
   91       -1.790946   0.000000
   92       -1.519718   0.000000
   93       -1.494761   0.000000
   94       -1.362843   0.000000
   95       -1.261686   0.000000
   96       -1.014934   0.000000
   97       -0.967530   0.000000
   98       -0.879636   0.000000
   99       -0.826340   0.000000
  100       -0.717651   0.000000
  101       -0.610215   0.000000
  102       -0.524930   0.000000
  103       -0.455618   0.000000
  104       -0.338031   0.000000
  105       -0.307162   0.000000
  106       -0.207578   0.000000
  107       -0.123932   0.000000
  108       -0.048801   0.000000
  109        0.085568   0.000000
  110        0.141942   0.000000
  111        0.418602   0.000000
  112        0.558054   0.000000
  113        0.720028   0.000000
  114        0.826839   0.000000
  115        0.888293   0.000000
  116        1.109915   0.000000
  117        1.272849   0.000000
  118        1.689888   0.000000
  119        1.874710   0.000000
  120        2.186274   0.000000
 
  0.1250000E+00  0.1250000E+00  0.0000000E+00  0.3125000E-01
    1      -17.730964   1.000000
    2      -16.879539   1.000000
    3      -16.830188   1.000000
    4      -16.674195   1.000000
    5      -16.499108   1.000000
    6      -16.420982   1.000000
    7      -16.371355   1.000000
    8      -16.273199   1.000000
    9      -16.155622   1.000000
   10      -16.043755   1.000000
   11      -16.004251   1.000000
   12      -15.871913   1.000000
   13      -15.850920   1.000000
   14      -15.701744   1.000000
   15      -15.619242   1.000000
   16      -15.549263   1.000000
   17      -15.340446   1.000000
   18      -15.259448   1.000000
   19       -9.361480   1.000000
   20       -9.326180   1.000000
   21       -9.121390   1.000000
   22       -9.056653   1.000000
   23       -8.796559   1.000000
   24       -8.740875   1.000000
   25       -8.628481   1.000000
   26       -8.556295   1.000000
   27       -8.459360   1.000000
   28       -8.360389   1.000000
   29       -8.330562   1.000000
   30       -8.248493   1.000000
   31       -8.149027   1.000000
   32       -8.098001   1.000000
   33       -7.984894   1.000000
   34       -7.896028   1.000000
   35       -7.769382   1.000000
   36       -7.709466   1.000000
   37       -7.575713   1.000000
   38       -7.533438   1.000000
   39       -7.472646   1.000000
   40       -7.362776   1.000000
   41       -7.309332   1.000000
   42       -7.223437   1.000000
   43       -7.152388   1.000000
   44       -6.966910   1.000000
   45       -6.862339   1.000000
   46       -6.775728   1.000000
   47       -6.725097   1.000000
   48       -6.639054   1.000000
   49       -6.617057   1.000000
   50       -6.485622   1.000000
   51       -6.443587   1.000000
   52       -6.380225   1.000000
   53       -6.331615   1.000000
   54       -6.268809   1.000000
   55       -6.146860   1.000000
   56       -6.093085   1.000000
   57       -5.951787   1.000000
   58       -5.855392   1.000000
   59       -5.761264   1.000000
   60       -5.681755   1.000000
   61       -5.575813   1.000000
   62       -5.495826   1.000000
   63       -5.422170   1.000000
   64       -5.328189   1.000000
   65       -5.163519   1.000000
   66       -5.076290   1.000000
   67       -4.951898   1.000000
   68       -4.853013   1.000000
   69       -4.738365   1.000000
   70       -4.614229   1.000000
   71       -4.532703   1.000000
   72       -4.481848   1.000000
   73       -4.366297   1.000000
   74       -4.237186   1.000000
   75       -4.168763   1.000000
   76       -4.074693   1.000000
   77       -3.915953   0.999984
   78       -3.755889   0.998746
   79       -3.536218   0.929082
   80       -3.366313   0.605486
   81       -3.130743   0.081032
   82       -2.791204   0.000073
   83       -2.679086   0.000002
   84       -2.562887   0.000000
   85       -2.431248   0.000000
   86       -2.386076   0.000000
   87       -2.260252   0.000000
   88       -2.148028   0.000000
   89       -2.080160   0.000000
   90       -1.960718   0.000000
   91       -1.787825   0.000000
   92       -1.549145   0.000000
   93       -1.475863   0.000000
   94       -1.378885   0.000000
   95       -1.255728   0.000000
   96       -1.061626   0.000000
   97       -0.977477   0.000000
   98       -0.939838   0.000000
   99       -0.868555   0.000000
  100       -0.813005   0.000000
  101       -0.641400   0.000000
  102       -0.615189   0.000000
  103       -0.538534   0.000000
  104       -0.439939   0.000000
  105       -0.393543   0.000000
  106       -0.242653   0.000000
  107       -0.202935   0.000000
  108        0.010770   0.000000
  109        0.090605   0.000000
  110        0.216942   0.000000
  111        0.388820   0.000000
  112        0.598325   0.000000
  113        0.736800   0.000000
  114        0.928597   0.000000
  115        0.968699   0.000000
  116        1.111703   0.000000
  117        1.200380   0.000000
  118        1.770074   0.000000
  119        1.953116   0.000000
  120        2.255210   0.000000
 
  0.2500000E+00  0.1250000E+00  0.0000000E+00  0.3125000E-01
    1      -17.636218   1.000000
    2      -17.085844   1.000000
    3      -16.898901   1.000000
    4      -16.666094   1.000000
    5      -16.509141   1.000000
    6      -16.393672   1.000000
    7      -16.307917   1.000000
    8      -16.250670   1.000000
    9      -16.140989   1.000000
   10      -16.049062   1.000000
   11      -15.968316   1.000000
   12      -15.837871   1.000000
   13      -15.769280   1.000000
   14      -15.718262   1.000000
   15      -15.629116   1.000000
   16      -15.572647   1.000000
   17      -15.350894   1.000000
   18      -15.264176   1.000000
   19       -9.600877   1.000000
   20       -9.404006   1.000000
   21       -9.219873   1.000000
   22       -9.086964   1.000000
   23       -8.829192   1.000000
   24       -8.705751   1.000000
   25       -8.564724   1.000000
   26       -8.509637   1.000000
   27       -8.420274   1.000000
   28       -8.327279   1.000000
   29       -8.286885   1.000000
   30       -8.216290   1.000000
   31       -8.164084   1.000000
   32       -8.096930   1.000000
   33       -8.007693   1.000000
   34       -7.859034   1.000000
   35       -7.763616   1.000000
   36       -7.657649   1.000000
   37       -7.538113   1.000000
   38       -7.458495   1.000000
   39       -7.389104   1.000000
   40       -7.328028   1.000000
   41       -7.231998   1.000000
   42       -7.138956   1.000000
   43       -7.104946   1.000000
   44       -6.970081   1.000000
   45       -6.847138   1.000000
   46       -6.790931   1.000000
   47       -6.731163   1.000000