       N       E                     dE             d eps       ncg     rms          rms(c)
DAV:   1     0.112384438404E+04    0.11238E+04   -0.35857E+04  8160   0.577E+02
DAV:   2    -0.274430188850E+01   -0.11266E+04   -0.10846E+04 11280   0.173E+02
DAV:   3    -0.199805065623E+03   -0.19706E+03   -0.18932E+03 10880   0.820E+01
DAV:   4    -0.209002378730E+03   -0.91973E+01   -0.89163E+01 12240   0.262E+01
DAV:   5    -0.209322014350E+03   -0.31964E+00   -0.31867E+00 11320   0.352E+00    0.275E+01
DAV:   6    -0.237932883942E+03   -0.28611E+02   -0.10687E+02 12360   0.601E+01    0.595E+01
DAV:   7    -0.196571458477E+03    0.41361E+02   -0.17573E+02 13520   0.153E+02    0.200E+01
DAV:   8    -0.189486979295E+03    0.70845E+01   -0.17858E+01 11840   0.127E+01    0.125E+01
DAV:   9    -0.188163390974E+03    0.13236E+01   -0.31170E+00 13520   0.626E+00    0.923E+00
DAV:  10    -0.186957839061E+03    0.12056E+01   -0.17346E+00 13280   0.769E+00    0.215E+00
DAV:  11    -0.187053253812E+03   -0.95415E-01   -0.58299E-01 13520   0.290E+00    0.372E+00
DAV:  12    -0.186994856633E+03    0.58397E-01   -0.75338E-01 12600   0.430E+00    0.361E+00
DAV:  13    -0.186888527279E+03    0.10633E+00   -0.30610E-01 13040   0.301E+00    0.188E+00
DAV:  14    -0.186851010116E+03    0.37517E-01   -0.10316E-01 13160   0.172E+00    0.849E-01
DAV:  15    -0.186849576948E+03    0.14332E-02   -0.28685E-02 12600   0.907E-01    0.852E-01
DAV:  16    -0.186843632207E+03    0.59447E-02   -0.12034E-02 13360   0.560E-01    0.291E-01
DAV:  17    -0.186842319673E+03    0.13125E-02   -0.46557E-03 12880   0.300E-01    0.185E-01
DAV:  18    -0.186842086218E+03    0.23345E-03   -0.18245E-03 11920   0.150E-01    0.130E-01
DAV:  19    -0.186841888118E+03    0.19810E-03   -0.82413E-04 11200   0.897E-02    0.602E-02
DAV:  20    -0.186842626355E+03   -0.73824E-03   -0.68440E-04  9040   0.762E-02    0.560E-02
DAV:  21    -0.186843405012E+03   -0.77866E-03   -0.23331E-04  8160   0.465E-02    0.338E-02
DAV:  22    -0.186844405608E+03   -0.10006E-02   -0.16994E-04  7440   0.415E-02    0.313E-02
DAV:  23    -0.186845568052E+03   -0.11624E-02   -0.10789E-04  7440   0.374E-02    0.121E-02
DAV:  24    -0.186846124503E+03   -0.55645E-03   -0.24533E-05  6800   0.142E-02    0.474E-03
DAV:  25    -0.186846517342E+03   -0.39284E-03   -0.15757E-05  5440   0.937E-03    0.312E-03
DAV:  26    -0.186846761320E+03   -0.24398E-03   -0.91805E-06  6800   0.687E-03    0.159E-03
DAV:  27    -0.186846847889E+03   -0.86569E-04   -0.32154E-06  7520   0.403E-03
   1 F= -.18684685E+03 E0= -.18667584E+03  d E =-.186847E+03
       N       E                     dE             d eps       ncg     rms          rms(c)
DAV:   1    -0.187499003010E+03   -0.65224E+00   -0.27189E+02  8160   0.350E+01    0.460E+00
DAV:   2    -0.189379880345E+03   -0.18809E+01   -0.19912E+01 12240   0.151E+01    0.911E+00
DAV:   3    -0.189353586070E+03    0.26294E-01   -0.46957E+00 12440   0.124E+01    0.635E+00
DAV:   4    -0.188753802985E+03    0.59978E+00   -0.56597E-01 11880   0.452E+00    0.192E+00
DAV:   5    -0.188868317708E+03   -0.11451E+00   -0.44243E-01 11760   0.374E+00    0.527E+00
DAV:   6    -0.188737509265E+03    0.13081E+00   -0.75580E-01 12640   0.434E+00    0.236E+00
DAV:   7    -0.188686058601E+03    0.51451E-01   -0.18439E-01 11880   0.194E+00    0.175E+00
DAV:   8    -0.188683943569E+03    0.21150E-02   -0.11997E-01 12440   0.196E+00    0.187E+00
DAV:   9    -0.188655746281E+03    0.28197E-01   -0.55959E-02 11680   0.120E+00    0.453E-01
DAV:  10    -0.188654812801E+03    0.93348E-03   -0.58206E-03 12880   0.317E-01    0.208E-01
DAV:  11    -0.188654375146E+03    0.43766E-03   -0.21870E-03 12520   0.157E-01    0.154E-01
DAV:  12    -0.188654389967E+03   -0.14821E-04   -0.86725E-04 11200   0.877E-02
   2 F= -.18865439E+03 E0= -.18851552E+03  d E =-.180754E+01
       N       E                     dE             d eps       ncg     rms          rms(c)
DAV:   1    -0.190575898999E+03   -0.19215E+01   -0.31010E+01  9200   0.142E+01    0.445E+00
DAV:   2    -0.190525232393E+03    0.50667E-01   -0.27682E+00 11520   0.944E+00    0.718E+00
DAV:   3    -0.190059486816E+03    0.46575E+00   -0.12890E+00 12320   0.860E+00    0.423E+00
DAV:   4    -0.189848320479E+03    0.21117E+00   -0.67389E-01 13000   0.429E+00    0.251E+00
DAV:   5    -0.189810865634E+03    0.37455E-01   -0.35542E-01 12240   0.299E+00    0.262E+00
DAV:   6    -0.189747230926E+03    0.63635E-01   -0.13456E-01 12720   0.235E+00    0.676E-01
DAV:   7    -0.189742419796E+03    0.48111E-02   -0.13205E-02 11600   0.548E-01    0.344E-01
DAV:   8    -0.189742702503E+03   -0.28271E-03   -0.55951E-03 12640   0.451E-01    0.368E-01
DAV:   9    -0.189741665396E+03    0.10371E-02   -0.22780E-03 11320   0.268E-01    0.113E-01
DAV:  10    -0.189741922007E+03   -0.25661E-03   -0.63404E-04  9920   0.929E-02    0.741E-02
DAV:  11    -0.189741840345E+03    0.81662E-04   -0.21719E-04  7960   0.511E-02
   3 F= -.18974184E+03 E0= -.18962548E+03  d E =-.108745E+01
       N       E                     dE             d eps       ncg     rms          rms(c)
DAV:   1    -0.191317152977E+03   -0.15752E+01   -0.75022E+01  8160   0.198E+01    0.461E+00
DAV:   2    -0.191117899200E+03    0.19925E+00   -0.53267E+00 13400   0.758E+00    0.444E+00
DAV:   3    -0.191311783456E+03   -0.19388E+00   -0.15050E+00 12240   0.911E+00    0.729E+00
DAV:   4    -0.190900351271E+03    0.41143E+00   -0.16847E+00 11880   0.852E+00    0.342E+00
DAV:   5    -0.190902617741E+03   -0.22665E-02   -0.65000E-01 11120   0.534E+00    0.354E+00
DAV:   6    -0.190732467334E+03    0.17015E+00   -0.20943E-01 12120   0.321E+00    0.652E-01
DAV:   7    -0.190732567089E+03   -0.99755E-04   -0.31369E-02 12480   0.760E-01    0.552E-01
DAV:   8    -0.190730278256E+03    0.22888E-02   -0.12128E-02 11680   0.692E-01    0.493E-01
DAV:   9    -0.190728137927E+03    0.21403E-02   -0.42806E-03 11520   0.448E-01    0.168E-01
DAV:  10    -0.190728404474E+03   -0.26655E-03   -0.13830E-03 10960   0.153E-01    0.113E-01
DAV:  11    -0.190728217600E+03    0.18687E-03   -0.63132E-04 10160   0.945E-02    0.429E-02
DAV:  12    -0.190728220833E+03   -0.32331E-05   -0.10128E-04  7120   0.356E-02
   4 F= -.19072822E+03 E0= -.19063063E+03  d E =-.986380E+00
       N       E                     dE             d eps       ncg     rms          rms(c)
DAV:   1    -0.192166251297E+03   -0.14380E+01   -0.17300E+02  8160   0.293E+01    0.580E+00
DAV:   2    -0.191885381193E+03    0.28087E+00   -0.97280E+00 10960   0.804E+00    0.402E+00
DAV:   3    -0.192364079957E+03   -0.47870E+00   -0.27968E+00 12160   0.109E+01    0.858E+00
DAV:   4    -0.191680939932E+03    0.68314E+00   -0.22615E+00 11600   0.108E+01    0.349E+00
DAV:   5    -0.191627317920E+03    0.53622E-01   -0.57404E-01 12200   0.565E+00    0.435E+00
DAV:   6    -0.191473524374E+03    0.15379E+00   -0.61846E-01 12320   0.519E+00    0.166E+00
DAV:   7    -0.191464751586E+03    0.87728E-02   -0.10940E-01 12600   0.199E+00    0.130E+00
DAV:   8    -0.191445844521E+03    0.18907E-01   -0.35478E-02 12320   0.144E+00    0.439E-01
DAV:   9    -0.191443278849E+03    0.25657E-02   -0.68021E-03 11280   0.450E-01    0.192E-01
DAV:  10    -0.191443443237E+03   -0.16439E-03   -0.27766E-03 11560   0.205E-01    0.102E-01
DAV:  11    -0.191443368719E+03    0.74518E-04   -0.58052E-04 10320   0.914E-02
   5 F= -.19144337E+03 E0= -.19135028E+03  d E =-.715148E+00
       N       E                     dE             d eps       ncg     rms          rms(c)
DAV:   1    -0.191522927209E+03   -0.79484E-01   -0.76941E+00  8160   0.582E+00    0.765E-01
DAV:   2    -0.191604173492E+03   -0.81246E-01   -0.34243E-01 13600   0.357E+00    0.249E+00
DAV:   3    -0.191534293811E+03    0.69880E-01   -0.12375E-01 12600   0.271E+00    0.384E-01
DAV:   4    -0.191537862104E+03   -0.35683E-02   -0.15236E-02 11600   0.836E-01    0.759E-01
DAV:   5    -0.191532439654E+03    0.54224E-02   -0.11160E-02 11520   0.748E-01    0.218E-01
DAV:   6    -0.191533273519E+03   -0.83386E-03   -0.39920E-03 11360   0.361E-01    0.332E-01
DAV:   7    -0.191532548614E+03    0.72490E-03   -0.39893E-03 11280   0.440E-01    0.222E-01
DAV:   8    -0.191531989776E+03    0.55884E-03   -0.10514E-03 10440   0.205E-01    0.367E-02
DAV:   9    -0.191532004345E+03   -0.14569E-04   -0.10562E-04  6560   0.400E-02
   6 F= -.19153200E+03 E0= -.19143714E+03  d E =-.886356E-01
       N       E                     dE             d eps       ncg     rms          rms(c)
DAV:   1    -0.191637899271E+03   -0.10591E+00   -0.19598E+01  8160   0.924E+00    0.108E+00
DAV:   2    -0.191776964579E+03   -0.13907E+00   -0.61307E-01 13120   0.455E+00    0.329E+00
DAV:   3    -0.191657827650E+03    0.11914E+00   -0.24062E-01 12400   0.373E+00    0.658E-01
DAV:   4    -0.191666681609E+03   -0.88540E-02   -0.38489E-02 12080   0.135E+00    0.121E+00
DAV:   5    -0.191652658880E+03    0.14023E-01   -0.28078E-02 11680   0.118E+00    0.331E-01
DAV:   6    -0.191655291561E+03   -0.26327E-02   -0.10851E-02 11560   0.642E-01    0.592E-01
DAV:   7    -0.191652637717E+03    0.26538E-02   -0.10229E-02 11600   0.708E-01    0.295E-01
DAV:   8    -0.191651533310E+03    0.11044E-02   -0.21078E-03 10800   0.271E-01    0.525E-02
DAV:   9    -0.191651529569E+03    0.37410E-05   -0.26166E-04  8160   0.571E-02
   7 F= -.19165153E+03 E0= -.19155584E+03  d E =-.119525E+00
       N       E                     dE             d eps       ncg     rms          rms(c)
DAV:   1    -0.191712911503E+03   -0.61378E-01   -0.65094E+00  8160   0.541E+00    0.713E-01
DAV:   2    -0.191763626220E+03   -0.50715E-01   -0.25412E-01 13560   0.290E+00    0.201E+00
DAV:   3    -0.191718481690E+03    0.45145E-01   -0.87815E-02 12440   0.227E+00    0.377E-01
DAV:   4    -0.191721476374E+03   -0.29947E-02   -0.14616E-02 12360   0.824E-01    0.737E-01
DAV:   5    -0.191716237208E+03    0.52392E-02   -0.11471E-02 10960   0.795E-01    0.255E-01
DAV:   6    -0.191715941793E+03    0.29541E-03   -0.32933E-03 10840   0.275E-01    0.147E-01
DAV:   7    -0.191715569354E+03    0.37244E-03   -0.12055E-03 10800   0.155E-01    0.975E-02
DAV:   8    -0.191715546985E+03    0.22369E-04   -0.49784E-04  8840   0.145E-01
   8 F= -.19171555E+03 E0= -.19161960E+03  d E =-.640174E-01
       N       E                     dE             d eps       ncg     rms          rms(c)
DAV:   1    -0.191781227337E+03   -0.65658E-01   -0.10654E+01  8160   0.692E+00    0.746E-01
DAV:   2    -0.191825516571E+03   -0.44289E-01   -0.34350E-01 12360   0.261E+00    0.166E+00
DAV:   3    -0.191799936255E+03    0.25580E-01   -0.89309E-02 12400   0.208E+00    0.670E-01
DAV:   4    -0.191802218716E+03   -0.22825E-02   -0.27162E-02 12400   0.111E+00    0.894E-01
DAV:   5    -0.191794163250E+03    0.80555E-02   -0.16368E-02 12040   0.940E-01    0.271E-01
DAV:   6    -0.191794591149E+03   -0.42790E-03   -0.57257E-03 10360   0.402E-01    0.298E-01
DAV:   7    -0.191794511358E+03    0.79791E-04   -0.50096E-03 11600   0.501E-01    0.340E-01
DAV:   8    -0.191793324268E+03    0.11871E-02   -0.19627E-03 10120   0.303E-01    0.480E-02
DAV:   9    -0.191793313611E+03    0.10657E-04   -0.13037E-04  6120   0.462E-02
   9 F= -.19179331E+03 E0= -.19169810E+03  d E =-.777666E-01
       N       E                     dE             d eps       ncg     rms          rms(c)
DAV:   1    -0.191791534152E+03    0.17901E-02   -0.20257E-01  8160   0.978E-01    0.143E-01
DAV:   2    -0.191791402771E+03    0.13138E-03   -0.55177E-03 10320   0.217E-01    0.106E-01
DAV:   3    -0.191791523410E+03   -0.12064E-03   -0.13629E-03 11000   0.238E-01    0.186E-01
DAV:   4    -0.191791167051E+03    0.35636E-03   -0.79816E-04  8800   0.217E-01    0.801E-02
DAV:   5    -0.191791288784E+03   -0.12173E-03   -0.63241E-04  8680   0.173E-01    0.142E-01
DAV:   6    -0.191791071979E+03    0.21680E-03   -0.42275E-04  8440   0.145E-01    0.267E-02
DAV:   7    -0.191791075663E+03   -0.36840E-05   -0.56365E-05  6240   0.420E-02
  10 F= -.19179108E+03 E0= -.19169566E+03  d E =0.223795E-02
       N       E                     dE             d eps       ncg     rms          rms(c)
DAV:   1    -0.191832525653E+03   -0.41454E-01   -0.31659E+00  8160   0.380E+00    0.411E-01
DAV:   2    -0.191843863223E+03   -0.11338E-01   -0.10114E-01 12040   0.127E+00    0.877E-01
DAV:   3    -0.191838279625E+03    0.55836E-02   -0.27423E-02 12200   0.107E+00    0.447E-01
DAV:   4    -0.191837528563E+03    0.75106E-03   -0.72829E-03 12320   0.575E-01    0.379E-01
DAV:   5    -0.191836002073E+03    0.15265E-02   -0.36641E-03 11280   0.486E-01    0.182E-01
DAV:   6    -0.191836048171E+03   -0.46099E-04   -0.21649E-03 10360   0.278E-01    0.180E-01
DAV:   7    -0.191836010190E+03    0.37981E-04   -0.16332E-03 10240   0.293E-01    0.194E-01
DAV:   8    -0.191835606238E+03    0.40395E-03   -0.61084E-04  8280   0.175E-01    0.252E-02
DAV:   9    -0.191835609415E+03   -0.31774E-05   -0.47801E-05  5800   0.272E-02
  11 F= -.19183561E+03 E0= -.19174093E+03  d E =-.445338E-01
       N       E                     dE             d eps       ncg     rms          rms(c)
DAV:   1    -0.191850528546E+03   -0.14922E-01   -0.34665E-01  8160   0.127E+00    0.162E-01
DAV:   2    -0.191852061126E+03   -0.15326E-02   -0.13439E-02 11800   0.479E-01    0.357E-01
DAV:   3    -0.191851074006E+03    0.98712E-03   -0.41437E-03 11520   0.423E-01    0.172E-01
DAV:   4    -0.191850923089E+03    0.15092E-03   -0.10244E-03  9680   0.214E-01    0.131E-01
DAV:   5    -0.191850768821E+03    0.15427E-03   -0.53821E-04  8760   0.190E-01    0.819E-02
DAV:   6    -0.191850729754E+03    0.39068E-04   -0.32598E-04  7440   0.116E-01
  12 F= -.19185073E+03 E0= -.19175631E+03  d E =-.151203E-01
       N       E                     dE             d eps       ncg     rms          rms(c)
DAV:   1    -0.191903254280E+03   -0.52485E-01   -0.50135E+00  8160   0.482E+00    0.562E-01
DAV:   2    -0.191924655972E+03   -0.21402E-01   -0.17847E-01 11240   0.167E+00    0.130E+00
DAV:   3    -0.191912463353E+03    0.12193E-01   -0.52444E-02 12440   0.149E+00    0.572E-01
DAV:   4    -0.191909398304E+03    0.30650E-02   -0.90196E-03 12240   0.567E-01    0.311E-01
DAV:   5    -0.191908898649E+03    0.49965E-03   -0.46905E-03 11800   0.525E-01    0.313E-01
DAV:   6    -0.191908695550E+03    0.20310E-03   -0.44317E-03 10920   0.473E-01    0.265E-01
DAV:   7    -0.191908238674E+03    0.45688E-03   -0.23088E-03 11200   0.353E-01    0.202E-01
DAV:   8    -0.191907784998E+03    0.45368E-03   -0.76327E-04  8800   0.205E-01    0.335E-02
DAV:   9    -0.191907778150E+03    0.68485E-05   -0.65678E-05  6560   0.362E-02
  13 F= -.19190778E+03 E0= -.19181421E+03  d E =-.570484E-01
       N       E                     dE             d eps       ncg     rms          rms(c)
DAV:   1    -0.191987318074E+03   -0.79533E-01   -0.16045E+01  8160   0.865E+00    0.102E+00
DAV:   2    -0.192073033504E+03   -0.85715E-01   -0.58985E-01 10960   0.319E+00    0.269E+00
DAV:   3    -0.192017202849E+03    0.55831E-01   -0.19714E-01 12320   0.292E+00    0.947E-01
DAV:   4    -0.192011019146E+03    0.61837E-02   -0.31410E-02 12200   0.110E+00    0.743E-01
DAV:   5    -0.192005892917E+03    0.51262E-02   -0.21514E-02 12040   0.113E+00    0.524E-01
DAV:   6    -0.192005571307E+03    0.32161E-03   -0.11926E-02 12480   0.778E-01    0.495E-01
DAV:   7    -0.192004382842E+03    0.11885E-02   -0.85670E-03 11680   0.717E-01    0.377E-01
DAV:   8    -0.192002595158E+03    0.17877E-02   -0.27262E-03 10800   0.391E-01    0.611E-02
DAV:   9    -0.192002568365E+03    0.26793E-04   -0.27921E-04  8640   0.642E-02
  14 F= -.19200257E+03 E0= -.19191042E+03  d E =-.947902E-01
       N       E                     dE             d eps       ncg     rms          rms(c)
DAV:   1    -0.192060416442E+03   -0.57821E-01   -0.19146E+01  8160   0.942E+00    0.115E+00
DAV:   2    -0.192182764488E+03   -0.12235E+00   -0.77920E-01 11320   0.379E+00    0.315E+00
DAV:   3    -0.192102864554E+03    0.79900E-01   -0.25866E-01 12240   0.346E+00    0.107E+00
DAV:   4    -0.192097711327E+03    0.51532E-02   -0.44209E-02 12200   0.148E+00    0.963E-01
DAV:   5    -0.192086522571E+03    0.11189E-01   -0.26349E-02 12400   0.131E+00    0.404E-01
DAV:   6    -0.192086762010E+03   -0.23944E-03   -0.10447E-02 12560   0.630E-01    0.435E-01
DAV:   7    -0.192086593088E+03    0.16892E-03   -0.92405E-03 12440   0.748E-01    0.470E-01
DAV:   8    -0.192084154950E+03    0.24381E-02   -0.36431E-03 11400   0.463E-01    0.684E-02
DAV:   9    -0.192084112932E+03    0.42018E-04   -0.33934E-04  9000   0.710E-02
  15 F= -.19208411E+03 E0= -.19199327E+03  d E =-.815446E-01
       N       E                     dE             d eps       ncg     rms          rms(c)
DAV:   1    -0.192091867557E+03   -0.77126E-02   -0.17676E+00  8160   0.288E+00    0.357E-01
DAV:   2    -0.192096612505E+03   -0.47449E-02   -0.57160E-02 11320   0.945E-01    0.551E-01
DAV:   3    -0.192094804610E+03    0.18079E-02   -0.11755E-02 12040   0.846E-01    0.411E-01
DAV:   4    -0.192093645712E+03    0.11589E-02   -0.41852E-03 11480   0.513E-01    0.290E-01
DAV:   5    -0.192093048684E+03    0.59703E-03   -0.31344E-03 10760   0.448E-01    0.204E-01
DAV:   6    -0.192092827306E+03    0.22138E-03   -0.17172E-03 12480   0.269E-01    0.151E-01
DAV:   7    -0.192092708051E+03    0.11926E-03   -0.90225E-04  9440   0.229E-01    0.119E-01
DAV:   8    -0.192092548969E+03    0.15908E-03   -0.24160E-04  6800   0.116E-01    0.210E-02
DAV:   9    -0.192092553956E+03   -0.49868E-05   -0.39118E-05  6520   0.246E-02
  16 F= -.19209255E+03 E0= -.19200361E+03  d E =-.844102E-02
       N       E                     dE             d eps       ncg     rms          rms(c)
DAV:   1    -0.192124369759E+03   -0.31821E-01   -0.17210E+01  8160   0.895E+00    0.108E+00
DAV:   2    -0.192217869369E+03   -0.93500E-01   -0.64283E-01 11440   0.341E+00    0.267E+00
DAV:   3    -0.192158619390E+03    0.59250E-01   -0.19286E-01 12240   0.316E+00    0.104E+00
DAV:   4    -0.192153086392E+03    0.55330E-02   -0.37473E-02 12120   0.138E+00    0.888E-01
DAV:   5    -0.192143490478E+03    0.95959E-02   -0.22526E-02 12360   0.124E+00    0.378E-01
DAV:   6    -0.192142986147E+03    0.50433E-03   -0.86677E-03 12200   0.538E-01    0.307E-01
DAV:   7    -0.192142574058E+03    0.41209E-03   -0.52670E-03 12080   0.528E-01    0.343E-01
DAV:   8    -0.192141342690E+03    0.12314E-02   -0.20815E-03 10720   0.370E-01    0.743E-02
DAV:   9    -0.192141275721E+03    0.66969E-04   -0.23638E-04  6800   0.735E-02
  17 F= -.19214128E+03 E0= -.19205296E+03  d E =-.487218E-01
       N       E                     dE             d eps       ncg     rms          rms(c)
DAV:   1    -0.192147416285E+03   -0.60736E-02   -0.47027E-01  8160   0.150E+00    0.187E-01
DAV:   2    -0.192148041855E+03   -0.62557E-03   -0.13436E-02 11440   0.384E-01    0.213E-01
DAV:   3    -0.192148224966E+03   -0.18311E-03   -0.29148E-03 12480   0.418E-01    0.261E-01
DAV:   4    -0.192147552067E+03    0.67290E-03   -0.14982E-03 10120   0.294E-01    0.121E-01
DAV:   5    -0.192147509232E+03    0.42835E-04   -0.66542E-04  9520   0.215E-01
  18 F= -.19214751E+03 E0= -.19206005E+03  d E =-.623351E-02
       N       E                     dE             d eps       ncg     rms          rms(c)
DAV:   1    -0.192149717750E+03   -0.21657E-02   -0.30500E-02  8160   0.403E-01    0.873E-02
DAV:   2    -0.192150985728E+03   -0.12680E-02   -0.28199E-03 12760   0.389E-01    0.345E-01
DAV:   3    -0.192149694359E+03    0.12914E-02   -0.15768E-03 10200   0.345E-01    0.497E-02
DAV:   4    -0.192149704367E+03   -0.10008E-04   -0.11904E-04  6560   0.730E-02
  19 F= -.19214970E+03 E0= -.19206221E+03  d E =-.219513E-02
       N       E                     dE             d eps       ncg     rms          rms(c)
DAV:   1    -0.192156474006E+03   -0.67796E-02   -0.33130E-01  8160   0.123E+00    0.159E-01
DAV:   2    -0.192158464070E+03   -0.19901E-02   -0.12328E-02 11240   0.509E-01    0.386E-01
DAV:   3    -0.192157059234E+03    0.14048E-02   -0.36389E-03 12360   0.472E-01    0.146E-01
DAV:   4    -0.192156993557E+03    0.65677E-04   -0.71016E-04  9360   0.190E-01
  20 F= -.19215699E+03 E0= -.19206958E+03  d E =-.728919E-02
       N       E                     dE             d eps       ncg     rms          rms(c)
DAV:   1    -0.192151308256E+03    0.57510E-02   -0.29211E-01  8160   0.119E+00    0.158E-01
DAV:   2    -0.192153462082E+03   -0.21538E-02   -0.12948E-02 12160   0.532E-01    0.368E-01
DAV:   3    -0.192151866511E+03    0.15956E-02   -0.36246E-03 12200   0.496E-01    0.123E-01
DAV:   4    -0.192151957440E+03   -0.90929E-04   -0.80765E-04  8920   0.211E-01
  21 F= -.19215196E+03 E0= -.19206558E+03  d E =0.503612E-02
       N       E                     dE             d eps       ncg     rms          rms(c)
DAV:   1    -0.192162261235E+03   -0.10395E-01   -0.71049E-01  8160   0.182E+00    0.215E-01
DAV:   2    -0.192164928442E+03   -0.26672E-02   -0.23715E-02 12000   0.636E-01    0.386E-01
DAV:   3    -0.192163510442E+03    0.14180E-02   -0.48027E-03 12360   0.569E-01    0.200E-01
DAV:   4    -0.192163525092E+03   -0.14650E-04   -0.14587E-03 10120   0.308E-01    0.220E-01
DAV:   5    -0.192163054349E+03    0.47074E-03   -0.96789E-04 10000   0.252E-01    0.765E-02
DAV:   6    -0.192163033866E+03    0.20482E-04   -0.32147E-04  9040   0.902E-02
  22 F= -.19216303E+03 E0= -.19207656E+03  d E =-.110764E-01
       N       E                     dE             d eps       ncg     rms          rms(c)
DAV:   1    -0.192163707479E+03   -0.65313E-03   -0.25699E-03  8600   0.117E-01    0.232E-02
DAV:   2    -0.192163734171E+03   -0.26692E-04   -0.12529E-04  7400   0.671E-02
  23 F= -.19216373E+03 E0= -.19207748E+03  d E =-.700305E-03
       N       E                     dE             d eps       ncg     rms          rms(c)
DAV:   1    -0.192172681794E+03   -0.89743E-02   -0.58898E-01  8160   0.167E+00    0.195E-01
DAV:   2    -0.192173448784E+03   -0.76699E-03   -0.11671E-02 11520   0.403E-01    0.261E-01
DAV:   3    -0.192173228702E+03    0.22008E-03   -0.29800E-03 11840   0.451E-01    0.243E-01
DAV:   4    -0.192172806694E+03    0.42201E-03   -0.13966E-03 10120   0.287E-01    0.147E-01
DAV:   5    -0.192172651102E+03    0.15559E-03   -0.87431E-04 10040   0.240E-01    0.108E-01
DAV:   6    -0.192172545412E+03    0.10569E-03   -0.36689E-04  8920   0.145E-01    0.519E-02
DAV:   7    -0.192172540916E+03    0.44957E-05   -0.13176E-04  7040   0.937E-02
  24 F= -.19217254E+03 E0= -.19208657E+03  d E =-.880674E-02
       N       E                     dE             d eps       ncg     rms          rms(c)
DAV:   1    -0.192192195324E+03   -0.19650E-01   -0.23333E+00  8160   0.332E+00    0.389E-01
DAV:   2    -0.192195986512E+03   -0.37912E-02   -0.53672E-02 11120   0.832E-01    0.477E-01
DAV:   3    -0.192194618185E+03    0.13683E-02   -0.11275E-02 12560   0.873E-01    0.385E-01
DAV:   4    -0.192193245269E+03    0.13729E-02   -0.35600E-03 12280   0.486E-01    0.233E-01
DAV:   5    -0.192193235010E+03    0.10259E-04   -0.26899E-03 10680   0.422E-01    0.265E-01
DAV:   6    -0.192192646308E+03    0.58870E-03   -0.16872E-03 10320   0.313E-01    0.100E-01
DAV:   7    -0.192192471998E+03    0.17431E-03   -0.34969E-04  8680   0.964E-02    0.194E-02
DAV:   8    -0.192192472102E+03   -0.10384E-06   -0.46049E-05  7440   0.297E-02
  25 F= -.19219247E+03 E0= -.19210644E+03  d E =-.199312E-01
       N       E                     dE             d eps       ncg     rms          rms(c)
DAV:   1    -0.192171757827E+03    0.20714E-01   -0.32222E+00  8160   0.389E+00    0.481E-01
DAV:   2    -0.192182558965E+03   -0.10801E-01   -0.77926E-02 11640   0.142E+00    0.953E-01
DAV:   3    -0.192173705867E+03    0.88531E-02   -0.22251E-02 12240   0.130E+00    0.414E-01
DAV:   4    -0.192173866366E+03   -0.16050E-03   -0.75123E-03 11840   0.677E-01    0.452E-01
DAV:   5    -0.192171759538E+03    0.21068E-02   -0.50304E-03 10760   0.587E-01    0.209E-01
DAV:   6    -0.192171301635E+03    0.45790E-03   -0.17434E-03 10760   0.263E-01    0.101E-01
DAV:   7    -0.192171142432E+03    0.15920E-03   -0.47966E-04 10880   0.123E-01    0.689E-02
DAV:   8    -0.192171109313E+03    0.33119E-04   -0.15089E-04  7360   0.995E-02
  26 F= -.19217111E+03 E0= -.19208471E+03  d E =0.213628E-01
       N       E                     dE             d eps       ncg     rms          rms(c)
DAV:   1    -0.192180320500E+03   -0.91781E-02   -0.43390E-01  8160   0.142E+00    0.190E-01
DAV:   2    -0.192182427867E+03   -0.21074E-02   -0.15755E-02 10680   0.651E-01    0.386E-01
DAV:   3    -0.192180738333E+03    0.16895E-02   -0.39400E-03 12400   0.509E-01    0.136E-01
DAV:   4    -0.192180822126E+03   -0.83793E-04   -0.90158E-04 10160   0.244E-01
  27 F= -.19218082E+03 E0= -.19209481E+03  d E =-.971281E-02
       N       E                     dE             d eps       ncg     rms          rms(c)
DAV:   1    -0.192188460784E+03   -0.77225E-02   -0.30052E-01  8160   0.120E+00    0.174E-01
DAV:   2    -0.192189639390E+03   -0.11786E-02   -0.89809E-03 11480   0.408E-01    0.331E-01
DAV:   3    -0.192188691223E+03    0.94817E-03   -0.30726E-03 12160   0.452E-01    0.173E-01
DAV:   4    -0.192188459335E+03    0.23189E-03   -0.69869E-04  9640   0.171E-01    0.786E-02
DAV:   5    -0.192188396788E+03    0.62547E-04   -0.39390E-04  9440   0.115E-01
  28 F= -.19218840E+03 E0= -.19210218E+03  d E =-.757466E-02
       N       E                     dE             d eps       ncg     rms          rms(c)
DAV:   1    -0.192194158769E+03   -0.56994E-02   -0.19237E-01  8160   0.950E-01    0.137E-01
DAV:   2    -0.192195865656E+03   -0.17069E-02   -0.75896E-03 12520   0.457E-01    0.388E-01
DAV:   3    -0.192194350718E+03    0.15149E-02   -0.25953E-03 12160   0.430E-01    0.961E-02
DAV:   4    -0.192194318436E+03    0.32283E-04   -0.30779E-04  8400   0.115E-01
  29 F= -.19219432E+03 E0= -.19210803E+03  d E =-.592165E-02
       N       E                     dE             d eps       ncg     rms          rms(c)
DAV:   1    -0.192195040441E+03   -0.68972E-03   -0.31899E-03  9480   0.175E-01    0.535E-02
DAV:   2    -0.192195336362E+03   -0.29592E-03   -0.65589E-04  9960   0.223E-01    0.157E-01
DAV:   3    -0.192195002000E+03    0.33436E-03   -0.39149E-04  8840   0.183E-01    0.234E-02
DAV:   4    -0.192195039404E+03   -0.37403E-04   -0.60363E-05  6120   0.660E-02
  30 F= -.19219504E+03 E0= -.19210890E+03  d E =-.720968E-03
       N       E                     dE             d eps       ncg     rms          rms(c)
DAV:   1    -0.192190463935E+03    0.45381E-02   -0.27094E-01  8160   0.114E+00    0.193E-01
DAV:   2    -0.192192824839E+03   -0.23609E-02   -0.12057E-02 12280   0.615E-01    0.492E-01
DAV:   3    -0.192190373833E+03    0.24510E-02   -0.47442E-03 11880   0.585E-01    0.150E-01
DAV:   4    -0.192190329452E+03    0.44382E-04   -0.11138E-03  9600   0.223E-01    0.154E-01
DAV:   5    -0.192190057427E+03    0.27202E-03   -0.67023E-04  8600   0.221E-01    0.703E-02
DAV:   6    -0.192190015152E+03    0.42275E-04   -0.23009E-04  7520   0.986E-02
  31 F= -.19219002E+03 E0= -.19210427E+03  d E =0.502425E-02
       N       E                     dE             d eps       ncg     rms          rms(c)
DAV:   1    -0.192207409125E+03   -0.17352E-01   -0.15531E+00  8160   0.271E+00    0.334E-01
DAV:   2    -0.192210618932E+03   -0.32098E-02   -0.44979E-02 11080   0.701E-01    0.411E-01
DAV:   3    -0.192209596010E+03    0.10229E-02   -0.90667E-03 12360   0.780E-01    0.343E-01
DAV:   4    -0.192208069430E+03    0.15266E-02   -0.24383E-03 11520   0.394E-01    0.129E-01
DAV:   5    -0.192208533324E+03   -0.46389E-03   -0.16992E-03 10600   0.335E-01    0.253E-01
DAV:   6    -0.192207886260E+03    0.64706E-03   -0.11393E-03 10200   0.286E-01    0.666E-02
DAV:   7    -0.192207819031E+03    0.67229E-04   -0.13105E-04  6200   0.689E-02
  32 F= -.19220782E+03 E0= -.19212144E+03  d E =-.178039E-01
       N       E                     dE             d eps       ncg     rms          rms(c)
DAV:   1    -0.192219222008E+03   -0.11336E-01   -0.65229E-01  8160   0.173E+00    0.217E-01
DAV:   2    -0.192221638908E+03   -0.24169E-02   -0.20719E-02 11120   0.609E-01    0.395E-01
DAV:   3    -0.192220087707E+03    0.15512E-02   -0.54182E-03 12440   0.566E-01    0.196E-01
DAV:   4    -0.192220108542E+03   -0.20834E-04   -0.13865E-03 10240   0.304E-01    0.204E-01
DAV:   5    -0.192219670525E+03    0.43802E-03   -0.83983E-04 10080   0.266E-01    0.806E-02
DAV:   6    -0.192219650783E+03    0.19742E-04   -0.28843E-04  8240   0.976E-02
  33 F= -.19221965E+03 E0= -.19213269E+03  d E =-.118318E-01
       N       E                     dE             d eps       ncg     rms          rms(c)
DAV:   1    -0.192223879273E+03   -0.42087E-02   -0.88955E-02  8160   0.644E-01    0.870E-02
DAV:   2    -0.192224396481E+03   -0.51721E-03   -0.31338E-03 10680   0.277E-01    0.198E-01
DAV:   3    -0.192223970471E+03    0.42601E-03   -0.96340E-04 11080   0.248E-01    0.700E-02
DAV:   4    -0.192224000778E+03   -0.30307E-04   -0.19838E-04  7800   0.119E-01
  34 F= -.19222400E+03 E0= -.19213687E+03  d E =-.435000E-02
       N       E                     dE             d eps       ncg     rms          rms(c)
DAV:   1    -0.192225790628E+03   -0.18202E-02   -0.26174E-02  8160   0.379E-01    0.690E-02
DAV:   2    -0.192226189364E+03   -0.39874E-03   -0.17204E-03 12480   0.238E-01    0.192E-01
DAV:   3    -0.192225794948E+03    0.39442E-03   -0.61932E-04  8800   0.215E-01    0.441E-02
DAV:   4    -0.192225787814E+03    0.71336E-05   -0.65348E-05  5720   0.501E-02
  35 F= -.19222579E+03 E0= -.19213883E+03  d E =-.178704E-02
       N       E                     dE             d eps       ncg     rms          rms(c)
DAV:   1    -0.192239559719E+03   -0.13765E-01   -0.10154E+00  8160   0.216E+00    0.295E-01
DAV:   2    -0.192245524755E+03   -0.59650E-02   -0.37352E-02 11160   0.986E-01    0.666E-01
DAV:   3    -0.192240395980E+03    0.51288E-02   -0.12031E-02 12360   0.845E-01    0.223E-01
DAV:   4    -0.192240735675E+03   -0.33970E-03   -0.24243E-03 10680   0.412E-01    0.286E-01
DAV:   5    -0.192239854510E+03    0.88116E-03   -0.15490E-03  9920   0.361E-01    0.103E-01
DAV:   6    -0.192239784577E+03    0.69933E-04   -0.56441E-04 10320   0.125E-01
  36 F= -.19223978E+03 E0= -.19215210E+03  d E =-.139968E-01
       N       E                     dE             d eps       ncg     rms          rms(c)
DAV:   1    -0.192240463169E+03   -0.60866E-03   -0.17739E-02  8440   0.325E-01    0.889E-02
DAV:   2    -0.192240367337E+03    0.95832E-04   -0.11771E-03 10280   0.152E-01    0.107E-01
DAV:   3    -0.192240367715E+03   -0.37881E-06   -0.60319E-04  9400   0.210E-01
  37 F= -.19224037E+03 E0= -.19215239E+03  d E =-.583139E-03
       N       E                     dE             d eps       ncg     rms          rms(c)
DAV:   1    -0.192252353773E+03   -0.11986E-01   -0.80972E-01  8160   0.197E+00    0.295E-01
DAV:   2    -0.192252626926E+03   -0.27315E-03   -0.27182E-02 11080   0.479E-01    0.250E-01
DAV:   3    -0.192253569105E+03   -0.94218E-03   -0.70584E-03 12320   0.591E-01    0.429E-01
DAV:   4    -0.192251759621E+03    0.18095E-02   -0.38588E-03 11560   0.524E-01    0.170E-01
DAV:   5    -0.192251342413E+03    0.41721E-03   -0.12401E-03 10760   0.189E-01    0.760E-02
DAV:   6    -0.192251294080E+03    0.48333E-04   -0.45820E-04 10440   0.117E-01
  38 F= -.19225129E+03 E0= -.19216208E+03  d E =-.109264E-01
       N       E                     dE             d eps       ncg     rms          rms(c)
DAV:   1    -0.192256030025E+03   -0.46876E-02   -0.10281E-01  8160   0.703E-01    0.169E-01
DAV:   2    -0.192258265205E+03   -0.22352E-02   -0.96825E-03 10720   0.682E-01    0.462E-01
DAV:   3    -0.192255692086E+03    0.25731E-02   -0.43488E-03 10520   0.528E-01    0.110E-01
DAV:   4    -0.192255776023E+03   -0.83936E-04   -0.68475E-04  9080   0.226E-01
  39 F= -.19225578E+03 E0= -.19216643E+03  d E =-.448194E-02
       N       E                     dE             d eps       ncg     rms          rms(c)
DAV:   1    -0.192268160809E+03   -0.12469E-01   -0.10893E+00  8160   0.224E+00    0.315E-01
DAV:   2    -0.192273194369E+03   -0.50336E-02   -0.41777E-02 11200   0.997E-01    0.614E-01
DAV:   3    -0.192269025138E+03    0.41692E-02   -0.12760E-02 12320   0.835E-01    0.256E-01
DAV:   4    -0.192269117943E+03   -0.92805E-04   -0.30508E-03 11400   0.434E-01    0.284E-01
DAV:   5    -0.192268374877E+03    0.74307E-03   -0.19737E-03  9960   0.403E-01    0.151E-01
DAV:   6    -0.192268128666E+03    0.24621E-03   -0.85787E-04 10560   0.181E-01    0.598E-02
DAV:   7    -0.192268075007E+03    0.53659E-04   -0.19990E-04  7920   0.612E-02
  40 F= -.19226808E+03 E0= -.19217847E+03  d E =-.122990E-01
       N       E                     dE             d eps       ncg     rms          rms(c)
DAV:   1    -0.192273922968E+03   -0.57943E-02   -0.25978E-01  8160   0.110E+00    0.150E-01
DAV:   2    -0.192275610780E+03   -0.16878E-02   -0.11059E-02 11560   0.497E-01    0.361E-01
DAV:   3    -0.192274299942E+03    0.13108E-02   -0.34303E-03 11600   0.452E-01    0.122E-01
DAV:   4    -0.192274152508E+03    0.14743E-03   -0.36908E-04  8560   0.124E-01    0.583E-02
DAV:   5    -0.192274135980E+03    0.16527E-04   -0.22028E-04  7960   0.963E-02
  41 F= -.19227414E+03 E0= -.19218412E+03  d E =-.606097E-02
       N       E                     dE             d eps       ncg     rms          rms(c)
DAV:   1    -0.192284098046E+03   -0.99455E-02   -0.95773E-01  8160   0.208E+00    0.258E-01
DAV:   2    -0.192288478543E+03   -0.43805E-02   -0.33266E-02 11120   0.813E-01    0.532E-01
DAV:   3    -0.192285556963E+03    0.29216E-02   -0.93355E-03 12400   0.719E-01    0.219E-01
DAV:   4    -0.192285518183E+03    0.38780E-04   -0.17097E-03 10040   0.338E-01    0.214E-01
DAV:   5    -0.192285005789E+03    0.51239E-03   -0.94865E-04 10120   0.290E-01    0.856E-02
DAV:   6    -0.192285026577E+03   -0.20789E-04   -0.44418E-04  9160   0.133E-01
  42 F= -.19228503E+03 E0= -.19219433E+03  d E =-.108906E-01
       N       E                     dE             d eps       ncg     rms          rms(c)
DAV:   1    -0.192299247684E+03   -0.14242E-01   -0.35557E+00  8160   0.401E+00    0.489E-01
DAV:   2    -0.192313118373E+03   -0.13871E-01   -0.12384E-01 11040   0.140E+00    0.853E-01
DAV:   3    -0.192305383103E+03    0.77353E-02   -0.30441E-02 12320   0.127E+00    0.420E-01
DAV:   4    -0.192305188969E+03    0.19413E-03   -0.70382E-03 12360   0.648E-01    0.427E-01
DAV:   5    -0.192303294627E+03    0.18943E-02   -0.40040E-03 10200   0.568E-01    0.180E-01
DAV:   6    -0.192303229647E+03    0.64979E-04   -0.18062E-03 10840   0.228E-01    0.117E-01
DAV:   7    -0.192302934610E+03    0.29504E-03   -0.64973E-04 10880   0.115E-01    0.436E-02
DAV:   8    -0.192302935077E+03   -0.46659E-06   -0.82295E-05  7080   0.811E-02
  43 F= -.19230294E+03 E0= -.19221268E+03  d E =-.179085E-01
       N       E                     dE             d eps       ncg     rms          rms(c)
DAV:   1    -0.192311737667E+03   -0.88031E-02   -0.85078E+00  8160   0.620E+00    0.697E-01
DAV:   2    -0.192335789279E+03   -0.24052E-01   -0.26635E-01 11280   0.175E+00    0.987E-01
DAV:   3    -0.192328933417E+03    0.68559E-02   -0.57922E-02 12320   0.171E+00    0.754E-01
DAV:   4    -0.192324820514E+03    0.41129E-02   -0.15987E-02 12600   0.974E-01    0.508E-01
DAV:   5    -0.192322387626E+03    0.24329E-02   -0.73800E-03 10840   0.761E-01    0.298E-01
DAV:   6    -0.192321861630E+03    0.52600E-03   -0.40265E-03 12280   0.411E-01    0.176E-01
DAV:   7    -0.192321282197E+03    0.57943E-03   -0.14300E-03 10680   0.186E-01    0.628E-02
DAV:   8    -0.192321272427E+03    0.97701E-05   -0.22915E-04  8920   0.118E-01
  44 F= -.19232127E+03 E0= -.19223330E+03  d E =-.183374E-01
       N       E                     dE             d eps       ncg     rms          rms(c)
DAV:   1    -0.192322411652E+03   -0.11295E-02   -0.70871E-02  8160   0.586E-01    0.846E-02
DAV:   2    -0.192323169821E+03   -0.75817E-03   -0.31143E-03 12600   0.329E-01    0.248E-01
DAV:   3    -0.192322460244E+03    0.70958E-03   -0.10705E-03 10240   0.289E-01    0.474E-02
DAV:   4    -0.192322454499E+03    0.57449E-05   -0.66737E-05  6040   0.606E-02
  45 F= -.19232245E+03 E0= -.19223494E+03  d E =-.118207E-02
       N       E                     dE             d eps       ncg     rms          rms(c)
DAV:   1    -0.192325787081E+03   -0.33268E-02   -0.49787E-01  8160   0.150E+00    0.187E-01
DAV:   2    -0.192327750046E+03   -0.19630E-02   -0.16447E-02 12720   0.557E-01    0.345E-01
DAV:   3    -0.192326582048E+03    0.11680E-02   -0.32743E-03 12480   0.504E-01    0.172E-01
DAV:   4    -0.192326353390E+03    0.22866E-03   -0.74550E-04 10200   0.215E-01    0.104E-01
DAV:   5    -0.192326273863E+03    0.79527E-04   -0.48349E-04  9280   0.179E-01
  46 F= -.19232627E+03 E0= -.19224034E+03  d E =-.381936E-02
       N       E                     dE             d eps       ncg     rms          rms(c)
DAV:   1    -0.192328975777E+03   -0.26224E-02   -0.41380E-01  8160   0.137E+00    0.163E-01
DAV:   2    -0.192330178661E+03   -0.12029E-02   -0.13144E-02 12800   0.400E-01    0.226E-01
DAV:   3    -0.192329780979E+03    0.39768E-03   -0.20202E-03 12440   0.390E-01    0.154E-01
DAV:   4    -0.192329604006E+03    0.17697E-03   -0.59172E-04  9480   0.203E-01    0.109E-01
DAV:   5    -0.192329520536E+03    0.83470E-04   -0.43726E-04  8880   0.171E-01
  47 F= -.19232952E+03 E0= -.19224491E+03  d E =-.324667E-02
       N       E                     dE             d eps       ncg     rms          rms(c)
DAV:   1    -0.192330705863E+03   -0.11019E-02   -0.65986E-02  8160   0.560E-01    0.718E-02
DAV:   2    -0.192330922716E+03   -0.21685E-03   -0.21194E-03 13360   0.185E-01    0.119E-01
DAV:   3    -0.192330811216E+03    0.11150E-03   -0.45064E-04  9760   0.188E-01    0.751E-02
DAV:   4    -0.192330751764E+03    0.59452E-04   -0.87974E-05  6000   0.823E-02
  48 F= -.19233075E+03 E0= -.19224657E+03  d E =-.123123E-02
       N       E                     dE             d eps       ncg     rms          rms(c)
DAV:   1    -0.192331857763E+03   -0.10465E-02   -0.53711E-02  8240   0.502E-01    0.778E-02
DAV:   2    -0.192331998447E+03   -0.14068E-03   -0.20622E-03 12120   0.190E-01    0.112E-01
DAV:   3    -0.192331900145E+03    0.98302E-04   -0.52504E-04  9360   0.186E-01
  49 F= -.19233190E+03 E0= -.19224820E+03  d E =-.114838E-02
       N       E                     dE             d eps       ncg     rms          rms(c)
DAV:   1    -0.192333254881E+03   -0.12564E-02   -0.12379E-01  8160   0.757E-01    0.997E-02
DAV:   2    -0.192333500831E+03   -0.24595E-03   -0.38709E-03 12000   0.177E-01    0.942E-02
DAV:   3    -0.192333398505E+03    0.10233E-03   -0.70300E-04 11320   0.150E-01    0.859E-02
DAV:   4    -0.192333401835E+03   -0.33301E-05   -0.36774E-04  8920   0.155E-01
  50 F= -.19233340E+03 E0= -.19225040E+03  d E =-.150169E-02
       N       E                     dE             d eps       ncg     rms          rms(c)
DAV:   1    -0.192336088414E+03   -0.26899E-02   -0.11870E+00  8160   0.233E+00    0.269E-01
DAV:   2    -0.192338470768E+03   -0.23824E-02   -0.35707E-02 12240   0.556E-01    0.257E-01
DAV:   3    -0.192338517968E+03   -0.47200E-04   -0.55846E-03 12160   0.556E-01    0.305E-01
DAV:   4    -0.192337557391E+03    0.96058E-03   -0.20330E-03 11640   0.380E-01    0.147E-01
DAV:   5    -0.192337469007E+03    0.88384E-04   -0.10004E-03 10640   0.252E-01    0.145E-01
DAV:   6    -0.192337363926E+03    0.10508E-03   -0.73480E-04  9480   0.226E-01    0.927E-02
DAV:   7    -0.192337245033E+03    0.11889E-03   -0.26532E-04  7560   0.109E-01    0.310E-02
DAV:   8    -0.192337244141E+03    0.89196E-06   -0.54251E-05  6880   0.594E-02
  51 F= -.19233724E+03 E0= -.19225614E+03  d E =-.384231E-02
       N       E                     dE             d eps       ncg     rms          rms(c)
DAV:   1    -0.192335508737E+03    0.17363E-02   -0.31260E-01  8160   0.120E+00    0.151E-01
DAV:   2    -0.192336248846E+03   -0.74011E-03   -0.10156E-02 11960   0.357E-01    0.214E-01
DAV:   3    -0.192336032095E+03    0.21675E-03   -0.24960E-03 12240   0.378E-01    0.187E-01
DAV:   4    -0.192335663575E+03    0.36852E-03   -0.76611E-04  9680   0.206E-01    0.695E-02
DAV:   5    -0.192335604243E+03    0.59332E-04   -0.29945E-04  7360   0.976E-02
  52 F= -.19233560E+03 E0= -.19225367E+03  d E =0.163990E-02
       N       E                     dE             d eps       ncg     rms          rms(c)
DAV:   1    -0.192336437221E+03   -0.77365E-03   -0.60681E-02  8160   0.535E-01    0.680E-02
DAV:   2    -0.192336880800E+03   -0.44358E-03   -0.25003E-03 13280   0.238E-01    0.160E-01
DAV:   3    -0.192336545848E+03    0.33495E-03   -0.72924E-04  9720   0.215E-01    0.529E-02
DAV:   4    -0.192336535295E+03    0.10553E-04   -0.12197E-04  5880   0.829E-02
  53 F= -.19233654E+03 E0= -.19225522E+03  d E =-.931051E-03
       N       E                     dE             d eps       ncg     rms          rms(c)
DAV:   1    -0.192336673070E+03   -0.12722E-03   -0.16037E-03  8480   0.104E-01    0.290E-02
DAV:   2    -0.192336750126E+03   -0.77055E-04   -0.20780E-04  9000   0.111E-01
  54 F= -.19233675E+03 E0= -.19225546E+03  d E =-.214831E-03
