<?xml version="1.0" encoding="ISO-8859-1"?>
<modeling>
 <generator>
  <i name="program" type="string">vasp </i>
  <i name="version" type="string">5.4.1  </i>
  <i name="subversion" type="string">05Feb16 (build Jul 05 2020 17:13:04) complex                          parallel </i>
  <i name="platform" type="string">IFC91_ompi </i>
  <i name="date" type="string">2024 04 26 </i>
  <i name="time" type="string">15:04:41 </i>
 </generator>
 <incar>
  <i type="int" name="ISTART">     0</i>
  <i type="string" name="PREC">normal</i>
  <i type="string" name="ALGO"> Normal</i>
  <i type="int" name="ISPIN">     1</i>
  <i type="int" name="ICHARG">     2</i>
  <i type="int" name="IBRION">     1</i>
  <i type="int" name="NSW">   100</i>
  <i type="int" name="ISIF">     3</i>
  <i type="int" name="ISYM">     0</i>
  <i name="SYMPREC">      0.00000001</i>
  <i name="POTIM">      0.50000000</i>
  <i type="logical" name="LREAL"> F  </i>
  <i type="logical" name="LPLANE"> F  </i>
  <i type="int" name="ISMEAR">     0</i>
  <i type="logical" name="LWAVE"> F  </i>
  <i type="logical" name="LCHARG"> F  </i>
  <v type="int" name="KPOINT_BSE">    -1     0     0     0</v>
 </incar>
 <kpoints>
  <generation param="Gamma">
   <v type="int" name="divisions">       8        8        1 </v>
   <v name="usershift">      0.00000000       0.00000000       0.00000000 </v>
   <v name="genvec1">      0.12500000       0.00000000       0.00000000 </v>
   <v name="genvec2">     -0.00000000       0.12500000       0.00000000 </v>
   <v name="genvec3">      0.00000000       0.00000000       1.00000000 </v>
   <v name="shift">      0.00000000       0.00000000       0.00000000 </v>
  </generation>
  <varray name="kpointlist" >
   <v>       0.00000000       0.00000000       0.00000000 </v>
   <v>       0.12500000       0.00000000       0.00000000 </v>
   <v>       0.25000000       0.00000000       0.00000000 </v>
   <v>       0.37500000       0.00000000       0.00000000 </v>
   <v>       0.50000000       0.00000000       0.00000000 </v>
   <v>       0.00000000       0.12500000       0.00000000 </v>
   <v>       0.12500000       0.12500000       0.00000000 </v>
   <v>       0.25000000       0.12500000       0.00000000 </v>
   <v>       0.37500000       0.12500000       0.00000000 </v>
   <v>       0.50000000       0.12500000       0.00000000 </v>
   <v>      -0.37500000       0.12500000       0.00000000 </v>
   <v>      -0.25000000       0.12500000       0.00000000 </v>
   <v>      -0.12500000       0.12500000       0.00000000 </v>
   <v>       0.00000000       0.25000000       0.00000000 </v>
   <v>       0.12500000       0.25000000       0.00000000 </v>
   <v>       0.25000000       0.25000000       0.00000000 </v>
   <v>       0.37500000       0.25000000       0.00000000 </v>
   <v>       0.50000000       0.25000000       0.00000000 </v>
   <v>      -0.37500000       0.25000000       0.00000000 </v>
   <v>      -0.25000000       0.25000000       0.00000000 </v>
   <v>      -0.12500000       0.25000000       0.00000000 </v>
   <v>      -0.00000000       0.37500000       0.00000000 </v>
   <v>       0.12500000       0.37500000       0.00000000 </v>
   <v>       0.25000000       0.37500000       0.00000000 </v>
   <v>       0.37500000       0.37500000       0.00000000 </v>
   <v>       0.50000000       0.37500000       0.00000000 </v>
   <v>      -0.37500000       0.37500000       0.00000000 </v>
   <v>      -0.25000000       0.37500000       0.00000000 </v>
   <v>      -0.12500000       0.37500000       0.00000000 </v>
   <v>       0.00000000       0.50000000       0.00000000 </v>
   <v>       0.12500000       0.50000000       0.00000000 </v>
   <v>       0.25000000       0.50000000       0.00000000 </v>
   <v>       0.37500000       0.50000000       0.00000000 </v>
   <v>       0.50000000       0.50000000       0.00000000 </v>
  </varray>
  <varray name="weights" >
   <v>       0.01562500 </v>
   <v>       0.03125000 </v>
   <v>       0.03125000 </v>
   <v>       0.03125000 </v>
   <v>       0.01562500 </v>
   <v>       0.03125000 </v>
   <v>       0.03125000 </v>
   <v>       0.03125000 </v>
   <v>       0.03125000 </v>
   <v>       0.03125000 </v>
   <v>       0.03125000 </v>
   <v>       0.03125000 </v>
   <v>       0.03125000 </v>
   <v>       0.03125000 </v>
   <v>       0.03125000 </v>
   <v>       0.03125000 </v>
   <v>       0.03125000 </v>
   <v>       0.03125000 </v>
   <v>       0.03125000 </v>
   <v>       0.03125000 </v>
   <v>       0.03125000 </v>
   <v>       0.03125000 </v>
   <v>       0.03125000 </v>
   <v>       0.03125000 </v>
   <v>       0.03125000 </v>
   <v>       0.03125000 </v>
   <v>       0.03125000 </v>
   <v>       0.03125000 </v>
   <v>       0.03125000 </v>
   <v>       0.01562500 </v>
   <v>       0.03125000 </v>
   <v>       0.03125000 </v>
   <v>       0.03125000 </v>
   <v>       0.01562500 </v>
  </varray>
 </kpoints>
 <parameters>
  <separator name="general" >
   <i type="string" name="SYSTEM">unknown system</i>
   <i type="logical" name="LCOMPAT"> F  </i>
  </separator>
  <separator name="electronic" >
   <i type="string" name="PREC">normal</i>
   <i name="ENMAX">    280.00000000</i>
   <i name="ENAUG">    373.43800000</i>
   <i name="EDIFF">      0.00010000</i>
   <i type="int" name="IALGO">    38</i>
   <i type="int" name="IWAVPR">    11</i>
   <i type="int" name="NBANDS">   120</i>
   <i name="NELECT">    159.00000000</i>
   <i type="int" name="TURBO">     0</i>
   <i type="int" name="IRESTART">     0</i>
   <i type="int" name="NREBOOT">     0</i>
   <i type="int" name="NMIN">     0</i>
   <i name="EREF">      0.00000000</i>
   <separator name="electronic smearing" >
    <i type="int" name="ISMEAR">     0</i>
    <i name="SIGMA">      0.20000000</i>
    <i name="KSPACING">      0.50000000</i>
    <i type="logical" name="KGAMMA"> T  </i>
   </separator>
   <separator name="electronic projectors" >
    <i type="logical" name="LREAL"> F  </i>
    <v name="ROPT">      0.00000000      0.00000000      0.00000000      0.00000000</v>
    <i type="int" name="LMAXPAW">  -100</i>
    <i type="int" name="LMAXMIX">     2</i>
    <i type="logical" name="NLSPLINE"> F  </i>
   </separator>
   <separator name="electronic startup" >
    <i type="int" name="ISTART">     0</i>
    <i type="int" name="ICHARG">     2</i>
    <i type="int" name="INIWAV">     1</i>
   </separator>
   <separator name="electronic spin" >
    <i type="int" name="ISPIN">     1</i>
    <i type="logical" name="LNONCOLLINEAR"> F  </i>
    <v name="MAGMOM">      1.00000000      1.00000000      1.00000000      1.00000000      1.00000000      1.00000000      1.00000000      1.00000000      1.00000000      1.00000000      1.00000000      1.00000000      1.00000000      1.00000000      1.00000000      1.00000000      1.00000000      1.00000000      1.00000000      1.00000000
      1.00000000      1.00000000      1.00000000      1.00000000      1.00000000      1.00000000      1.00000000</v>
    <i name="NUPDOWN">     -1.00000000</i>
    <i type="logical" name="LSORBIT"> F  </i>
    <v name="SAXIS">      0.00000000      0.00000000      1.00000000</v>
    <i type="logical" name="LSPIRAL"> F  </i>
    <v name="QSPIRAL">      0.00000000      0.00000000      0.00000000</v>
    <i type="logical" name="LZEROZ"> F  </i>
   </separator>
   <separator name="electronic exchange-correlation" >
    <i type="logical" name="LASPH"> F  </i>
    <i type="logical" name="LMETAGGA"> F  </i>
   </separator>
   <separator name="electronic convergence" >
    <i type="int" name="NELM">    60</i>
    <i type="int" name="NELMDL">    -5</i>
    <i type="int" name="NELMIN">     2</i>
    <i name="ENINI">    280.00000000</i>
    <separator name="electronic convergence detail" >
     <i type="logical" name="LDIAG"> T  </i>
     <i type="logical" name="LSUBROT"> F  </i>
     <i name="WEIMIN">      0.00100000</i>
     <i name="EBREAK">      0.00000021</i>
     <i name="DEPER">      0.30000000</i>
     <i type="int" name="NRMM">     4</i>
     <i name="TIME">      0.40000000</i>
    </separator>
   </separator>
   <separator name="electronic mixer" >
    <i name="AMIX">      0.40000000</i>
    <i name="BMIX">      1.00000000</i>
    <i name="AMIN">      0.10000000</i>
    <i name="AMIX_MAG">      1.60000000</i>
    <i name="BMIX_MAG">      1.00000000</i>
    <separator name="electronic mixer details" >
     <i type="int" name="IMIX">     4</i>
     <i type="logical" name="MIXFIRST"> F  </i>
     <i type="int" name="MAXMIX">   -45</i>
     <i name="WC">    100.00000000</i>
     <i type="int" name="INIMIX">     1</i>
     <i type="int" name="MIXPRE">     1</i>
     <i type="int" name="MREMOVE">     5</i>
    </separator>
   </separator>
   <separator name="electronic dipolcorrection" >
    <i type="logical" name="LDIPOL"> F  </i>
    <i type="logical" name="LMONO"> F  </i>
    <i type="int" name="IDIPOL">     0</i>
    <i name="EPSILON">      1.00000000</i>
    <v name="DIPOL">   -100.00000000   -100.00000000   -100.00000000</v>
    <i name="EFIELD">      0.00000000</i>
   </separator>
  </separator>
  <separator name="grids" >
   <i type="int" name="NGX">    42</i>
   <i type="int" name="NGY">    42</i>
   <i type="int" name="NGZ">   126</i>
   <i type="int" name="NGXF">    84</i>
   <i type="int" name="NGYF">    84</i>
   <i type="int" name="NGZF">   252</i>
   <i type="logical" name="ADDGRID"> F  </i>
  </separator>
  <separator name="ionic" >
   <i type="int" name="NSW">   100</i>
   <i type="int" name="IBRION">     1</i>
   <i type="int" name="ISIF">     3</i>
   <i name="PSTRESS">      0.00000000</i>
   <i name="EDIFFG">      0.00100000</i>
   <i type="int" name="NFREE">     0</i>
   <i name="POTIM">      0.50000000</i>
   <i name="SMASS">     -3.00000000</i>
   <i name="SCALEE">      1.00000000</i>
  </separator>
  <separator name="ionic md" >
   <i name="TEBEG">      0.00010000</i>
   <i name="TEEND">      0.00010000</i>
   <i type="int" name="NBLOCK">     1</i>
   <i type="int" name="KBLOCK">   100</i>
   <i type="int" name="NPACO">   256</i>
   <i name="APACO">     16.00000000</i>
  </separator>
  <separator name="symmetry" >
   <i type="int" name="ISYM">     0</i>
   <i name="SYMPREC">      0.00000001</i>
  </separator>
  <separator name="dos" >
   <i type="logical" name="LORBIT"> F  </i>
   <v name="RWIGS">     -1.00000000     -1.00000000     -1.00000000     -1.00000000</v>
   <i type="int" name="NEDOS">   301</i>
   <i name="EMIN">     10.00000000</i>
   <i name="EMAX">    -10.00000000</i>
   <i name="EFERMI">      0.00000000</i>
  </separator>
  <separator name="writing" >
   <i type="int" name="NWRITE">     2</i>
   <i type="logical" name="LWAVE"> F  </i>
   <i type="logical" name="LCHARG"> F  </i>
   <i type="logical" name="LPARD"> F  </i>
   <i type="logical" name="LVTOT"> F  </i>
   <i type="logical" name="LVHAR"> F  </i>
   <i type="logical" name="LELF"> F  </i>
   <i type="logical" name="LOPTICS"> F  </i>
   <v name="STM">      0.00000000      0.00000000      0.00000000      0.00000000      0.00000000      0.00000000      0.00000000</v>
  </separator>
  <separator name="performance" >
   <i type="int" name="NPAR">    40</i>
   <i type="int" name="NSIM">     4</i>
   <i type="int" name="NBLK">    -1</i>
   <i type="logical" name="LPLANE"> F  </i>
   <i type="logical" name="LSCALAPACK"> T  </i>
   <i type="logical" name="LSCAAWARE"> F  </i>
   <i type="logical" name="LSCALU"> F  </i>
   <i type="logical" name="LASYNC"> F  </i>
   <i type="logical" name="LORBITALREAL"> F  </i>
  </separator>
  <separator name="miscellaneous" >
   <i type="int" name="IDIOT">     3</i>
   <i type="logical" name="LMUSIC"> F  </i>
   <v name="POMASS">     50.94100000     95.94000000    183.85000000     32.06600000</v>
   <v name="DARWINR">      0.00000000      0.00000000      0.00000000      0.00000000</v>
   <v name="DARWINV">      1.00000000      1.00000000      1.00000000      1.00000000</v>
   <i type="logical" name="LCORR"> T  </i>
  </separator>
  <i type="logical" name="GGA_COMPAT"> T  </i>
  <i type="logical" name="LBERRY"> F  </i>
  <i type="int" name="ICORELEVEL">     0</i>
  <i type="logical" name="LDAU"> F  </i>
  <i type="int" name="I_CONSTRAINED_M">     0</i>
  <separator name="electronic exchange-correlation" >
   <i type="string" name="GGA">--</i>
   <i type="int" name="VOSKOWN">     0</i>
   <i type="logical" name="LHFCALC"> F  </i>
   <i type="string" name="PRECFOCK"></i>
   <i type="logical" name="LSYMGRAD"> F  </i>
   <i type="logical" name="LHFONE"> F  </i>
   <i type="logical" name="LRHFCALC"> F  </i>
   <i type="logical" name="LTHOMAS"> F  </i>
   <i type="logical" name="LMODELHF"> F  </i>
   <i name="ENCUT4O">     -1.00000000</i>
   <i type="int" name="EXXOEP">     0</i>
   <i type="int" name="FOURORBIT">     0</i>
   <i name="AEXX">      0.00000000</i>
   <i name="HFALPHA">      0.00000000</i>
   <i name="MCALPHA">      0.00000000</i>
   <i name="ALDAX">      1.00000000</i>
   <i name="AGGAX">      1.00000000</i>
   <i name="ALDAC">      1.00000000</i>
   <i name="AGGAC">      1.00000000</i>
   <i type="int" name="NKREDX">     1</i>
   <i type="int" name="NKREDY">     1</i>
   <i type="int" name="NKREDZ">     1</i>
   <i type="logical" name="SHIFTRED"> F  </i>
   <i type="logical" name="ODDONLY"> F  </i>
   <i type="logical" name="EVENONLY"> F  </i>
   <i type="int" name="LMAXFOCK">     0</i>
   <i type="int" name="NMAXFOCKAE">     0</i>
   <i type="logical" name="LFOCKAEDFT"> F  </i>
   <i name="HFSCREEN">      0.00000000</i>
   <i name="HFSCREENC">      0.00000000</i>
   <i type="int" name="NBANDSGWLOW">     0</i>
  </separator>
  <separator name="vdW DFT" >
   <i type="logical" name="LUSE_VDW"> F  </i>
   <i name="Zab_VDW">     -0.84910000</i>
   <i name="PARAM1">      0.12340000</i>
   <i name="PARAM2">      1.00000000</i>
   <i name="PARAM3">      0.00000000</i>
  </separator>
  <separator name="model GW" >
   <i type="int" name="MODEL_GW">     0</i>
   <i name="MODEL_EPS0">     58.26239943</i>
   <i name="MODEL_ALPHA">      1.00000000</i>
  </separator>
  <separator name="linear response parameters" >
   <i type="logical" name="LEPSILON"> F  </i>
   <i type="logical" name="LRPA"> F  </i>
   <i type="logical" name="LNABLA"> F  </i>
   <i type="logical" name="LVEL"> F  </i>
   <i type="int" name="KINTER">     0</i>
   <i name="CSHIFT">      0.10000000</i>
   <i name="OMEGAMAX">     -1.00000000</i>
   <i name="DEG_THRESHOLD">      0.00200000</i>
  </separator>
  <separator name="orbital magnetization" >
   <i type="logical" name="NUCIND"> F  </i>
   <v name="MAGPOS">      0.00000000      0.00000000      0.00000000</v>
   <i type="logical" name="LNICSALL"> T  </i>
   <i type="logical" name="ORBITALMAG"> F  </i>
   <i type="logical" name="LMAGBLOCH"> F  </i>
   <i type="logical" name="LCHIMAG"> F  </i>
   <i type="logical" name="LGAUGE"> T  </i>
   <i type="int" name="MAGATOM">     0</i>
   <v name="MAGDIPOL">      0.00000000      0.00000000      0.00000000</v>
   <v name="AVECCONST">      0.00000000      0.00000000      0.00000000</v>
  </separator>
  <separator name="response functions" >
   <i type="logical" name="LADDER"> F  </i>
   <i type="logical" name="LFXC"> F  </i>
   <i type="logical" name="LHARTREE"> T  </i>
   <i type="int" name="IBSE">     0</i>
   <v type="int" name="KPOINT">    -1     0     0     0</v>
   <i type="logical" name="LTCTE"> F  </i>
   <i type="logical" name="LTETE"> F  </i>
   <i type="logical" name="LTRIPLET"> F  </i>
   <i type="logical" name="LFXCEPS"> F  </i>
   <i type="logical" name="LFXHEG"> F  </i>
   <i type="int" name="NATURALO">     0</i>
   <i type="logical" name="L2ORDER"> F  </i>
   <i type="logical" name="LUSEW"> F  </i>
   <i name="ENCUTGW">     -2.00000000</i>
   <i name="ENCUTGWSOFT">     -2.00000000</i>
   <i name="ENCUTLF">     -1.00000000</i>
   <i type="int" name="LMAXMP2">    -1</i>
   <i name="SCISSOR">      0.00000000</i>
   <i type="int" name="NOMEGA">     0</i>
   <i type="int" name="NOMEGAR">     0</i>
   <i type="int" name="NBANDSGW">    -1</i>
   <i type="int" name="NBANDSO">    -1</i>
   <i type="int" name="NBANDSV">    -1</i>
   <i type="int" name="NELM">     1</i>
   <i type="int" name="NELMHF">     1</i>
   <i type="int" name="DIM">     3</i>
   <i type="int" name="ANTIRES">     0</i>
   <i name="OMEGAMAX">    -30.00000000</i>
   <i name="OMEGAMIN">    -30.00000000</i>
   <i name="OMEGATL">   -200.00000000</i>
   <i type="int" name="OMEGAGRID">     0</i>
   <i name="CSHIFT">     -0.10000000</i>
   <i type="logical" name="SELFENERGY"> F  </i>
   <i type="logical" name="LSPECTRAL"> F  </i>
   <i type="logical" name="LSPECTRALGW"> F  </i>
   <i type="logical" name="LSINGLES"> F  </i>
   <i type="logical" name="LFERMIGW"> F  </i>
   <i type="logical" name="ODDONLYGW"> F  </i>
   <i type="logical" name="EVENONLYGW"> F  </i>
   <i type="int" name="NKREDLFX">     1</i>
   <i type="int" name="NKREDLFY">     1</i>
   <i type="int" name="NKREDLFZ">     1</i>
   <i type="int" name="MAXMEM">  1800</i>
   <i type="int" name="TELESCOPE">     0</i>
   <i type="int" name="TAUPAR">     1</i>
   <i type="int" name="OMEGAPAR">    -1</i>
   <i name="LAMBDA">      1.00000000</i>
  </separator>
  <separator name="External order field" >
   <i name="OFIELD_KAPPA">      0.00000000</i>
   <v name="OFIELD_K">      0.00000000      0.00000000      0.00000000</v>
   <i name="OFIELD_Q6_NEAR">      0.00000000</i>
   <i name="OFIELD_Q6_FAR">      0.00000000</i>
   <i name="OFIELD_A">      0.00000000</i>
  </separator>
 </parameters>
 <atominfo>
  <atoms>      27 </atoms>
  <types>       4 </types>
  <array name="atoms" >
   <dimension dim="1">ion</dimension>
   <field type="string">element</field>
   <field type="int">atomtype</field>
   <set>
    <rc><c>V </c><c>   1</c></rc>
    <rc><c>V </c><c>   1</c></rc>
    <rc><c>V </c><c>   1</c></rc>
    <rc><c>Mo</c><c>   2</c></rc>
    <rc><c>Mo</c><c>   2</c></rc>
    <rc><c>Mo</c><c>   2</c></rc>
    <rc><c>W </c><c>   3</c></rc>
    <rc><c>W </c><c>   3</c></rc>
    <rc><c>W </c><c>   3</c></rc>
    <rc><c>S </c><c>   4</c></rc>
    <rc><c>S </c><c>   4</c></rc>
    <rc><c>S </c><c>   4</c></rc>
    <rc><c>S </c><c>   4</c></rc>
    <rc><c>S </c><c>   4</c></rc>
    <rc><c>S </c><c>   4</c></rc>
    <rc><c>S </c><c>   4</c></rc>
    <rc><c>S </c><c>   4</c></rc>
    <rc><c>S </c><c>   4</c></rc>
    <rc><c>S </c><c>   4</c></rc>
    <rc><c>S </c><c>   4</c></rc>
    <rc><c>S </c><c>   4</c></rc>
    <rc><c>S </c><c>   4</c></rc>
    <rc><c>S </c><c>   4</c></rc>
    <rc><c>S </c><c>   4</c></rc>
    <rc><c>S </c><c>   4</c></rc>
    <rc><c>S </c><c>   4</c></rc>
    <rc><c>S </c><c>   4</c></rc>
   </set>
  </array>
  <array name="atomtypes" >
   <dimension dim="1">type</dimension>
   <field type="int">atomspertype</field>
   <field type="string">element</field>
   <field>mass</field>
   <field>valence</field>
   <field type="string">pseudopotential</field>
   <set>
    <rc><c>   3</c><c>V </c><c>     50.94100000</c><c>      5.00000000</c><c> PAW_PBE V 08Apr2002                    </c></rc>
    <rc><c>   3</c><c>Mo</c><c>     95.94000000</c><c>      6.00000000</c><c> PAW_PBE Mo 08Apr2002                   </c></rc>
    <rc><c>   3</c><c>W </c><c>    183.85000000</c><c>      6.00000000</c><c> PAW_PBE W 08Apr2002                    </c></rc>
    <rc><c>  18</c><c>S </c><c>     32.06600000</c><c>      6.00000000</c><c>  PAW_PBE S 17Jan2003                   </c></rc>
   </set>
  </array>
 </atominfo>
 <structure name="initialpos" >
  <crystal>
   <varray name="basis" >
    <v>       8.66999996       5.03999989       0.00000000 </v>
    <v>      -8.66999982       5.04000013       0.00000000 </v>
    <v>       0.00000000       0.00000000      30.00000000 </v>
   </varray>
   <i name="volume">   2621.80797419 </i>
   <varray name="rec_basis" >
    <v>       0.05767013       0.09920635       0.00000000 </v>
    <v>      -0.05767013       0.09920635       0.00000000 </v>
    <v>       0.00000000       0.00000000       0.03333333 </v>
   </varray>
  </crystal>
  <varray name="positions" >
   <v>       0.66666669       0.33333334       0.00000000 </v>
   <v>       0.33333334       0.33333334       0.00000000 </v>
   <v>       0.66666669       0.66666669       0.00000000 </v>
   <v>       1.00000000       0.33333334       0.00000000 </v>
   <v>       0.33333334       0.00000000       0.00000000 </v>
   <v>       0.00000000       0.00000000       0.00000000 </v>
   <v>       0.00000000       0.66666669       0.00000000 </v>
   <v>       0.33333334       0.66666669       0.00000000 </v>
   <v>       0.66666669       0.00000000       0.00000000 </v>
   <v>       0.11068511       0.22244981       0.95539999 </v>
   <v>       0.22244981       0.11068511       0.04460000 </v>
   <v>       0.11068511       0.55578315       0.95539999 </v>
   <v>       0.22244981       0.44401845       0.04460000 </v>
   <v>       0.11068511       0.88911647       0.95539999 </v>
   <v>       0.22244981       0.77735180       0.04460000 </v>
   <v>       0.44401845       0.22244981       0.95539999 </v>
   <v>       0.55578315       0.11068511       0.04460000 </v>
   <v>       0.44401845       0.55578315       0.95539999 </v>
   <v>       0.55578315       0.44401845       0.04460000 </v>
   <v>       0.44401845       0.88911647       0.95539999 </v>
   <v>       0.55578315       0.77735180       0.04460000 </v>
   <v>       0.77735180       0.22244981       0.95539999 </v>
   <v>       0.88911647       0.11068511       0.04460000 </v>
   <v>       0.77735180       0.55578315       0.95539999 </v>
   <v>       0.88911647       0.44401845       0.04460000 </v>
   <v>       0.77735180       0.88911647       0.95539999 </v>
   <v>       0.88911647       0.77735180       0.04460000 </v>
  </varray>
 </structure>
 <calculation>
  <scstep>
   <time name="dav">   22.05   22.13</time>
   <time name="total">   22.09   22.18</time>
   <energy>
    <i name="alphaZ">     81.65567618 </i>
    <i name="ewald">  41891.17178794 </i>
    <i name="hartreedc"> -47723.81659694 </i>
    <i name="XCdc">   -242.92514259 </i>
    <i name="pawpsdc">   3467.42045192 </i>
    <i name="pawaedc">  -2871.19716117 </i>
    <i name="eentropy">     -0.53355349 </i>
    <i name="bandstr">   -239.37360208 </i>
    <i name="atom">   6761.44252427 </i>
    <i name="e_fr_energy">   1123.84438404 </i>
    <i name="e_wo_entrp">   1124.37793753 </i>
    <i name="e_0_energy">   1124.11116078 </i>
   </energy>
  </scstep>
  <scstep>
   <time name="dav">   28.74   28.81</time>
   <time name="total">   28.74   28.82</time>
   <energy>
    <i name="e_fr_energy">     -2.74430189 </i>
    <i name="e_wo_entrp">     -2.54929693 </i>
    <i name="e_0_energy">     -2.64679941 </i>
   </energy>
  </scstep>
  <scstep>
   <time name="dav">   27.93   28.00</time>
   <time name="total">   27.93   28.00</time>
   <energy>
    <i name="e_fr_energy">   -199.80506562 </i>
    <i name="e_wo_entrp">   -199.55047457 </i>
    <i name="e_0_energy">   -199.67777010 </i>
   </energy>
  </scstep>
  <scstep>
   <time name="dav">   30.77   30.84</time>
   <time name="total">   30.77   30.85</time>
   <energy>
    <i name="e_fr_energy">   -209.00237873 </i>
    <i name="e_wo_entrp">   -208.71686645 </i>
    <i name="e_0_energy">   -208.85962259 </i>
   </energy>
  </scstep>
  <scstep>
   <time name="dav">   28.77   28.84</time>
   <time name="total">   29.25   29.32</time>
   <energy>
    <i name="e_fr_energy">   -209.32201435 </i>
    <i name="e_wo_entrp">   -209.03962770 </i>
    <i name="e_0_energy">   -209.18082103 </i>
   </energy>
  </scstep>
  <scstep>
   <time name="dav">   30.88   30.96</time>
   <time name="total">   31.38   31.47</time>
   <energy>
    <i name="e_fr_energy">   -237.93288394 </i>
    <i name="e_wo_entrp">   -237.67393663 </i>
    <i name="e_0_energy">   -237.80341029 </i>
   </energy>
  </scstep>
  <scstep>
   <time name="dav">   33.46   33.54</time>
   <time name="total">   33.96   34.05</time>
   <energy>
    <i name="e_fr_energy">   -196.57145848 </i>
    <i name="e_wo_entrp">   -196.23023614 </i>
    <i name="e_0_energy">   -196.40084731 </i>
   </energy>
  </scstep>
  <scstep>
   <time name="dav">   29.81   29.88</time>
   <time name="total">   30.32   30.40</time>
   <energy>
    <i name="e_fr_energy">   -189.48697929 </i>
    <i name="e_wo_entrp">   -189.17559292 </i>
    <i name="e_0_energy">   -189.33128611 </i>
   </energy>
  </scstep>
  <scstep>
   <time name="dav">   33.44   33.52</time>
   <time name="total">   33.96   34.05</time>
   <energy>
    <i name="e_fr_energy">   -188.16339097 </i>
    <i name="e_wo_entrp">   -187.84548106 </i>
    <i name="e_0_energy">   -188.00443602 </i>
   </energy>
  </scstep>
  <scstep>
   <time name="dav">   32.83   32.91</time>
   <time name="total">   33.36   33.45</time>
   <energy>
    <i name="e_fr_energy">   -186.95783906 </i>
    <i name="e_wo_entrp">   -186.60549979 </i>
    <i name="e_0_energy">   -186.78166943 </i>
   </energy>
  </scstep>
  <scstep>
   <time name="dav">   33.44   33.52</time>
   <time name="total">   33.97   34.06</time>
   <energy>
    <i name="e_fr_energy">   -187.05325381 </i>
    <i name="e_wo_entrp">   -186.71128069 </i>
    <i name="e_0_energy">   -186.88226725 </i>
   </energy>
  </scstep>
  <scstep>
   <time name="dav">   31.41   31.48</time>
   <time name="total">   31.94   32.03</time>
   <energy>
    <i name="e_fr_energy">   -186.99485663 </i>
    <i name="e_wo_entrp">   -186.66399579 </i>
    <i name="e_0_energy">   -186.82942621 </i>
   </energy>
  </scstep>
  <scstep>
   <time name="dav">   32.39   32.47</time>
   <time name="total">   32.93   33.01</time>
   <energy>
    <i name="e_fr_energy">   -186.88852728 </i>
    <i name="e_wo_entrp">   -186.55390437 </i>
    <i name="e_0_energy">   -186.72121583 </i>
   </energy>
  </scstep>
  <scstep>
   <time name="dav">   32.59   32.67</time>
   <time name="total">   33.12   33.21</time>
   <energy>
    <i name="e_fr_energy">   -186.85101012 </i>
    <i name="e_wo_entrp">   -186.50647016 </i>
    <i name="e_0_energy">   -186.67874014 </i>
   </energy>
  </scstep>
  <scstep>
   <time name="dav">   31.49   31.56</time>
   <time name="total">   32.02   32.11</time>
   <energy>
    <i name="e_fr_energy">   -186.84957695 </i>
    <i name="e_wo_entrp">   -186.50579657 </i>
    <i name="e_0_energy">   -186.67768676 </i>
   </energy>
  </scstep>
  <scstep>
   <time name="dav">   33.06   33.14</time>
   <time name="total">   33.59   33.68</time>
   <energy>
    <i name="e_fr_energy">   -186.84363221 </i>
    <i name="e_wo_entrp">   -186.50037206 </i>
    <i name="e_0_energy">   -186.67200213 </i>
   </energy>
  </scstep>
  <scstep>
   <time name="dav">   32.03   32.10</time>
   <time name="total">   32.56   32.65</time>
   <energy>
    <i name="e_fr_energy">   -186.84231967 </i>
    <i name="e_wo_entrp">   -186.50053710 </i>
    <i name="e_0_energy">   -186.67142839 </i>
   </energy>
  </scstep>
  <scstep>
   <time name="dav">   30.01   30.09</time>
   <time name="total">   30.55   30.63</time>
   <energy>
    <i name="e_fr_energy">   -186.84208622 </i>
    <i name="e_wo_entrp">   -186.49981360 </i>
    <i name="e_0_energy">   -186.67094991 </i>
   </energy>
  </scstep>
  <scstep>
   <time name="dav">   28.48   28.55</time>
   <time name="total">   29.02   29.09</time>
   <energy>
    <i name="e_fr_energy">   -186.84188812 </i>
    <i name="e_wo_entrp">   -186.49951729 </i>
    <i name="e_0_energy">   -186.67070271 </i>
   </energy>
  </scstep>
  <scstep>
   <time name="dav">   23.86   23.91</time>
   <time name="total">   24.39   24.46</time>
   <energy>
    <i name="e_fr_energy">   -186.84262636 </i>
    <i name="e_wo_entrp">   -186.50069325 </i>
    <i name="e_0_energy">   -186.67165980 </i>
   </energy>
  </scstep>
  <scstep>
   <time name="dav">   22.09   22.14</time>
   <time name="total">   22.62   22.68</time>
   <energy>
    <i name="e_fr_energy">   -186.84340501 </i>
    <i name="e_wo_entrp">   -186.50144435 </i>
    <i name="e_0_energy">   -186.67242468 </i>
   </energy>
  </scstep>
  <scstep>
   <time name="dav">   20.59   20.64</time>
   <time name="total">   21.13   21.19</time>
   <energy>
    <i name="e_fr_energy">   -186.84440561 </i>
    <i name="e_wo_entrp">   -186.50233554 </i>
    <i name="e_0_energy">   -186.67337058 </i>
   </energy>
  </scstep>
  <scstep>
   <time name="dav">   20.59   20.64</time>
   <time name="total">   21.12   21.18</time>
   <energy>
    <i name="e_fr_energy">   -186.84556805 </i>
    <i name="e_wo_entrp">   -186.50362117 </i>
    <i name="e_0_energy">   -186.67459461 </i>
   </energy>
  </scstep>
  <scstep>
   <time name="dav">   19.32   19.36</time>
   <time name="total">   19.85   19.90</time>
   <energy>
    <i name="e_fr_energy">   -186.84612450 </i>
    <i name="e_wo_entrp">   -186.50411656 </i>
    <i name="e_0_energy">   -186.67512053 </i>
   </energy>
  </scstep>
  <scstep>
   <time name="dav">   16.49   16.53</time>
   <time name="total">   17.03   17.07</time>
   <energy>
    <i name="e_fr_energy">   -186.84651734 </i>
    <i name="e_wo_entrp">   -186.50449366 </i>
    <i name="e_0_energy">   -186.67550550 </i>
   </energy>
  </scstep>
  <scstep>
   <time name="dav">   19.42   19.46</time>
   <time name="total">   19.95   20.01</time>
   <energy>
    <i name="e_fr_energy">   -186.84676132 </i>
    <i name="e_wo_entrp">   -186.50475469 </i>
    <i name="e_0_energy">   -186.67575801 </i>
   </energy>
  </scstep>
  <scstep>
   <time name="dav">   20.97   21.02</time>
   <time name="total">   21.02   21.07</time>
   <energy>
    <i name="alphaZ">     81.65567618 </i>
    <i name="ewald">  41891.17178794 </i>
    <i name="hartreedc"> -47833.66694030 </i>
    <i name="XCdc">   -231.60453931 </i>
    <i name="pawpsdc">   4192.08687047 </i>
    <i name="pawaedc">  -3610.08843931 </i>
    <i name="eentropy">     -0.34201235 </i>
    <i name="bandstr">  -1437.50177548 </i>
    <i name="atom">   6761.44252427 </i>
    <i name="e_fr_energy">   -186.84684789 </i>
    <i name="e_wo_entrp">   -186.50483554 </i>
    <i name="e_0_energy">   -186.67584172 </i>
   </energy>
  </scstep>
  <structure>
   <crystal>
    <varray name="basis" >
     <v>       8.66999996       5.03999989       0.00000000 </v>
     <v>      -8.66999982       5.04000013       0.00000000 </v>
     <v>       0.00000000       0.00000000      30.00000000 </v>
    </varray>
    <i name="volume">   2621.80797419 </i>
    <varray name="rec_basis" >
     <v>       0.05767013       0.09920635       0.00000000 </v>
     <v>      -0.05767013       0.09920635       0.00000000 </v>
     <v>       0.00000000       0.00000000       0.03333333 </v>
    </varray>
   </crystal>
   <varray name="positions" >
    <v>       0.66666669       0.33333334       0.00000000 </v>
    <v>       0.33333334       0.33333334       0.00000000 </v>
    <v>       0.66666669       0.66666669       0.00000000 </v>
    <v>       1.00000000       0.33333334       0.00000000 </v>
    <v>       0.33333334       0.00000000       0.00000000 </v>
    <v>       0.00000000       0.00000000       0.00000000 </v>
    <v>       0.00000000       0.66666669       0.00000000 </v>
    <v>       0.33333334       0.66666669       0.00000000 </v>
    <v>       0.66666669       0.00000000       0.00000000 </v>
    <v>       0.11068511       0.22244981       0.95539999 </v>
    <v>       0.22244981       0.11068511       0.04460000 </v>
    <v>       0.11068511       0.55578315       0.95539999 </v>
    <v>       0.22244981       0.44401845       0.04460000 </v>
    <v>       0.11068511       0.88911647       0.95539999 </v>
    <v>       0.22244981       0.77735180       0.04460000 </v>
    <v>       0.44401845       0.22244981       0.95539999 </v>
    <v>       0.55578315       0.11068511       0.04460000 </v>
    <v>       0.44401845       0.55578315       0.95539999 </v>
    <v>       0.55578315       0.44401845       0.04460000 </v>
    <v>       0.44401845       0.88911647       0.95539999 </v>
    <v>       0.55578315       0.77735180       0.04460000 </v>
    <v>       0.77735180       0.22244981       0.95539999 </v>
    <v>       0.88911647       0.11068511       0.04460000 </v>
    <v>       0.77735180       0.55578315       0.95539999 </v>
    <v>       0.88911647       0.44401845       0.04460000 </v>
    <v>       0.77735180       0.88911647       0.95539999 </v>
    <v>       0.88911647       0.77735180       0.04460000 </v>
   </varray>
  </structure>
  <varray name="forces" >
   <v>       0.01259649      -0.12518902       0.04930744 </v>
   <v>       0.10663428      -0.32786062       0.01409368 </v>
   <v>       0.07856515       0.07943899       0.02833161 </v>
   <v>       0.26534269      -0.13484862      -0.09243520 </v>
   <v>      -0.28241100      -0.14047064       0.06594909 </v>
   <v>      -0.00471717       0.32197722      -0.11867025 </v>
   <v>      -0.06307142       0.21696399       0.13581048 </v>
   <v>      -0.14405522      -0.17922038       0.06450490 </v>
   <v>      -0.00034815       0.34382109      -0.14721378 </v>
   <v>       0.51618562       0.67675364      -2.18912326 </v>
   <v>      -0.50495915       0.70506068       2.17645865 </v>
   <v>       0.07664388       0.09757174      -2.90403028 </v>
   <v>       0.65870414       0.17257387       2.10517884 </v>
   <v>       0.17098714      -0.15372266      -2.89353316 </v>
   <v>      -0.04940479      -0.13707801       2.98404830 </v>
   <v>      -0.32798737       0.67280845      -1.41979856 </v>
   <v>      -0.38067378       0.67542096       2.15184602 </v>
   <v>       0.74473520       0.00098058      -1.44328114 </v>
   <v>      -0.05679831       0.00519110       0.76264960 </v>
   <v>       0.29213868       0.03019321      -2.84037660 </v>
   <v>       0.58931124      -0.02410869       2.10461279 </v>
   <v>      -0.63978500      -0.16291054      -2.14767856 </v>
   <v>      -0.20129908      -0.15650372       2.88474273 </v>
   <v>      -0.24011156      -0.53511215      -1.41002320 </v>
   <v>      -0.62676317      -0.53178101       2.09958204 </v>
   <v>       0.35052073      -0.68578812      -2.15300129 </v>
   <v>      -0.33998006      -0.70416134       2.13204910 </v>
  </varray>
  <varray name="stress" >
   <v>       7.25787685       0.04957267      -1.51381341 </v>
   <v>       0.04957258       4.49774845       0.05221602 </v>
   <v>      -1.51381349       0.05221610      30.31642391 </v>
  </varray>
  <energy>
   <i name="e_fr_energy">   -186.84684789 </i>
   <i name="e_wo_entrp">   -186.67584172 </i>
   <i name="e_0_energy">     -0.34201235 </i>
  </energy>
  <time name="totalsc">  801.10  803.26</time>
 </calculation>
 <calculation>
  <scstep>
   <time name="dav">   22.03   22.08</time>
   <time name="total">   22.57   22.63</time>
   <energy>
    <i name="alphaZ">     78.92098921 </i>
    <i name="ewald">  39378.93179103 </i>
    <i name="hartreedc"> -45336.23749531 </i>
    <i name="XCdc">   -239.06932756 </i>
    <i name="pawpsdc">   4192.07233129 </i>
    <i name="pawaedc">  -3610.07403742 </i>
    <i name="eentropy">     -0.27932177 </i>
    <i name="bandstr">  -1413.20645675 </i>
    <i name="atom">   6761.44252427 </i>
    <i name="e_fr_energy">   -187.49900301 </i>
    <i name="e_wo_entrp">   -187.21968124 </i>
    <i name="e_0_energy">   -187.35934212 </i>
   </energy>
  </scstep>
  <scstep>
   <time name="dav">   30.74   30.81</time>
   <time name="total">   31.27   31.36</time>
   <energy>
    <i name="e_fr_energy">   -189.37988034 </i>
    <i name="e_wo_entrp">   -189.05447048 </i>
    <i name="e_0_energy">   -189.21717541 </i>
   </energy>
  </scstep>
  <scstep>
   <time name="dav">   30.93   31.01</time>
   <time name="total">   31.48   31.56</time>
   <energy>
    <i name="e_fr_energy">   -189.35358607 </i>
    <i name="e_wo_entrp">   -189.09653760 </i>
    <i name="e_0_energy">   -189.22506184 </i>
   </energy>
  </scstep>
  <scstep>
   <time name="dav">   29.81   29.88</time>
   <time name="total">   30.35   30.43</time>
   <energy>
    <i name="e_fr_energy">   -188.75380299 </i>
    <i name="e_wo_entrp">   -188.47309394 </i>
    <i name="e_0_energy">   -188.61344846 </i>
   </energy>
  </scstep>
  <scstep>
   <time name="dav">   29.59   29.66</time>
   <time name="total">   30.13   30.21</time>
   <energy>
    <i name="e_fr_energy">   -188.86831771 </i>
    <i name="e_wo_entrp">   -188.58149651 </i>
    <i name="e_0_energy">   -188.72490711 </i>
   </energy>
  </scstep>
  <scstep>
   <time name="dav">   31.51   31.59</time>
   <time name="total">   32.06   32.14</time>
   <energy>
    <i name="e_fr_energy">   -188.73750927 </i>
    <i name="e_wo_entrp">   -188.45600812 </i>
    <i name="e_0_energy">   -188.59675869 </i>
   </energy>
  </scstep>
  <scstep>
   <time name="dav">   29.84   29.91</time>
   <time name="total">   30.39   30.47</time>
   <energy>
    <i name="e_fr_energy">   -188.68605860 </i>
    <i name="e_wo_entrp">   -188.40452072 </i>
    <i name="e_0_energy">   -188.54528966 </i>
   </energy>
  </scstep>
  <scstep>
   <time name="dav">   31.08   31.15</time>
   <time name="total">   31.62   31.71</time>
   <energy>
    <i name="e_fr_energy">   -188.68394357 </i>
    <i name="e_wo_entrp">   -188.40160236 </i>
    <i name="e_0_energy">   -188.54277297 </i>
   </energy>
  </scstep>
  <scstep>
   <time name="dav">   29.42   29.49</time>
   <time name="total">   29.97   30.05</time>
   <energy>
    <i name="e_fr_energy">   -188.65574628 </i>
    <i name="e_wo_entrp">   -188.37649222 </i>
    <i name="e_0_energy">   -188.51611925 </i>
   </energy>
  </scstep>
  <scstep>
   <time name="dav">   31.98   32.05</time>
   <time name="total">   32.52   32.61</time>
   <energy>
    <i name="e_fr_energy">   -188.65481280 </i>
    <i name="e_wo_entrp">   -188.37655012 </i>
    <i name="e_0_energy">   -188.51568146 </i>
   </energy>
  </scstep>
  <scstep>
   <time name="dav">   31.32   31.40</time>
   <time name="total">   31.87   31.95</time>
   <energy>
    <i name="e_fr_energy">   -188.65437515 </i>
    <i name="e_wo_entrp">   -188.37678775 </i>
    <i name="e_0_energy">   -188.51558145 </i>
   </energy>
  </scstep>
  <scstep>
   <time name="dav">   28.43   28.50</time>
   <time name="total">   28.47   28.54</time>
   <energy>
    <i name="alphaZ">     78.92098921 </i>
    <i name="ewald">  39378.93179103 </i>
    <i name="hartreedc"> -45347.21943866 </i>
    <i name="XCdc">   -237.97742692 </i>
    <i name="pawpsdc">   3952.40518476 </i>
    <i name="pawaedc">  -3366.93042401 </i>
    <i name="eentropy">     -0.27773781 </i>
    <i name="bandstr">  -1407.94985184 </i>
    <i name="atom">   6761.44252427 </i>
    <i name="e_fr_energy">   -188.65438997 </i>
    <i name="e_wo_entrp">   -188.37665216 </i>
    <i name="e_0_energy">   -188.51552106 </i>
   </energy>
  </scstep>
  <structure>
   <crystal>
    <varray name="basis" >
     <v>       8.85471717       5.10753670       0.00000000 </v>
     <v>      -8.85325599       5.10502361       0.00000000 </v>
     <v>       0.00000000       0.00000000      30.00000000 </v>
    </varray>
    <i name="volume">   2712.65610186 </i>
    <varray name="rec_basis" >
     <v>       0.05645784       0.09791056       0.00000000 </v>
     <v>      -0.05648563       0.09792672       0.00000000 </v>
     <v>       0.00000000       0.00000000       0.03333333 </v>
    </varray>
   </crystal>
   <varray name="positions" >
    <v>       0.66610258       0.33269915       0.00007929 </v>
    <v>       0.33206088       0.33146754       0.00002266 </v>
    <v>       0.66726546       0.66682830       0.00004556 </v>
    <v>       1.00009284       0.33194973      -0.00014864 </v>
    <v>       0.33187534       0.00011342       0.00010605 </v>
    <v>       0.00152785       0.00155410      -0.00019083 </v>
    <v>       0.00086291       0.66788055       0.00021840 </v>
    <v>       0.33207481       0.66620973       0.00010373 </v>
    <v>       0.66831124       0.00164649      -0.00023673 </v>
    <v>       0.11536015       0.22425263       0.95187969 </v>
    <v>       0.22441934       0.11546439       0.04809994 </v>
    <v>       0.11136532       0.55603689       0.95073005 </v>
    <v>       0.22510836       0.44301177       0.04798531 </v>
    <v>       0.11042511       0.88790504       0.95074693 </v>
    <v>       0.22165631       0.77683320       0.04939861 </v>
    <v>       0.44632599       0.22658237       0.95311683 </v>
    <v>       0.55795661       0.11497676       0.04806036 </v>
    <v>       0.44609512       0.55371587       0.95307907 </v>
    <v>       0.55564998       0.44420132       0.04582641 </v>
    <v>       0.44497573       0.88844819       0.95083241 </v>
    <v>       0.55730733       0.77559685       0.04798440 </v>
    <v>       0.77479213       0.22345011       0.95194633 </v>
    <v>       0.88780740       0.11049613       0.04923892 </v>
    <v>       0.77412273       0.55389015       0.95313255 </v>
    <v>       0.88482762       0.44321712       0.04797631 </v>
    <v>       0.77504483       0.88485909       0.95193777 </v>
    <v>       0.88480049       0.77492758       0.04802852 </v>
   </varray>
  </structure>
  <varray name="forces" >
   <v>       0.09947823      -0.11428996       0.08463760 </v>
   <v>       0.05016623      -0.32846814      -0.01147408 </v>
   <v>       0.03253322       0.09810961       0.00334811 </v>
   <v>       0.25516126      -0.21683385       0.03902709 </v>
   <v>      -0.09279509      -0.43894811      -0.03299167 </v>
   <v>      -0.05802369       0.27810426      -0.03003808 </v>
   <v>       0.12768538       0.48684020       0.05891493 </v>
   <v>      -0.42463015      -0.18583222      -0.04713171 </v>
   <v>       0.03733946       0.39713682      -0.03541966 </v>
   <v>       0.04496327       0.08379383      -0.19480238 </v>
   <v>      -0.03674894       0.08615940       0.15034947 </v>
   <v>      -0.07823513       0.08476084       0.01387289 </v>
   <v>      -0.00587159       0.10980422      -0.01692935 </v>
   <v>       0.04943463      -0.12020326      -0.13723240 </v>
   <v>       0.06069296      -0.10706618       0.18060189 </v>
   <v>      -0.02613625       0.05745430       0.07618916 </v>
   <v>       0.10087866       0.04565879      -0.06662805 </v>
   <v>      -0.08426912      -0.00968584       0.24257645 </v>
   <v>      -0.00701509      -0.01139632      -0.19566833 </v>
   <v>       0.11084423      -0.00186288       0.10017282 </v>
   <v>      -0.10381160      -0.00498106      -0.14559919 </v>
   <v>       0.01238938      -0.10312066      -0.11105252 </v>
   <v>      -0.04685375      -0.11245492       0.09081025 </v>
   <v>       0.06030734       0.05473439       0.15887596 </v>
   <v>      -0.08017947       0.05442181      -0.13491371 </v>
   <v>      -0.10995333      -0.04116336       0.00864384 </v>
   <v>       0.11264898      -0.04067171      -0.04813935 </v>
  </varray>
  <varray name="stress" >
   <v>     -19.99239825       0.01074133       0.01093062 </v>
   <v>       0.01074135     -19.58186486       0.01024161 </v>
   <v>       0.01093035       0.01024169      -1.80498412 </v>
  </varray>
  <energy>
   <i name="e_fr_energy">   -188.65438997 </i>
   <i name="e_wo_entrp">   -188.51552106 </i>
   <i name="e_0_energy">     -0.27773781 </i>
  </energy>
  <time name="totalsc">  404.99  406.06</time>
 </calculation>
 <calculation>
  <scstep>
   <time name="dav">   24.17   24.23</time>
   <time name="total">   24.70   24.76</time>
   <energy>
    <i name="alphaZ">     82.34607223 </i>
    <i name="ewald">  41302.42558919 </i>
    <i name="hartreedc"> -47301.30323025 </i>
    <i name="XCdc">   -233.85653968 </i>
    <i name="pawpsdc">   3950.54985783 </i>
    <i name="pawaedc">  -3365.05335881 </i>
    <i name="eentropy">     -0.23210996 </i>
    <i name="bandstr">  -1386.89470382 </i>
    <i name="atom">   6761.44252427 </i>
    <i name="e_fr_energy">   -190.57589900 </i>
    <i name="e_wo_entrp">   -190.34378904 </i>
    <i name="e_0_energy">   -190.45984402 </i>
   </energy>
  </scstep>
  <scstep>
   <time name="dav">   29.09   29.16</time>
   <time name="total">   29.61   29.69</time>
   <energy>
    <i name="e_fr_energy">   -190.52523239 </i>
    <i name="e_wo_entrp">   -190.30798201 </i>
    <i name="e_0_energy">   -190.41660720 </i>
   </energy>
  </scstep>
  <scstep>
   <time name="dav">   30.71   30.79</time>
   <time name="total">   31.24   31.32</time>
   <energy>
    <i name="e_fr_energy">   -190.05948682 </i>
    <i name="e_wo_entrp">   -189.80972362 </i>
    <i name="e_0_energy">   -189.93460522 </i>
   </energy>
  </scstep>
  <scstep>
   <time name="dav">   32.26   32.33</time>
   <time name="total">   32.79   32.88</time>
   <energy>
    <i name="e_fr_energy">   -189.84832048 </i>
    <i name="e_wo_entrp">   -189.62563797 </i>
    <i name="e_0_energy">   -189.73697923 </i>
   </energy>
  </scstep>
  <scstep>
   <time name="dav">   30.54   30.61</time>
   <time name="total">   31.06   31.15</time>
   <energy>
    <i name="e_fr_energy">   -189.81086563 </i>
    <i name="e_wo_entrp">   -189.57010911 </i>
    <i name="e_0_energy">   -189.69048737 </i>
   </energy>
  </scstep>
  <scstep>
   <time name="dav">   31.67   31.75</time>
   <time name="total">   32.20   32.29</time>
   <energy>
    <i name="e_fr_energy">   -189.74723093 </i>
    <i name="e_wo_entrp">   -189.51616617 </i>
    <i name="e_0_energy">   -189.63169855 </i>
   </energy>
  </scstep>
  <scstep>
   <time name="dav">   29.22   29.29</time>
   <time name="total">   29.75   29.83</time>
   <energy>
    <i name="e_fr_energy">   -189.74241980 </i>
    <i name="e_wo_entrp">   -189.50948651 </i>
    <i name="e_0_energy">   -189.62595315 </i>
   </energy>
  </scstep>
  <scstep>
   <time name="dav">   31.46   31.53</time>
   <time name="total">   31.99   32.07</time>
   <energy>
    <i name="e_fr_energy">   -189.74270250 </i>
    <i name="e_wo_entrp">   -189.51033062 </i>
    <i name="e_0_energy">   -189.62651656 </i>
   </energy>
  </scstep>
  <scstep>
   <time name="dav">   28.61   28.68</time>
   <time name="total">   29.14   29.22</time>
   <energy>
    <i name="e_fr_energy">   -189.74166540 </i>
    <i name="e_wo_entrp">   -189.50916069 </i>
    <i name="e_0_energy">   -189.62541304 </i>
   </energy>
  </scstep>
  <scstep>
   <time name="dav">   25.70   25.76</time>
   <time name="total">   26.23   26.30</time>
   <energy>
    <i name="e_fr_energy">   -189.74192201 </i>
    <i name="e_wo_entrp">   -189.50915927 </i>
    <i name="e_0_energy">   -189.62554064 </i>
   </energy>
  </scstep>
  <scstep>
   <time name="dav">   21.90   21.95</time>
   <time name="total">   21.94   22.00</time>
   <energy>
    <i name="alphaZ">     82.34607223 </i>
    <i name="ewald">  41302.42558919 </i>
    <i name="hartreedc"> -47274.39447995 </i>
    <i name="XCdc">   -235.25049623 </i>
    <i name="pawpsdc">   4038.04356008 </i>
    <i name="pawaedc">  -3453.73719128 </i>
    <i name="eentropy">     -0.23272672 </i>
    <i name="bandstr">  -1410.38469193 </i>
    <i name="atom">   6761.44252427 </i>
    <i name="e_fr_energy">   -189.74184035 </i>
    <i name="e_wo_entrp">   -189.50911362 </i>
    <i name="e_0_energy">   -189.62547698 </i>
   </energy>
  </scstep>
  <structure>
   <crystal>
    <varray name="basis" >
     <v>       8.66673877       5.00140250       0.00000000 </v>
     <v>      -8.66519210       4.99873965       0.00000000 </v>
     <v>       0.00000000       0.00000000      30.00000000 </v>
    </varray>
    <i name="volume">   2599.82652639 </i>
    <varray name="rec_basis" >
     <v>       0.05768161       0.09998966       0.00000000 </v>
     <v>      -0.05771234       0.10000750       0.00000000 </v>
     <v>       0.00000000       0.00000000       0.03333333 </v>
    </varray>
   </crystal>
   <varray name="positions" >
    <v>       0.66600817       0.33241439       0.00012708 </v>
    <v>       0.33156410       0.33087469       0.00001619 </v>
    <v>       0.66745929       0.66695991       0.00004745 </v>
    <v>       0.99997724       0.33134592      -0.00012661 </v>
    <v>       0.33105861      -0.00052590       0.00008742 </v>
    <v>       0.00193359       0.00207093      -0.00020779 </v>
    <v>       0.00179244       0.66856593       0.00025166 </v>
    <v>       0.33136053       0.66630776       0.00007712 </v>
    <v>       0.66900559       0.00226952      -0.00025673 </v>
    <v>       0.11554212       0.22434860       0.95176970 </v>
    <v>       0.22452709       0.11564247       0.04818483 </v>
    <v>       0.11143108       0.55625235       0.95073789 </v>
    <v>       0.22528486       0.44319952       0.04797575 </v>
    <v>       0.11027303       0.88765835       0.95066945 </v>
    <v>       0.22153678       0.77659753       0.04950059 </v>
    <v>       0.44639628       0.22670268       0.95315985 </v>
    <v>       0.55812880       0.11495597       0.04802274 </v>
    <v>       0.44599847       0.55378044       0.95321603 </v>
    <v>       0.55562437       0.44418913       0.04571593 </v>
    <v>       0.44507865       0.88833905       0.95088897 </v>
    <v>       0.55719979       0.77568792       0.04790219 </v>
    <v>       0.77463295       0.22326720       0.95188363 </v>
    <v>       0.88757608       0.11035443       0.04929019 </v>
    <v>       0.77427118       0.55392324       0.95322225 </v>
    <v>       0.88484120       0.44338411       0.04790014 </v>
    <v>       0.77487141       0.88489602       0.95194265 </v>
    <v>       0.88484076       0.77475233       0.04800134 </v>
   </varray>
  </structure>
  <varray name="forces" >
   <v>       0.15897570      -0.10553073       0.07176823 </v>
   <v>       0.01070857      -0.35001104      -0.01603058 </v>
   <v>      -0.00688761       0.13537373      -0.00480936 </v>
   <v>       0.25746065      -0.25156666       0.05394539 </v>
   <v>      -0.02225618      -0.54470604      -0.03985438 </v>
   <v>      -0.08562344       0.24508158      -0.00073357 </v>
   <v>       0.18073122       0.57854180       0.02438699 </v>
   <v>      -0.52133759      -0.16184721      -0.05977170 </v>
   <v>       0.06723095       0.39816528       0.00307598 </v>
   <v>       0.09069967       0.15804151      -0.70702965 </v>
   <v>      -0.07712887       0.14702500       0.64485985 </v>
   <v>      -0.04579064       0.00414125      -0.53553369 </v>
   <v>       0.10994467       0.04455707       0.47566651 </v>
   <v>      -0.00021109      -0.06056173      -0.69630135 </v>
   <v>       0.02438131      -0.03253452       0.78800021 </v>
   <v>      -0.05925869       0.11485593      -0.36309004 </v>
   <v>      -0.01283429       0.09208020       0.41383161 </v>
   <v>       0.06709491      -0.01218269      -0.19322058 </v>
   <v>      -0.01642819      -0.01458158       0.21198660 </v>
   <v>       0.04114512       0.00549202      -0.43527077 </v>
   <v>       0.02875506      -0.00122798       0.33473634 </v>
   <v>      -0.11343129      -0.01877140      -0.63227704 </v>
   <v>       0.00426298      -0.04928431       0.64641215 </v>
   <v>      -0.00787246      -0.06599401      -0.27977342 </v>
   <v>      -0.07431414      -0.06893276       0.34495593 </v>
   <v>       0.01866069      -0.09753439      -0.49338559 </v>
   <v>      -0.01667702      -0.08808834       0.44345593 </v>
  </varray>
  <varray name="stress" >
   <v>     -10.20275915      -0.01287643      -0.01839006 </v>
   <v>      -0.01287618      -9.88948232      -0.00025562 </v>
   <v>      -0.01839001      -0.00025562       6.52035559 </v>
  </varray>
  <energy>
   <i name="e_fr_energy">   -189.74184035 </i>
   <i name="e_wo_entrp">   -189.62547698 </i>
   <i name="e_0_energy">     -0.23272672 </i>
  </energy>
  <time name="totalsc">  362.97  363.93</time>
 </calculation>
 <calculation>
  <scstep>
   <time name="dav">   22.00   22.05</time>
   <time name="total">   22.52   22.58</time>
   <energy>
    <i name="alphaZ">     85.83203234 </i>
    <i name="ewald">  42838.10173504 </i>
    <i name="hartreedc"> -48854.70509915 </i>
    <i name="XCdc">   -232.95752369 </i>
    <i name="pawpsdc">   4038.55864043 </i>
    <i name="pawaedc">  -3454.25314699 </i>
    <i name="eentropy">     -0.19037519 </i>
    <i name="bandstr">  -1373.14594004 </i>
    <i name="atom">   6761.44252427 </i>
    <i name="e_fr_energy">   -191.31715298 </i>
    <i name="e_wo_entrp">   -191.12677778 </i>
    <i name="e_0_energy">   -191.22196538 </i>
   </energy>
  </scstep>
  <scstep>
   <time name="dav">   33.10   33.18</time>
   <time name="total">   33.61   33.70</time>
   <energy>
    <i name="e_fr_energy">   -191.11789920 </i>
    <i name="e_wo_entrp">   -190.92917751 </i>
    <i name="e_0_energy">   -191.02353836 </i>
   </energy>
  </scstep>
  <scstep>
   <time name="dav">   30.63   30.70</time>
   <time name="total">   31.14   31.22</time>
   <energy>
    <i name="e_fr_energy">   -191.31178346 </i>
    <i name="e_wo_entrp">   -191.09673995 </i>
    <i name="e_0_energy">   -191.20426170 </i>
   </energy>
  </scstep>
  <scstep>
   <time name="dav">   29.78   29.85</time>
   <time name="total">   30.29   30.38</time>
   <energy>
    <i name="e_fr_energy">   -190.90035127 </i>
    <i name="e_wo_entrp">   -190.70283783 </i>
    <i name="e_0_energy">   -190.80159455 </i>
   </energy>
  </scstep>
  <scstep>
   <time name="dav">   28.16   28.23</time>
   <time name="total">   28.68   28.76</time>
   <energy>
    <i name="e_fr_energy">   -190.90261774 </i>
    <i name="e_wo_entrp">   -190.71883193 </i>
    <i name="e_0_energy">   -190.81072484 </i>
   </energy>
  </scstep>
  <scstep>
   <time name="dav">   30.22   30.29</time>
   <time name="total">   30.74   30.82</time>
   <energy>
    <i name="e_fr_energy">   -190.73246733 </i>
    <i name="e_wo_entrp">   -190.53687930 </i>
    <i name="e_0_energy">   -190.63467332 </i>
   </energy>
  </scstep>
  <scstep>
   <time name="dav">   31.11   31.19</time>
   <time name="total">   31.63   31.72</time>
   <energy>
    <i name="e_fr_energy">   -190.73256709 </i>
    <i name="e_wo_entrp">   -190.53769759 </i>
    <i name="e_0_energy">   -190.63513234 </i>
   </energy>
  </scstep>
  <scstep>
   <time name="dav">   29.37   29.44</time>
   <time name="total">   29.89   29.97</time>
   <energy>
    <i name="e_fr_energy">   -190.73027826 </i>
    <i name="e_wo_entrp">   -190.53537840 </i>
    <i name="e_0_energy">   -190.63282833 </i>
   </energy>
  </scstep>
  <scstep>
   <time name="dav">   29.07   29.14</time>
   <time name="total">   29.58   29.66</time>
   <energy>
    <i name="e_fr_energy">   -190.72813793 </i>
    <i name="e_wo_entrp">   -190.53316382 </i>
    <i name="e_0_energy">   -190.63065087 </i>
   </energy>
  </scstep>
  <scstep>
   <time name="dav">   27.86   27.93</time>
   <time name="total">   28.38   28.46</time>
   <energy>
    <i name="e_fr_energy">   -190.72840447 </i>
    <i name="e_wo_entrp">   -190.53331535 </i>
    <i name="e_0_energy">   -190.63085991 </i>
   </energy>
  </scstep>
  <scstep>
   <time name="dav">   26.25   26.32</time>
   <time name="total">   26.78   26.85</time>
   <energy>
    <i name="e_fr_energy">   -190.72821760 </i>
    <i name="e_wo_entrp">   -190.53308508 </i>
    <i name="e_0_energy">   -190.63065134 </i>
   </energy>
  </scstep>
  <scstep>
   <time name="dav">   20.03   20.08</time>
   <time name="total">   20.06   20.12</time>
   <energy>
    <i name="alphaZ">     85.83203234 </i>
    <i name="ewald">  42838.10173504 </i>
    <i name="hartreedc"> -48826.11936471 </i>
    <i name="XCdc">   -234.29617757 </i>
    <i name="pawpsdc">   4063.50097674 </i>
    <i name="pawaedc">  -3479.36866563 </i>
    <i name="eentropy">     -0.19517373 </i>
    <i name="bandstr">  -1399.62610759 </i>
    <i name="atom">   6761.44252427 </i>
    <i name="e_fr_energy">   -190.72822083 </i>
    <i name="e_wo_entrp">   -190.53304711 </i>
    <i name="e_0_energy">   -190.63063397 </i>
   </energy>
  </scstep>
  <structure>
   <crystal>
    <varray name="basis" >
     <v>       8.48431778       4.90045337       0.00000000 </v>
     <v>      -8.48366122       4.89933029       0.00000000 </v>
     <v>       0.00000000       0.00000000      30.00000000 </v>
    </varray>
    <i name="volume">   2494.23783977 </i>
    <varray name="rec_basis" >
     <v>       0.05892778       0.10203912       0.00000000 </v>
     <v>      -0.05894129       0.10204702       0.00000000 </v>
     <v>       0.00000000       0.00000000       0.03333333 </v>
    </varray>
   </crystal>
   <varray name="positions" >
    <v>       0.66602949       0.33111531       0.00026460 </v>
    <v>       0.32930113       0.32864780      -0.00002086 </v>
    <v>       0.66831812       0.66798244       0.00003055 </v>
    <v>       0.99924885       0.32875045      -0.00000229 </v>
    <v>       0.32740592      -0.00422202      -0.00000088 </v>
    <v>       0.00303599       0.00387186      -0.00018435 </v>
    <v>       0.00637235       0.67168770       0.00027271 </v>
    <v>       0.32838518       0.66737794      -0.00005731 </v>
    <v>       0.67178633       0.00447872      -0.00021758 </v>
    <v>       0.11711063       0.22513004       0.94987063 </v>
    <v>       0.22526283       0.11705219       0.04994018 </v>
    <v>       0.11113675       0.55619519       0.94916197 </v>
    <v>       0.22596466       0.44275079       0.04937942 </v>
    <v>       0.10997078       0.88750085       0.94875268 </v>
    <v>       0.22155526       0.77654464       0.05164823 </v>
    <v>       0.44699701       0.22782729       0.95203450 </v>
    <v>       0.55861091       0.11585908       0.04928814 </v>
    <v>       0.44637662       0.55323702       0.95244510 </v>
    <v>       0.55545222       0.44416282       0.04650171 </v>
    <v>       0.44517947       0.88834375       0.94953239 </v>
    <v>       0.55749657       0.77539439       0.04900384 </v>
    <v>       0.77413531       0.22395220       0.95013156 </v>
    <v>       0.88751476       0.11011476       0.05110079 </v>
    <v>       0.77342930       0.55333485       0.95226982 </v>
    <v>       0.88384121       0.44290397       0.04902253 </v>
    <v>       0.77437282       0.88389131       0.95049429 </v>
    <v>       0.88392398       0.77432912       0.04933752 </v>
   </varray>
  </structure>
  <varray name="forces" >
   <v>       0.16601943      -0.07654345       0.02040385 </v>
   <v>      -0.00078568      -0.29386419      -0.02257227 </v>
   <v>       0.00543180       0.11281516      -0.02069038 </v>
   <v>       0.27857773      -0.34461865       0.02601772 </v>
   <v>       0.05386212      -0.67707807      -0.02061915 </v>
   <v>      -0.15609199       0.18985514       0.03057600 </v>
   <v>       0.19416220       0.66446100      -0.02674097 </v>
   <v>      -0.63312766      -0.12831737      -0.03726659 </v>
   <v>       0.15096509       0.47712836       0.03212704 </v>
   <v>       0.04978602       0.06251350      -0.53216200 </v>
   <v>      -0.01163769       0.04688347       0.43513743 </v>
   <v>      -0.01359104      -0.08790178      -0.35379161 </v>
   <v>       0.03589420       0.00911730       0.27553157 </v>
   <v>      -0.06203289      -0.02443570      -0.52206820 </v>
   <v>      -0.01957943       0.02375613       0.72149948 </v>
   <v>       0.00168902      -0.02866706      -0.23619009 </v>
   <v>      -0.03234574      -0.02446129       0.22581881 </v>
   <v>      -0.01253488      -0.03429696      -0.09061703 </v>
   <v>      -0.01521606      -0.03222579       0.21824291 </v>
   <v>      -0.00596483       0.03870574      -0.25455627 </v>
   <v>      -0.03613851      -0.00120818       0.15059011 </v>
   <v>      -0.03646189       0.02698576      -0.46523059 </v>
   <v>       0.04752512       0.00882689       0.50214503 </v>
   <v>       0.03865214       0.02455278      -0.14513728 </v>
   <v>      -0.01638197       0.02192001       0.18140019 </v>
   <v>       0.02233284       0.01800315      -0.37227394 </v>
   <v>       0.00699257       0.02809409       0.28042623 </v>
  </varray>
  <varray name="stress" >
   <v>      -5.87924586       0.06822563      -0.01298140 </v>
   <v>       0.06822539      -5.72985356       0.08601651 </v>
   <v>      -0.01298146       0.08601651       4.54935526 </v>
  </varray>
  <energy>
   <i name="e_fr_energy">   -190.72822083 </i>
   <i name="e_wo_entrp">   -190.63063397 </i>
   <i name="e_0_energy">     -0.19517373 </i>
  </energy>
  <time name="totalsc">  385.72  386.74</time>
 </calculation>
 <calculation>
  <scstep>
   <time name="dav">   21.99   22.04</time>
   <time name="total">   22.50   22.56</time>
   <energy>
    <i name="alphaZ">     90.23461878 </i>
    <i name="ewald">  44693.43428478 </i>
    <i name="hartreedc"> -50737.08727028 </i>
    <i name="XCdc">   -231.80475581 </i>
    <i name="pawpsdc">   4063.44108131 </i>
    <i name="pawaedc">  -3479.30539192 </i>
    <i name="eentropy">     -0.17700311 </i>
    <i name="bandstr">  -1352.34433932 </i>
    <i name="atom">   6761.44252427 </i>
    <i name="e_fr_energy">   -192.16625130 </i>
    <i name="e_wo_entrp">   -191.98924819 </i>
    <i name="e_0_energy">   -192.07774974 </i>
   </energy>
  </scstep>
  <scstep>
   <time name="dav">   27.84   27.91</time>
   <time name="total">   28.35   28.42</time>
   <energy>
    <i name="e_fr_energy">   -191.88538119 </i>
    <i name="e_wo_entrp">   -191.69231455 </i>
    <i name="e_0_energy">   -191.78884787 </i>
   </energy>
  </scstep>
  <scstep>
   <time name="dav">   30.38   30.46</time>
   <time name="total">   30.89   30.97</time>
   <energy>
    <i name="e_fr_energy">   -192.36407996 </i>
    <i name="e_wo_entrp">   -192.18024795 </i>
    <i name="e_0_energy">   -192.27216396 </i>
   </energy>
  </scstep>
  <scstep>
   <time name="dav">   29.17   29.24</time>
   <time name="total">   29.68   29.76</time>
   <energy>
    <i name="e_fr_energy">   -191.68093993 </i>
    <i name="e_wo_entrp">   -191.50029689 </i>
    <i name="e_0_energy">   -191.59061841 </i>
   </energy>
  </scstep>
  <scstep>
   <time name="dav">   30.49   30.56</time>
   <time name="total">   31.00   31.08</time>
   <energy>
    <i name="e_fr_energy">   -191.62731792 </i>
    <i name="e_wo_entrp">   -191.43110297 </i>
    <i name="e_0_energy">   -191.52921045 </i>
   </energy>
  </scstep>
  <scstep>
   <time name="dav">   30.72   30.79</time>
   <time name="total">   31.22   31.30</time>
   <energy>
    <i name="e_fr_energy">   -191.47352437 </i>
    <i name="e_wo_entrp">   -191.28812069 </i>
    <i name="e_0_energy">   -191.38082253 </i>
   </energy>
  </scstep>
  <scstep>
   <time name="dav">   31.37   31.45</time>
   <time name="total">   31.88   31.96</time>
   <energy>
    <i name="e_fr_energy">   -191.46475159 </i>
    <i name="e_wo_entrp">   -191.28237357 </i>
    <i name="e_0_energy">   -191.37356258 </i>
   </energy>
  </scstep>
  <scstep>
   <time name="dav">   30.71   30.78</time>
   <time name="total">   31.22   31.30</time>
   <energy>
    <i name="e_fr_energy">   -191.44584452 </i>
    <i name="e_wo_entrp">   -191.25931765 </i>
    <i name="e_0_energy">   -191.35258109 </i>
   </energy>
  </scstep>
  <scstep>
   <time name="dav">   28.51   28.58</time>
   <time name="total">   29.02   29.10</time>
   <energy>
    <i name="e_fr_energy">   -191.44327885 </i>
    <i name="e_wo_entrp">   -191.25762032 </i>
    <i name="e_0_energy">   -191.35044958 </i>
   </energy>
  </scstep>
  <scstep>
   <time name="dav">   29.17   29.24</time>
   <time name="total">   29.67   29.75</time>
   <energy>
    <i name="e_fr_energy">   -191.44344324 </i>
    <i name="e_wo_entrp">   -191.25727652 </i>
    <i name="e_0_energy">   -191.35035988 </i>
   </energy>
  </scstep>
  <scstep>
   <time name="dav">   26.59   26.66</time>
   <time name="total">   26.63   26.70</time>
   <energy>
    <i name="alphaZ">     90.23461878 </i>
    <i name="ewald">  44693.43428478 </i>
    <i name="hartreedc"> -50702.74744430 </i>
    <i name="XCdc">   -233.32801402 </i>
    <i name="pawpsdc">   4086.82424606 </i>
    <i name="pawaedc">  -3502.79578152 </i>
    <i name="eentropy">     -0.18617648 </i>
    <i name="bandstr">  -1384.32162629 </i>
    <i name="atom">   6761.44252427 </i>
    <i name="e_fr_energy">   -191.44336872 </i>
    <i name="e_wo_entrp">   -191.25719223 </i>
    <i name="e_0_energy">   -191.35028048 </i>
   </energy>
  </scstep>
  <structure>
   <crystal>
    <varray name="basis" >
     <v>       8.27244106       4.78475171       0.00000000 </v>
     <v>      -8.26833292       4.77765179       0.00000000 </v>
     <v>       0.00000000       0.00000000      30.00000000 </v>
    </varray>
    <i name="volume">   2372.54288694 </i>
    <varray name="rec_basis" >
     <v>       0.06041179       0.10455027       0.00000000 </v>
     <v>      -0.06050156       0.10460221       0.00000000 </v>
     <v>       0.00000000       0.00000000       0.03333333 </v>
    </varray>
   </crystal>
   <varray name="positions" >
    <v>       0.66633768       0.32887528       0.00036129 </v>
    <v>       0.32546452       0.32493226      -0.00011248 </v>
    <v>       0.66981435       0.66955760      -0.00005207 </v>
    <v>       0.99702346       0.32259424       0.00013189 </v>
    <v>       0.31940781      -0.01307720      -0.00010075 </v>
    <v>       0.00428192       0.00729554      -0.00004937 </v>
    <v>       0.01613686       0.67853844       0.00015857 </v>
    <v>       0.32226076       0.67037014      -0.00023149 </v>
    <v>       0.67857745       0.00918366      -0.00006606 </v>
    <v>       0.11872637       0.22580521       0.94713337 </v>
    <v>       0.22597092       0.11818776       0.05228910 </v>
    <v>       0.10989991       0.55510481       0.94710021 </v>
    <v>       0.22646726       0.44221123       0.05108062 </v>
    <v>       0.10931809       0.88777812       0.94600989 </v>
    <v>       0.22181292       0.77711800       0.05518171 </v>
    <v>       0.44694823       0.22798321       0.95058329 </v>
    <v>       0.55823722       0.11628962       0.05077126 </v>
    <v>       0.44622537       0.55260254       0.95159471 </v>
    <v>       0.55495030       0.44391128       0.04777820 </v>
    <v>       0.44550821       0.88890046       0.94788336 </v>
    <v>       0.55752047       0.77536242       0.05018279 </v>
    <v>       0.77409210       0.22499847       0.94765826 </v>
    <v>       0.88809234       0.10992807       0.05374411 </v>
    <v>       0.77334501       0.55301911       0.95118059 </v>
    <v>       0.88343812       0.44282592       0.05031366 </v>
    <v>       0.77460874       0.88338490       0.94843776 </v>
    <v>       0.88374806       0.77453335       0.05103748 </v>
   </varray>
  </structure>
  <varray name="forces" >
   <v>       0.04966212      -0.02363437       0.03179500 </v>
   <v>       0.05801857      -0.13431783       0.00596654 </v>
   <v>       0.10338438       0.03238110       0.01810538 </v>
   <v>       0.21013091      -0.32592971      -0.04364303 </v>
   <v>       0.04745039      -0.40385312       0.01954379 </v>
   <v>      -0.22380039       0.00173833      -0.00296995 </v>
   <v>       0.01320268       0.35102197      -0.04773480 </v>
   <v>      -0.45966089      -0.03381345       0.05851645 </v>
   <v>       0.28647888       0.43984221       0.02713809 </v>
   <v>      -0.01998399      -0.04642162      -0.14991176 </v>
   <v>       0.08509256      -0.06930020       0.05389121 </v>
   <v>      -0.00026989      -0.17387714      -0.06426821 </v>
   <v>      -0.09367112      -0.00770550      -0.08642523 </v>
   <v>      -0.15775527      -0.00691638      -0.21084700 </v>
   <v>      -0.03079765       0.03712808       0.44308408 </v>
   <v>       0.09980391      -0.21642825       0.04183089 </v>
   <v>       0.01998943      -0.16670291      -0.14154781 </v>
   <v>      -0.22343168      -0.04607016       0.13408969 </v>
   <v>       0.01020327      -0.03827131       0.00833930 </v>
   <v>      -0.03527720       0.10997265       0.07586391 </v>
   <v>      -0.14014111       0.00219247      -0.16036927 </v>
   <v>       0.07760239       0.04723418      -0.13838940 </v>
   <v>       0.09337966       0.05499424       0.31707783 </v>
   <v>       0.12053180       0.18110631       0.07848292 </v>
   <v>       0.04912354       0.18269339      -0.15708772 </v>
   <v>      -0.03651585       0.12792191      -0.09648112 </v>
   <v>       0.09725054       0.12501510      -0.01404977 </v>
  </varray>
  <varray name="stress" >
   <v>      -0.09320100       0.04195836       0.29388809 </v>
   <v>       0.04195832       0.45437317       0.15563631 </v>
   <v>       0.29388808       0.15563638      -0.35528989 </v>
  </varray>
  <energy>
   <i name="e_fr_energy">   -191.44336872 </i>
   <i name="e_wo_entrp">   -191.35028048 </i>
   <i name="e_0_energy">     -0.18617648 </i>
  </energy>
  <time name="totalsc">  364.59  365.56</time>
 </calculation>
 <calculation>
  <scstep>
   <time name="dav">   22.02   22.08</time>
   <time name="total">   22.53   22.59</time>
   <energy>
    <i name="alphaZ">     90.14164022 </i>
    <i name="ewald">  44627.01272878 </i>
    <i name="hartreedc"> -50636.23718576 </i>
    <i name="XCdc">   -233.49528771 </i>
    <i name="pawpsdc">   4087.27593141 </i>
    <i name="pawaedc">  -3503.24588968 </i>
    <i name="eentropy">     -0.18745823 </i>
    <i name="bandstr">  -1384.22993051 </i>
    <i name="atom">   6761.44252427 </i>
    <i name="e_fr_energy">   -191.52292721 </i>
    <i name="e_wo_entrp">   -191.33546898 </i>
    <i name="e_0_energy">   -191.42919809 </i>
   </energy>
  </scstep>
  <scstep>
   <time name="dav">   33.58   33.66</time>
   <time name="total">   34.08   34.17</time>
   <energy>
    <i name="e_fr_energy">   -191.60417349 </i>
    <i name="e_wo_entrp">   -191.40420556 </i>
    <i name="e_0_energy">   -191.50418953 </i>
   </energy>
  </scstep>
  <scstep>
   <time name="dav">   31.30   31.37</time>
   <time name="total">   31.80   31.89</time>
   <energy>
    <i name="e_fr_energy">   -191.53429381 </i>
    <i name="e_wo_entrp">   -191.34569106 </i>
    <i name="e_0_energy">   -191.43999244 </i>
   </energy>
  </scstep>
  <scstep>
   <time name="dav">   29.27   29.34</time>
   <time name="total">   29.78   29.86</time>
   <energy>
    <i name="e_fr_energy">   -191.53786210 </i>
    <i name="e_wo_entrp">   -191.34700961 </i>
    <i name="e_0_energy">   -191.44243586 </i>
   </energy>
  </scstep>
  <scstep>
   <time name="dav">   29.05   29.12</time>
   <time name="total">   29.56   29.64</time>
   <energy>
    <i name="e_fr_energy">   -191.53243965 </i>
    <i name="e_wo_entrp">   -191.34263362 </i>
    <i name="e_0_energy">   -191.43753664 </i>
   </energy>
  </scstep>
  <scstep>
   <time name="dav">   28.79   28.86</time>
   <time name="total">   29.30   29.38</time>
   <energy>
    <i name="e_fr_energy">   -191.53327352 </i>
    <i name="e_wo_entrp">   -191.34332965 </i>
    <i name="e_0_energy">   -191.43830158 </i>
   </energy>
  </scstep>
  <scstep>
   <time name="dav">   28.53   28.60</time>
   <time name="total">   29.04   29.12</time>
   <energy>
    <i name="e_fr_energy">   -191.53254861 </i>
    <i name="e_wo_entrp">   -191.34268901 </i>
    <i name="e_0_energy">   -191.43761881 </i>
   </energy>
  </scstep>
  <scstep>
   <time name="dav">   26.81   26.87</time>
   <time name="total">   27.31   27.38</time>
   <energy>
    <i name="e_fr_energy">   -191.53198978 </i>
    <i name="e_wo_entrp">   -191.34226012 </i>
    <i name="e_0_energy">   -191.43712495 </i>
   </energy>
  </scstep>
  <scstep>
   <time name="dav">   18.88   18.93</time>
   <time name="total">   18.92   18.97</time>
   <energy>
    <i name="alphaZ">     90.14164022 </i>
    <i name="ewald">  44627.01272878 </i>
    <i name="hartreedc"> -50638.29114706 </i>
    <i name="XCdc">   -233.42533968 </i>
    <i name="pawpsdc">   4084.21239322 </i>
    <i name="pawaedc">  -3500.13537059 </i>
    <i name="eentropy">     -0.18973426 </i>
    <i name="bandstr">  -1382.29969925 </i>
    <i name="atom">   6761.44252427 </i>
    <i name="e_fr_energy">   -191.53200435 </i>
    <i name="e_wo_entrp">   -191.34227008 </i>
    <i name="e_0_energy">   -191.43713721 </i>
   </energy>
  </scstep>
  <structure>
   <crystal>
    <varray name="basis" >
     <v>       8.27127905       4.79157172       0.00000000 </v>
     <v>      -8.26612255       4.78264816       0.00000000 </v>
     <v>       0.00000000       0.00000000      30.00000000 </v>
    </varray>
    <i name="volume">   2374.99009785 </i>
    <varray name="rec_basis" >
     <v>       0.06041265       0.10441461       0.00000000 </v>
     <v>      -0.06052537       0.10447975       0.00000000 </v>
     <v>       0.00000000       0.00000000       0.03333333 </v>
    </varray>
   </crystal>
   <varray name="positions" >
    <v>       0.66636211       0.32861866       0.00041189 </v>
    <v>       0.32496943       0.32409942      -0.00010267 </v>
    <v>       0.67027260       0.66941513      -0.00002286 </v>
    <v>       0.99600275       0.32036338       0.00006161 </v>
    <v>       0.31753998      -0.01521903      -0.00006916 </v>
    <v>       0.00363792       0.00794511      -0.00005452 </v>
    <v>       0.01791025       0.68024435       0.00008249 </v>
    <v>       0.32077444       0.67152740      -0.00013730 </v>
    <v>       0.68159841       0.01054794      -0.00002308 </v>
    <v>       0.11842998       0.22562776       0.94690204 </v>
    <v>       0.22586750       0.11758843       0.05236779 </v>
    <v>       0.10902966       0.55423538       0.94700419 </v>
    <v>       0.22615520       0.44244689       0.05093650 </v>
    <v>       0.10882735       0.88820070       0.94568112 </v>
    <v>       0.22190908       0.77739214       0.05588006 </v>
    <v>       0.44615076       0.22660471       0.95065516 </v>
    <v>       0.55745899       0.11539207       0.05053954 </v>
    <v>       0.44534564       0.55302258       0.95181259 </v>
    <v>       0.55478913       0.44369002       0.04778730 </v>
    <v>       0.44595729       0.88955376       0.94801048 </v>
    <v>       0.55712432       0.77578119       0.04992179 </v>
    <v>       0.77455471       0.22500656       0.94744465 </v>
    <v>       0.88863752       0.10993345       0.05424324 </v>
    <v>       0.77460539       0.55358014       0.95131014 </v>
    <v>       0.88450000       0.44360195       0.05005762 </v>
    <v>       0.77514467       0.88413600       0.94829001 </v>
    <v>       0.88465938       0.77487838       0.05100926 </v>
   </varray>
  </structure>
  <varray name="forces" >
   <v>       0.01734579      -0.02460956       0.04605538 </v>
   <v>       0.09771680      -0.12611380      -0.01276808 </v>
   <v>       0.14734210       0.02692034      -0.00191699 </v>
   <v>       0.22691034      -0.32583234      -0.01284037 </v>
   <v>      -0.02423931      -0.40987865       0.00209749 </v>
   <v>      -0.23559922       0.00402925       0.00508489 </v>
   <v>       0.01272464       0.37939217      -0.02442869 </v>
   <v>      -0.44869062      -0.07656907      -0.00661118 </v>
   <v>       0.30285425       0.44128546       0.03177989 </v>
   <v>      -0.00033070      -0.02476845      -0.10601633 </v>
   <v>       0.04184811      -0.05264988       0.02048853 </v>
   <v>       0.00100954      -0.10422311       0.02270720 </v>
   <v>      -0.07375424      -0.00334311      -0.11078652 </v>
   <v>      -0.12232166      -0.00043755      -0.13372011 </v>
   <v>      -0.05999638       0.00065250       0.30282633 </v>
   <v>       0.07745758      -0.14756178       0.06781966 </v>
   <v>       0.03844700      -0.11081094      -0.17504874 </v>
   <v>      -0.17102144      -0.02270603       0.18852287 </v>
   <v>       0.00729867      -0.02386450      -0.03015668 </v>
   <v>      -0.00468393       0.10385795       0.13734388 </v>
   <v>      -0.10344675       0.01405604      -0.16477969 </v>
   <v>       0.05918861       0.02891110      -0.10194207 </v>
   <v>       0.06823875       0.05216122       0.27274843 </v>
   <v>       0.07709026       0.11813945       0.06782064 </v>
   <v>       0.03637167       0.12851145      -0.18782255 </v>
   <v>      -0.01628596       0.07717206      -0.08568513 </v>
   <v>       0.04852611       0.07827977      -0.01077207 </v>
  </varray>
  <varray name="stress" >
   <v>      -0.01873345      -0.02140349       0.10785839 </v>
   <v>      -0.02140358       0.11876846       0.05623079 </v>
   <v>       0.10785854       0.05623075      -1.34531690 </v>
  </varray>
  <energy>
   <i name="e_fr_energy">   -191.53200435 </i>
   <i name="e_wo_entrp">   -191.43713721 </i>
   <i name="e_0_energy">     -0.18973426 </i>
  </energy>
  <time name="totalsc">  294.69  295.47</time>
 </calculation>
 <calculation>
  <scstep>
   <time name="dav">   22.00   22.05</time>
   <time name="total">   22.50   22.56</time>
   <energy>
    <i name="alphaZ">     90.09299262 </i>
    <i name="ewald">  44609.05953841 </i>
    <i name="hartreedc"> -50619.31385926 </i>
    <i name="XCdc">   -233.45293634 </i>
    <i name="pawpsdc">   4084.08093394 </i>
    <i name="pawaedc">  -3500.00220436 </i>
    <i name="eentropy">     -0.18681230 </i>
    <i name="bandstr">  -1383.35807624 </i>
    <i name="atom">   6761.44252427 </i>
    <i name="e_fr_energy">   -191.63789927 </i>
    <i name="e_wo_entrp">   -191.45108697 </i>
    <i name="e_0_energy">   -191.54449312 </i>
   </energy>
  </scstep>
  <scstep>
   <time name="dav">   32.47   32.55</time>
   <time name="total">   32.97   33.06</time>
   <energy>
    <i name="e_fr_energy">   -191.77696458 </i>
    <i name="e_wo_entrp">   -191.56586027 </i>
    <i name="e_0_energy">   -191.67141243 </i>
   </energy>
  </scstep>
  <scstep>
   <time name="dav">   30.86   30.94</time>
   <time name="total">   31.37   31.45</time>
   <energy>
    <i name="e_fr_energy">   -191.65782765 </i>
    <i name="e_wo_entrp">   -191.46896913 </i>
    <i name="e_0_energy">   -191.56339839 </i>
   </energy>
  </scstep>
  <scstep>
   <time name="dav">   30.23   30.30</time>
   <time name="total">   30.73   30.81</time>
   <energy>
    <i name="e_fr_energy">   -191.66668161 </i>
    <i name="e_wo_entrp">   -191.47412253 </i>
    <i name="e_0_energy">   -191.57040207 </i>
   </energy>
  </scstep>
  <scstep>
   <time name="dav">   29.43   29.50</time>
   <time name="total">   29.93   30.02</time>
   <energy>
    <i name="e_fr_energy">   -191.65265888 </i>
    <i name="e_wo_entrp">   -191.46155753 </i>
    <i name="e_0_energy">   -191.55710820 </i>
   </energy>
  </scstep>
  <scstep>
   <time name="dav">   29.10   29.18</time>
   <time name="total">   29.61   29.69</time>
   <energy>
    <i name="e_fr_energy">   -191.65529156 </i>
    <i name="e_wo_entrp">   -191.46344996 </i>
    <i name="e_0_energy">   -191.55937076 </i>
   </energy>
  </scstep>
  <scstep>
   <time name="dav">   29.25   29.32</time>
   <time name="total">   29.76   29.84</time>
   <energy>
    <i name="e_fr_energy">   -191.65263772 </i>
    <i name="e_wo_entrp">   -191.46101519 </i>
    <i name="e_0_energy">   -191.55682645 </i>
   </energy>
  </scstep>
  <scstep>
   <time name="dav">   27.55   27.61</time>
   <time name="total">   28.05   28.13</time>
   <energy>
    <i name="e_fr_energy">   -191.65153331 </i>
    <i name="e_wo_entrp">   -191.46009338 </i>
    <i name="e_0_energy">   -191.55581334 </i>
   </energy>
  </scstep>
  <scstep>
   <time name="dav">   22.11   22.16</time>
   <time name="total">   22.14   22.20</time>
   <energy>
    <i name="alphaZ">     90.09299262 </i>
    <i name="ewald">  44609.05953841 </i>
    <i name="hartreedc"> -50620.97990834 </i>
    <i name="XCdc">   -233.36838735 </i>
    <i name="pawpsdc">   4089.15894432 </i>
    <i name="pawaedc">  -3505.15270771 </i>
    <i name="eentropy">     -0.19137051 </i>
    <i name="bandstr">  -1381.71315529 </i>
    <i name="atom">   6761.44252427 </i>
    <i name="e_fr_energy">   -191.65152957 </i>
    <i name="e_wo_entrp">   -191.46015906 </i>
[...]
      <set comment="kpoint 31">
       <r>  -17.5126    1.0000 </r>
       <r>  -17.2622    1.0000 </r>
       <r>  -16.9373    1.0000 </r>
       <r>  -16.6433    1.0000 </r>
       <r>  -16.5428    1.0000 </r>
       <r>  -16.4126    1.0000 </r>
       <r>  -16.3424    1.0000 </r>
       <r>  -16.2124    1.0000 </r>
       <r>  -16.0495    1.0000 </r>
       <r>  -15.9980    1.0000 </r>
       <r>  -15.9611    1.0000 </r>
       <r>  -15.9079    1.0000 </r>
       <r>  -15.7502    1.0000 </r>
       <r>  -15.6790    1.0000 </r>
       <r>  -15.5847    1.0000 </r>
       <r>  -15.5244    1.0000 </r>
       <r>  -15.4607    1.0000 </r>
       <r>  -15.2452    1.0000 </r>
       <r>   -9.7426    1.0000 </r>
       <r>   -9.4627    1.0000 </r>
       <r>   -9.2920    1.0000 </r>
       <r>   -9.0072    1.0000 </r>
       <r>   -8.8588    1.0000 </r>
       <r>   -8.7249    1.0000 </r>
       <r>   -8.6348    1.0000 </r>
       <r>   -8.4825    1.0000 </r>
       <r>   -8.4003    1.0000 </r>
       <r>   -8.3070    1.0000 </r>
       <r>   -8.2460    1.0000 </r>
       <r>   -8.1502    1.0000 </r>
       <r>   -8.1351    1.0000 </r>
       <r>   -8.0706    1.0000 </r>
       <r>   -8.0190    1.0000 </r>
       <r>   -7.9160    1.0000 </r>
       <r>   -7.7573    1.0000 </r>
       <r>   -7.7050    1.0000 </r>
       <r>   -7.6098    1.0000 </r>
       <r>   -7.4204    1.0000 </r>
       <r>   -7.3494    1.0000 </r>
       <r>   -7.2521    1.0000 </r>
       <r>   -7.1367    1.0000 </r>
       <r>   -7.0869    1.0000 </r>
       <r>   -7.0088    1.0000 </r>
       <r>   -6.8913    1.0000 </r>
       <r>   -6.8533    1.0000 </r>
       <r>   -6.7963    1.0000 </r>
       <r>   -6.6971    1.0000 </r>
       <r>   -6.6056    1.0000 </r>
       <r>   -6.5244    1.0000 </r>
       <r>   -6.5039    1.0000 </r>
       <r>   -6.4301    1.0000 </r>
       <r>   -6.3566    1.0000 </r>
       <r>   -6.2604    1.0000 </r>
       <r>   -6.1427    1.0000 </r>
       <r>   -6.1123    1.0000 </r>
       <r>   -6.0996    1.0000 </r>
       <r>   -5.9870    1.0000 </r>
       <r>   -5.9298    1.0000 </r>
       <r>   -5.8778    1.0000 </r>
       <r>   -5.7989    1.0000 </r>
       <r>   -5.7338    1.0000 </r>
       <r>   -5.6579    1.0000 </r>
       <r>   -5.5035    1.0000 </r>
       <r>   -5.3462    1.0000 </r>
       <r>   -5.3229    1.0000 </r>
       <r>   -5.1534    1.0000 </r>
       <r>   -5.0771    1.0000 </r>
       <r>   -4.9223    1.0000 </r>
       <r>   -4.8065    1.0000 </r>
       <r>   -4.6931    1.0000 </r>
       <r>   -4.5283    1.0000 </r>
       <r>   -4.4020    1.0000 </r>
       <r>   -4.3145    1.0000 </r>
       <r>   -4.2486    1.0000 </r>
       <r>   -4.1190    1.0000 </r>
       <r>   -4.0198    1.0000 </r>
       <r>   -3.9047    1.0000 </r>
       <r>   -3.6114    0.9773 </r>
       <r>   -3.5597    0.9489 </r>
       <r>   -3.3268    0.4954 </r>
       <r>   -2.8913    0.0010 </r>
       <r>   -2.7685    0.0000 </r>
       <r>   -2.7269    0.0000 </r>
       <r>   -2.5336    0.0000 </r>
       <r>   -2.4789    0.0000 </r>
       <r>   -2.4045    0.0000 </r>
       <r>   -2.2245    0.0000 </r>
       <r>   -2.1602    0.0000 </r>
       <r>   -1.9795    0.0000 </r>
       <r>   -1.8756    0.0000 </r>
       <r>   -1.7525    0.0000 </r>
       <r>   -1.5598    0.0000 </r>
       <r>   -1.4926    0.0000 </r>
       <r>   -1.3251    0.0000 </r>
       <r>   -1.2541    0.0000 </r>
       <r>   -1.2133    0.0000 </r>
       <r>   -1.1062    0.0000 </r>
       <r>   -1.0818    0.0000 </r>
       <r>   -0.9427    0.0000 </r>
       <r>   -0.8585    0.0000 </r>
       <r>   -0.7787    0.0000 </r>
       <r>   -0.7435    0.0000 </r>
       <r>   -0.6685    0.0000 </r>
       <r>   -0.4978    0.0000 </r>
       <r>   -0.4373    0.0000 </r>
       <r>   -0.3961    0.0000 </r>
       <r>   -0.2292    0.0000 </r>
       <r>   -0.1474    0.0000 </r>
       <r>   -0.0840    0.0000 </r>
       <r>    0.1448    0.0000 </r>
       <r>    0.4552    0.0000 </r>
       <r>    0.5908    0.0000 </r>
       <r>    0.7756    0.0000 </r>
       <r>    0.9758    0.0000 </r>
       <r>    1.1157    0.0000 </r>
       <r>    1.2541    0.0000 </r>
       <r>    1.3742    0.0000 </r>
       <r>    2.1347    0.0000 </r>
       <r>    2.2890    0.0000 </r>
       <r>    2.3881    0.0000 </r>
      </set>
      <set comment="kpoint 32">
       <r>  -17.5194    1.0000 </r>
       <r>  -17.2036    1.0000 </r>
       <r>  -17.0414    1.0000 </r>
       <r>  -16.6456    1.0000 </r>
       <r>  -16.4765    1.0000 </r>
       <r>  -16.3689    1.0000 </r>
       <r>  -16.2875    1.0000 </r>
       <r>  -16.2358    1.0000 </r>
       <r>  -16.1321    1.0000 </r>
       <r>  -16.0452    1.0000 </r>
       <r>  -15.9708    1.0000 </r>
       <r>  -15.8938    1.0000 </r>
       <r>  -15.7236    1.0000 </r>
       <r>  -15.6779    1.0000 </r>
       <r>  -15.5942    1.0000 </r>
       <r>  -15.5101    1.0000 </r>
       <r>  -15.4412    1.0000 </r>
       <r>  -15.2585    1.0000 </r>
       <r>   -9.6388    1.0000 </r>
       <r>   -9.5926    1.0000 </r>
       <r>   -9.3686    1.0000 </r>
       <r>   -8.9318    1.0000 </r>
       <r>   -8.7657    1.0000 </r>
       <r>   -8.6552    1.0000 </r>
       <r>   -8.6337    1.0000 </r>
       <r>   -8.4855    1.0000 </r>
       <r>   -8.3811    1.0000 </r>
       <r>   -8.3535    1.0000 </r>
       <r>   -8.2493    1.0000 </r>
       <r>   -8.1784    1.0000 </r>
       <r>   -8.1707    1.0000 </r>
       <r>   -8.0768    1.0000 </r>
       <r>   -8.0419    1.0000 </r>
       <r>   -7.9900    1.0000 </r>
       <r>   -7.7654    1.0000 </r>
       <r>   -7.6881    1.0000 </r>
       <r>   -7.5936    1.0000 </r>
       <r>   -7.4332    1.0000 </r>
       <r>   -7.3260    1.0000 </r>
       <r>   -7.2957    1.0000 </r>
       <r>   -7.1909    1.0000 </r>
       <r>   -7.0728    1.0000 </r>
       <r>   -6.9977    1.0000 </r>
       <r>   -6.8974    1.0000 </r>
       <r>   -6.8511    1.0000 </r>
       <r>   -6.7246    1.0000 </r>
       <r>   -6.6534    1.0000 </r>
       <r>   -6.6201    1.0000 </r>
       <r>   -6.5356    1.0000 </r>
       <r>   -6.4981    1.0000 </r>
       <r>   -6.4434    1.0000 </r>
       <r>   -6.3937    1.0000 </r>
       <r>   -6.2795    1.0000 </r>
       <r>   -6.1907    1.0000 </r>
       <r>   -6.1062    1.0000 </r>
       <r>   -6.0269    1.0000 </r>
       <r>   -5.9826    1.0000 </r>
       <r>   -5.9006    1.0000 </r>
       <r>   -5.8602    1.0000 </r>
       <r>   -5.7641    1.0000 </r>
       <r>   -5.6698    1.0000 </r>
       <r>   -5.6219    1.0000 </r>
       <r>   -5.4932    1.0000 </r>
       <r>   -5.4215    1.0000 </r>
       <r>   -5.3060    1.0000 </r>
       <r>   -5.0937    1.0000 </r>
       <r>   -5.0124    1.0000 </r>
       <r>   -4.9836    1.0000 </r>
       <r>   -4.8884    1.0000 </r>
       <r>   -4.7160    1.0000 </r>
       <r>   -4.5978    1.0000 </r>
       <r>   -4.4356    1.0000 </r>
       <r>   -4.3221    1.0000 </r>
       <r>   -4.2470    1.0000 </r>
       <r>   -4.1218    1.0000 </r>
       <r>   -4.0081    1.0000 </r>
       <r>   -3.8817    1.0000 </r>
       <r>   -3.6478    0.9880 </r>
       <r>   -3.5659    0.9534 </r>
       <r>   -3.2727    0.3467 </r>
       <r>   -2.9414    0.0031 </r>
       <r>   -2.7557    0.0000 </r>
       <r>   -2.6940    0.0000 </r>
       <r>   -2.5629    0.0000 </r>
       <r>   -2.4329    0.0000 </r>
       <r>   -2.3647    0.0000 </r>
       <r>   -2.2665    0.0000 </r>
       <r>   -2.1186    0.0000 </r>
       <r>   -1.9792    0.0000 </r>
       <r>   -1.8818    0.0000 </r>
       <r>   -1.8303    0.0000 </r>
       <r>   -1.5661    0.0000 </r>
       <r>   -1.4849    0.0000 </r>
       <r>   -1.3255    0.0000 </r>
       <r>   -1.2305    0.0000 </r>
       <r>   -1.2016    0.0000 </r>
       <r>   -1.0930    0.0000 </r>
       <r>   -1.0286    0.0000 </r>
       <r>   -0.9369    0.0000 </r>
       <r>   -0.9209    0.0000 </r>
       <r>   -0.7841    0.0000 </r>
       <r>   -0.7132    0.0000 </r>
       <r>   -0.6628    0.0000 </r>
       <r>   -0.5276    0.0000 </r>
       <r>   -0.4281    0.0000 </r>
       <r>   -0.3291    0.0000 </r>
       <r>   -0.2195    0.0000 </r>
       <r>   -0.1556    0.0000 </r>
       <r>   -0.0319    0.0000 </r>
       <r>    0.1001    0.0000 </r>
       <r>    0.4359    0.0000 </r>
       <r>    0.5484    0.0000 </r>
       <r>    0.7742    0.0000 </r>
       <r>    0.9036    0.0000 </r>
       <r>    1.0598    0.0000 </r>
       <r>    1.2786    0.0000 </r>
       <r>    1.4360    0.0000 </r>
       <r>    2.1044    0.0000 </r>
       <r>    2.2567    0.0000 </r>
       <r>    2.5640    0.0000 </r>
      </set>
      <set comment="kpoint 33">
       <r>  -17.4915    1.0000 </r>
       <r>  -17.3061    1.0000 </r>
       <r>  -16.9150    1.0000 </r>
       <r>  -16.6494    1.0000 </r>
       <r>  -16.5015    1.0000 </r>
       <r>  -16.4593    1.0000 </r>
       <r>  -16.2676    1.0000 </r>
       <r>  -16.1976    1.0000 </r>
       <r>  -16.1468    1.0000 </r>
       <r>  -16.0738    1.0000 </r>
       <r>  -15.9205    1.0000 </r>
       <r>  -15.8650    1.0000 </r>
       <r>  -15.7216    1.0000 </r>
       <r>  -15.6831    1.0000 </r>
       <r>  -15.6216    1.0000 </r>
       <r>  -15.5085    1.0000 </r>
       <r>  -15.4214    1.0000 </r>
       <r>  -15.2763    1.0000 </r>
       <r>   -9.7140    1.0000 </r>
       <r>   -9.4628    1.0000 </r>
       <r>   -9.3286    1.0000 </r>
       <r>   -8.8976    1.0000 </r>
       <r>   -8.8573    1.0000 </r>
       <r>   -8.7383    1.0000 </r>
       <r>   -8.6414    1.0000 </r>
       <r>   -8.6159    1.0000 </r>
       <r>   -8.3824    1.0000 </r>
       <r>   -8.2922    1.0000 </r>
       <r>   -8.2371    1.0000 </r>
       <r>   -8.2027    1.0000 </r>
       <r>   -8.0928    1.0000 </r>
       <r>   -8.0636    1.0000 </r>
       <r>   -8.0220    1.0000 </r>
       <r>   -7.9184    1.0000 </r>
       <r>   -7.7704    1.0000 </r>
       <r>   -7.7216    1.0000 </r>
       <r>   -7.5719    1.0000 </r>
       <r>   -7.4908    1.0000 </r>
       <r>   -7.3561    1.0000 </r>
       <r>   -7.2800    1.0000 </r>
       <r>   -7.1338    1.0000 </r>
       <r>   -7.0537    1.0000 </r>
       <r>   -7.0052    1.0000 </r>
       <r>   -6.8905    1.0000 </r>
       <r>   -6.8454    1.0000 </r>
       <r>   -6.7427    1.0000 </r>
       <r>   -6.6741    1.0000 </r>
       <r>   -6.5922    1.0000 </r>
       <r>   -6.5646    1.0000 </r>
       <r>   -6.4954    1.0000 </r>
       <r>   -6.4469    1.0000 </r>
       <r>   -6.3640    1.0000 </r>
       <r>   -6.2847    1.0000 </r>
       <r>   -6.1757    1.0000 </r>
       <r>   -6.1142    1.0000 </r>
       <r>   -6.0304    1.0000 </r>
       <r>   -5.9844    1.0000 </r>
       <r>   -5.9261    1.0000 </r>
       <r>   -5.8433    1.0000 </r>
       <r>   -5.7757    1.0000 </r>
       <r>   -5.7083    1.0000 </r>
       <r>   -5.6613    1.0000 </r>
       <r>   -5.5237    1.0000 </r>
       <r>   -5.3799    1.0000 </r>
       <r>   -5.2107    1.0000 </r>
       <r>   -5.1463    1.0000 </r>
       <r>   -5.0977    1.0000 </r>
       <r>   -4.8919    1.0000 </r>
       <r>   -4.7326    1.0000 </r>
       <r>   -4.7241    1.0000 </r>
       <r>   -4.6064    1.0000 </r>
       <r>   -4.4843    1.0000 </r>
       <r>   -4.3767    1.0000 </r>
       <r>   -4.2341    1.0000 </r>
       <r>   -4.1521    1.0000 </r>
       <r>   -4.0104    1.0000 </r>
       <r>   -3.8886    1.0000 </r>
       <r>   -3.6984    0.9956 </r>
       <r>   -3.5664    0.9537 </r>
       <r>   -3.2388    0.2629 </r>
       <r>   -2.9550    0.0041 </r>
       <r>   -2.7562    0.0000 </r>
       <r>   -2.6915    0.0000 </r>
       <r>   -2.5977    0.0000 </r>
       <r>   -2.3817    0.0000 </r>
       <r>   -2.3438    0.0000 </r>
       <r>   -2.2913    0.0000 </r>
       <r>   -2.0833    0.0000 </r>
       <r>   -1.9925    0.0000 </r>
       <r>   -1.8753    0.0000 </r>
       <r>   -1.8165    0.0000 </r>
       <r>   -1.6104    0.0000 </r>
       <r>   -1.4518    0.0000 </r>
       <r>   -1.3068    0.0000 </r>
       <r>   -1.2267    0.0000 </r>
       <r>   -1.1952    0.0000 </r>
       <r>   -1.1032    0.0000 </r>
       <r>   -1.0446    0.0000 </r>
       <r>   -0.9535    0.0000 </r>
       <r>   -0.8815    0.0000 </r>
       <r>   -0.7925    0.0000 </r>
       <r>   -0.6922    0.0000 </r>
       <r>   -0.6546    0.0000 </r>
       <r>   -0.5747    0.0000 </r>
       <r>   -0.4530    0.0000 </r>
       <r>   -0.2698    0.0000 </r>
       <r>   -0.2511    0.0000 </r>
       <r>   -0.0877    0.0000 </r>
       <r>   -0.0433    0.0000 </r>
       <r>    0.1009    0.0000 </r>
       <r>    0.4071    0.0000 </r>
       <r>    0.4780    0.0000 </r>
       <r>    0.8019    0.0000 </r>
       <r>    0.8621    0.0000 </r>
       <r>    1.0363    0.0000 </r>
       <r>    1.2857    0.0000 </r>
       <r>    1.5152    0.0000 </r>
       <r>    2.1334    0.0000 </r>
       <r>    2.2907    0.0000 </r>
       <r>    2.3929    0.0000 </r>
      </set>
      <set comment="kpoint 34">
       <r>  -17.4431    1.0000 </r>
       <r>  -17.3914    1.0000 </r>
       <r>  -16.7664    1.0000 </r>
       <r>  -16.6839    1.0000 </r>
       <r>  -16.6165    1.0000 </r>
       <r>  -16.4649    1.0000 </r>
       <r>  -16.2585    1.0000 </r>
       <r>  -16.1981    1.0000 </r>
       <r>  -16.1421    1.0000 </r>
       <r>  -16.0732    1.0000 </r>
       <r>  -15.8828    1.0000 </r>
       <r>  -15.8159    1.0000 </r>
       <r>  -15.7673    1.0000 </r>
       <r>  -15.6709    1.0000 </r>
       <r>  -15.6405    1.0000 </r>
       <r>  -15.5141    1.0000 </r>
       <r>  -15.4122    1.0000 </r>
       <r>  -15.2853    1.0000 </r>
       <r>   -9.7532    1.0000 </r>
       <r>   -9.3289    1.0000 </r>
       <r>   -9.2955    1.0000 </r>
       <r>   -8.9793    1.0000 </r>
       <r>   -8.9000    1.0000 </r>
       <r>   -8.7793    1.0000 </r>
       <r>   -8.7133    1.0000 </r>
       <r>   -8.6403    1.0000 </r>
       <r>   -8.3679    1.0000 </r>
       <r>   -8.2621    1.0000 </r>
       <r>   -8.2407    1.0000 </r>
       <r>   -8.1934    1.0000 </r>
       <r>   -8.0684    1.0000 </r>
       <r>   -8.0438    1.0000 </r>
       <r>   -7.9520    1.0000 </r>
       <r>   -7.9053    1.0000 </r>
       <r>   -7.7673    1.0000 </r>
       <r>   -7.7550    1.0000 </r>
       <r>   -7.5704    1.0000 </r>
       <r>   -7.4489    1.0000 </r>
       <r>   -7.4030    1.0000 </r>
       <r>   -7.3185    1.0000 </r>
       <r>   -7.0809    1.0000 </r>
       <r>   -7.0465    1.0000 </r>
       <r>   -6.9991    1.0000 </r>
       <r>   -6.8600    1.0000 </r>
       <r>   -6.8546    1.0000 </r>
       <r>   -6.7237    1.0000 </r>
       <r>   -6.6811    1.0000 </r>
       <r>   -6.6446    1.0000 </r>
       <r>   -6.5927    1.0000 </r>
       <r>   -6.5121    1.0000 </r>
       <r>   -6.3840    1.0000 </r>
       <r>   -6.3575    1.0000 </r>
       <r>   -6.2811    1.0000 </r>
       <r>   -6.1879    1.0000 </r>
       <r>   -6.1049    1.0000 </r>
       <r>   -6.0224    1.0000 </r>
       <r>   -6.0047    1.0000 </r>
       <r>   -5.9559    1.0000 </r>
       <r>   -5.8357    1.0000 </r>
       <r>   -5.7995    1.0000 </r>
       <r>   -5.7224    1.0000 </r>
       <r>   -5.7061    1.0000 </r>
       <r>   -5.5412    1.0000 </r>
       <r>   -5.3311    1.0000 </r>
       <r>   -5.2631    1.0000 </r>
       <r>   -5.1429    1.0000 </r>
       <r>   -5.0399    1.0000 </r>
       <r>   -4.8809    1.0000 </r>
       <r>   -4.7279    1.0000 </r>
       <r>   -4.6166    1.0000 </r>
       <r>   -4.5631    1.0000 </r>
       <r>   -4.5238    1.0000 </r>
       <r>   -4.4113    1.0000 </r>
       <r>   -4.2570    1.0000 </r>
       <r>   -4.1703    1.0000 </r>
       <r>   -4.0130    1.0000 </r>
       <r>   -3.9001    1.0000 </r>
       <r>   -3.7201    0.9972 </r>
       <r>   -3.5679    0.9548 </r>
       <r>   -3.2323    0.2482 </r>
       <r>   -2.9518    0.0039 </r>
       <r>   -2.7547    0.0000 </r>
       <r>   -2.6978    0.0000 </r>
       <r>   -2.6177    0.0000 </r>
       <r>   -2.3654    0.0000 </r>
       <r>   -2.3396    0.0000 </r>
       <r>   -2.2924    0.0000 </r>
       <r>   -2.0671    0.0000 </r>
       <r>   -1.9967    0.0000 </r>
       <r>   -1.8760    0.0000 </r>
       <r>   -1.7812    0.0000 </r>
       <r>   -1.6386    0.0000 </r>
       <r>   -1.4380    0.0000 </r>
       <r>   -1.2718    0.0000 </r>
       <r>   -1.2474    0.0000 </r>
       <r>   -1.1916    0.0000 </r>
       <r>   -1.1377    0.0000 </r>
       <r>   -1.0507    0.0000 </r>
       <r>   -0.9273    0.0000 </r>
       <r>   -0.8643    0.0000 </r>
       <r>   -0.7965    0.0000 </r>
       <r>   -0.6994    0.0000 </r>
       <r>   -0.6591    0.0000 </r>
       <r>   -0.6002    0.0000 </r>
       <r>   -0.4691    0.0000 </r>
       <r>   -0.2806    0.0000 </r>
       <r>   -0.2172    0.0000 </r>
       <r>   -0.0938    0.0000 </r>
       <r>    0.0124    0.0000 </r>
       <r>    0.0811    0.0000 </r>
       <r>    0.3358    0.0000 </r>
       <r>    0.4942    0.0000 </r>
       <r>    0.8284    0.0000 </r>
       <r>    0.8438    0.0000 </r>
       <r>    1.0323    0.0000 </r>
       <r>    1.2863    0.0000 </r>
       <r>    1.5521    0.0000 </r>
       <r>    2.2045    0.0000 </r>
       <r>    2.2562    0.0000 </r>
       <r>    2.3833    0.0000 </r>
      </set>
     </set>
    </set>
   </array>
  </eigenvalues>
  <separator name="orbital magnetization" >
   <v name="MAGDIPOLOUT">      0.00000000      0.00000000      0.00000000</v>
  </separator>
 </calculation>
 <structure name="finalpos" >
  <crystal>
   <varray name="basis" >
    <v>       8.36114446       4.85038902       0.00000000 </v>
    <v>      -8.34058316       4.81508376       0.00000000 </v>
    <v>       0.00000000       0.00000000      30.00000000 </v>
   </varray>
   <i name="volume">   2421.44051619 </i>
   <varray name="rec_basis" >
    <v>       0.05965561       0.10333415       0.00000000 </v>
    <v>      -0.06009302       0.10358889       0.00000000 </v>
    <v>       0.00000000       0.00000000       0.03333333 </v>
   </varray>
  </crystal>
  <varray name="positions" >
   <v>       0.62833745       0.31377108       0.00261996 </v>
   <v>       0.31349538       0.30997082       0.00001198 </v>
   <v>       0.70025491       0.68369501      -0.00178689 </v>
   <v>       1.01692066       0.31832988      -0.00064807 </v>
   <v>       0.30468949      -0.01042514       0.00085964 </v>
   <v>       0.00425209       0.00424858      -0.00042798 </v>
   <v>       0.01774481       0.69491959      -0.00030541 </v>
   <v>       0.29563956       0.65850867       0.00256123 </v>
   <v>       0.71017994       0.01711371      -0.00174614 </v>
   <v>       0.12033374       0.22214019       0.94430698 </v>
   <v>       0.22418656       0.11652775       0.05476154 </v>
   <v>       0.10341945       0.55356031       0.94714228 </v>
   <v>       0.22789033       0.44254444       0.05304428 </v>
   <v>       0.10941825       0.89109191       0.94323896 </v>
   <v>       0.21495669       0.77995767       0.05779154 </v>
   <v>       0.43713484       0.22059164       0.94874974 </v>
   <v>       0.55531771       0.10417838       0.04807011 </v>
   <v>       0.44610896       0.55822875       0.95911900 </v>
   <v>       0.55135323       0.44745354       0.04671857 </v>
   <v>       0.45139479       0.89148715       0.95585202 </v>
   <v>       0.55740368       0.77862737       0.04424812 </v>
   <v>       0.77982691       0.22938564       0.94984773 </v>
   <v>       0.89963745       0.11450718       0.05547221 </v>
   <v>       0.77436791       0.55106344       0.95161118 </v>
   <v>       0.88138614       0.44053791       0.04049464 </v>
   <v>       0.78345102       0.88740803       0.94515775 </v>
   <v>       0.88911252       0.77879096       0.05323494 </v>
  </varray>
 </structure>
</modeling>
