unknown system                          
           1
     8.854717    5.107537    0.000000
    -8.853256    5.105024    0.000000
     0.000000    0.000000   30.000000
   V    Mo   W    S 
   3   3   3  18
Direct configuration=     1
   0.66666669  0.33333334  0.00000000
   0.33333334  0.33333334  0.00000000
   0.66666669  0.66666669  0.00000000
   1.00000000  0.33333334  0.00000000
   0.33333334  0.00000000  0.00000000
   0.00000000  0.00000000  0.00000000
   0.00000000  0.66666669  0.00000000
   0.33333334  0.66666669  0.00000000
   0.66666669  0.00000000  0.00000000
   0.11068511  0.22244981  0.95539999
   0.22244981  0.11068511  0.04460000
   0.11068511  0.55578315  0.95539999
   0.22244981  0.44401845  0.04460000
   0.11068511  0.88911647  0.95539999
   0.22244981  0.77735180  0.04460000
   0.44401845  0.22244981  0.95539999
   0.55578315  0.11068511  0.04460000
   0.44401845  0.55578315  0.95539999
   0.55578315  0.44401845  0.04460000
   0.44401845  0.88911647  0.95539999
   0.55578315  0.77735180  0.04460000
   0.77735180  0.22244981  0.95539999
   0.88911647  0.11068511  0.04460000
   0.77735180  0.55578315  0.95539999
   0.88911647  0.44401845  0.04460000
   0.77735180  0.88911647  0.95539999
   0.88911647  0.77735180  0.04460000
unknown system                          
           1
     8.666739    5.001403    0.000000
    -8.665192    4.998740    0.000000
     0.000000    0.000000   30.000000
   V    Mo   W    S 
   3   3   3  18
Direct configuration=     2
   0.66610258  0.33269915  0.00007929
   0.33206088  0.33146754  0.00002266
   0.66726546  0.66682830  0.00004556
   1.00009284  0.33194973 -0.00014864
   0.33187534  0.00011342  0.00010605
   0.00152785  0.00155410 -0.00019083
   0.00086291  0.66788055  0.00021840
   0.33207481  0.66620973  0.00010373
   0.66831124  0.00164649 -0.00023673
   0.11536015  0.22425263  0.95187969
   0.22441934  0.11546439  0.04809994
   0.11136532  0.55603689  0.95073005
   0.22510836  0.44301177  0.04798531
   0.11042511  0.88790504  0.95074693
   0.22165631  0.77683320  0.04939861
   0.44632599  0.22658237  0.95311683
   0.55795661  0.11497676  0.04806036
   0.44609512  0.55371587  0.95307907
   0.55564998  0.44420132  0.04582641
   0.44497573  0.88844819  0.95083241
   0.55730733  0.77559685  0.04798440
   0.77479213  0.22345011  0.95194633
   0.88780740  0.11049613  0.04923892
   0.77412273  0.55389015  0.95313255
   0.88482762  0.44321712  0.04797631
   0.77504483  0.88485909  0.95193777
   0.88480049  0.77492758  0.04802852
unknown system                          
           1
     8.484318    4.900453    0.000000
    -8.483661    4.899330    0.000000
     0.000000    0.000000   30.000000
   V    Mo   W    S 
   3   3   3  18
Direct configuration=     3
   0.66600817  0.33241439  0.00012708
   0.33156410  0.33087469  0.00001619
   0.66745929  0.66695991  0.00004745
   0.99997724  0.33134592 -0.00012661
   0.33105861 -0.00052590  0.00008742
   0.00193359  0.00207093 -0.00020779
   0.00179244  0.66856593  0.00025166
   0.33136053  0.66630776  0.00007712
   0.66900559  0.00226952 -0.00025673
   0.11554212  0.22434860  0.95176970
   0.22452709  0.11564247  0.04818483
   0.11143108  0.55625235  0.95073789
   0.22528486  0.44319952  0.04797575
   0.11027303  0.88765835  0.95066945
   0.22153678  0.77659753  0.04950059
   0.44639628  0.22670268  0.95315985
   0.55812880  0.11495597  0.04802274
   0.44599847  0.55378044  0.95321603
   0.55562437  0.44418913  0.04571593
   0.44507865  0.88833905  0.95088897
   0.55719979  0.77568792  0.04790219
   0.77463295  0.22326720  0.95188363
   0.88757608  0.11035443  0.04929019
   0.77427118  0.55392324  0.95322225
   0.88484120  0.44338411  0.04790014
   0.77487141  0.88489602  0.95194265
   0.88484076  0.77475233  0.04800134
unknown system                          
           1
     8.272441    4.784752    0.000000
    -8.268333    4.777652    0.000000
     0.000000    0.000000   30.000000
   V    Mo   W    S 
   3   3   3  18
Direct configuration=     4
   0.66602949  0.33111531  0.00026460
   0.32930113  0.32864780 -0.00002086
   0.66831812  0.66798244  0.00003055
   0.99924885  0.32875045 -0.00000229
   0.32740592 -0.00422202 -0.00000088
   0.00303599  0.00387186 -0.00018435
   0.00637235  0.67168770  0.00027271
   0.32838518  0.66737794 -0.00005731
   0.67178633  0.00447872 -0.00021758
   0.11711063  0.22513004  0.94987063
   0.22526283  0.11705219  0.04994018
   0.11113675  0.55619519  0.94916197
   0.22596466  0.44275079  0.04937942
   0.10997078  0.88750085  0.94875268
   0.22155526  0.77654464  0.05164823
   0.44699701  0.22782729  0.95203450
   0.55861091  0.11585908  0.04928814
   0.44637662  0.55323702  0.95244510
   0.55545222  0.44416282  0.04650171
   0.44517947  0.88834375  0.94953239
   0.55749657  0.77539439  0.04900384
   0.77413531  0.22395220  0.95013156
   0.88751476  0.11011476  0.05110079
   0.77342930  0.55333485  0.95226982
   0.88384121  0.44290397  0.04902253
   0.77437282  0.88389131  0.95049429
   0.88392398  0.77432912  0.04933752
unknown system                          
           1
     8.271279    4.791572    0.000000
    -8.266123    4.782648    0.000000
     0.000000    0.000000   30.000000
   V    Mo   W    S 
   3   3   3  18
Direct configuration=     5
   0.66633768  0.32887528  0.00036129
   0.32546452  0.32493226 -0.00011248
   0.66981435  0.66955760 -0.00005207
   0.99702346  0.32259424  0.00013189
   0.31940781 -0.01307720 -0.00010075
   0.00428192  0.00729554 -0.00004937
   0.01613686  0.67853844  0.00015857
   0.32226076  0.67037014 -0.00023149
   0.67857745  0.00918366 -0.00006606
   0.11872637  0.22580521  0.94713337
   0.22597092  0.11818776  0.05228910
   0.10989991  0.55510481  0.94710021
   0.22646726  0.44221123  0.05108062
   0.10931809  0.88777812  0.94600989
   0.22181292  0.77711800  0.05518171
   0.44694823  0.22798321  0.95058329
   0.55823722  0.11628962  0.05077126
   0.44622537  0.55260254  0.95159471
   0.55495030  0.44391128  0.04777820
   0.44550821  0.88890046  0.94788336
   0.55752047  0.77536242  0.05018279
   0.77409210  0.22499847  0.94765826
   0.88809234  0.10992807  0.05374411
   0.77334501  0.55301911  0.95118059
   0.88343812  0.44282592  0.05031366
   0.77460874  0.88338490  0.94843776
   0.88374806  0.77453335  0.05103748
unknown system                          
           1
     8.270634    4.793484    0.000000
    -8.266387    4.786125    0.000000
     0.000000    0.000000   30.000000
   V    Mo   W    S 
   3   3   3  18
Direct configuration=     6
   0.66636211  0.32861866  0.00041189
   0.32496943  0.32409942 -0.00010267
   0.67027260  0.66941513 -0.00002286
   0.99600275  0.32036338  0.00006161
   0.31753998 -0.01521903 -0.00006916
   0.00363792  0.00794511 -0.00005452
   0.01791025  0.68024435  0.00008249
   0.32077444  0.67152740 -0.00013730
   0.68159841  0.01054794 -0.00002308
   0.11842998  0.22562776  0.94690204
   0.22586750  0.11758843  0.05236779
   0.10902966  0.55423538  0.94700419
   0.22615520  0.44244689  0.05093650
   0.10882735  0.88820070  0.94568112
   0.22190908  0.77739214  0.05588006
   0.44615076  0.22660471  0.95065516
   0.55745899  0.11539207  0.05053954
   0.44534564  0.55302258  0.95181259
   0.55478913  0.44369002  0.04778730
   0.44595729  0.88955376  0.94801048
   0.55712432  0.77578119  0.04992179
   0.77455471  0.22500656  0.94744465
   0.88863752  0.10993345  0.05424324
   0.77460539  0.55358014  0.95131014
   0.88450000  0.44360195  0.05005762
   0.77514467  0.88413600  0.94829001
   0.88465938  0.77487838  0.05100926
unknown system                          
           1
     8.280930    4.804766    0.000000
    -8.275473    4.795312    0.000000
     0.000000    0.000000   30.000000
   V    Mo   W    S 
   3   3   3  18
Direct configuration=     7
   0.66623995  0.32834196  0.00053290
   0.32441163  0.32260529 -0.00013613
   0.67119255  0.66892537 -0.00002780
   0.99440684  0.31661231  0.00002753
   0.31407262 -0.01845084 -0.00006340
   0.00254197  0.00909214 -0.00004159
   0.02106352  0.68328945  0.00001885
   0.31802389  0.67302759 -0.00015464
   0.68665827  0.01272406  0.00006002
   0.11821782  0.22542205  0.94663520
   0.22562948  0.11694968  0.05241101
   0.10818194  0.55337700  0.94707427
   0.22577394  0.44277473  0.05063663
   0.10824312  0.88878006  0.94534181
   0.22162522  0.77768121  0.05666103
   0.44530457  0.22501728  0.95084075
   0.55673166  0.11429229  0.05007124
   0.44434362  0.55365576  0.95231396
   0.55462943  0.44345954  0.04770167
   0.44679091  0.89043032  0.94838055
   0.55674681  0.77639227  0.04948197
   0.77507514  0.22495683  0.94718748
   0.88939030  0.11003866  0.05494937
   0.77594683  0.55418742  0.95149400
   0.88573446  0.44448863  0.04955647
   0.77570168  0.88485211  0.94807370
   0.88553630  0.77529128  0.05097306
unknown system                          
           1
     8.286542    4.814607    0.000000
    -8.279757    4.802852    0.000000
     0.000000    0.000000   30.000000
   V    Mo   W    S 
   3   3   3  18
Direct configuration=     8
   0.66610816  0.32823716  0.00062291
   0.32418796  0.32153772 -0.00016821
   0.67207090  0.66857054 -0.00003629
   0.99363936  0.31451099  0.00000622
   0.31214442 -0.01983730 -0.00004586
   0.00179744  0.00970638 -0.00002826
   0.02232235  0.68488841 -0.00002889
   0.31643199  0.67372304 -0.00011427
   0.68962024  0.01382889  0.00008271
   0.11815967  0.22535217  0.94646877
   0.22548991  0.11667188  0.05246038
   0.10753906  0.55283294  0.94710964
   0.22563288  0.44297342  0.05043505
   0.10781363  0.88915635  0.94510597
   0.22143626  0.77788839  0.05710448
   0.44488572  0.22420939  0.95093673
   0.55639835  0.11362379  0.04974531
   0.44380542  0.55404972  0.95267489
   0.55457234  0.44334521  0.04764442
   0.44744516  0.89108921  0.94865903
   0.55660291  0.77672718  0.04917172
   0.77536774  0.22494755  0.94704833
   0.88993889  0.11014287  0.05545010
   0.77658775  0.55448638  0.95157693
   0.88640945  0.44495438  0.04921790
   0.77594250  0.88512957  0.94791678
   0.88586399  0.77546825  0.05098342
unknown system                          
           1
     8.292477    4.817292    0.000000
    -8.285329    4.804915    0.000000
     0.000000    0.000000   30.000000
   V    Mo   W    S 
   3   3   3  18
Direct configuration=     9
   0.66578166  0.32824365  0.00079166
   0.32401125  0.31972450 -0.00024969
   0.67406441  0.66817346 -0.00007147
   0.99308665  0.31212518 -0.00001866
   0.30974998 -0.02084077 -0.00002741
   0.00076306  0.01027965 -0.00001281
   0.02314428  0.68678177 -0.00008489
   0.31421663  0.67422804 -0.00005978
   0.69326153  0.01482605  0.00008420
   0.11812103  0.22525050  0.94635466
   0.22519980  0.11643246  0.05249205
   0.10673006  0.55231256  0.94729969
   0.22557657  0.44327718  0.05006912
   0.10722404  0.88966839  0.94489935
   0.22096532  0.77817904  0.05744914
   0.44445200  0.22336378  0.95107561
   0.55610744  0.11265767  0.04918150
   0.44321716  0.55465405  0.95335997
   0.55455028  0.44325438  0.04750888
   0.44839276  0.89201175  0.94925373
   0.55647913  0.77711754  0.04860061
   0.77580187  0.22488175  0.94700544
   0.89069382  0.11032504  0.05603088
   0.77717624  0.55480217  0.95167024
   0.88723602  0.44548349  0.04864325
   0.77622766  0.88535645  0.94776581
   0.88598378  0.77564472  0.05098882
unknown system                          
           1
     8.298303    4.822354    0.000000
    -8.290327    4.808545    0.000000
     0.000000    0.000000   30.000000
   V    Mo   W    S 
   3   3   3  18
Direct configuration=    10
   0.66575368  0.32823339  0.00079385
   0.32405189  0.31970135 -0.00025451
   0.67423385  0.66824779 -0.00007925
   0.99327876  0.31248641 -0.00001160
   0.31002797 -0.02043891 -0.00002167
   0.00089455  0.01016043 -0.00001299
   0.02274139  0.68654251 -0.00007927
   0.31436666  0.67403827 -0.00004733
   0.69283607  0.01465826  0.00007632
   0.11816382  0.22526703  0.94636155
   0.22520315  0.11650267  0.05251806
   0.10673804  0.55236772  0.94727829
   0.22563879  0.44324523  0.05010103
   0.10725823  0.88964512  0.94490577
   0.22093660  0.77818793  0.05738974
   0.44455384  0.22351319  0.95103562
   0.55615343  0.11272754  0.04921499
   0.44329633  0.55460333  0.95334764
   0.55455873  0.44325312  0.04752569
   0.44835731  0.89198583  0.94923910
   0.55649422  0.77704576  0.04862542
   0.77577422  0.22490842  0.94702877
   0.89065194  0.11033897  0.05598111
   0.77703513  0.55469380  0.95161738
   0.88712532  0.44540129  0.04867551
   0.77620115  0.88526880  0.94775477
   0.88588937  0.77562918  0.05103592
unknown system                          
           1
     8.301993    4.825119    0.000000
    -8.293567    4.810533    0.000000
     0.000000    0.000000   30.000000
   V    Mo   W    S 
   3   3   3  18
Direct configuration=    11
   0.66543332  0.32818459  0.00091105
   0.32398175  0.31838862 -0.00031936
   0.67603965  0.66820572 -0.00012633
   0.99325463  0.31152933 -0.00001745
   0.30881046 -0.02054562 -0.00000844
   0.00048597  0.01030058 -0.00001134
   0.02276708  0.68752373 -0.00010268
   0.31298010  0.67404326 -0.00000864
   0.69459553  0.01510977  0.00006698
   0.11818496  0.22520770  0.94632810
   0.22499313  0.11646062  0.05258186
   0.10626995  0.55221371  0.94739359
   0.22571848  0.44338163  0.04991484
   0.10698173  0.88992674  0.94481839
   0.22052491  0.77838585  0.05746816
   0.44446415  0.22324112  0.95105226
   0.55602542  0.11221655  0.04890356
   0.44305420  0.55490650  0.95380497
   0.55456332  0.44316973  0.04745368
   0.44881358  0.89248461  0.94962744
   0.55640455  0.77714718  0.04827482
   0.77602928  0.22490201  0.94707568
   0.89100542  0.11047467  0.05619710
   0.77715813  0.55467232  0.95157830
   0.88746515  0.44560850  0.04834559
   0.77637137  0.88532395  0.94766701
   0.88583824  0.77575108  0.05113075
unknown system                          
           1
     8.312024    4.832525    0.000000
    -8.301903    4.815020    0.000000
     0.000000    0.000000   30.000000
   V    Mo   W    S 
   3   3   3  18
Direct configuration=    12
   0.66530864  0.32815766  0.00095519
   0.32393822  0.31791396 -0.00034245
   0.67672450  0.66824185 -0.00014469
   0.99330589  0.31127411 -0.00001756
   0.30845393 -0.02050673 -0.00000135
   0.00037859  0.01033056 -0.00000862
   0.02268030  0.68781286 -0.00011108
   0.31252786  0.67401022  0.00000836
   0.69510330  0.01521457  0.00006042
   0.11820515  0.22519223  0.94630837
   0.22492308  0.11644637  0.05261588
   0.10608792  0.55216226  0.94741642
   0.22575932  0.44342245  0.04986214
   0.10688762  0.89002761  0.94477441
   0.22038196  0.77846171  0.05750626
   0.44443317  0.22315153  0.95104453
   0.55596764  0.11203342  0.04881111
   0.44298401  0.55500905  0.95396465
   0.55456247  0.44314703  0.04743226
   0.44895711  0.89265036  0.94975278
   0.55636594  0.77716127  0.04815610
   0.77611766  0.22491391  0.94708316
   0.89113441  0.11052339  0.05627405
   0.77719520  0.55465541  0.95155021
   0.88757897  0.44567966  0.04824196
   0.77643010  0.88533316  0.94762849
   0.88582149  0.77579458  0.05117891
unknown system                          
           1
     8.326586    4.843425    0.000000
    -8.313774    4.821282    0.000000
     0.000000    0.000000   30.000000
   V    Mo   W    S 
   3   3   3  18
Direct configuration=    13
   0.66475981  0.32798838  0.00113387
   0.32368336  0.31596858 -0.00043506
   0.67948121  0.66847613 -0.00022567
   0.99363661  0.31044712 -0.00001934
   0.30711719 -0.02029931  0.00002323
   0.00014422  0.01049667 -0.00000295
   0.02235319  0.68890558 -0.00013782
   0.31071244  0.67380674  0.00007051
   0.69694107  0.01561435  0.00002739
   0.11828268  0.22512788  0.94626312
   0.22465452  0.11642818  0.05274416
   0.10540438  0.55205783  0.94752444
   0.22595641  0.44355775  0.04965454
   0.10657301  0.89039692  0.94464102
   0.21976784  0.77874240  0.05759100
   0.44431595  0.22286733  0.95101117
   0.55575326  0.11132306  0.04845868
   0.44273078  0.55537159  0.95462098
   0.55455624  0.44304081  0.04732929
   0.44943281  0.89322939  0.95026537
   0.55619740  0.77717438  0.04767430
   0.77648476  0.22494343  0.94715523
   0.89157856  0.11071486  0.05649415
   0.77729060  0.55455222  0.95142734
   0.88798911  0.44592596  0.04782881
   0.77667061  0.88539575  0.94750106
   0.88574643  0.77596045  0.05138106
unknown system                          
           1
     8.344952    4.855075    0.000000
    -8.327332    4.824661    0.000000
     0.000000    0.000000   30.000000
   V    Mo   W    S 
   3   3   3  18
Direct configuration=    14
   0.66358571  0.32760146  0.00147027
   0.32315930  0.31237447 -0.00060587
   0.68500935  0.66950944 -0.00040317
   0.99455618  0.30940443 -0.00001484
   0.30495871 -0.01955470  0.00006889
  -0.00025083  0.01033559  0.00001551
   0.02125509  0.69080121 -0.00017938
   0.30745581  0.67315070  0.00019855
   0.69983730  0.01602340 -0.00005668
   0.11847990  0.22504476  0.94614750
   0.22413089  0.11634592  0.05305933
   0.10414126  0.55201926  0.94765072
   0.22638093  0.44375557  0.04937634
   0.10607719  0.89106240  0.94439312
   0.21859970  0.77924120  0.05771097
   0.44425234  0.22246480  0.95085974
   0.55536848  0.11007292  0.04791370
   0.44252973  0.55604856  0.95584246
   0.55460590  0.44295734  0.04712350
   0.45012475  0.89416602  0.95115758
   0.55588659  0.77700521  0.04679925
   0.77711754  0.22510287  0.94730962
   0.89231105  0.11103823  0.05680081
   0.77733843  0.55423616  0.95115231
   0.88859097  0.44628684  0.04711881
   0.77710856  0.88543900  0.94728663
   0.88560363  0.77628139  0.05180425
unknown system                          
           1
     8.339070    4.850344    0.000000
    -8.321145    4.819415    0.000000
     0.000000    0.000000   30.000000
   V    Mo   W    S 
   3   3   3  18
Direct configuration=    15
   0.66187169  0.32678752  0.00189471
   0.32229544  0.30839061 -0.00079101
   0.69088489  0.67150746 -0.00065301
   0.99611908  0.30887450 -0.00001608
   0.30300175 -0.01831843  0.00016789
  -0.00013663  0.00996607  0.00003856
   0.01971048  0.69277350 -0.00021160
   0.30398382  0.67207392  0.00034489
   0.70237801  0.01620750 -0.00019445
   0.11875893  0.22491051  0.94602342
   0.22354442  0.11621857  0.05347679
   0.10256866  0.55215370  0.94774034
   0.22691441  0.44379999  0.04917089
   0.10560354  0.89182993  0.94407712
   0.21706367  0.77982754  0.05778194
   0.44422621  0.22206058  0.95059921
   0.55492844  0.10863862  0.04738873
   0.44265934  0.55665353  0.95730017
   0.55470660  0.44302511  0.04681436
   0.45071449  0.89500793  0.95218932
   0.55558140  0.77662467  0.04581354
   0.77786019  0.22534000  0.94754413
   0.89313021  0.11142621  0.05702795
   0.77740651  0.55377254  0.95076831
   0.88914442  0.44660343  0.04630576
   0.77768664  0.88536227  0.94697325
   0.88560784  0.77669666  0.05242479
unknown system                          
           1
     8.357339    4.863263    0.000000
    -8.334986    4.824707    0.000000
     0.000000    0.000000   30.000000
   V    Mo   W    S 
   3   3   3  18
Direct configuration=    16
   0.66082283  0.32611692  0.00191893
   0.32176150  0.30875516 -0.00075643
   0.69006079  0.67299558 -0.00079634
   0.99706084  0.30971203 -0.00001289
   0.30355673 -0.01786265  0.00016269
   0.00051140  0.00940362  0.00008931
   0.01936878  0.69288009 -0.00020098
   0.30399198  0.67159714  0.00044908
   0.70194798  0.01577279 -0.00031198
   0.11894544  0.22487676  0.94597903
   0.22354242  0.11610638  0.05358798
   0.10230319  0.55241680  0.94768810
   0.22695132  0.44353108  0.04935145
   0.10590190  0.89194283  0.94407748
   0.21668900  0.77975322  0.05766478
   0.44432442  0.22205435  0.95047737
   0.55488211  0.10830905  0.04754151
   0.44320362  0.55625944  0.95744562
   0.55477683  0.44325150  0.04664571
   0.45045121  0.89463813  0.95232908
   0.55565674  0.77641776  0.04581051
   0.77798517  0.22543226  0.94766816
   0.89315280  0.11143258  0.05678402
   0.77744771  0.55372607  0.95079737
   0.88893859  0.44645379  0.04617638
   0.77799568  0.88540340  0.94689547
   0.88598349  0.77683839  0.05253846
unknown system                          
           1
     8.355123    4.860731    0.000000
    -8.332388    4.821529    0.000000
     0.000000    0.000000   30.000000
   V    Mo   W    S 
   3   3   3  18
Direct configuration=    17
   0.65864792  0.32509189  0.00227611
   0.32072543  0.30506478 -0.00089714
   0.69562602  0.67522849 -0.00106172
   0.99874551  0.30933876 -0.00004555
   0.30184540 -0.01657479  0.00026230
   0.00062478  0.00887563  0.00012123
   0.01798054  0.69483348 -0.00024338
   0.30045575  0.67027475  0.00061475
   0.70450372  0.01602289 -0.00045807
   0.11925989  0.22474006  0.94583317
   0.22309788  0.11600667  0.05398671
   0.10094887  0.55260724  0.94777070
   0.22745789  0.44354788  0.04924658
   0.10560145  0.89268921  0.94377153
   0.21529899  0.78023783  0.05774940
   0.44431143  0.22172237  0.95022387
   0.55453014  0.10685465  0.04711916
   0.44331759  0.55675753  0.95874930
   0.55483471  0.44334053  0.04634814
   0.45101972  0.89530522  0.95326764
   0.55535594  0.77607031  0.04496138
   0.77871032  0.22566216  0.94788588
   0.89390023  0.11174734  0.05696031
   0.77741888  0.55337294  0.95052789
   0.88938121  0.44673730  0.04539128
   0.77869596  0.88546626  0.94655120
   0.88591829  0.77719306  0.05308722
unknown system                          
           1
     8.354677    4.860460    0.000000
    -8.331802    4.821016    0.000000
     0.000000    0.000000   30.000000
   V    Mo   W    S 
   3   3   3  18
Direct configuration=    18
   0.65768437  0.32457727  0.00227814
   0.32047888  0.30553484 -0.00085088
   0.69502157  0.67574275 -0.00109790
   0.99914602  0.30969215 -0.00005120
   0.30234725 -0.01640395  0.00027803
   0.00080526  0.00863558  0.00012566
   0.01798674  0.69476415 -0.00022807
   0.30065817  0.67007544  0.00066051
   0.70430419  0.01592526 -0.00050141
   0.11935263  0.22467381  0.94580381
   0.22318492  0.11597214  0.05400780
   0.10098883  0.55267847  0.94774441
   0.22739616  0.44343182  0.04937990
   0.10583949  0.89273877  0.94376109
   0.21527479  0.78018271  0.05772989
   0.44432712  0.22175912  0.95019268
   0.55464524  0.10676010  0.04722005
   0.44344640  0.55654532  0.95866759
   0.55480925  0.44344611  0.04630658
   0.45088435  0.89494135  0.95327969
   0.55541752  0.77611928  0.04503822
   0.77875821  0.22567645  0.94791522
   0.89395047  0.11175587  0.05686951
   0.77739102  0.55346711  0.95062117
   0.88917255  0.44664983  0.04530916
   0.77895816  0.88563026  0.94648410
   0.88598488  0.77724244  0.05305613
unknown system                          
           1
     8.356092    4.861140    0.000000
    -8.332688    4.820788    0.000000
     0.000000    0.000000   30.000000
   V    Mo   W    S 
   3   3   3  18
Direct configuration=    19
   0.65735154  0.32440095  0.00228180
   0.32039196  0.30552844 -0.00084300
   0.69507084  0.67591935 -0.00111575
   0.99928891  0.30975582 -0.00005715
   0.30239415 -0.01633787  0.00028195
   0.00083691  0.00857233  0.00012530
   0.01799176  0.69482748 -0.00022864
   0.30055710  0.66996313  0.00067785
   0.70436580  0.01593161 -0.00051665
   0.11937698  0.22465333  0.94579100
   0.22319269  0.11595786  0.05402413
   0.10097484  0.55270489  0.94774272
   0.22739822  0.44341316  0.04941035
   0.10589809  0.89276918  0.94375478
   0.21523740  0.78017836  0.05773080
   0.44433505  0.22176612  0.95017598
   0.55466694  0.10669102  0.04723788
   0.44346667  0.55653203  0.95868154
   0.55479586  0.44346974  0.04629725
   0.45088925  0.89489138  0.95330426
   0.55541587  0.77612125  0.04503351
   0.77878973  0.22569247  0.94792704
   0.89398304  0.11176189  0.05685629
   0.77737866  0.55346871  0.95063542
   0.88913113  0.44663663  0.04526449
   0.77904153  0.88568150  0.94645872
   0.88599354  0.77726371  0.05306804
unknown system                          
           1
     8.351837    4.859250    0.000000
    -8.329163    4.820148    0.000000
     0.000000    0.000000   30.000000
   V    Mo   W    S 
   3   3   3  18
Direct configuration=    20
   0.65650913  0.32397122  0.00232340
   0.32014325  0.30524447 -0.00083831
   0.69554725  0.67643733 -0.00117175
   0.99971895  0.30986440 -0.00006573
   0.30239288 -0.01607210  0.00029590
   0.00092935  0.00840844  0.00012693
   0.01785433  0.69507908 -0.00022991
   0.30015543  0.66967212  0.00072768
   0.70464523  0.01592483 -0.00056082
   0.11946197  0.22460491  0.94575579
   0.22317210  0.11592677  0.05408442
   0.10082543  0.55276226  0.94774249
   0.22743540  0.44336781  0.04945970
   0.10599022  0.89288850  0.94371895
   0.21505194  0.78020847  0.05773536
   0.44433885  0.22175131  0.95012519
   0.55468393  0.10645039  0.04723812
   0.44353155  0.55652774  0.95881501
   0.55477413  0.44352959  0.04625044
   0.45093029  0.89483009  0.95343268
   0.55540095  0.77610053  0.04495343
   0.77890749  0.22574668  0.94797091
   0.89411382  0.11180729  0.05684110
   0.77736236  0.55345069  0.95064394
   0.88906954  0.44662266  0.04510837
   0.77925533  0.88577607  0.94638694
   0.88601333  0.77733290  0.05312968
unknown system                          
           1
     8.351637    4.858991    0.000000
    -8.327888    4.818043    0.000000
     0.000000    0.000000   30.000000
   V    Mo   W    S 
   3   3   3  18
Direct configuration=    21
   0.65699313  0.32419424  0.00225648
   0.32024049  0.30560832 -0.00082449
   0.69492475  0.67614122 -0.00113110
   0.99944289  0.30987115 -0.00007060
   0.30251605 -0.01625968  0.00028293
   0.00091714  0.00854507  0.00011906
   0.01808593  0.69484596 -0.00023362
   0.30049584  0.66978622  0.00069908
   0.70436994  0.01593158 -0.00053507
   0.11939411  0.22463931  0.94577511
   0.22324391  0.11595380  0.05403662
   0.10101600  0.55273534  0.94773397
   0.22738887  0.44339740  0.04946482
   0.10599858  0.89277724  0.94375221
   0.21524561  0.78012907  0.05773594
   0.44434231  0.22179605  0.95016222
   0.55471389  0.10661929  0.04729015
   0.44346476  0.55649716  0.95864314
   0.55476913  0.44349820  0.04630166
   0.45089268  0.89478975  0.95329422
   0.55540827  0.77613121  0.04507171
   0.77881872  0.22570876  0.94792823
   0.89398381  0.11175587  0.05683359
   0.77735010  0.55348347  0.95066553
   0.88908397  0.44660997  0.04524448
   0.77913256  0.88577267  0.94642809
   0.88598102  0.77725582  0.05307554
unknown system                          
           1
     8.351977    4.859147    0.000000
    -8.328176    4.818111    0.000000
     0.000000    0.000000   30.000000
   V    Mo   W    S 
   3   3   3  18
Direct configuration=    22
   0.65552527  0.32345698  0.00228309
   0.31978654  0.30543794 -0.00079350
   0.69551280  0.67704719 -0.00120550
   1.00013879  0.31013750 -0.00008044
   0.30271540 -0.01592068  0.00030999
   0.00096062  0.00817805  0.00012527
   0.01790861  0.69514484 -0.00021789
   0.30004961  0.66930274  0.00077918
   0.70471367  0.01588610 -0.00059993
   0.11953295  0.22455587  0.94570157
   0.22326340  0.11590312  0.05411828
   0.10089164  0.55281190  0.94770586
   0.22740850  0.44329261  0.04959503
   0.10624436  0.89294644  0.94370045
   0.21506492  0.78015462  0.05774971
   0.44428236  0.22178879  0.95006628
   0.55476538  0.10623984  0.04736324
   0.44359320  0.55648261  0.95875670
   0.55467716  0.44367258  0.04625657
   0.45093295  0.89459476  0.95343593
   0.55541097  0.77612411  0.04500976
   0.77898586  0.22579526  0.94797195
   0.89417734  0.11181680  0.05678792
   0.77729521  0.55354502  0.95071841
   0.88892931  0.44656389  0.04503123
   0.77948818  0.88594288  0.94630807
   0.88595945  0.77731269  0.05312269
unknown system                          
           1
     8.355187    4.862283    0.000000
    -8.328953    4.817054    0.000000
     0.000000    0.000000   30.000000
   V    Mo   W    S 
   3   3   3  18
Direct configuration=    23
   0.65542338  0.32340405  0.00228550
   0.31976479  0.30543054 -0.00079140
   0.69553398  0.67708893 -0.00121005
   1.00018105  0.31015586 -0.00008189
   0.30273493 -0.01589154  0.00031155
   0.00096998  0.00816404  0.00012465
   0.01790403  0.69515689 -0.00021798
   0.30002646  0.66927240  0.00078330
   0.70472615  0.01588765 -0.00060374
   0.11954103  0.22455124  0.94569744
   0.22326654  0.11590128  0.05412225
   0.10088826  0.55281717  0.94770457
   0.22740879  0.44328627  0.04960367
   0.10626089  0.89295397  0.94369801
   0.21505703  0.78015480  0.05775113
   0.44427960  0.22179190  0.95006131
   0.55477350  0.10622504  0.04736793
   0.44359893  0.55648114  0.95876083
   0.55467037  0.44367916  0.04625433
   0.45093694  0.89458239  0.95344266
   0.55541209  0.77612587  0.04500778
   0.77899365  0.22580093  0.94797507
   0.89418792  0.11182048  0.05678604
   0.77729251  0.55354561  0.95072189
   0.88891319  0.44655784  0.04501776
   0.77950819  0.88595380  0.94630051
   0.88596026  0.77731676  0.05312676
unknown system                          
           1
     8.358752    4.864442    0.000000
    -8.329937    4.814778    0.000000
     0.000000    0.000000   30.000000
   V    Mo   W    S 
   3   3   3  18
Direct configuration=    24
   0.65391701  0.32261429  0.00232861
   0.31933385  0.30542128 -0.00076703
   0.69623175  0.67794627 -0.00128442
   1.00089303  0.31039634 -0.00010574
   0.30286000 -0.01581951  0.00032709
   0.00086828  0.00773522  0.00011080
   0.01787105  0.69552182 -0.00019905
   0.29959693  0.66881890  0.00084854
   0.70513152  0.01591096 -0.00065888
   0.11941467  0.22442905  0.94569980
   0.22317717  0.11577591  0.05413886
   0.10091789  0.55287662  0.94770963
   0.22736200  0.44326516  0.04967943
   0.10637709  0.89302245  0.94371503
   0.21500319  0.78013135  0.05772866
   0.44433096  0.22180407  0.95001725
   0.55486441  0.10619756  0.04739832
   0.44376346  0.55664380  0.95878977
   0.55480980  0.44382805  0.04625120
   0.45092829  0.89445707  0.95351530