   27   27  100    1
  0.9710400E+02  0.1002848E-08  0.1002848E-08  0.3000000E-08  0.5000000E-15
  1.000000000000000E-004
  CAR 
 unknown system                          
    159     34    120
 
  0.0000000E+00  0.0000000E+00  0.0000000E+00  0.1562500E-01
    1      -17.818734   1.000000
    2      -16.699961   1.000000
    3      -16.594027   1.000000
    4      -16.560974   1.000000
    5      -16.516554   1.000000
    6      -16.443347   1.000000
    7      -16.413535   1.000000
    8      -16.361824   1.000000
    9      -16.166379   1.000000
   10      -16.133346   1.000000
   11      -16.013305   1.000000
   12      -15.959585   1.000000
   13      -15.871988   1.000000
   14      -15.732327   1.000000
   15      -15.576601   1.000000
   16      -15.511675   1.000000
   17      -15.399521   1.000000
   18      -15.275664   1.000000
   19       -9.321160   1.000000
   20       -9.045380   1.000000
   21       -8.927974   1.000000
   22       -8.832683   1.000000
   23       -8.739251   1.000000
   24       -8.710245   1.000000
   25       -8.619482   1.000000
   26       -8.585208   1.000000
   27       -8.488326   1.000000
   28       -8.415934   1.000000
   29       -8.391202   1.000000
   30       -8.272255   1.000000
   31       -8.235436   1.000000
   32       -8.199475   1.000000
   33       -8.111934   1.000000
   34       -7.914546   1.000000
   35       -7.877959   1.000000
   36       -7.820187   1.000000
   37       -7.715275   1.000000
   38       -7.595630   1.000000
   39       -7.482455   1.000000
   40       -7.440931   1.000000
   41       -7.256734   1.000000
   42       -7.216374   1.000000
   43       -7.099025   1.000000
   44       -6.975075   1.000000
   45       -6.814559   1.000000
   46       -6.765594   1.000000
   47       -6.661983   1.000000
   48       -6.638232   1.000000
   49       -6.597919   1.000000
   50       -6.565496   1.000000
   51       -6.445224   1.000000
   52       -6.385362   1.000000
   53       -6.324837   1.000000
   54       -6.299553   1.000000
   55       -6.184252   1.000000
   56       -6.108706   1.000000
   57       -6.061911   1.000000
   58       -5.953070   1.000000
   59       -5.731966   1.000000
   60       -5.600479   1.000000
   61       -5.500685   1.000000
   62       -5.331309   1.000000
   63       -5.289555   1.000000
   64       -5.062855   1.000000
   65       -5.025326   1.000000
   66       -4.989336   1.000000
   67       -4.970382   1.000000
   68       -4.762230   1.000000
   69       -4.701170   1.000000
   70       -4.681112   1.000000
   71       -4.609570   1.000000
   72       -4.586600   1.000000
   73       -4.498710   1.000000
   74       -4.428219   1.000000
   75       -4.244915   1.000000
   76       -4.069817   1.000000
   77       -3.579688   0.997907
   78       -3.503707   0.990004
   79       -3.479578   0.984454
   80       -3.367440   0.913550
   81       -3.288317   0.789146
   82       -2.870393   0.015710
   83       -2.726023   0.000756
   84       -2.588726   0.000017
   85       -2.454474   0.000000
   86       -2.413893   0.000000
   87       -2.344007   0.000000
   88       -2.250648   0.000000
   89       -2.195039   0.000000
   90       -2.029427   0.000000
   91       -1.844428   0.000000
   92       -1.791958   0.000000
   93       -1.413525   0.000000
   94       -1.394969   0.000000
   95       -1.152374   0.000000
   96       -1.099835   0.000000
   97       -0.995964   0.000000
   98       -0.858370   0.000000
   99       -0.825403   0.000000
  100       -0.598349   0.000000
  101       -0.530442   0.000000
  102       -0.520698   0.000000
  103       -0.400718   0.000000
  104       -0.281733   0.000000
  105       -0.052002   0.000000
  106        0.018503   0.000000
  107        0.060295   0.000000
  108        0.103035   0.000000
  109        0.162776   0.000000
  110        0.241823   0.000000
  111        0.340282   0.000000
  112        0.545274   0.000000
  113        0.688077   0.000000
  114        0.783919   0.000000
  115        0.890885   0.000000
  116        0.941850   0.000000
  117        1.240884   0.000000
  118        1.655740   0.000000
  119        1.837050   0.000000
  120        2.165185   0.000000
 
  0.1250000E+00  0.2775558E-16  0.0000000E+00  0.3125000E-01
    1      -17.794773   1.000000
    2      -16.765701   1.000000
    3      -16.637455   1.000000
    4      -16.612261   1.000000
    5      -16.557707   1.000000
    6      -16.421219   1.000000
    7      -16.372061   1.000000
    8      -16.284491   1.000000
    9      -16.158389   1.000000
   10      -16.151098   1.000000
   11      -15.975062   1.000000
   12      -15.938086   1.000000
   13      -15.842337   1.000000
   14      -15.723993   1.000000
   15      -15.598169   1.000000
   16      -15.511137   1.000000
   17      -15.418208   1.000000
   18      -15.276039   1.000000
   19       -9.333118   1.000000
   20       -9.142521   1.000000
   21       -8.994667   1.000000
   22       -8.893622   1.000000
   23       -8.821064   1.000000
   24       -8.798323   1.000000
   25       -8.599305   1.000000
   26       -8.572871   1.000000
   27       -8.505915   1.000000
   28       -8.418256   1.000000
   29       -8.398256   1.000000
   30       -8.235443   1.000000
   31       -8.156070   1.000000
   32       -8.029885   1.000000
   33       -8.001468   1.000000
   34       -7.828946   1.000000
   35       -7.805856   1.000000
   36       -7.761244   1.000000
   37       -7.661298   1.000000
   38       -7.657869   1.000000
   39       -7.498612   1.000000
   40       -7.476592   1.000000
   41       -7.244130   1.000000
   42       -7.198308   1.000000
   43       -7.052024   1.000000
   44       -7.016447   1.000000
   45       -6.931115   1.000000
   46       -6.821291   1.000000
   47       -6.677519   1.000000
   48       -6.625446   1.000000
   49       -6.588558   1.000000
   50       -6.486486   1.000000
   51       -6.436081   1.000000
   52       -6.399446   1.000000
   53       -6.304468   1.000000
   54       -6.298882   1.000000
   55       -6.232104   1.000000
   56       -6.170818   1.000000
   57       -5.965149   1.000000
   58       -5.946614   1.000000
   59       -5.686818   1.000000
   60       -5.594458   1.000000
   61       -5.505252   1.000000
   62       -5.413784   1.000000
   63       -5.256031   1.000000
   64       -5.217101   1.000000
   65       -5.092489   1.000000
   66       -5.019086   1.000000
   67       -4.916478   1.000000
   68       -4.861428   1.000000
   69       -4.822966   1.000000
   70       -4.675680   1.000000
   71       -4.554701   1.000000
   72       -4.528709   1.000000
   73       -4.430379   1.000000
   74       -4.211062   1.000000
   75       -4.187135   1.000000
   76       -4.066565   1.000000
   77       -3.743707   0.999971
   78       -3.723999   0.999949
   79       -3.448092   0.973397
   80       -3.270971   0.752004
   81       -3.150131   0.431066
   82       -2.851621   0.011173
   83       -2.727500   0.000783
   84       -2.570259   0.000010
   85       -2.467859   0.000000
   86       -2.418784   0.000000
   87       -2.343679   0.000000
   88       -2.225359   0.000000
   89       -2.180769   0.000000
   90       -2.049912   0.000000
   91       -1.847310   0.000000
   92       -1.767964   0.000000
   93       -1.411880   0.000000
   94       -1.386023   0.000000
   95       -1.157412   0.000000
   96       -1.108320   0.000000
   97       -0.991164   0.000000
   98       -0.859460   0.000000
   99       -0.824141   0.000000
  100       -0.689187   0.000000
  101       -0.619908   0.000000
  102       -0.567933   0.000000
  103       -0.433662   0.000000
  104       -0.350521   0.000000
  105       -0.088626   0.000000
  106       -0.022670   0.000000
  107       -0.006357   0.000000
  108        0.079715   0.000000
  109        0.160206   0.000000
  110        0.313516   0.000000
  111        0.372317   0.000000
  112        0.499950   0.000000
  113        0.622921   0.000000
  114        0.738201   0.000000
  115        1.001803   0.000000
  116        1.089677   0.000000
  117        1.255861   0.000000
  118        1.698351   0.000000
  119        1.876842   0.000000
  120        2.199991   0.000000
 
  0.2500000E+00  0.5551115E-16  0.0000000E+00  0.3125000E-01
    1      -17.725156   1.000000
    2      -16.962945   1.000000
    3      -16.672708   1.000000
    4      -16.639781   1.000000
    5      -16.615510   1.000000
    6      -16.385181   1.000000
    7      -16.330697   1.000000
    8      -16.236247   1.000000
    9      -16.139036   1.000000
   10      -16.124881   1.000000
   11      -15.917266   1.000000
   12      -15.890808   1.000000
   13      -15.769592   1.000000
   14      -15.691764   1.000000
   15      -15.646809   1.000000
   16      -15.518710   1.000000
   17      -15.465218   1.000000
   18      -15.278663   1.000000
   19       -9.494434   1.000000
   20       -9.216476   1.000000
   21       -9.120411   1.000000
   22       -8.984151   1.000000
   23       -8.952723   1.000000
   24       -8.905477   1.000000
   25       -8.566127   1.000000
   26       -8.524126   1.000000
   27       -8.439664   1.000000
   28       -8.396092   1.000000
   29       -8.302367   1.000000
   30       -8.212729   1.000000
   31       -8.119562   1.000000
   32       -8.010962   1.000000
   33       -7.839066   1.000000
   34       -7.774236   1.000000
   35       -7.688096   1.000000
   36       -7.662518   1.000000
   37       -7.617260   1.000000
   38       -7.521912   1.000000
   39       -7.466485   1.000000
   40       -7.421570   1.000000
   41       -7.251002   1.000000
   42       -7.148005   1.000000
   43       -7.106273   1.000000
   44       -7.035797   1.000000
   45       -6.941633   1.000000
   46       -6.817562   1.000000
   47       -6.700297   1.000000
   48       -6.668413   1.000000
   49       -6.602588   1.000000
   50       -6.476258   1.000000
   51       -6.440313   1.000000
   52       -6.381381   1.000000
   53       -6.321343   1.000000
   54       -6.235513   1.000000
   55       -6.193249   1.000000
   56       -6.172991   1.000000
   57       -5.939888   1.000000
   58       -5.894701   1.000000
   59       -5.684904   1.000000
   60       -5.653958   1.000000
   61       -5.584354   1.000000
   62       -5.520436   1.000000
   63       -5.461347   1.000000
   64       -5.388448   1.000000
   65       -5.154896   1.000000
   66       -5.109688   1.000000
   67       -4.921296   1.000000
   68       -4.822428   1.000000
   69       -4.747085   1.000000
   70       -4.667983   1.000000
   71       -4.466470   1.000000
   72       -4.430965   1.000000
   73       -4.346157   1.000000
   74       -4.265909   1.000000
   75       -4.119476   1.000000
   76       -3.965600   1.000000
   77       -3.935991   1.000000
   78       -3.856345   0.999999
   79       -3.435896   0.967627
   80       -3.152726   0.438288
   81       -3.008180   0.119517
   82       -2.823440   0.006501
   83       -2.703451   0.000431
   84       -2.551432   0.000005
   85       -2.511251   0.000001
   86       -2.424046   0.000000
   87       -2.326489   0.000000
   88       -2.186682   0.000000
   89       -2.115927   0.000000
   90       -2.070614   0.000000
   91       -1.842619   0.000000
   92       -1.733030   0.000000
   93       -1.423879   0.000000
   94       -1.366052   0.000000
   95       -1.182804   0.000000
   96       -1.132020   0.000000
   97       -0.985196   0.000000
   98       -0.907434   0.000000
   99       -0.876616   0.000000
  100       -0.837910   0.000000
  101       -0.726664   0.000000
  102       -0.663950   0.000000
  103       -0.503537   0.000000
  104       -0.489648   0.000000
  105       -0.245945   0.000000
  106       -0.123503   0.000000
  107       -0.096798   0.000000
  108        0.066100   0.000000
  109        0.092258   0.000000
  110        0.277621   0.000000
  111        0.402595   0.000000
  112        0.544359   0.000000
  113        0.619193   0.000000
  114        0.720484   0.000000
  115        1.184217   0.000000
  116        1.288695   0.000000
  117        1.305181   0.000000
  118        1.817820   0.000000
  119        1.990214   0.000000
  120        2.303118   0.000000
 
  0.3750000E+00  0.0000000E+00  0.0000000E+00  0.3125000E-01
    1      -17.621121   1.000000
    2      -17.164205   1.000000
    3      -16.708201   1.000000
    4      -16.665786   1.000000
    5      -16.623399   1.000000
    6      -16.370281   1.000000
    7      -16.315013   1.000000
    8      -16.253692   1.000000
    9      -16.079855   1.000000
   10      -16.070984   1.000000
   11      -15.872619   1.000000
   12      -15.846555   1.000000
   13      -15.727130   1.000000
   14      -15.699799   1.000000
   15      -15.630583   1.000000
   16      -15.534663   1.000000
   17      -15.517849   1.000000
   18      -15.281335   1.000000
   19       -9.689130   1.000000
   20       -9.233837   1.000000
   21       -9.219479   1.000000
   22       -9.072629   1.000000
   23       -8.998462   1.000000
   24       -8.953517   1.000000
   25       -8.467669   1.000000
   26       -8.455904   1.000000
   27       -8.393383   1.000000
   28       -8.345359   1.000000
   29       -8.220040   1.000000
   30       -8.181956   1.000000
   31       -8.133992   1.000000
   32       -8.111788   1.000000
   33       -7.876413   1.000000
   34       -7.841046   1.000000
   35       -7.720572   1.000000
   36       -7.616440   1.000000
   37       -7.460929   1.000000
   38       -7.408163   1.000000
   39       -7.384288   1.000000
   40       -7.349378   1.000000
   41       -7.183779   1.000000
   42       -7.149910   1.000000
   43       -7.051254   1.000000
   44       -6.986411   1.000000
   45       -6.876147   1.000000
   46       -6.819909   1.000000
   47       -6.692567   1.000000
   48       -6.624433   1.000000
   49       -6.520379   1.000000
   50       -6.474074   1.000000
   51       -6.421543   1.000000
   52       -6.334953   1.000000
   53       -6.310423   1.000000
   54       -6.249927   1.000000
   55       -6.127484   1.000000
   56       -6.086838   1.000000
   57       -5.985380   1.000000
   58       -5.908863   1.000000
   59       -5.836270   1.000000
   60       -5.799505   1.000000
   61       -5.785396   1.000000
   62       -5.662918   1.000000
   63       -5.585091   1.000000
   64       -5.393426   1.000000
   65       -5.249489   1.000000
   66       -4.999193   1.000000
   67       -4.922835   1.000000
   68       -4.769289   1.000000
   69       -4.756000   1.000000
   70       -4.638815   1.000000
   71       -4.608798   1.000000
   72       -4.408570   1.000000
   73       -4.298241   1.000000
   74       -4.281422   1.000000
   75       -4.173298   1.000000
   76       -4.088392   1.000000
   77       -3.769522   0.999987
   78       -3.748774   0.999975
   79       -3.435527   0.967437
   80       -3.079720   0.250937
   81       -2.907820   0.029576
   82       -2.817639   0.005789
   83       -2.658991   0.000133
   84       -2.586150   0.000016
   85       -2.525212   0.000002
   86       -2.430968   0.000000
   87       -2.291912   0.000000
   88       -2.154738   0.000000
   89       -2.062114   0.000000
   90       -2.018314   0.000000
   91       -1.824975   0.000000
   92       -1.716013   0.000000
   93       -1.470923   0.000000
   94       -1.359772   0.000000
   95       -1.227152   0.000000
   96       -1.191206   0.000000
   97       -1.027541   0.000000
   98       -0.989598   0.000000
   99       -0.957643   0.000000
  100       -0.908025   0.000000
  101       -0.746725   0.000000
  102       -0.706104   0.000000
  103       -0.612991   0.000000
  104       -0.543128   0.000000
  105       -0.425702   0.000000
  106       -0.230224   0.000000
  107       -0.134784   0.000000
  108       -0.068203   0.000000
  109        0.058541   0.000000
  110        0.227971   0.000000
  111        0.450527   0.000000
  112        0.513654   0.000000
  113        0.703654   0.000000
  114        0.752410   0.000000
  115        1.307611   0.000000
  116        1.361184   0.000000
  117        1.444279   0.000000
  118        1.997222   0.000000
  119        2.161387   0.000000
  120        2.466181   0.000000
 
  0.5000000E+00  0.1110223E-15  0.0000000E+00  0.1562500E-01
    1      -17.545971   1.000000
    2      -17.273772   1.000000
    3      -16.721112   1.000000
    4      -16.679385   1.000000
    5      -16.619521   1.000000
    6      -16.367397   1.000000
    7      -16.312579   1.000000
    8      -16.263161   1.000000
    9      -16.054330   1.000000
   10      -16.041388   1.000000
   11      -15.857625   1.000000
   12      -15.820708   1.000000
   13      -15.734497   1.000000
   14      -15.708898   1.000000
   15      -15.601250   1.000000
   16      -15.557515   1.000000
   17      -15.530573   1.000000
   18      -15.281649   1.000000
   19       -9.763010   1.000000
   20       -9.256120   1.000000
   21       -9.247530   1.000000
   22       -9.108346   1.000000
   23       -9.020155   1.000000
   24       -8.935209   1.000000
   25       -8.434958   1.000000
   26       -8.411384   1.000000
   27       -8.372864   1.000000
   28       -8.318946   1.000000
   29       -8.213993   1.000000
   30       -8.167034   1.000000
   31       -8.129638   1.000000
   32       -8.116716   1.000000
   33       -7.919734   1.000000
   34       -7.888657   1.000000
   35       -7.804827   1.000000
   36       -7.589901   1.000000
   37       -7.465217   1.000000
   38       -7.412122   1.000000
   39       -7.348286   1.000000
   40       -7.293267   1.000000
   41       -7.073269   1.000000
   42       -7.057922   1.000000
   43       -7.015158   1.000000
   44       -6.977624   1.000000
   45       -6.886308   1.000000
   46       -6.824166   1.000000
   47       -6.692463   1.000000
   48       -6.578706   1.000000
   49       -6.510291   1.000000
   50       -6.498554   1.000000
   51       -6.352158   1.000000
   52       -6.288142   1.000000
   53       -6.247279   1.000000
   54       -6.194463   1.000000
   55       -6.161237   1.000000
   56       -6.129779   1.000000
   57       -6.076130   1.000000
   58       -5.955367   1.000000
   59       -5.916122   1.000000
   60       -5.821920   1.000000
   61       -5.770152   1.000000
   62       -5.683416   1.000000
   63       -5.605235   1.000000
   64       -5.426321   1.000000
   65       -5.277491   1.000000
   66       -5.110233   1.000000
   67       -4.949372   1.000000
   68       -4.833184   1.000000
   69       -4.728522   1.000000
   70       -4.605745   1.000000
   71       -4.567986   1.000000
   72       -4.390870   1.000000
   73       -4.297553   1.000000
   74       -4.269226   1.000000
   75       -4.244432   1.000000
   76       -4.076202   1.000000
   77       -3.712238   0.999928
   78       -3.688291   0.999859
   79       -3.442523   0.970878
   80       -3.054001   0.196717
   81       -2.851935   0.011238
   82       -2.833553   0.007928
   83       -2.640906   0.000080
   84       -2.616073   0.000039
   85       -2.519786   0.000002
   86       -2.432456   0.000000
   87       -2.272643   0.000000
   88       -2.143267   0.000000
   89       -2.043139   0.000000
   90       -1.971983   0.000000
   91       -1.814250   0.000000
   92       -1.712788   0.000000
   93       -1.507708   0.000000
   94       -1.365699   0.000000
   95       -1.265056   0.000000
   96       -1.218780   0.000000
   97       -1.079125   0.000000
   98       -0.999836   0.000000
   99       -0.978993   0.000000
  100       -0.907444   0.000000
  101       -0.774008   0.000000
  102       -0.704930   0.000000
  103       -0.650589   0.000000
  104       -0.571585   0.000000
  105       -0.484654   0.000000
  106       -0.280257   0.000000
  107       -0.145630   0.000000
  108       -0.134718   0.000000
  109        0.054927   0.000000
  110        0.204340   0.000000
  111        0.462530   0.000000
  112        0.507674   0.000000
  113        0.727743   0.000000
  114        0.774412   0.000000
  115        1.332666   0.000000
  116        1.409330   0.000000
  117        1.494489   0.000000
  118        2.205245   0.000000
  119        2.247830   0.000000
  120        2.368558   0.000000
 
  0.0000000E+00  0.1250000E+00  0.0000000E+00  0.3125000E-01
    1      -17.793503   1.000000
    2      -16.758478   1.000000
    3      -16.689915   1.000000
    4      -16.582038   1.000000
    5      -16.528425   1.000000
    6      -16.416033   1.000000
    7      -16.352556   1.000000
    8      -16.318430   1.000000
    9      -16.249959   1.000000
   10      -16.027229   1.000000
   11      -16.017252   1.000000
   12      -15.930549   1.000000
   13      -15.853365   1.000000
   14      -15.720614   1.000000
   15      -15.586215   1.000000
   16      -15.523580   1.000000
   17      -15.406145   1.000000
   18      -15.282597   1.000000
   19       -9.324315   1.000000
   20       -9.137500   1.000000
   21       -9.059613   1.000000
   22       -9.004226   1.000000
   23       -8.753172   1.000000
   24       -8.648120   1.000000
   25       -8.620949   1.000000
   26       -8.517981   1.000000
   27       -8.509933   1.000000
   28       -8.457642   1.000000
   29       -8.394880   1.000000
   30       -8.208143   1.000000
   31       -8.157816   1.000000
   32       -8.096242   1.000000
   33       -8.038092   1.000000
   34       -7.901487   1.000000
   35       -7.795406   1.000000
   36       -7.734010   1.000000
   37       -7.668463   1.000000
   38       -7.587389   1.000000
   39       -7.515249   1.000000
   40       -7.387006   1.000000
   41       -7.317025   1.000000
   42       -7.213250   1.000000
   43       -7.117983   1.000000
   44       -7.000267   1.000000
   45       -6.854143   1.000000
   46       -6.790029   1.000000
   47       -6.743615   1.000000
   48       -6.706620   1.000000
   49       -6.537976   1.000000
   50       -6.471768   1.000000
   51       -6.442905   1.000000
   52       -6.387138   1.000000
   53       -6.316535   1.000000
   54       -6.279147   1.000000
   55       -6.204153   1.000000
   56       -6.100502   1.000000
   57       -5.984193   1.000000
   58       -5.964255   1.000000
   59       -5.760869   1.000000
   60       -5.533992   1.000000
   61       -5.492860   1.000000
   62       -5.368674   1.000000
   63       -5.319874   1.000000
   64       -5.197694   1.000000
   65       -5.138810   1.000000
   66       -5.015434   1.000000
   67       -4.968620   1.000000
   68       -4.873384   1.000000
   69       -4.768139   1.000000
   70       -4.642573   1.000000
   71       -4.576647   1.000000
   72       -4.460258   1.000000
   73       -4.430313   1.000000
   74       -4.319232   1.000000
   75       -4.194845   1.000000
   76       -3.995352   1.000000
   77       -3.811834   0.999997
   78       -3.613849   0.999050
   79       -3.497947   0.988866
   80       -3.281309   0.774549
   81       -3.148157   0.425588
   82       -2.857840   0.012530
   83       -2.719776   0.000648
   84       -2.600446   0.000024
   85       -2.499073   0.000001
   86       -2.441634   0.000000
   87       -2.380994   0.000000
   88       -2.225012   0.000000
   89       -2.160051   0.000000
   90       -1.985539   0.000000
   91       -1.872205   0.000000
   92       -1.729199   0.000000
   93       -1.412501   0.000000
   94       -1.361699   0.000000
   95       -1.179055   0.000000
   96       -1.089833   0.000000
   97       -0.974780   0.000000
   98       -0.852966   0.000000
   99       -0.830268   0.000000
  100       -0.669460   0.000000
  101       -0.592944   0.000000
  102       -0.558145   0.000000
  103       -0.481651   0.000000
  104       -0.254185   0.000000
  105       -0.126165   0.000000
  106       -0.109323   0.000000
  107        0.020350   0.000000
  108        0.077872   0.000000
  109        0.144354   0.000000
  110        0.192820   0.000000
  111        0.363823   0.000000
  112        0.591298   0.000000
  113        0.719788   0.000000
  114        0.806965   0.000000
  115        0.943150   0.000000
  116        1.031389   0.000000
  117        1.247831   0.000000
  118        1.699481   0.000000
  119        1.875915   0.000000
  120        2.200480   0.000000
 
  0.1250000E+00  0.1250000E+00  0.0000000E+00  0.3125000E-01
    1      -17.746456   1.000000
    2      -16.870394   1.000000
    3      -16.785353   1.000000
    4      -16.633409   1.000000
    5      -16.468744   1.000000
    6      -16.411327   1.000000
    7      -16.325720   1.000000
    8      -16.277118   1.000000
    9      -16.224038   1.000000
   10      -16.059066   1.000000
   11      -15.978447   1.000000
   12      -15.866374   1.000000
   13      -15.794075   1.000000
   14      -15.708409   1.000000
   15      -15.617837   1.000000
   16      -15.530594   1.000000
   17      -15.440011   1.000000
   18      -15.280400   1.000000
   19       -9.399098   1.000000
   20       -9.272457   1.000000
   21       -9.164236   1.000000
   22       -9.047002   1.000000
   23       -8.830969   1.000000
   24       -8.672278   1.000000
   25       -8.586687   1.000000
   26       -8.559397   1.000000
   27       -8.501972   1.000000
   28       -8.400907   1.000000
   29       -8.314892   1.000000
   30       -8.224174   1.000000
   31       -8.135912   1.000000
   32       -8.010128   1.000000
   33       -7.959720   1.000000
   34       -7.831266   1.000000
   35       -7.721183   1.000000
   36       -7.630492   1.000000
   37       -7.621017   1.000000
   38       -7.548284   1.000000
   39       -7.461543   1.000000
   40       -7.362837   1.000000
   41       -7.298798   1.000000
   42       -7.199297   1.000000
   43       -7.059000   1.000000
   44       -7.042064   1.000000
   45       -6.948293   1.000000
   46       -6.859952   1.000000
   47       -6.751697   1.000000
   48       -6.691597   1.000000
   49       -6.547755   1.000000
   50       -6.468585   1.000000
   51       -6.430365   1.000000
   52       -6.347122   1.000000
   53       -6.321744   1.000000
   54       -6.292368   1.000000
   55       -6.166646   1.000000
   56       -6.139697   1.000000
   57       -5.958444   1.000000
   58       -5.898865   1.000000
   59       -5.734329   1.000000
   60       -5.576704   1.000000
   61       -5.556766   1.000000
   62       -5.466175   1.000000
   63       -5.416721   1.000000
   64       -5.269196   1.000000
   65       -5.175786   1.000000
   66       -5.101812   1.000000
   67       -4.993544   1.000000
   68       -4.910141   1.000000
   69       -4.782538   1.000000
   70       -4.585247   1.000000
   71       -4.504046   1.000000
   72       -4.398384   1.000000
   73       -4.365332   1.000000
   74       -4.199600   1.000000
   75       -4.109888   1.000000
   76       -4.070188   1.000000
   77       -3.909158   1.000000
   78       -3.808462   0.999996
   79       -3.462699   0.979151
   80       -3.174705   0.500042
   81       -3.048663   0.186424
   82       -2.825536   0.006777
   83       -2.718947   0.000635
   84       -2.575294   0.000011
   85       -2.489803   0.000001
   86       -2.461243   0.000000
   87       -2.392770   0.000000
   88       -2.186692   0.000000
   89       -2.132974   0.000000
   90       -2.007036   0.000000
   91       -1.855467   0.000000
   92       -1.708171   0.000000
   93       -1.404429   0.000000
   94       -1.360927   0.000000
   95       -1.187068   0.000000
   96       -1.109110   0.000000
   97       -0.980924   0.000000
   98       -0.878425   0.000000
   99       -0.855740   0.000000
  100       -0.769675   0.000000
  101       -0.725318   0.000000
  102       -0.630259   0.000000
  103       -0.544076   0.000000
  104       -0.355665   0.000000
  105       -0.222090   0.000000
  106       -0.141863   0.000000
  107       -0.021138   0.000000
  108        0.020094   0.000000
  109        0.150998   0.000000
  110        0.228358   0.000000
  111        0.367210   0.000000
  112        0.508762   0.000000
  113        0.698654   0.000000
  114        0.799048   0.000000
  115        1.088707   0.000000
  116        1.186758   0.000000
  117        1.302499   0.000000
  118        1.780585   0.000000
  119        1.952848   0.000000
  120        2.269516   0.000000
 
  0.2500000E+00  0.1250000E+00  0.0000000E+00  0.3125000E-01
    1      -17.657803   1.000000
    2      -17.056215   1.000000
    3      -16.873526   1.000000
    4      -16.626003   1.000000
    5      -16.473754   1.000000
    6      -16.385272   1.000000
    7      -16.312631   1.000000
    8      -16.241272   1.000000
    9      -16.174317   1.000000
   10      -16.058657   1.000000
   11      -15.939817   1.000000
   12      -15.829006   1.000000
   13      -15.719180   1.000000
   14      -15.674855   1.000000
   15      -15.658678   1.000000
   16      -15.549162   1.000000
   17      -15.479726   1.000000
   18      -15.279975   1.000000
   19       -9.589205   1.000000
   20       -9.393066   1.000000
   21       -9.247142   1.000000
   22       -9.071981   1.000000
   23       -8.883263   1.000000
   24       -8.727273   1.000000
   25       -8.518452   1.000000
   26       -8.475320   1.000000
   27       -8.410323   1.000000
   28       -8.348042   1.000000
   29       -8.276996   1.000000
   30       -8.208347   1.000000
   31       -8.131505   1.000000
   32       -8.075375   1.000000
   33       -7.954853   1.000000
   34       -7.872949   1.000000
   35       -7.759913   1.000000
   36       -7.576774   1.000000
   37       -7.484429   1.000000
   38       -7.423867   1.000000
   39       -7.375598   1.000000
   40       -7.356114   1.000000
   41       -7.191582   1.000000
   42       -7.137863   1.000000
   43       -7.075857   1.000000
   44       -6.968443   1.000000
   45       -6.922801   1.000000
   46       -6.847858   1.000000
   47       -6.738122   1.000000