       N       E                     dE             d eps       ncg     rms          rms(c)
DAV:   1     0.112409052353E+04    0.11241E+04   -0.35869E+04  8160   0.577E+02
DAV:   2    -0.269296954470E+01   -0.11268E+04   -0.10845E+04 11160   0.173E+02
DAV:   3    -0.199945715216E+03   -0.19725E+03   -0.18947E+03 10960   0.820E+01
DAV:   4    -0.209018483348E+03   -0.90728E+01   -0.87662E+01 12000   0.258E+01
DAV:   5    -0.209354014848E+03   -0.33553E+00   -0.33463E+00 11320   0.373E+00    0.277E+01
DAV:   6    -0.240937483688E+03   -0.31583E+02   -0.11706E+02 12600   0.599E+01    0.606E+01
DAV:   7    -0.196270290996E+03    0.44667E+02   -0.17749E+02 13280   0.150E+02    0.199E+01
DAV:   8    -0.189531360567E+03    0.67389E+01   -0.18813E+01 12160   0.128E+01    0.126E+01
DAV:   9    -0.188082811592E+03    0.14485E+01   -0.31507E+00 12640   0.622E+00    0.892E+00
DAV:  10    -0.186929153013E+03    0.11537E+01   -0.16058E+00 13440   0.743E+00    0.205E+00
DAV:  11    -0.187076032372E+03   -0.14688E+00   -0.65655E-01 13280   0.395E+00    0.460E+00
DAV:  12    -0.186924158322E+03    0.15187E+00   -0.64449E-01 12920   0.439E+00    0.282E+00
DAV:  13    -0.186854809813E+03    0.69349E-01   -0.18090E-01 13080   0.226E+00    0.145E+00
DAV:  14    -0.186842976581E+03    0.11833E-01   -0.89696E-02 12880   0.168E+00    0.134E+00
DAV:  15    -0.186829667808E+03    0.13309E-01   -0.34981E-02 13160   0.891E-01    0.477E-01
DAV:  16    -0.186827451476E+03    0.22163E-02   -0.74071E-03 12240   0.282E-01    0.278E-01
DAV:  17    -0.186826128346E+03    0.13231E-02   -0.48003E-03 12760   0.290E-01    0.208E-01
DAV:  18    -0.186825630186E+03    0.49816E-03   -0.17030E-03 12760   0.200E-01    0.709E-02
DAV:  19    -0.186826278699E+03   -0.64851E-03   -0.89353E-04 10560   0.984E-02    0.763E-02
DAV:  20    -0.186826745295E+03   -0.46660E-03   -0.28206E-04  7640   0.460E-02    0.682E-02
DAV:  21    -0.186827808344E+03   -0.10630E-02   -0.27411E-04  7520   0.541E-02    0.195E-02
DAV:  22    -0.186828910457E+03   -0.11021E-02   -0.11105E-04  8080   0.243E-02    0.203E-02
DAV:  23    -0.186829370861E+03   -0.46040E-03   -0.30844E-05  6280   0.172E-02    0.107E-02
DAV:  24    -0.186830012946E+03   -0.64208E-03   -0.38619E-05  7160   0.158E-02    0.651E-03
DAV:  25    -0.186830363641E+03   -0.35069E-03   -0.90947E-06  6360   0.101E-02    0.287E-03
DAV:  26    -0.186830607796E+03   -0.24416E-03   -0.75073E-06  6800   0.627E-03    0.183E-03
DAV:  27    -0.186830676942E+03   -0.69146E-04   -0.24755E-06  7640   0.414E-03
   1 F= -.18683068E+03 E0= -.18665776E+03  d E =-.186831E+03
       N       E                     dE             d eps       ncg     rms          rms(c)
DAV:   1    -0.187522415894E+03   -0.69181E+00   -0.27747E+02  8160   0.354E+01    0.466E+00
DAV:   2    -0.189507598972E+03   -0.19852E+01   -0.20316E+01 12240   0.155E+01    0.938E+00
DAV:   3    -0.189349604128E+03    0.15799E+00   -0.40736E+00 12560   0.122E+01    0.651E+00
DAV:   4    -0.188772702626E+03    0.57690E+00   -0.67240E-01 12800   0.449E+00    0.171E+00
DAV:   5    -0.188730602048E+03    0.42101E-01   -0.28296E-01 10480   0.158E+00    0.175E+00
DAV:   6    -0.188779320833E+03   -0.48719E-01   -0.33351E-01 13280   0.300E+00    0.318E+00
DAV:   7    -0.188712171245E+03    0.67150E-01   -0.19536E-01 12800   0.254E+00    0.137E+00
DAV:   8    -0.188688913794E+03    0.23257E-01   -0.43467E-02 11480   0.915E-01    0.460E-01
DAV:   9    -0.188689929129E+03   -0.10153E-02   -0.12171E-02 12520   0.567E-01    0.558E-01
DAV:  10    -0.188687833935E+03    0.20952E-02   -0.62082E-03 13120   0.405E-01    0.177E-01
DAV:  11    -0.188687350218E+03    0.48372E-03   -0.15722E-03 11560   0.123E-01    0.795E-02
DAV:  12    -0.188687435033E+03   -0.84814E-04   -0.52982E-04 10080   0.630E-02
   2 F= -.18868744E+03 E0= -.18854508E+03  d E =-.185676E+01
       N       E                     dE             d eps       ncg     rms          rms(c)
DAV:   1    -0.190627798789E+03   -0.19404E+01   -0.31772E+01  9160   0.143E+01    0.444E+00
DAV:   2    -0.190546535269E+03    0.81264E-01   -0.27599E+00 11640   0.910E+00    0.714E+00
DAV:   3    -0.190123532494E+03    0.42300E+00   -0.15130E+00 12440   0.840E+00    0.432E+00
DAV:   4    -0.189895686454E+03    0.22785E+00   -0.72128E-01 12680   0.437E+00    0.242E+00
DAV:   5    -0.189812312939E+03    0.83374E-01   -0.29913E-01 11880   0.203E+00    0.109E+00
DAV:   6    -0.189800289124E+03    0.12024E-01   -0.62042E-02 11920   0.133E+00    0.918E-01
DAV:   7    -0.189793995198E+03    0.62939E-02   -0.17649E-02 11640   0.732E-01    0.246E-01
DAV:   8    -0.189793667235E+03    0.32796E-03   -0.22350E-03 11560   0.160E-01    0.132E-01
DAV:   9    -0.189794180908E+03   -0.51367E-03   -0.11163E-03 10720   0.126E-01    0.169E-01
DAV:  10    -0.189794000717E+03    0.18019E-03   -0.10889E-03 10720   0.183E-01    0.157E-01
DAV:  11    -0.189793821169E+03    0.17955E-03   -0.42566E-04  8880   0.127E-01    0.331E-02
DAV:  12    -0.189793824585E+03   -0.34164E-05   -0.44066E-05  6000   0.290E-02
   3 F= -.18979382E+03 E0= -.18967216E+03  d E =-.110639E+01
       N       E                     dE             d eps       ncg     rms          rms(c)
DAV:   1    -0.191407859648E+03   -0.16140E+01   -0.83542E+01  8160   0.207E+01    0.459E+00
DAV:   2    -0.191159241903E+03    0.24862E+00   -0.53749E+00 12880   0.677E+00    0.378E+00
DAV:   3    -0.191375263371E+03   -0.21602E+00   -0.14883E+00 12240   0.849E+00    0.670E+00
DAV:   4    -0.190984643968E+03    0.39062E+00   -0.13505E+00 12240   0.812E+00    0.295E+00
DAV:   5    -0.190858671446E+03    0.12597E+00   -0.32007E-01 12200   0.255E+00    0.121E+00
DAV:   6    -0.190859985700E+03   -0.13143E-02   -0.12947E-01 12160   0.214E+00    0.169E+00
DAV:   7    -0.190838543287E+03    0.21442E-01   -0.67545E-02 11720   0.162E+00    0.543E-01
DAV:   8    -0.190834709696E+03    0.38336E-02   -0.79109E-03 11600   0.461E-01    0.268E-01
DAV:   9    -0.190834668933E+03    0.40763E-04   -0.27991E-03 12760   0.330E-01    0.244E-01
DAV:  10    -0.190834463702E+03    0.20523E-03   -0.19720E-03 11080   0.219E-01    0.608E-02
DAV:  11    -0.190834461822E+03    0.18795E-05   -0.20543E-04  7160   0.579E-02
   4 F= -.19083446E+03 E0= -.19072661E+03  d E =-.104064E+01
       N       E                     dE             d eps       ncg     rms          rms(c)
DAV:   1    -0.192264684668E+03   -0.14302E+01   -0.19444E+02  8160   0.309E+01    0.584E+00
DAV:   2    -0.191972822361E+03    0.29186E+00   -0.10052E+01  9960   0.767E+00    0.325E+00
DAV:   3    -0.191847963703E+03    0.12486E+00   -0.15539E+00 10880   0.498E+00    0.361E+00
DAV:   4    -0.191864025013E+03   -0.16061E-01   -0.96238E-01 12160   0.704E+00    0.499E+00
DAV:   5    -0.191612555321E+03    0.25147E+00   -0.73274E-01 12320   0.571E+00    0.183E+00
DAV:   6    -0.191610986897E+03    0.15684E-02   -0.23240E-01 12240   0.296E+00    0.193E+00
DAV:   7    -0.191575507985E+03    0.35479E-01   -0.93997E-02 12280   0.204E+00    0.570E-01
DAV:   8    -0.191571706816E+03    0.38012E-02   -0.17169E-02 11560   0.706E-01    0.473E-01
DAV:   9    -0.191570227241E+03    0.14796E-02   -0.68620E-03 11920   0.503E-01    0.240E-01
DAV:  10    -0.191570066405E+03    0.16084E-03   -0.24617E-03 11600   0.227E-01    0.888E-02
DAV:  11    -0.191570019966E+03    0.46439E-04   -0.40984E-04  9680   0.832E-02
   5 F= -.19157002E+03 E0= -.19146203E+03  d E =-.735558E+00
       N       E                     dE             d eps       ncg     rms          rms(c)
DAV:   1    -0.191645409912E+03   -0.75344E-01   -0.54923E+00  8160   0.500E+00    0.769E-01
DAV:   2    -0.191722874995E+03   -0.77465E-01   -0.36108E-01 12480   0.328E+00    0.261E+00
DAV:   3    -0.191656508171E+03    0.66367E-01   -0.14299E-01 12480   0.253E+00    0.532E-01
DAV:   4    -0.191661200246E+03   -0.46921E-02   -0.29892E-02 10680   0.111E+00    0.910E-01
DAV:   5    -0.191652188627E+03    0.90116E-02   -0.16069E-02 10840   0.862E-01    0.229E-01
DAV:   6    -0.191651766593E+03    0.42203E-03   -0.45750E-03 11320   0.250E-01    0.126E-01
DAV:   7    -0.191651554583E+03    0.21201E-03   -0.13577E-03 10960   0.172E-01    0.131E-01
DAV:   8    -0.191651452202E+03    0.10238E-03   -0.60677E-04  8600   0.145E-01    0.712E-02
DAV:   9    -0.191651418263E+03    0.33940E-04   -0.11797E-04  6000   0.606E-02
   6 F= -.19165142E+03 E0= -.19154196E+03  d E =-.813983E-01
       N       E                     dE             d eps       ncg     rms          rms(c)
DAV:   1    -0.191728926130E+03   -0.77474E-01   -0.65126E+00  8160   0.538E+00    0.641E-01
DAV:   2    -0.191785060624E+03   -0.56134E-01   -0.24340E-01 13160   0.232E+00    0.226E+00
DAV:   3    -0.191737143641E+03    0.47917E-01   -0.11534E-01 12480   0.221E+00    0.533E-01
DAV:   4    -0.191738710681E+03   -0.15670E-02   -0.19265E-02 10480   0.868E-01    0.654E-01
DAV:   5    -0.191733897888E+03    0.48128E-02   -0.85852E-03 11080   0.668E-01    0.173E-01
DAV:   6    -0.191733677141E+03    0.22075E-03   -0.23743E-03 10560   0.190E-01    0.110E-01
DAV:   7    -0.191733564457E+03    0.11268E-03   -0.11682E-03 10960   0.158E-01    0.128E-01
DAV:   8    -0.191733472450E+03    0.92007E-04   -0.66321E-04  8480   0.150E-01
   7 F= -.19173347E+03 E0= -.19162349E+03  d E =-.820542E-01
       N       E                     dE             d eps       ncg     rms          rms(c)
DAV:   1    -0.191813405725E+03   -0.79841E-01   -0.69361E+00  8160   0.562E+00    0.768E-01
DAV:   2    -0.191906069551E+03   -0.92664E-01   -0.36698E-01 12160   0.331E+00    0.306E+00
DAV:   3    -0.191822501043E+03    0.83569E-01   -0.18408E-01 12440   0.276E+00    0.508E-01
DAV:   4    -0.191825003777E+03   -0.25027E-02   -0.22198E-02 10240   0.100E+00    0.730E-01
DAV:   5    -0.191818825904E+03    0.61779E-02   -0.11785E-02 11360   0.797E-01    0.230E-01
DAV:   6    -0.191818933485E+03   -0.10758E-03   -0.52160E-03 11400   0.344E-01    0.300E-01
DAV:   7    -0.191819087426E+03   -0.15394E-03   -0.59620E-03 11400   0.451E-01    0.346E-01
DAV:   8    -0.191817924158E+03    0.11633E-02   -0.22156E-03 10200   0.259E-01    0.300E-02
DAV:   9    -0.191817950231E+03   -0.26073E-04   -0.11782E-04  6280   0.338E-02
   8 F= -.19181795E+03 E0= -.19170894E+03  d E =-.844778E-01
       N       E                     dE             d eps       ncg     rms          rms(c)
DAV:   1    -0.191921556528E+03   -0.10363E+00   -0.26197E+01  8160   0.109E+01    0.130E+00
DAV:   2    -0.192151986405E+03   -0.23043E+00   -0.11070E+00 11200   0.511E+00    0.466E+00
DAV:   3    -0.191966861392E+03    0.18513E+00   -0.47537E-01 12360   0.446E+00    0.883E-01
DAV:   4    -0.191957843976E+03    0.90174E-02   -0.33143E-02 12240   0.944E-01    0.617E-01
DAV:   5    -0.191956930262E+03    0.91371E-03   -0.22437E-02 11480   0.114E+00    0.699E-01
DAV:   6    -0.191954238658E+03    0.26916E-02   -0.21602E-02 12600   0.942E-01    0.544E-01
DAV:   7    -0.191955108579E+03   -0.86992E-03   -0.18606E-02 11800   0.817E-01    0.664E-01
DAV:   8    -0.191950899358E+03    0.42092E-02   -0.76532E-03 11840   0.524E-01    0.591E-02
DAV:   9    -0.191950929538E+03   -0.30179E-04   -0.48600E-04 10160   0.678E-02
   9 F= -.19195093E+03 E0= -.19184715E+03  d E =-.132979E+00
       N       E                     dE             d eps       ncg     rms          rms(c)
DAV:   1    -0.191964337080E+03   -0.13438E-01   -0.53844E-01  8160   0.167E+00    0.330E-01
DAV:   2    -0.191964056369E+03    0.28071E-03   -0.27317E-02 10520   0.654E-01    0.400E-01
DAV:   3    -0.191963754739E+03    0.30163E-03   -0.93390E-03 11520   0.711E-01    0.384E-01
DAV:   4    -0.191962375160E+03    0.13796E-02   -0.55108E-03 11560   0.480E-01    0.283E-01
DAV:   5    -0.191962364773E+03    0.10386E-04   -0.38359E-03 11360   0.433E-01    0.294E-01
DAV:   6    -0.191961413342E+03    0.95143E-03   -0.19741E-03 11160   0.295E-01    0.745E-02
DAV:   7    -0.191961517902E+03   -0.10456E-03   -0.62107E-04  8720   0.147E-01    0.131E-01
DAV:   8    -0.191961363420E+03    0.15448E-03   -0.28565E-04  7400   0.106E-01    0.189E-02
DAV:   9    -0.191961368008E+03   -0.45876E-05   -0.23004E-05  6600   0.198E-02
  10 F= -.19196137E+03 E0= -.19185766E+03  d E =-.104385E-01
       N       E                     dE             d eps       ncg     rms          rms(c)
DAV:   1    -0.191990061436E+03   -0.28698E-01   -0.18441E+00  8160   0.287E+00    0.323E-01
DAV:   2    -0.191998830962E+03   -0.87695E-02   -0.65229E-02 10680   0.997E-01    0.766E-01
DAV:   3    -0.191994001018E+03    0.48299E-02   -0.17432E-02 12600   0.918E-01    0.344E-01
DAV:   4    -0.191992989435E+03    0.10116E-02   -0.30611E-03 11400   0.322E-01    0.169E-01
DAV:   5    -0.191992916243E+03    0.73193E-04   -0.17222E-03 11400   0.307E-01    0.180E-01
DAV:   6    -0.191992694836E+03    0.22141E-03   -0.11633E-03 10720   0.233E-01    0.114E-01
DAV:   7    -0.191992862549E+03   -0.16771E-03   -0.11589E-03 10000   0.207E-01    0.193E-01
DAV:   8    -0.191992526261E+03    0.33629E-03   -0.59148E-04  8400   0.150E-01    0.191E-02
DAV:   9    -0.191992540531E+03   -0.14270E-04   -0.37247E-05  5840   0.222E-02
  11 F= -.19199254E+03 E0= -.19189095E+03  d E =-.311725E-01
       N       E                     dE             d eps       ncg     rms          rms(c)
DAV:   1    -0.192013018746E+03   -0.20492E-01   -0.78183E-01  8160   0.190E+00    0.230E-01
DAV:   2    -0.192015486406E+03   -0.24677E-02   -0.27411E-02 11600   0.573E-01    0.401E-01
DAV:   3    -0.192014679844E+03    0.80656E-03   -0.65335E-03 12680   0.559E-01    0.289E-01
DAV:   4    -0.192013819707E+03    0.86014E-03   -0.18258E-03 11200   0.262E-01    0.105E-01
DAV:   5    -0.192014034424E+03   -0.21472E-03   -0.12040E-03 10440   0.216E-01    0.211E-01
DAV:   6    -0.192013735014E+03    0.29941E-03   -0.12009E-03  9240   0.210E-01    0.947E-02
DAV:   7    -0.192013705616E+03    0.29398E-04   -0.32001E-04  8600   0.126E-01
  12 F= -.19201371E+03 E0= -.19191368E+03  d E =-.211651E-01
       N       E                     dE             d eps       ncg     rms          rms(c)
DAV:   1    -0.192023767784E+03   -0.10033E-01   -0.17955E-01  8160   0.916E-01    0.105E-01
DAV:   2    -0.192024130122E+03   -0.36234E-03   -0.55486E-03 11960   0.210E-01    0.117E-01
DAV:   3    -0.192024292410E+03   -0.16229E-03   -0.11663E-03 11120   0.243E-01    0.182E-01
DAV:   4    -0.192023977228E+03    0.31518E-03   -0.56539E-04  8640   0.166E-01    0.525E-02
DAV:   5    -0.192024011427E+03   -0.34199E-04   -0.21075E-04  6920   0.940E-02
  13 F= -.19202401E+03 E0= -.19192472E+03  d E =-.103058E-01
       N       E                     dE             d eps       ncg     rms          rms(c)
DAV:   1    -0.192013913406E+03    0.10064E-01   -0.29254E-01  8160   0.120E+00    0.200E-01
DAV:   2    -0.192017055332E+03   -0.31419E-02   -0.15532E-02 12680   0.597E-01    0.643E-01
DAV:   3    -0.192013841986E+03    0.32133E-02   -0.93111E-03 11040   0.585E-01    0.199E-01
DAV:   4    -0.192013495964E+03    0.34602E-03   -0.13357E-03  9680   0.171E-01    0.914E-02
DAV:   5    -0.192013562349E+03   -0.66385E-04   -0.83763E-04 10080   0.181E-01
  14 F= -.19201356E+03 E0= -.19191282E+03  d E =0.104491E-01
       N       E                     dE             d eps       ncg     rms          rms(c)
DAV:   1    -0.192060623195E+03   -0.47127E-01   -0.35112E+00  8160   0.409E+00    0.530E-01
DAV:   2    -0.192070432007E+03   -0.98088E-02   -0.11591E-01 11880   0.123E+00    0.976E-01
DAV:   3    -0.192066065197E+03    0.43668E-02   -0.37066E-02 11520   0.126E+00    0.682E-01
DAV:   4    -0.192063086892E+03    0.29783E-02   -0.14855E-02 12240   0.740E-01    0.503E-01
DAV:   5    -0.192061889420E+03    0.11975E-02   -0.10016E-02 10040   0.662E-01    0.424E-01
DAV:   6    -0.192060420182E+03    0.14692E-02   -0.52728E-03 11400   0.439E-01    0.186E-01
DAV:   7    -0.192060443108E+03   -0.22926E-04   -0.20313E-03 10280   0.348E-01    0.182E-01
DAV:   8    -0.192059988581E+03    0.45453E-03   -0.59273E-04  9840   0.195E-01    0.297E-02
DAV:   9    -0.192059978074E+03    0.10506E-04   -0.66909E-05  6240   0.327E-02
  15 F= -.19205998E+03 E0= -.19196330E+03  d E =-.464157E-01
       N       E                     dE             d eps       ncg     rms          rms(c)
DAV:   1    -0.192075519012E+03   -0.15530E-01   -0.36738E-01  8160   0.131E+00    0.146E-01
DAV:   2    -0.192076164617E+03   -0.64560E-03   -0.11104E-02 11400   0.284E-01    0.141E-01
DAV:   3    -0.192076769728E+03   -0.60511E-03   -0.26748E-03 11480   0.321E-01    0.311E-01
DAV:   4    -0.192075924812E+03    0.84492E-03   -0.17292E-03  9760   0.256E-01    0.706E-02
DAV:   5    -0.192075930508E+03   -0.56964E-05   -0.28394E-04  7560   0.949E-02
  16 F= -.19207593E+03 E0= -.19198067E+03  d E =-.159524E-01
       N       E                     dE             d eps       ncg     rms          rms(c)
DAV:   1    -0.191990963749E+03    0.84961E-01   -0.99198E+00  8160   0.680E+00    0.760E-01
DAV:   2    -0.192010289456E+03   -0.19326E-01   -0.29973E-01 12240   0.161E+00    0.886E-01
DAV:   3    -0.192020920870E+03   -0.10631E-01   -0.75449E-02 12320   0.171E+00    0.153E+00
DAV:   4    -0.192004176926E+03    0.16744E-01   -0.48911E-02 12120   0.132E+00    0.601E-01
DAV:   5    -0.192001636727E+03    0.25402E-02   -0.13801E-02 10360   0.868E-01    0.421E-01
DAV:   6    -0.192000202614E+03    0.14341E-02   -0.67977E-03 13400   0.547E-01    0.207E-01
DAV:   7    -0.191999348646E+03    0.85397E-03   -0.18185E-03 10800   0.194E-01    0.487E-02
DAV:   8    -0.191999356133E+03   -0.74873E-05   -0.24946E-04  8640   0.779E-02
  17 F= -.19199936E+03 E0= -.19189824E+03  d E =0.765744E-01
       N       E                     dE             d eps       ncg     rms          rms(c)
DAV:   1    -0.191986650486E+03    0.12698E-01   -0.69964E-01  8160   0.181E+00    0.203E-01
DAV:   2    -0.191987398486E+03   -0.74800E-03   -0.16632E-02 12200   0.349E-01    0.169E-01
DAV:   3    -0.191988284167E+03   -0.88568E-03   -0.38698E-03 12520   0.409E-01    0.379E-01
DAV:   4    -0.191987175771E+03    0.11084E-02   -0.30845E-03 10360   0.356E-01    0.158E-01
DAV:   5    -0.191987180680E+03   -0.49089E-05   -0.12557E-03  9680   0.229E-01    0.171E-01
DAV:   6    -0.191986987446E+03    0.19323E-03   -0.86645E-04  8680   0.197E-01    0.946E-02
DAV:   7    -0.191987000864E+03   -0.13418E-04   -0.43309E-04  8920   0.143E-01
  18 F= -.19198700E+03 E0= -.19188454E+03  d E =0.123553E-01
       N       E                     dE             d eps       ncg     rms          rms(c)
DAV:   1    -0.191992382654E+03   -0.53952E-02   -0.81528E-01  8160   0.188E+00    0.216E-01
DAV:   2    -0.191995970082E+03   -0.35874E-02   -0.34046E-02 10720   0.644E-01    0.402E-01
DAV:   3    -0.191995094282E+03    0.87580E-03   -0.75772E-03 12400   0.601E-01    0.315E-01
DAV:   4    -0.191994262401E+03    0.83188E-03   -0.20960E-03  9840   0.284E-01    0.134E-01
DAV:   5    -0.191994309816E+03   -0.47415E-04   -0.12140E-03  9600   0.229E-01    0.178E-01
DAV:   6    -0.191994154425E+03    0.15539E-03   -0.95005E-04  8400   0.182E-01    0.120E-01
DAV:   7    -0.191994124231E+03    0.30194E-04   -0.57832E-04  8400   0.163E-01
  19 F= -.19199412E+03 E0= -.19189116E+03  d E =-.712337E-02
       N       E                     dE             d eps       ncg     rms          rms(c)
DAV:   1    -0.192010789628E+03   -0.16635E-01   -0.10044E+00  8160   0.218E+00    0.279E-01
DAV:   2    -0.192012195171E+03   -0.14055E-02   -0.29443E-02 13200   0.592E-01    0.348E-01
DAV:   3    -0.192012272787E+03   -0.77616E-04   -0.72822E-03 12000   0.602E-01    0.379E-01
DAV:   4    -0.192011195220E+03    0.10776E-02   -0.42577E-03 10920   0.425E-01    0.256E-01
DAV:   5    -0.192010923921E+03    0.27130E-03   -0.26663E-03 10680   0.362E-01    0.217E-01
DAV:   6    -0.192010756293E+03    0.16763E-03   -0.18633E-03  9640   0.256E-01    0.189E-01
DAV:   7    -0.192010513771E+03    0.24252E-03   -0.98796E-04  8400   0.214E-01    0.895E-02
DAV:   8    -0.192010419786E+03    0.93985E-04   -0.16382E-04  6320   0.827E-02
  20 F= -.19201042E+03 E0= -.19190896E+03  d E =-.162956E-01
       N       E                     dE             d eps       ncg     rms          rms(c)
DAV:   1    -0.192032478749E+03   -0.21965E-01   -0.12323E+00  8160   0.239E+00    0.283E-01
DAV:   2    -0.192035118464E+03   -0.26397E-02   -0.39699E-02 12120   0.606E-01    0.362E-01
DAV:   3    -0.192035716151E+03   -0.59769E-03   -0.89140E-03 12520   0.655E-01    0.454E-01
DAV:   4    -0.192033710937E+03    0.20052E-02   -0.38506E-03 11360   0.404E-01    0.156E-01
DAV:   5    -0.192034114348E+03   -0.40341E-03   -0.22824E-03 10000   0.299E-01    0.289E-01
DAV:   6    -0.192033507354E+03    0.60699E-03   -0.19330E-03  9920   0.261E-01    0.986E-02
DAV:   7    -0.192033494230E+03    0.13125E-04   -0.45321E-04  8640   0.158E-01
  21 F= -.19203349E+03 E0= -.19193373E+03  d E =-.230744E-01
       N       E                     dE             d eps       ncg     rms          rms(c)
DAV:   1    -0.192028478618E+03    0.50287E-02   -0.52820E-02  8160   0.500E-01    0.501E-02
DAV:   2    -0.192028576407E+03   -0.97790E-04   -0.14507E-03 11480   0.104E-01    0.630E-02
DAV:   3    -0.192028608754E+03   -0.32346E-04   -0.31635E-04  8240   0.114E-01
  22 F= -.19202861E+03 E0= -.19192828E+03  d E =0.488548E-02
       N       E                     dE             d eps       ncg     rms          rms(c)
DAV:   1    -0.192043010067E+03   -0.14434E-01   -0.54989E-01  8160   0.161E+00    0.206E-01
DAV:   2    -0.192045374406E+03   -0.23643E-02   -0.20018E-02 12080   0.563E-01    0.435E-01
DAV:   3    -0.192044019702E+03    0.13547E-02   -0.64116E-03 12360   0.555E-01    0.261E-01
DAV:   4    -0.192044089331E+03   -0.69629E-04   -0.29906E-03 10120   0.342E-01    0.282E-01
DAV:   5    -0.192043324873E+03    0.76446E-03   -0.15683E-03  9520   0.282E-01    0.889E-02
DAV:   6    -0.192043454273E+03   -0.12940E-03   -0.66856E-04  9080   0.172E-01    0.145E-01
DAV:   7    -0.192043253493E+03    0.20078E-03   -0.43558E-04  8360   0.146E-01    0.352E-02
DAV:   8    -0.192043237329E+03    0.16164E-04   -0.56045E-05  5680   0.414E-02
  23 F= -.19204324E+03 E0= -.19194401E+03  d E =-.146286E-01
       N       E                     dE             d eps       ncg     rms          rms(c)
DAV:   1    -0.192035078279E+03    0.81752E-02   -0.25785E-01  8160   0.111E+00    0.178E-01
DAV:   2    -0.192037178769E+03   -0.21005E-02   -0.12360E-02 11920   0.525E-01    0.491E-01
DAV:   3    -0.192035255922E+03    0.19228E-02   -0.61615E-03 11400   0.509E-01    0.205E-01
DAV:   4    -0.192035329009E+03   -0.73088E-04   -0.19849E-03  9760   0.285E-01    0.215E-01
DAV:   5    -0.192034838565E+03    0.49044E-03   -0.10207E-03  9520   0.244E-01    0.723E-02
DAV:   6    -0.192034889718E+03   -0.51153E-04   -0.39340E-04  8680   0.130E-01
  24 F= -.19203489E+03 E0= -.19193453E+03  d E =0.834761E-02
       N       E                     dE             d eps       ncg     rms          rms(c)
DAV:   1    -0.192062673613E+03   -0.27835E-01   -0.15987E+00  8160   0.272E+00    0.306E-01
DAV:   2    -0.192065092877E+03   -0.24193E-02   -0.43167E-02 12080   0.587E-01    0.342E-01
DAV:   3    -0.192067136371E+03   -0.20435E-02   -0.11959E-02 11480   0.687E-01    0.609E-01
DAV:   4    -0.192063938171E+03    0.31982E-02   -0.69097E-03 11120   0.507E-01    0.185E-01
DAV:   5    -0.192064036172E+03   -0.98001E-04   -0.20846E-03  9920   0.310E-01    0.237E-01
DAV:   6    -0.192063640923E+03    0.39525E-03   -0.17466E-03  9800   0.277E-01    0.120E-01
DAV:   7    -0.192063572852E+03    0.68072E-04   -0.56314E-04  8520   0.176E-01
  25 F= -.19206357E+03 E0= -.19196589E+03  d E =-.286831E-01
       N       E                     dE             d eps       ncg     rms          rms(c)
DAV:   1    -0.192035819353E+03    0.27822E-01   -0.14020E+00  8160   0.255E+00    0.274E-01
DAV:   2    -0.192038146323E+03   -0.23270E-02   -0.36169E-02 12320   0.565E-01    0.350E-01
DAV:   3    -0.192039072308E+03   -0.92598E-03   -0.94339E-03 11800   0.621E-01    0.483E-01
DAV:   4    -0.192037145195E+03    0.19271E-02   -0.47254E-03 11080   0.420E-01    0.213E-01
DAV:   5    -0.192037139431E+03    0.57639E-05   -0.22861E-03  9600   0.311E-01    0.228E-01
DAV:   6    -0.192036762720E+03    0.37671E-03   -0.13161E-03 10560   0.219E-01    0.879E-02
DAV:   7    -0.192036703819E+03    0.58901E-04   -0.38882E-04  8720   0.131E-01
  26 F= -.19203670E+03 E0= -.19193688E+03  d E =0.268690E-01
       N       E                     dE             d eps       ncg     rms          rms(c)
DAV:   1    -0.192029633782E+03    0.71289E-02   -0.38827E-01  8160   0.139E+00    0.252E-01
DAV:   2    -0.192030429479E+03   -0.79570E-03   -0.19279E-02 10520   0.618E-01    0.357E-01
DAV:   3    -0.192029501743E+03    0.92774E-03   -0.55432E-03 11880   0.584E-01    0.254E-01
DAV:   4    -0.192028987344E+03    0.51440E-03   -0.26242E-03 10920   0.363E-01    0.213E-01
DAV:   5    -0.192029076774E+03   -0.89430E-04   -0.24427E-03 10080   0.316E-01    0.248E-01
DAV:   6    -0.192028570806E+03    0.50597E-03   -0.15468E-03  9640   0.235E-01    0.114E-01
DAV:   7    -0.192028542631E+03    0.28174E-04   -0.57825E-04  8040   0.154E-01
  27 F= -.19202854E+03 E0= -.19192781E+03  d E =0.816119E-02
       N       E                     dE             d eps       ncg     rms          rms(c)
DAV:   1    -0.192060978483E+03   -0.32408E-01   -0.21962E+00  8160   0.323E+00    0.399E-01
DAV:   2    -0.192064268812E+03   -0.32903E-02   -0.65731E-02 12880   0.840E-01    0.477E-01
DAV:   3    -0.192065396063E+03   -0.11273E-02   -0.16451E-02 11240   0.873E-01    0.617E-01
DAV:   4    -0.192063088099E+03    0.23080E-02   -0.11774E-02 11080   0.668E-01    0.441E-01
DAV:   5    -0.192061698563E+03    0.13895E-02   -0.58362E-03 10720   0.532E-01    0.246E-01
DAV:   6    -0.192061334060E+03    0.36450E-03   -0.26237E-03 10960   0.297E-01    0.176E-01
DAV:   7    -0.192061239636E+03    0.94423E-04   -0.14409E-03 10680   0.279E-01    0.160E-01
DAV:   8    -0.192060946025E+03    0.29361E-03   -0.44565E-04  8600   0.153E-01    0.250E-02
DAV:   9    -0.192060943986E+03    0.20388E-05   -0.49682E-05  6400   0.261E-02
  28 F= -.19206094E+03 E0= -.19196285E+03  d E =-.324014E-01
       N       E                     dE             d eps       ncg     rms          rms(c)
DAV:   1    -0.192082408941E+03   -0.21463E-01   -0.80450E-01  8160   0.195E+00    0.232E-01
DAV:   2    -0.192083496506E+03   -0.10876E-02   -0.22785E-02 11880   0.439E-01    0.260E-01
DAV:   3    -0.192084600999E+03   -0.11045E-02   -0.69405E-03 12400   0.516E-01    0.458E-01
DAV:   4    -0.192082838588E+03    0.17624E-02   -0.42098E-03 10640   0.390E-01    0.139E-01
DAV:   5    -0.192082776094E+03    0.62494E-04   -0.10853E-03  9720   0.232E-01    0.131E-01
DAV:   6    -0.192082656899E+03    0.11919E-03   -0.66903E-04  9600   0.200E-01    0.795E-02
DAV:   7    -0.192082571582E+03    0.85317E-04   -0.20651E-04  7120   0.906E-02
  29 F= -.19208257E+03 E0= -.19198583E+03  d E =-.216276E-01
       N       E                     dE             d eps       ncg     rms          rms(c)
DAV:   1    -0.192054024987E+03    0.28632E-01   -0.13439E+00  8160   0.250E+00    0.286E-01
DAV:   2    -0.192058071363E+03   -0.40464E-02   -0.38091E-02 12760   0.732E-01    0.571E-01
DAV:   3    -0.192055976444E+03    0.20949E-02   -0.11170E-02 12000   0.707E-01    0.335E-01
DAV:   4    -0.192055532318E+03    0.44413E-03   -0.38654E-03 10920   0.361E-01    0.298E-01
DAV:   5    -0.192054985981E+03    0.54634E-03   -0.29319E-03  9800   0.345E-01    0.199E-01
DAV:   6    -0.192054692641E+03    0.29334E-03   -0.11754E-03 10280   0.176E-01    0.701E-02
DAV:   7    -0.192054602789E+03    0.89852E-04   -0.25194E-04  8200   0.627E-02
  30 F= -.19205460E+03 E0= -.19195590E+03  d E =0.279688E-01
       N       E                     dE             d eps       ncg     rms          rms(c)
DAV:   1    -0.191975428169E+03    0.79264E-01   -0.19405E+01  8160   0.954E+00    0.111E+00
DAV:   2    -0.192019237388E+03   -0.43809E-01   -0.56126E-01 13040   0.260E+00    0.176E+00
DAV:   3    -0.192017638512E+03    0.15989E-02   -0.16813E-01 11520   0.265E+00    0.164E+00
DAV:   4    -0.191997262129E+03    0.20376E-01   -0.68782E-02 11560   0.154E+00    0.991E-01
DAV:   5    -0.191993310683E+03    0.39514E-02   -0.44647E-02 12080   0.137E+00    0.928E-01
DAV:   6    -0.191987464436E+03    0.58462E-02   -0.22521E-02 11840   0.846E-01    0.387E-01
DAV:   7    -0.191987533419E+03   -0.68983E-04   -0.89350E-03 11800   0.700E-01    0.411E-01
DAV:   8    -0.191985298403E+03    0.22350E-02   -0.36009E-03 11920   0.443E-01    0.622E-02
DAV:   9    -0.191985275962E+03    0.22441E-04   -0.32675E-04  9000   0.658E-02
  31 F= -.19198528E+03 E0= -.19188126E+03  d E =0.693268E-01
       N       E                     dE             d eps       ncg     rms          rms(c)
DAV:   1    -0.191982667674E+03    0.26307E-02   -0.83923E-01  8160   0.199E+00    0.246E-01
DAV:   2    -0.191983457838E+03   -0.79016E-03   -0.21888E-02 12920   0.468E-01    0.260E-01
DAV:   3    -0.191984218335E+03   -0.76050E-03   -0.60065E-03 11480   0.513E-01    0.402E-01
DAV:   4    -0.191982992583E+03    0.12258E-02   -0.47449E-03 10560   0.411E-01    0.241E-01
DAV:   5    -0.191982862406E+03    0.13018E-03   -0.25577E-03  9840   0.316E-01    0.209E-01
DAV:   6    -0.191982619147E+03    0.24326E-03   -0.14384E-03  9920   0.228E-01    0.146E-01
DAV:   7    -0.191982466828E+03    0.15232E-03   -0.64267E-04  8480   0.185E-01    0.759E-02
DAV:   8    -0.191982402101E+03    0.64727E-04   -0.12454E-04  6280   0.804E-02
  32 F= -.19198240E+03 E0= -.19187765E+03  d E =0.287386E-02
       N       E                     dE             d eps       ncg     rms          rms(c)
DAV:   1    -0.191986898766E+03   -0.44319E-02   -0.58895E-01  8160   0.163E+00    0.185E-01
DAV:   2    -0.191988881907E+03   -0.19831E-02   -0.22799E-02 12120   0.471E-01    0.248E-01
DAV:   3    -0.191988659747E+03    0.22216E-03   -0.39419E-03 11840   0.450E-01    0.231E-01
DAV:   4    -0.191988307065E+03    0.35268E-03   -0.17791E-03 10120   0.266E-01    0.192E-01
DAV:   5    -0.191988063129E+03    0.24394E-03   -0.11447E-03  8360   0.201E-01    0.102E-01
DAV:   6    -0.191988033701E+03    0.29428E-04   -0.38844E-04  7960   0.101E-01
  33 F= -.19198803E+03 E0= -.19188373E+03  d E =-.563160E-02
       N       E                     dE             d eps       ncg     rms          rms(c)
DAV:   1    -0.191992622814E+03   -0.45597E-02   -0.83967E-01  8160   0.198E+00    0.230E-01
DAV:   2    -0.191994532025E+03   -0.19092E-02   -0.28319E-02 11960   0.464E-01    0.265E-01
DAV:   3    -0.191995328639E+03   -0.79661E-03   -0.66156E-03 11640   0.517E-01    0.425E-01
DAV:   4    -0.191994104827E+03    0.12238E-02   -0.43998E-03 11000   0.389E-01    0.233E-01
DAV:   5    -0.191993685717E+03    0.41911E-03   -0.16418E-03  9480   0.265E-01    0.117E-01
DAV:   6    -0.191993894712E+03   -0.20899E-03   -0.97712E-04  9960   0.207E-01    0.180E-01
DAV:   7    -0.191993576682E+03    0.31803E-03   -0.65295E-04  9000   0.193E-01    0.448E-02
DAV:   8    -0.191993556344E+03    0.20338E-04   -0.61062E-05  6040   0.441E-02
  34 F= -.19199356E+03 E0= -.19188977E+03  d E =-.552264E-02
       N       E                     dE             d eps       ncg     rms          rms(c)
DAV:   1    -0.191999786827E+03   -0.62101E-02   -0.10306E+00  8160   0.217E+00    0.249E-01
DAV:   2    -0.192002708071E+03   -0.29212E-02   -0.33279E-02 12360   0.627E-01    0.410E-01
DAV:   3    -0.192002099056E+03    0.60902E-03   -0.76872E-03 12400   0.630E-01    0.345E-01
DAV:   4    -0.192001045810E+03    0.10532E-02   -0.25390E-03 11120   0.312E-01    0.173E-01
DAV:   5    -0.192001065307E+03   -0.19497E-04   -0.18108E-03 10080   0.271E-01    0.201E-01
DAV:   6    -0.192000912459E+03    0.15285E-03   -0.14613E-03  9400   0.217E-01    0.139E-01
DAV:   7    -0.192000775313E+03    0.13715E-03   -0.67010E-04  8520   0.181E-01    0.803E-02
DAV:   8    -0.192000697807E+03    0.77506E-04   -0.16714E-04  7440   0.929E-02
  35 F= -.19200070E+03 E0= -.19189782E+03  d E =-.714146E-02
       N       E                     dE             d eps       ncg     rms          rms(c)
DAV:   1    -0.192002034213E+03   -0.12589E-02   -0.38085E-02  8160   0.413E-01    0.492E-02
DAV:   2    -0.192002158641E+03   -0.12443E-03   -0.11889E-03 12320   0.147E-01    0.908E-02
DAV:   3    -0.192002097178E+03    0.61463E-04   -0.28626E-04  9240   0.129E-01
  36 F= -.19200210E+03 E0= -.19189952E+03  d E =-.139937E-02
       N       E                     dE             d eps       ncg     rms          rms(c)
DAV:   1    -0.192004932870E+03   -0.27742E-02   -0.15358E-01  8160   0.834E-01    0.111E-01
DAV:   2    -0.192006273167E+03   -0.13403E-02   -0.64824E-03 12840   0.414E-01    0.337E-01
DAV:   3    -0.192005187559E+03    0.10856E-02   -0.28147E-03 11240   0.347E-01    0.120E-01
DAV:   4    -0.192005239654E+03   -0.52095E-04   -0.79417E-04  8360   0.178E-01
  37 F= -.19200524E+03 E0= -.19190286E+03  d E =-.314248E-02
       N       E                     dE             d eps       ncg     rms          rms(c)
DAV:   1    -0.192005153280E+03    0.34279E-04   -0.14362E-02  8160   0.306E-01    0.572E-02
DAV:   2    -0.192005223026E+03   -0.69746E-04   -0.76925E-04 10360   0.105E-01
  38 F= -.19200522E+03 E0= -.19190273E+03  d E =0.166288E-04
       N       E                     dE             d eps       ncg     rms          rms(c)
DAV:   1    -0.192009830520E+03   -0.46772E-02   -0.58317E-01  8160   0.162E+00    0.187E-01
DAV:   2    -0.192012545578E+03   -0.27151E-02   -0.18261E-02 13600   0.522E-01    0.510E-01
DAV:   3    -0.192010605343E+03    0.19402E-02   -0.64980E-03 10920   0.483E-01    0.181E-01
DAV:   4    -0.192010615618E+03   -0.10275E-04   -0.13867E-03  9720   0.208E-01    0.182E-01
DAV:   5    -0.192010327349E+03    0.28827E-03   -0.75947E-04  8840   0.198E-01    0.814E-02
DAV:   6    -0.192010369088E+03   -0.41739E-04   -0.35992E-04  8240   0.123E-01
  39 F= -.19201037E+03 E0= -.19190903E+03  d E =-.514606E-02
       N       E                     dE             d eps       ncg     rms          rms(c)
DAV:   1    -0.192009671915E+03    0.65543E-03   -0.95220E-03  8160   0.234E-01    0.559E-02
DAV:   2    -0.192010189946E+03   -0.51803E-03   -0.12483E-03 11120   0.264E-01    0.207E-01
DAV:   3    -0.192009649522E+03    0.54042E-03   -0.75345E-04  9960   0.223E-01    0.311E-02
DAV:   4    -0.192009653373E+03   -0.38510E-05   -0.51289E-05  5840   0.477E-02
  40 F= -.19200965E+03 E0= -.19190828E+03  d E =0.715715E-03
       N       E                     dE             d eps       ncg     rms          rms(c)
DAV:   1    -0.192004901536E+03    0.47480E-02   -0.10245E+00  8160   0.217E+00    0.244E-01
DAV:   2    -0.192007045256E+03   -0.21437E-02   -0.26918E-02 13480   0.640E-01    0.360E-01
DAV:   3    -0.192006168812E+03    0.87644E-03   -0.57915E-03 12120   0.558E-01    0.243E-01
DAV:   4    -0.192006261331E+03   -0.92519E-04   -0.34413E-03 11120   0.351E-01    0.323E-01
DAV:   5    -0.192005447406E+03    0.81392E-03   -0.24914E-03  9640   0.306E-01    0.113E-01
DAV:   6    -0.192005414083E+03    0.33323E-04   -0.57357E-04  9640   0.114E-01
  41 F= -.19200541E+03 E0= -.19190340E+03  d E =0.423929E-02
       N       E                     dE             d eps       ncg     rms          rms(c)
DAV:   1    -0.192005795993E+03   -0.34859E-03   -0.11273E-01  8160   0.725E-01    0.890E-02
DAV:   2    -0.192006335866E+03   -0.53987E-03   -0.32709E-03 12840   0.248E-01    0.219E-01
DAV:   3    -0.192005902520E+03    0.43335E-03   -0.11114E-03 10080   0.244E-01    0.811E-02
DAV:   4    -0.192005881492E+03    0.21029E-04   -0.17967E-04  6600   0.835E-02
  42 F= -.19200588E+03 E0= -.19190375E+03  d E =-.467409E-03
       N       E                     dE             d eps       ncg     rms          rms(c)
DAV:   1    -0.192010253844E+03   -0.43513E-02   -0.55391E-01  8160   0.157E+00    0.163E-01
DAV:   2    -0.192012894810E+03   -0.26410E-02   -0.14549E-02 13120   0.547E-01    0.479E-01
DAV:   3    -0.192010873322E+03    0.20215E-02   -0.51171E-03 11520   0.485E-01    0.155E-01
DAV:   4    -0.192011148828E+03   -0.27551E-03   -0.16646E-03  9840   0.263E-01    0.223E-01
DAV:   5    -0.192010681277E+03    0.46755E-03   -0.95470E-04  8480   0.221E-01    0.796E-02
DAV:   6    -0.192010732015E+03   -0.50738E-04   -0.38340E-04  8480   0.136E-01
  43 F= -.19201073E+03 E0= -.19190967E+03  d E =-.485052E-02
       N       E                     dE             d eps       ncg     rms          rms(c)
DAV:   1    -0.192012828945E+03   -0.21477E-02   -0.13128E-01  8160   0.802E-01    0.100E-01
DAV:   2    -0.192013156863E+03   -0.32792E-03   -0.39174E-03 11200   0.207E-01    0.147E-01
DAV:   3    -0.192013037238E+03    0.11962E-03   -0.11984E-03 10320   0.235E-01    0.136E-01
DAV:   4    -0.192012959088E+03    0.78150E-04   -0.63170E-04  8240   0.153E-01
  44 F= -.19201296E+03 E0= -.19191188E+03  d E =-.222707E-02
       N       E                     dE             d eps       ncg     rms          rms(c)
DAV:   1    -0.192017146286E+03   -0.41090E-02   -0.42408E-01  8160   0.138E+00    0.162E-01
DAV:   2    -0.192019686243E+03   -0.25400E-02   -0.12618E-02 13520   0.508E-01    0.524E-01
DAV:   3    -0.192017506153E+03    0.21801E-02   -0.64819E-03 10920   0.493E-01    0.164E-01
DAV:   4    -0.192017375035E+03    0.13112E-03   -0.77052E-04  9240   0.140E-01    0.105E-01
DAV:   5    -0.192017346320E+03    0.28715E-04   -0.52302E-04  8960   0.165E-01
  45 F= -.19201735E+03 E0= -.19191646E+03  d E =-.438723E-02
       N       E                     dE             d eps       ncg     rms          rms(c)
DAV:   1    -0.192013263371E+03    0.41117E-02   -0.49342E-01  8160   0.148E+00    0.158E-01
DAV:   2    -0.192015293830E+03   -0.20305E-02   -0.11957E-02 13040   0.455E-01    0.430E-01
DAV:   3    -0.192013843237E+03    0.14506E-02   -0.54362E-03 11400   0.471E-01    0.198E-01
DAV:   4    -0.192013680271E+03    0.16297E-03   -0.12697E-03  9640   0.209E-01    0.144E-01
DAV:   5    -0.192013565950E+03    0.11432E-03   -0.71820E-04  8720   0.200E-01    0.108E-01
DAV:   6    -0.192013469514E+03    0.96436E-04   -0.31985E-04  8160   0.120E-01
  46 F= -.19201347E+03 E0= -.19191283E+03  d E =0.387681E-02
       N       E                     dE             d eps       ncg     rms          rms(c)
DAV:   1    -0.192015233104E+03   -0.16672E-02   -0.86651E-01  8160   0.201E+00    0.231E-01
DAV:   2    -0.192017618504E+03   -0.23854E-02   -0.22532E-02 12920   0.540E-01    0.420E-01
DAV:   3    -0.192016527046E+03    0.10915E-02   -0.75248E-03 11760   0.571E-01    0.307E-01
DAV:   4    -0.192016503513E+03    0.23533E-04   -0.35525E-03 11160   0.378E-01    0.295E-01
DAV:   5    -0.192015641605E+03    0.86191E-03   -0.19572E-03  9680   0.310E-01    0.916E-02
DAV:   6    -0.192015783824E+03   -0.14222E-03   -0.62819E-04  9080   0.168E-01    0.147E-01
DAV:   7    -0.192015609919E+03    0.17390E-03   -0.51690E-04  8680   0.183E-01    0.655E-02
DAV:   8    -0.192015554063E+03    0.55855E-04   -0.87611E-05  5960   0.660E-02
  47 F= -.19201555E+03 E0= -.19191507E+03  d E =-.208455E-02
       N       E                     dE             d eps       ncg     rms          rms(c)
DAV:   1    -0.192015571490E+03    0.38428E-04   -0.37578E-05  7640   0.206E-02    0.714E-03
DAV:   2    -0.192015572576E+03   -0.10856E-05   -0.14086E-05  5280   0.168E-02
  48 F= -.19201557E+03 E0= -.19191510E+03  d E =-.185127E-04
       N       E                     dE             d eps       ncg     rms          rms(c)
DAV:   1    -0.192020663330E+03   -0.50918E-02   -0.55793E-01  8160   0.157E+00    0.172E-01
DAV:   2    -0.192022189840E+03   -0.15265E-02   -0.13595E-02 12480   0.411E-01    0.333E-01
DAV:   3    -0.192021560452E+03    0.62939E-03   -0.48530E-03 12120   0.448E-01    0.254E-01
DAV:   4    -0.192021245206E+03    0.31525E-03   -0.17646E-03  9600   0.255E-01    0.164E-01
DAV:   5    -0.192020996933E+03    0.24827E-03   -0.80890E-04  8560   0.208E-01    0.849E-02
DAV:   6    -0.192020963067E+03    0.33866E-04   -0.32057E-04  8600   0.112E-01
  49 F= -.19202096E+03 E0= -.19192090E+03  d E =-.539049E-02
       N       E                     dE             d eps       ncg     rms          rms(c)
DAV:   1    -0.192018487568E+03    0.25094E-02   -0.63464E-01  8160   0.168E+00    0.182E-01
DAV:   2    -0.192021171725E+03   -0.26842E-02   -0.15758E-02 12720   0.534E-01    0.466E-01
DAV:   3    -0.192019272951E+03    0.18988E-02   -0.55825E-03 11440   0.537E-01    0.196E-01
DAV:   4    -0.192019203951E+03    0.69000E-04   -0.14527E-03  9640   0.229E-01    0.180E-01
DAV:   5    -0.192019019322E+03    0.18463E-03   -0.10840E-03  8640   0.229E-01    0.129E-01
DAV:   6    -0.192018890316E+03    0.12901E-03   -0.46455E-04  8320   0.133E-01    0.649E-02
DAV:   7    -0.192018917958E+03   -0.27642E-04   -0.28216E-04  8360   0.123E-01
  50 F= -.19201892E+03 E0= -.19191872E+03  d E =0.204511E-02
       N       E                     dE             d eps       ncg     rms          rms(c)
DAV:   1    -0.192019950286E+03   -0.10600E-02   -0.13932E-01  8160   0.799E-01    0.902E-02
DAV:   2    -0.192020408021E+03   -0.45773E-03   -0.37205E-03 13480   0.243E-01    0.188E-01
DAV:   3    -0.192020162125E+03    0.24590E-03   -0.13355E-03 10400   0.238E-01    0.118E-01
DAV:   4    -0.192020132151E+03    0.29974E-04   -0.44212E-04  7920   0.136E-01
  51 F= -.19202013E+03 E0= -.19192006E+03  d E =-.121419E-02
       N       E                     dE             d eps       ncg     rms          rms(c)
DAV:   1    -0.192023642967E+03   -0.34808E-02   -0.16684E-01  8160   0.877E-01    0.988E-02
DAV:   2    -0.192024176558E+03   -0.53359E-03   -0.48322E-03 13160   0.274E-01    0.193E-01
DAV:   3    -0.192023926479E+03    0.25008E-03   -0.14447E-03 10000   0.254E-01    0.123E-01
DAV:   4    -0.192023903361E+03    0.23119E-04   -0.57001E-04  8120   0.155E-01
  52 F= -.19202390E+03 E0= -.19192445E+03  d E =-.377121E-02
       N       E                     dE             d eps       ncg     rms          rms(c)
DAV:   1    -0.192021121524E+03    0.28050E-02   -0.79256E-02  8160   0.622E-01    0.743E-02
DAV:   2    -0.192021869063E+03   -0.74754E-03   -0.33761E-03 11960   0.303E-01    0.228E-01
DAV:   3    -0.192021245439E+03    0.62362E-03   -0.11440E-03 10120   0.261E-01    0.482E-02
DAV:   4    -0.192021287904E+03   -0.42466E-04   -0.19520E-04  6240   0.916E-02
  53 F= -.19202129E+03 E0= -.19192187E+03  d E =0.261546E-02
       N       E                     dE             d eps       ncg     rms          rms(c)
DAV:   1    -0.192020470546E+03    0.77489E-03   -0.91102E-02  8160   0.651E-01    0.107E-01
DAV:   2    -0.192020443555E+03    0.26992E-04   -0.25138E-03 11840   0.169E-01    0.125E-01
DAV:   3    -0.192020611989E+03   -0.16843E-03   -0.15675E-03 10200   0.248E-01    0.209E-01
DAV:   4    -0.192020239126E+03    0.37286E-03   -0.86150E-04  8680   0.184E-01    0.578E-02
DAV:   5    -0.192020212389E+03    0.26737E-04   -0.16722E-04  5840   0.702E-02
  54 F= -.19202021E+03 E0= -.19192062E+03  d E =0.107552E-02
       N       E                     dE             d eps       ncg     rms          rms(c)
DAV:   1    -0.192019046992E+03    0.11921E-02   -0.12860E-01  8160   0.774E-01    0.119E-01
DAV:   2    -0.192020569877E+03   -0.15229E-02   -0.68746E-03 13520   0.446E-01    0.363E-01
DAV:   3    -0.192019208803E+03    0.13611E-02   -0.30519E-03 11440   0.402E-01    0.115E-01
DAV:   4    -0.192019269896E+03   -0.61093E-04   -0.75849E-04  8440   0.177E-01
  55 F= -.19201927E+03 E0= -.19191963E+03  d E =0.942493E-03
       N       E                     dE             d eps       ncg     rms          rms(c)
DAV:   1    -0.192024426539E+03   -0.52177E-02   -0.37348E-01  8160   0.132E+00    0.160E-01
DAV:   2    -0.192026488027E+03   -0.20615E-02   -0.13915E-02 13240   0.515E-01    0.376E-01
DAV:   3    -0.192025081663E+03    0.14064E-02   -0.41731E-03 11800   0.463E-01    0.161E-01
DAV:   4    -0.192025215994E+03   -0.13433E-03   -0.15212E-03  9560   0.252E-01    0.209E-01
DAV:   5    -0.192024794293E+03    0.42170E-03   -0.81403E-04  8200   0.199E-01    0.520E-02
DAV:   6    -0.192024780560E+03    0.13733E-04   -0.16415E-04  6120   0.629E-02
  56 F= -.19202478E+03 E0= -.19192586E+03  d E =-.551066E-02
       N       E                     dE             d eps       ncg     rms          rms(c)
DAV:   1    -0.192023812799E+03    0.98149E-03   -0.12207E-02  8240   0.239E-01    0.266E-02
DAV:   2    -0.192023848512E+03   -0.35713E-04   -0.39096E-04 10680   0.638E-02
  57 F= -.19202385E+03 E0= -.19192481E+03  d E =0.932048E-03
       N       E                     dE             d eps       ncg     rms          rms(c)
DAV:   1    -0.192015533947E+03    0.82789E-02   -0.83736E-01  8160   0.198E+00    0.282E-01
DAV:   2    -0.192021111166E+03   -0.55772E-02   -0.34537E-02 12080   0.934E-01    0.696E-01
DAV:   3    -0.192016115104E+03    0.49961E-02   -0.12115E-02 12320   0.778E-01    0.209E-01
DAV:   4    -0.192016977272E+03   -0.86217E-03   -0.36070E-03 10800   0.434E-01    0.381E-01
DAV:   5    -0.192015522442E+03    0.14548E-02   -0.29321E-03 10880   0.390E-01    0.121E-01
DAV:   6    -0.192015994258E+03   -0.47182E-03   -0.16641E-03  9920   0.271E-01    0.249E-01
DAV:   7    -0.192015391670E+03    0.60259E-03   -0.93625E-04  8720   0.216E-01    0.236E-02
DAV:   8    -0.192015396993E+03   -0.53233E-05   -0.48540E-05  6040   0.279E-02
  58 F= -.19201540E+03 E0= -.19191502E+03  d E =0.845152E-02
       N       E                     dE             d eps       ncg     rms          rms(c)
DAV:   1    -0.192023091534E+03   -0.76999E-02   -0.64520E-01  8160   0.174E+00    0.218E-01
DAV:   2    -0.192025607967E+03   -0.25164E-02   -0.21235E-02 12080   0.611E-01    0.428E-01
DAV:   3    -0.192023733700E+03    0.18743E-02   -0.60043E-03 11800   0.549E-01    0.186E-01
DAV:   4    -0.192023868864E+03   -0.13516E-03   -0.18289E-03  9880   0.292E-01    0.247E-01
DAV:   5    -0.192023302664E+03    0.56620E-03   -0.14224E-03 10080   0.280E-01    0.100E-01
DAV:   6    -0.192023418053E+03   -0.11539E-03   -0.73161E-04  8760   0.167E-01    0.144E-01
DAV:   7    -0.192023260473E+03    0.15758E-03   -0.55943E-04  8440   0.169E-01    0.703E-02
DAV:   8    -0.192023201619E+03    0.58854E-04   -0.89744E-05  5680   0.625E-02
  59 F= -.19202320E+03 E0= -.19192401E+03  d E =-.780463E-02
       N       E                     dE             d eps       ncg     rms          rms(c)
DAV:   1    -0.192025721063E+03   -0.24606E-02   -0.95116E-02  8160   0.652E-01    0.720E-02
DAV:   2    -0.192026037702E+03   -0.31664E-03   -0.24988E-03 13600   0.199E-01    0.145E-01
DAV:   3    -0.192025849738E+03    0.18796E-03   -0.72950E-04  8800   0.191E-01    0.810E-02
DAV:   4    -0.192025850370E+03   -0.63215E-06   -0.25951E-04  7080   0.106E-01
  60 F= -.19202585E+03 E0= -.19192703E+03  d E =-.264875E-02
       N       E                     dE             d eps       ncg     rms          rms(c)
DAV:   1    -0.192021352684E+03    0.44971E-02   -0.26531E-01  8160   0.111E+00    0.120E-01
DAV:   2    -0.192022204504E+03   -0.85182E-03   -0.67823E-03 13520   0.321E-01    0.253E-01
DAV:   3    -0.192021629920E+03    0.57458E-03   -0.23302E-03 10120   0.328E-01    0.135E-01
DAV:   4    -0.192021689809E+03   -0.59889E-04   -0.91276E-04  8320   0.194E-01
  61 F= -.19202169E+03 E0= -.19192245E+03  d E =0.416056E-02
       N       E                     dE             d eps       ncg     rms          rms(c)
DAV:   1    -0.192023986228E+03   -0.23563E-02   -0.20067E-01  8160   0.967E-01    0.141E-01
DAV:   2    -0.192025010762E+03   -0.10245E-02   -0.76523E-03 11480   0.412E-01    0.322E-01
DAV:   3    -0.192024107062E+03    0.90370E-03   -0.28518E-03 10960   0.377E-01    0.143E-01
DAV:   4    -0.192024066109E+03    0.40952E-04   -0.93923E-04  8600   0.200E-01
  62 F= -.19202407E+03 E0= -.19192496E+03  d E =-.237630E-02
       N       E                     dE             d eps       ncg     rms          rms(c)
DAV:   1    -0.192027785942E+03   -0.36789E-02   -0.21543E-01  8160   0.997E-01    0.131E-01
DAV:   2    -0.192029310062E+03   -0.15241E-02   -0.67377E-03 13600   0.424E-01    0.404E-01
DAV:   3    -0.192027799138E+03    0.15109E-02   -0.30030E-03 10680   0.388E-01    0.960E-02
DAV:   4    -0.192027934317E+03   -0.13518E-03   -0.73371E-04  8600   0.171E-01    0.157E-01
DAV:   5    -0.192027722379E+03    0.21194E-03   -0.60736E-04  8360   0.172E-01    0.680E-02
DAV:   6    -0.192027690319E+03    0.32060E-04   -0.14731E-04  5720   0.808E-02
  63 F= -.19202769E+03 E0= -.19192914E+03  d E =-.362421E-02
       N       E                     dE             d eps       ncg     rms          rms(c)
DAV:   1    -0.192035378698E+03   -0.76563E-02   -0.49394E-01  8160   0.153E+00    0.203E-01
DAV:   2    -0.192035864418E+03   -0.48572E-03   -0.14658E-02 11640   0.348E-01    0.209E-01
DAV:   3    -0.192036648508E+03   -0.78409E-03   -0.47446E-03 11160   0.455E-01    0.388E-01
DAV:   4    -0.192035305299E+03    0.13432E-02   -0.26485E-03  9920   0.344E-01    0.119E-01
DAV:   5    -0.192035400898E+03   -0.95599E-04   -0.11076E-03  9280   0.231E-01    0.165E-01
DAV:   6    -0.192035156397E+03    0.24450E-03   -0.69650E-04  9160   0.183E-01    0.709E-02
DAV:   7    -0.192035146681E+03    0.97164E-05   -0.23904E-04  8040   0.118E-01
  64 F= -.19203515E+03 E0= -.19193739E+03  d E =-.745636E-02
       N       E                     dE             d eps       ncg     rms          rms(c)
DAV:   1    -0.192040135217E+03   -0.49788E-02   -0.18729E-01  8160   0.936E-01    0.126E-01
DAV:   2    -0.192041200165E+03   -0.10649E-02   -0.67498E-03 12040   0.416E-01    0.297E-01
DAV:   3    -0.192040275818E+03    0.92435E-03   -0.23353E-03 11480   0.349E-01    0.991E-02
DAV:   4    -0.192040323666E+03   -0.47848E-04   -0.56179E-04  8600   0.165E-01
  65 F= -.19204032E+03 E0= -.19194352E+03  d E =-.517699E-02
       N       E                     dE             d eps       ncg     rms          rms(c)
DAV:   1    -0.192045651347E+03   -0.53755E-02   -0.20804E-01  8160   0.998E-01    0.154E-01
DAV:   2    -0.192047219664E+03   -0.15683E-02   -0.81956E-03 12080   0.455E-01    0.397E-01
DAV:   3    -0.192045732068E+03    0.14876E-02   -0.36397E-03 10400   0.431E-01    0.147E-01
DAV:   4    -0.192045690259E+03    0.41809E-04   -0.91886E-04  9160   0.197E-01
  66 F= -.19204569E+03 E0= -.19194931E+03  d E =-.536659E-02
       N       E                     dE             d eps       ncg     rms          rms(c)
DAV:   1    -0.192050041891E+03   -0.43098E-02   -0.13042E-01  8160   0.793E-01    0.135E-01
DAV:   2    -0.192051647257E+03   -0.16054E-02   -0.61122E-03 13600   0.428E-01    0.398E-01
DAV:   3    -0.192050116236E+03    0.15310E-02   -0.35354E-03 10240   0.433E-01    0.133E-01
DAV:   4    -0.192050029654E+03    0.86582E-04   -0.61132E-04  8880   0.144E-01
  67 F= -.19205003E+03 E0= -.19195441E+03  d E =-.433940E-02
       N       E                     dE             d eps       ncg     rms          rms(c)
DAV:   1    -0.192065043799E+03   -0.14928E-01   -0.13161E+00  8160   0.247E+00    0.340E-01
DAV:   2    -0.192075549295E+03   -0.10505E-01   -0.47399E-02 13560   0.111E+00    0.941E-01
DAV:   3    -0.192066155215E+03    0.93941E-02   -0.19093E-02 11480   0.104E+00    0.295E-01
DAV:   4    -0.192065978017E+03    0.17720E-03   -0.37930E-03 11320   0.384E-01    0.270E-01
DAV:   5    -0.192065456937E+03    0.52108E-03   -0.26747E-03 10720   0.372E-01    0.188E-01
DAV:   6    -0.192065170856E+03    0.28608E-03   -0.11686E-03 10280   0.233E-01    0.120E-01
DAV:   7    -0.192065210628E+03   -0.39772E-04   -0.74122E-04 10040   0.218E-01
  68 F= -.19206521E+03 E0= -.19197079E+03  d E =-.151810E-01
       N       E                     dE             d eps       ncg     rms          rms(c)
DAV:   1    -0.192044303794E+03    0.20867E-01   -0.23870E+00  8160   0.329E+00    0.390E-01
DAV:   2    -0.192056513307E+03   -0.12210E-01   -0.71296E-02 13400   0.120E+00    0.101E+00
DAV:   3    -0.192047323106E+03    0.91902E-02   -0.28610E-02 11920   0.117E+00    0.398E-01
DAV:   4    -0.192047462198E+03   -0.13909E-03   -0.70764E-03 11440   0.580E-01    0.425E-01
DAV:   5    -0.192045682906E+03    0.17793E-02   -0.45017E-03 11200   0.482E-01    0.171E-01
DAV:   6    -0.192045659217E+03    0.23689E-04   -0.15145E-03 10280   0.261E-01    0.186E-01
DAV:   7    -0.192045513158E+03    0.14606E-03   -0.12010E-03 10480   0.277E-01    0.131E-01
DAV:   8    -0.192045302120E+03    0.21104E-03   -0.31587E-04  8480   0.126E-01    0.200E-02
DAV:   9    -0.192045303481E+03   -0.13610E-05   -0.39577E-05  6640   0.233E-02
  69 F= -.19204530E+03 E0= -.19194881E+03  d E =0.199071E-01
       N       E                     dE             d eps       ncg     rms          rms(c)
DAV:   1    -0.192021092179E+03    0.24210E-01   -0.74762E+00  8160   0.579E+00    0.656E-01
DAV:   2    -0.192047206508E+03   -0.26114E-01   -0.18871E-01 13320   0.179E+00    0.144E+00
DAV:   3    -0.192031059149E+03    0.16147E-01   -0.75632E-02 11800   0.184E+00    0.782E-01
DAV:   4    -0.192030024230E+03    0.10349E-02   -0.23007E-02 12400   0.100E+00    0.730E-01
DAV:   5    -0.192025145888E+03    0.48783E-02   -0.14376E-02 11360   0.847E-01    0.342E-01
DAV:   6    -0.192024668925E+03    0.47696E-03   -0.50521E-03 10920   0.454E-01    0.311E-01
DAV:   7    -0.192024397898E+03    0.27103E-03   -0.36795E-03 12400   0.478E-01    0.246E-01
DAV:   8    -0.192023688528E+03    0.70937E-03   -0.10781E-03 10040   0.234E-01    0.372E-02
DAV:   9    -0.192023677787E+03    0.10741E-04   -0.10099E-04  6480   0.386E-02
  70 F= -.19202368E+03 E0= -.19192443E+03  d E =0.216257E-01
       N       E                     dE             d eps       ncg     rms          rms(c)
DAV:   1    -0.192024213326E+03   -0.52480E-03   -0.27464E-01  8160   0.110E+00    0.122E-01
DAV:   2    -0.192024823984E+03   -0.61066E-03   -0.58761E-03 13040   0.304E-01    0.221E-01
DAV:   3    -0.192024499158E+03    0.32483E-03   -0.19405E-03 10680   0.299E-01    0.153E-01
DAV:   4    -0.192024410212E+03    0.88946E-04   -0.78242E-04  8600   0.180E-01
  71 F= -.19202441E+03 E0= -.19192489E+03  d E =-.732425E-03
       N       E                     dE             d eps       ncg     rms          rms(c)
DAV:   1    -0.192032686344E+03   -0.81872E-02   -0.10666E+00  8160   0.224E+00    0.290E-01
DAV:   2    -0.192040047145E+03   -0.73608E-02   -0.41788E-02 12920   0.945E-01    0.725E-01
DAV:   3    -0.192033904917E+03    0.61422E-02   -0.14705E-02 12280   0.868E-01    0.213E-01
DAV:   4    -0.192034323333E+03   -0.41842E-03   -0.28140E-03 11480   0.366E-01    0.309E-01
DAV:   5    -0.192033381032E+03    0.94230E-03   -0.19828E-03 10360   0.341E-01    0.108E-01
DAV:   6    -0.192033550555E+03   -0.16952E-03   -0.87428E-04  9320   0.189E-01    0.170E-01
DAV:   7    -0.192033321238E+03    0.22932E-03   -0.73925E-04  8680   0.199E-01    0.746E-02
DAV:   8    -0.192033255266E+03    0.65972E-04   -0.11573E-04  6160   0.699E-02
  72 F= -.19203326E+03 E0= -.19193469E+03  d E =-.884505E-02
       N       E                     dE             d eps       ncg     rms          rms(c)
DAV:   1    -0.192032554012E+03    0.76723E-03   -0.40600E-01  8160   0.133E+00    0.139E-01
DAV:   2    -0.192033488111E+03   -0.93410E-03   -0.79848E-03 12280   0.350E-01    0.265E-01
DAV:   3    -0.192033020061E+03    0.46805E-03   -0.29484E-03 11280   0.364E-01    0.186E-01
DAV:   4    -0.192032882653E+03    0.13741E-03   -0.10574E-03  9040   0.209E-01    0.136E-01
DAV:   5    -0.192032730204E+03    0.15245E-03   -0.59023E-04  8200   0.179E-01    0.781E-02
DAV:   6    -0.192032675671E+03    0.54532E-04   -0.20645E-04  7080   0.929E-02
  73 F= -.19203268E+03 E0= -.19193397E+03  d E =0.579595E-03
       N       E                     dE             d eps       ncg     rms          rms(c)
DAV:   1    -0.192032595375E+03    0.13483E-03   -0.11295E-02  8160   0.242E-01    0.709E-02
DAV:   2    -0.192033812290E+03   -0.12169E-02   -0.21553E-03 11480   0.375E-01    0.344E-01
DAV:   3    -0.192032529863E+03    0.12824E-02   -0.14320E-03 10040   0.320E-01    0.228E-02
DAV:   4    -0.192032552787E+03   -0.22924E-04   -0.38904E-05  5960   0.370E-02
  74 F= -.19203255E+03 E0= -.19193375E+03  d E =0.122885E-03
       N       E                     dE             d eps       ncg     rms          rms(c)
DAV:   1    -0.192039449987E+03   -0.69201E-02   -0.45061E-01  8160   0.144E+00    0.199E-01
DAV:   2    -0.192043221480E+03   -0.37715E-02   -0.18430E-02 11720   0.737E-01    0.550E-01
DAV:   3    -0.192039767804E+03    0.34537E-02   -0.70276E-03 12240   0.612E-01    0.136E-01
DAV:   4    -0.192040187646E+03   -0.41984E-03   -0.17062E-03 10080   0.291E-01    0.252E-01
DAV:   5    -0.192039552704E+03    0.63494E-03   -0.12013E-03  9360   0.250E-01    0.685E-02
DAV:   6    -0.192039636172E+03   -0.83468E-04   -0.36330E-04  8440   0.133E-01
  75 F= -.19203964E+03 E0= -.19194117E+03  d E =-.708339E-02
       N       E                     dE             d eps       ncg     rms          rms(c)
DAV:   1    -0.192037238234E+03    0.23145E-02   -0.13114E-01  8160   0.788E-01    0.108E-01
DAV:   2    -0.192038577184E+03   -0.13390E-02   -0.53538E-03 13560   0.377E-01    0.344E-01
DAV:   3    -0.192037365534E+03    0.12117E-02   -0.24766E-03 10760   0.366E-01    0.928E-02
DAV:   4    -0.192037341124E+03    0.24410E-04   -0.36901E-04  8320   0.117E-01
  76 F= -.19203734E+03 E0= -.19193897E+03  d E =0.229505E-02
       N       E                     dE             d eps       ncg     rms          rms(c)
DAV:   1    -0.192041425419E+03   -0.40599E-02   -0.47251E-01  8160   0.145E+00    0.181E-01
DAV:   2    -0.192044616109E+03   -0.31907E-02   -0.14442E-02 13400   0.569E-01    0.545E-01
DAV:   3    -0.192041930718E+03    0.26854E-02   -0.71680E-03 11000   0.580E-01    0.186E-01
DAV:   4    -0.192041738019E+03    0.19270E-03   -0.10629E-03  9640   0.182E-01    0.115E-01
DAV:   5    -0.192041713072E+03    0.24947E-04   -0.62271E-04  9160   0.186E-01
  77 F= -.19204171E+03 E0= -.19194395E+03  d E =-.437195E-02
       N       E                     dE             d eps       ncg     rms          rms(c)
DAV:   1    -0.192035442436E+03    0.62956E-02   -0.54535E-01  8160   0.157E+00    0.169E-01
DAV:   2    -0.192037877010E+03   -0.24346E-02   -0.14329E-02 13560   0.531E-01    0.440E-01
DAV:   3    -0.192036155138E+03    0.17219E-02   -0.57268E-03 11440   0.526E-01    0.206E-01
DAV:   4    -0.192035893887E+03    0.26125E-03   -0.12791E-03  9640   0.219E-01    0.127E-01
DAV:   5    -0.192035804121E+03    0.89767E-04   -0.61937E-04  8680   0.190E-01
  78 F= -.19203580E+03 E0= -.19193724E+03  d E =0.590895E-02
       N       E                     dE             d eps       ncg     rms          rms(c)
DAV:   1    -0.192045278186E+03   -0.93843E-02   -0.99038E-01  8160   0.214E+00    0.255E-01
DAV:   2    -0.192051629276E+03   -0.63511E-02   -0.32744E-02 13400   0.859E-01    0.714E-01
DAV:   3    -0.192046437058E+03    0.51922E-02   -0.12137E-02 11400   0.791E-01    0.239E-01
DAV:   4    -0.192046425094E+03    0.11964E-04   -0.26682E-03 10960   0.327E-01    0.243E-01
DAV:   5    -0.192045901702E+03    0.52339E-03   -0.16396E-03 10080   0.288E-01    0.124E-01
DAV:   6    -0.192045799789E+03    0.10191E-03   -0.57228E-04  8840   0.164E-01    0.978E-02
DAV:   7    -0.192045808039E+03   -0.82504E-05   -0.46497E-04  9240   0.175E-01
  79 F= -.19204581E+03 E0= -.19194799E+03  d E =-.100039E-01
       N       E                     dE             d eps       ncg     rms          rms(c)
DAV:   1    -0.192047122187E+03   -0.13224E-02   -0.40124E-02  8160   0.442E-01    0.647E-02
DAV:   2    -0.192047364853E+03   -0.24267E-03   -0.15684E-03 12680   0.181E-01    0.145E-01
DAV:   3    -0.192047139324E+03    0.22553E-03   -0.61184E-04  8720   0.181E-01    0.577E-02
DAV:   4    -0.192047137806E+03    0.15181E-05   -0.11315E-04  5960   0.823E-02
  80 F= -.19204714E+03 E0= -.19194931E+03  d E =-.132977E-02
       N       E                     dE             d eps       ncg     rms          rms(c)
DAV:   1    -0.192056445860E+03   -0.93065E-02   -0.70329E-01  8160   0.181E+00    0.242E-01
DAV:   2    -0.192061981152E+03   -0.55353E-02   -0.26311E-02 12320   0.838E-01    0.675E-01
DAV:   3    -0.192056987360E+03    0.49938E-02   -0.94787E-03 11440   0.734E-01    0.168E-01
DAV:   4    -0.192057241609E+03   -0.25425E-03   -0.18457E-03 11280   0.296E-01    0.233E-01
DAV:   5    -0.192056713786E+03    0.52782E-03   -0.14523E-03 10280   0.281E-01    0.108E-01
DAV:   6    -0.192056728686E+03   -0.14900E-04   -0.60192E-04  8720   0.164E-01
  81 F= -.19205673E+03 E0= -.19195898E+03  d E =-.959088E-02
       N       E                     dE             d eps       ncg     rms          rms(c)
DAV:   1    -0.192054038615E+03    0.26752E-02   -0.52409E-02  8160   0.521E-01    0.100E-01
DAV:   2    -0.192055884537E+03   -0.18459E-02   -0.45056E-03 12400   0.463E-01    0.414E-01
DAV:   3    -0.192054045591E+03    0.18389E-02   -0.25586E-03 10760   0.411E-01    0.669E-02
DAV:   4    -0.192054028859E+03    0.16732E-04   -0.23771E-04  7600   0.895E-02
  82 F= -.19205403E+03 E0= -.19195641E+03  d E =0.269983E-02
       N       E                     dE             d eps       ncg     rms          rms(c)
DAV:   1    -0.192045930913E+03    0.81147E-02   -0.70513E-01  8160   0.181E+00    0.259E-01
DAV:   2    -0.192050597872E+03   -0.46670E-02   -0.25088E-02 13200   0.843E-01    0.682E-01
DAV:   3    -0.192046134065E+03    0.44638E-02   -0.93111E-03 11960   0.748E-01    0.191E-01
DAV:   4    -0.192045879717E+03    0.25435E-03   -0.17354E-03 11160   0.239E-01    0.152E-01
DAV:   5    -0.192045828885E+03    0.50832E-04   -0.14059E-03 10640   0.257E-01    0.183E-01
DAV:   6    -0.192045584087E+03    0.24480E-03   -0.10971E-03  9400   0.227E-01    0.102E-01
DAV:   7    -0.192045575129E+03    0.89577E-05   -0.43255E-04  8400   0.146E-01
  83 F= -.19204558E+03 E0= -.19194748E+03  d E =0.845373E-02
       N       E                     dE             d eps       ncg     rms          rms(c)
DAV:   1    -0.192035947230E+03    0.96369E-02   -0.96467E-01  8160   0.212E+00    0.281E-01
DAV:   2    -0.192042850744E+03   -0.69035E-02   -0.32066E-02 13000   0.942E-01    0.801E-01
DAV:   3    -0.192036566863E+03    0.62839E-02   -0.12335E-02 12400   0.866E-01    0.203E-01
DAV:   4    -0.192036228982E+03    0.33788E-03   -0.14232E-03 11040   0.197E-01    0.110E-01
DAV:   5    -0.192036112193E+03    0.11679E-03   -0.79093E-04 11480   0.151E-01    0.104E-01
DAV:   6    -0.192036222154E+03   -0.10996E-03   -0.87727E-04  9560   0.212E-01    0.153E-01
DAV:   7    -0.192036026619E+03    0.19553E-03   -0.49786E-04  8240   0.151E-01    0.656E-02
DAV:   8    -0.192035991906E+03    0.34713E-04   -0.10986E-04  5920   0.776E-02
  84 F= -.19203599E+03 E0= -.19193733E+03  d E =0.958322E-02
       N       E                     dE             d eps       ncg     rms          rms(c)
DAV:   1    -0.192053524232E+03   -0.17498E-01   -0.30774E+00  8160   0.377E+00    0.472E-01
DAV:   2    -0.192072230436E+03   -0.18706E-01   -0.99479E-02 13120   0.156E+00    0.124E+00
DAV:   3    -0.192056308600E+03    0.15922E-01   -0.30167E-02 12360   0.138E+00    0.323E-01
DAV:   4    -0.192055730575E+03    0.57803E-03   -0.45207E-03 11240   0.422E-01    0.275E-01
DAV:   5    -0.192055196442E+03    0.53413E-03   -0.34723E-03 12480   0.440E-01    0.236E-01
DAV:   6    -0.192055006862E+03    0.18958E-03   -0.25798E-03 11600   0.349E-01    0.192E-01
DAV:   7    -0.192054969773E+03    0.37089E-04   -0.16821E-03 10560   0.283E-01    0.193E-01
DAV:   8    -0.192054562282E+03    0.40749E-03   -0.64684E-04  8440   0.179E-01    0.220E-02
DAV:   9    -0.192054570753E+03   -0.84717E-05   -0.45792E-05  6440   0.267E-02
  85 F= -.19205457E+03 E0= -.19195701E+03  d E =-.185788E-01
       N       E                     dE             d eps       ncg     rms          rms(c)
DAV:   1    -0.192054997116E+03   -0.43483E-03   -0.23473E-02  8160   0.330E-01    0.439E-02
DAV:   2    -0.192055214876E+03   -0.21776E-03   -0.10379E-03 12240   0.172E-01    0.137E-01
DAV:   3    -0.192055024522E+03    0.19035E-03   -0.38054E-04  8400   0.144E-01    0.345E-02
DAV:   4    -0.192055042476E+03   -0.17954E-04   -0.73388E-05  5760   0.645E-02
  86 F= -.19205504E+03 E0= -.19195742E+03  d E =-.471723E-03
       N       E                     dE             d eps       ncg     rms          rms(c)
DAV:   1    -0.192058309662E+03   -0.32851E-02   -0.10115E-01  8160   0.687E-01    0.102E-01
DAV:   2    -0.192059373661E+03   -0.10640E-02   -0.49206E-03 12080   0.388E-01    0.297E-01
DAV:   3    -0.192058381789E+03    0.99187E-03   -0.18984E-03 10880   0.322E-01    0.665E-02
DAV:   4    -0.192058467478E+03   -0.85689E-04   -0.36636E-04  8280   0.140E-01
  87 F= -.19205847E+03 E0= -.19196097E+03  d E =-.342500E-02
       N       E                     dE             d eps       ncg     rms          rms(c)
DAV:   1    -0.192061005397E+03   -0.26236E-02   -0.71894E-02  8160   0.585E-01    0.898E-02
DAV:   2    -0.192061923534E+03   -0.91814E-03   -0.32417E-03 13560   0.315E-01    0.298E-01
DAV:   3    -0.192061037526E+03    0.88601E-03   -0.17705E-03 10000   0.307E-01    0.736E-02
DAV:   4    -0.192061022308E+03    0.15218E-04   -0.21731E-04  7000   0.856E-02
  88 F= -.19206102E+03 E0= -.19196354E+03  d E =-.255483E-02
       N       E                     dE             d eps       ncg     rms          rms(c)
DAV:   1    -0.192063399410E+03   -0.23619E-02   -0.98378E-02  8160   0.691E-01    0.136E-01
DAV:   2    -0.192065675370E+03   -0.22760E-02   -0.71742E-03 12200   0.562E-01    0.442E-01
DAV:   3    -0.192063352377E+03    0.23230E-02   -0.31743E-03 11120   0.481E-01    0.794E-02
DAV:   4    -0.192063415434E+03   -0.63058E-04   -0.44742E-04  8680   0.147E-01
  89 F= -.19206342E+03 E0= -.19196586E+03  d E =-.239313E-02
       N       E                     dE             d eps       ncg     rms          rms(c)
DAV:   1    -0.192068911431E+03   -0.55591E-02   -0.44355E-01  8160   0.142E+00    0.188E-01
DAV:   2    -0.192072524286E+03   -0.36129E-02   -0.14376E-02 13520   0.684E-01    0.562E-01
DAV:   3    -0.192069168043E+03    0.33562E-02   -0.63257E-03 11480   0.636E-01    0.151E-01
DAV:   4    -0.192069120809E+03    0.47234E-04   -0.11293E-03  9920   0.200E-01    0.141E-01
DAV:   5    -0.192069026150E+03    0.94659E-04   -0.76156E-04  8920   0.210E-01
  90 F= -.19206903E+03 E0= -.19197208E+03  d E =-.561072E-02
       N       E                     dE             d eps       ncg     rms          rms(c)
DAV:   1    -0.192073665013E+03   -0.45442E-02   -0.20910E-01  8160   0.101E+00    0.171E-01
DAV:   2    -0.192076399470E+03   -0.27345E-02   -0.10986E-02 12840   0.595E-01    0.483E-01
DAV:   3    -0.192073580518E+03    0.28190E-02   -0.53839E-03 11800   0.547E-01    0.110E-01
DAV:   4    -0.192073703250E+03   -0.12273E-03   -0.76948E-04 10000   0.197E-01    0.153E-01
DAV:   5    -0.192073453838E+03    0.24941E-03   -0.52800E-04  9040   0.192E-01    0.600E-02
DAV:   6    -0.192073433341E+03    0.20498E-04   -0.13562E-04  5840   0.774E-02
  91 F= -.19207343E+03 E0= -.19197616E+03  d E =-.440719E-02
       N       E                     dE             d eps       ncg     rms          rms(c)
DAV:   1    -0.192075891166E+03   -0.24373E-02   -0.10873E-01  8160   0.715E-01    0.122E-01
DAV:   2    -0.192077866763E+03   -0.19756E-02   -0.75281E-03 11000   0.481E-01    0.410E-01
DAV:   3    -0.192075988530E+03    0.18782E-02   -0.34033E-03 10840   0.420E-01    0.799E-02
DAV:   4    -0.192076107051E+03   -0.11852E-03   -0.52944E-04  8320   0.166E-01    0.125E-01
DAV:   5    -0.192075922700E+03    0.18435E-03   -0.30092E-04  8080   0.133E-01    0.267E-02
DAV:   6    -0.192075940875E+03   -0.18175E-04   -0.64642E-05  6280   0.517E-02
  92 F= -.19207594E+03 E0= -.19197844E+03  d E =-.250753E-02
       N       E                     dE             d eps       ncg     rms          rms(c)
DAV:   1    -0.192084040016E+03   -0.81173E-02   -0.60893E-01  8160   0.166E+00    0.197E-01
DAV:   2    -0.192086430334E+03   -0.23903E-02   -0.17724E-02 12480   0.602E-01    0.412E-01
DAV:   3    -0.192084800832E+03    0.16295E-02   -0.56345E-03 11800   0.555E-01    0.207E-01
DAV:   4    -0.192084553858E+03    0.24697E-03   -0.15499E-03  9840   0.260E-01    0.152E-01
DAV:   5    -0.192084436242E+03    0.11762E-03   -0.98981E-04 10040   0.225E-01    0.123E-01
DAV:   6    -0.192084273502E+03    0.16274E-03   -0.43695E-04  8800   0.135E-01    0.485E-02
DAV:   7    -0.192084338101E+03   -0.64599E-04   -0.20539E-04  7520   0.118E-01
  93 F= -.19208434E+03 E0= -.19198729E+03  d E =-.839723E-02
       N       E                     dE             d eps       ncg     rms          rms(c)
DAV:   1    -0.192090170409E+03   -0.58969E-02   -0.31097E-01  8160   0.119E+00    0.142E-01
DAV:   2    -0.192091635850E+03   -0.14654E-02   -0.99013E-03 12160   0.423E-01    0.316E-01
DAV:   3    -0.192090610395E+03    0.10255E-02   -0.29852E-03 11320   0.409E-01    0.136E-01
DAV:   4    -0.192090533070E+03    0.77325E-04   -0.63152E-04  8840   0.167E-01
  94 F= -.19209053E+03 E0= -.19199315E+03  d E =-.619497E-02
       N       E                     dE             d eps       ncg     rms          rms(c)
DAV:   1    -0.192082326075E+03    0.82843E-02   -0.56805E-01  8160   0.164E+00    0.225E-01
DAV:   2    -0.192088535580E+03   -0.62095E-02   -0.25445E-02 13040   0.844E-01    0.731E-01
DAV:   3    -0.192082811165E+03    0.57244E-02   -0.11425E-02 11120   0.778E-01    0.161E-01
DAV:   4    -0.192083096879E+03   -0.28571E-03   -0.19022E-03 10840   0.305E-01    0.230E-01
DAV:   5    -0.192082510987E+03    0.58589E-03   -0.10514E-03  9400   0.245E-01    0.613E-02
DAV:   6    -0.192082579108E+03   -0.68121E-04   -0.32498E-04  8400   0.134E-01
  95 F= -.19208258E+03 E0= -.19198563E+03  d E =0.795396E-02
       N       E                     dE             d eps       ncg     rms          rms(c)
DAV:   1    -0.192075466577E+03    0.70444E-02   -0.52706E-01  8160   0.156E+00    0.230E-01
DAV:   2    -0.192080050812E+03   -0.45842E-02   -0.25069E-02 12320   0.787E-01    0.580E-01
DAV:   3    -0.192076017181E+03    0.40336E-02   -0.93430E-03 12160   0.707E-01    0.146E-01
DAV:   4    -0.192076035303E+03   -0.18123E-04   -0.11369E-03 10680   0.228E-01    0.172E-01
DAV:   5    -0.192075770495E+03    0.26481E-03   -0.77049E-04  9680   0.231E-01    0.932E-02
DAV:   6    -0.192075725864E+03    0.44631E-04   -0.34914E-04  8520   0.115E-01
  96 F= -.19207573E+03 E0= -.19197882E+03  d E =0.685324E-02
       N       E                     dE             d eps       ncg     rms          rms(c)
DAV:   1    -0.192064624964E+03    0.11146E-01   -0.10666E+00  8160   0.221E+00    0.293E-01
DAV:   2    -0.192071125127E+03   -0.65002E-02   -0.38950E-02 12800   0.888E-01    0.727E-01
DAV:   3    -0.192065884099E+03    0.52410E-02   -0.15638E-02 12040   0.869E-01    0.278E-01
DAV:   4    -0.192066125320E+03   -0.24122E-03   -0.40571E-03 11320   0.437E-01    0.324E-01
DAV:   5    -0.192065021243E+03    0.11041E-02   -0.23316E-03 10960   0.365E-01    0.107E-01
DAV:   6    -0.192064970974E+03    0.50269E-04   -0.60917E-04 10240   0.143E-01
  97 F= -.19206497E+03 E0= -.19196829E+03  d E =0.107549E-01
       N       E                     dE             d eps       ncg     rms          rms(c)
DAV:   1    -0.192083605308E+03   -0.18584E-01   -0.29689E+00  8160   0.371E+00    0.498E-01
DAV:   2    -0.192105201422E+03   -0.21596E-01   -0.10749E-01 12640   0.167E+00    0.129E+00
DAV:   3    -0.192085903886E+03    0.19298E-01   -0.37731E-02 12160   0.152E+00    0.379E-01
DAV:   4    -0.192085052885E+03    0.85100E-03   -0.62491E-03 11480   0.491E-01    0.300E-01
DAV:   5    -0.192084363812E+03    0.68907E-03   -0.40958E-03 11440   0.491E-01    0.245E-01
DAV:   6    -0.192083760287E+03    0.60352E-03   -0.22311E-03 11360   0.323E-01    0.119E-01
DAV:   7    -0.192083849775E+03   -0.89488E-04   -0.11801E-03 10560   0.223E-01    0.168E-01
DAV:   8    -0.192083571237E+03    0.27854E-03   -0.55099E-04  8400   0.177E-01    0.431E-02
DAV:   9    -0.192083551998E+03    0.19239E-04   -0.52910E-05  5920   0.402E-02
  98 F= -.19208355E+03 E0= -.19198650E+03  d E =-.185810E-01
       N       E                     dE             d eps       ncg     rms          rms(c)
DAV:   1    -0.192082507193E+03    0.10640E-02   -0.64539E-02  8160   0.556E-01    0.919E-02
DAV:   2    -0.192082943640E+03   -0.43645E-03   -0.31814E-03 12040   0.252E-01    0.196E-01
DAV:   3    -0.192082540751E+03    0.40289E-03   -0.13684E-03 10040   0.267E-01    0.932E-02
DAV:   4    -0.192082529451E+03    0.11300E-04   -0.36292E-04  8080   0.127E-01
  99 F= -.19208253E+03 E0= -.19198548E+03  d E =0.102255E-02
       N       E                     dE             d eps       ncg     rms          rms(c)
DAV:   1    -0.192078070200E+03    0.44706E-02   -0.66600E-01  8160   0.177E+00    0.294E-01
DAV:   2    -0.192081944672E+03   -0.38745E-02   -0.29679E-02 12640   0.754E-01    0.578E-01
DAV:   3    -0.192078123659E+03    0.38210E-02   -0.13306E-02 12360   0.829E-01    0.276E-01
DAV:   4    -0.192077582885E+03    0.54077E-03   -0.28299E-03 10920   0.337E-01    0.209E-01
DAV:   5    -0.192077502482E+03    0.80403E-04   -0.23088E-03 11000   0.354E-01    0.219E-01
DAV:   6    -0.192076997038E+03    0.50544E-03   -0.10297E-03  9480   0.212E-01    0.493E-02
DAV:   7    -0.192076998088E+03   -0.10500E-05   -0.19741E-04  6560   0.821E-02
 100 F= -.19207700E+03 E0= -.19198027E+03  d E =0.553136E-02
