<?xml version="1.0" encoding="ISO-8859-1"?>
<modeling>
 <generator>
  <i name="program" type="string">vasp </i>
  <i name="version" type="string">5.4.1  </i>
  <i name="subversion" type="string">05Feb16 (build Jul 05 2020 17:13:04) complex                          parallel </i>
  <i name="platform" type="string">IFC91_ompi </i>
  <i name="date" type="string">2024 04 25 </i>
  <i name="time" type="string">18:10:51 </i>
 </generator>
 <incar>
  <i type="int" name="ISTART">     0</i>
  <i type="string" name="PREC">normal</i>
  <i type="string" name="ALGO"> Normal</i>
  <i type="int" name="ISPIN">     1</i>
  <i type="int" name="ICHARG">     2</i>
  <i type="int" name="IBRION">     1</i>
  <i type="int" name="NSW">   100</i>
  <i type="int" name="ISIF">     3</i>
  <i type="int" name="ISYM">     0</i>
  <i name="SYMPREC">      0.00000001</i>
  <i name="POTIM">      0.50000000</i>
  <i type="logical" name="LREAL"> F  </i>
  <i type="logical" name="LPLANE"> F  </i>
  <i type="int" name="ISMEAR">     0</i>
  <i type="logical" name="LWAVE"> F  </i>
  <i type="logical" name="LCHARG"> F  </i>
  <v type="int" name="KPOINT_BSE">    -1     0     0     0</v>
 </incar>
 <kpoints>
  <generation param="Gamma">
   <v type="int" name="divisions">       8        8        1 </v>
   <v name="usershift">      0.00000000       0.00000000       0.00000000 </v>
   <v name="genvec1">      0.12500000       0.00000000       0.00000000 </v>
   <v name="genvec2">     -0.00000000       0.12500000       0.00000000 </v>
   <v name="genvec3">      0.00000000       0.00000000       1.00000000 </v>
   <v name="shift">      0.00000000       0.00000000       0.00000000 </v>
  </generation>
  <varray name="kpointlist" >
   <v>       0.00000000       0.00000000       0.00000000 </v>
   <v>       0.12500000       0.00000000       0.00000000 </v>
   <v>       0.25000000       0.00000000       0.00000000 </v>
   <v>       0.37500000       0.00000000       0.00000000 </v>
   <v>       0.50000000       0.00000000       0.00000000 </v>
   <v>       0.00000000       0.12500000       0.00000000 </v>
   <v>       0.12500000       0.12500000       0.00000000 </v>
   <v>       0.25000000       0.12500000       0.00000000 </v>
   <v>       0.37500000       0.12500000       0.00000000 </v>
   <v>       0.50000000       0.12500000       0.00000000 </v>
   <v>      -0.37500000       0.12500000       0.00000000 </v>
   <v>      -0.25000000       0.12500000       0.00000000 </v>
   <v>      -0.12500000       0.12500000       0.00000000 </v>
   <v>       0.00000000       0.25000000       0.00000000 </v>
   <v>       0.12500000       0.25000000       0.00000000 </v>
   <v>       0.25000000       0.25000000       0.00000000 </v>
   <v>       0.37500000       0.25000000       0.00000000 </v>
   <v>       0.50000000       0.25000000       0.00000000 </v>
   <v>      -0.37500000       0.25000000       0.00000000 </v>
   <v>      -0.25000000       0.25000000       0.00000000 </v>
   <v>      -0.12500000       0.25000000       0.00000000 </v>
   <v>      -0.00000000       0.37500000       0.00000000 </v>
   <v>       0.12500000       0.37500000       0.00000000 </v>
   <v>       0.25000000       0.37500000       0.00000000 </v>
   <v>       0.37500000       0.37500000       0.00000000 </v>
   <v>       0.50000000       0.37500000       0.00000000 </v>
   <v>      -0.37500000       0.37500000       0.00000000 </v>
   <v>      -0.25000000       0.37500000       0.00000000 </v>
   <v>      -0.12500000       0.37500000       0.00000000 </v>
   <v>       0.00000000       0.50000000       0.00000000 </v>
   <v>       0.12500000       0.50000000       0.00000000 </v>
   <v>       0.25000000       0.50000000       0.00000000 </v>
   <v>       0.37500000       0.50000000       0.00000000 </v>
   <v>       0.50000000       0.50000000       0.00000000 </v>
  </varray>
  <varray name="weights" >
   <v>       0.01562500 </v>
   <v>       0.03125000 </v>
   <v>       0.03125000 </v>
   <v>       0.03125000 </v>
   <v>       0.01562500 </v>
   <v>       0.03125000 </v>
   <v>       0.03125000 </v>
   <v>       0.03125000 </v>
   <v>       0.03125000 </v>
   <v>       0.03125000 </v>
   <v>       0.03125000 </v>
   <v>       0.03125000 </v>
   <v>       0.03125000 </v>
   <v>       0.03125000 </v>
   <v>       0.03125000 </v>
   <v>       0.03125000 </v>
   <v>       0.03125000 </v>
   <v>       0.03125000 </v>
   <v>       0.03125000 </v>
   <v>       0.03125000 </v>
   <v>       0.03125000 </v>
   <v>       0.03125000 </v>
   <v>       0.03125000 </v>
   <v>       0.03125000 </v>
   <v>       0.03125000 </v>
   <v>       0.03125000 </v>
   <v>       0.03125000 </v>
   <v>       0.03125000 </v>
   <v>       0.03125000 </v>
   <v>       0.01562500 </v>
   <v>       0.03125000 </v>
   <v>       0.03125000 </v>
   <v>       0.03125000 </v>
   <v>       0.01562500 </v>
  </varray>
 </kpoints>
 <parameters>
  <separator name="general" >
   <i type="string" name="SYSTEM">unknown system</i>
   <i type="logical" name="LCOMPAT"> F  </i>
  </separator>
  <separator name="electronic" >
   <i type="string" name="PREC">normal</i>
   <i name="ENMAX">    280.00000000</i>
   <i name="ENAUG">    373.43800000</i>
   <i name="EDIFF">      0.00010000</i>
   <i type="int" name="IALGO">    38</i>
   <i type="int" name="IWAVPR">    11</i>
   <i type="int" name="NBANDS">   120</i>
   <i name="NELECT">    159.00000000</i>
   <i type="int" name="TURBO">     0</i>
   <i type="int" name="IRESTART">     0</i>
   <i type="int" name="NREBOOT">     0</i>
   <i type="int" name="NMIN">     0</i>
   <i name="EREF">      0.00000000</i>
   <separator name="electronic smearing" >
    <i type="int" name="ISMEAR">     0</i>
    <i name="SIGMA">      0.20000000</i>
    <i name="KSPACING">      0.50000000</i>
    <i type="logical" name="KGAMMA"> T  </i>
   </separator>
   <separator name="electronic projectors" >
    <i type="logical" name="LREAL"> F  </i>
    <v name="ROPT">      0.00000000      0.00000000      0.00000000      0.00000000</v>
    <i type="int" name="LMAXPAW">  -100</i>
    <i type="int" name="LMAXMIX">     2</i>
    <i type="logical" name="NLSPLINE"> F  </i>
   </separator>
   <separator name="electronic startup" >
    <i type="int" name="ISTART">     0</i>
    <i type="int" name="ICHARG">     2</i>
    <i type="int" name="INIWAV">     1</i>
   </separator>
   <separator name="electronic spin" >
    <i type="int" name="ISPIN">     1</i>
    <i type="logical" name="LNONCOLLINEAR"> F  </i>
    <v name="MAGMOM">      1.00000000      1.00000000      1.00000000      1.00000000      1.00000000      1.00000000      1.00000000      1.00000000      1.00000000      1.00000000      1.00000000      1.00000000      1.00000000      1.00000000      1.00000000      1.00000000      1.00000000      1.00000000      1.00000000      1.00000000
      1.00000000      1.00000000      1.00000000      1.00000000      1.00000000      1.00000000      1.00000000</v>
    <i name="NUPDOWN">     -1.00000000</i>
    <i type="logical" name="LSORBIT"> F  </i>
    <v name="SAXIS">      0.00000000      0.00000000      1.00000000</v>
    <i type="logical" name="LSPIRAL"> F  </i>
    <v name="QSPIRAL">      0.00000000      0.00000000      0.00000000</v>
    <i type="logical" name="LZEROZ"> F  </i>
   </separator>
   <separator name="electronic exchange-correlation" >
    <i type="logical" name="LASPH"> F  </i>
    <i type="logical" name="LMETAGGA"> F  </i>
   </separator>
   <separator name="electronic convergence" >
    <i type="int" name="NELM">    60</i>
    <i type="int" name="NELMDL">    -5</i>
    <i type="int" name="NELMIN">     2</i>
    <i name="ENINI">    280.00000000</i>
    <separator name="electronic convergence detail" >
     <i type="logical" name="LDIAG"> T  </i>
     <i type="logical" name="LSUBROT"> F  </i>
     <i name="WEIMIN">      0.00100000</i>
     <i name="EBREAK">      0.00000021</i>
     <i name="DEPER">      0.30000000</i>
     <i type="int" name="NRMM">     4</i>
     <i name="TIME">      0.40000000</i>
    </separator>
   </separator>
   <separator name="electronic mixer" >
    <i name="AMIX">      0.40000000</i>
    <i name="BMIX">      1.00000000</i>
    <i name="AMIN">      0.10000000</i>
    <i name="AMIX_MAG">      1.60000000</i>
    <i name="BMIX_MAG">      1.00000000</i>
    <separator name="electronic mixer details" >
     <i type="int" name="IMIX">     4</i>
     <i type="logical" name="MIXFIRST"> F  </i>
     <i type="int" name="MAXMIX">   -45</i>
     <i name="WC">    100.00000000</i>
     <i type="int" name="INIMIX">     1</i>
     <i type="int" name="MIXPRE">     1</i>
     <i type="int" name="MREMOVE">     5</i>
    </separator>
   </separator>
   <separator name="electronic dipolcorrection" >
    <i type="logical" name="LDIPOL"> F  </i>
    <i type="logical" name="LMONO"> F  </i>
    <i type="int" name="IDIPOL">     0</i>
    <i name="EPSILON">      1.00000000</i>
    <v name="DIPOL">   -100.00000000   -100.00000000   -100.00000000</v>
    <i name="EFIELD">      0.00000000</i>
   </separator>
  </separator>
  <separator name="grids" >
   <i type="int" name="NGX">    42</i>
   <i type="int" name="NGY">    42</i>
   <i type="int" name="NGZ">   126</i>
   <i type="int" name="NGXF">    84</i>
   <i type="int" name="NGYF">    84</i>
   <i type="int" name="NGZF">   252</i>
   <i type="logical" name="ADDGRID"> F  </i>
  </separator>
  <separator name="ionic" >
   <i type="int" name="NSW">   100</i>
   <i type="int" name="IBRION">     1</i>
   <i type="int" name="ISIF">     3</i>
   <i name="PSTRESS">      0.00000000</i>
   <i name="EDIFFG">      0.00100000</i>
   <i type="int" name="NFREE">     0</i>
   <i name="POTIM">      0.50000000</i>
   <i name="SMASS">     -3.00000000</i>
   <i name="SCALEE">      1.00000000</i>
  </separator>
  <separator name="ionic md" >
   <i name="TEBEG">      0.00010000</i>
   <i name="TEEND">      0.00010000</i>
   <i type="int" name="NBLOCK">     1</i>
   <i type="int" name="KBLOCK">   100</i>
   <i type="int" name="NPACO">   256</i>
   <i name="APACO">     16.00000000</i>
  </separator>
  <separator name="symmetry" >
   <i type="int" name="ISYM">     0</i>
   <i name="SYMPREC">      0.00000001</i>
  </separator>
  <separator name="dos" >
   <i type="logical" name="LORBIT"> F  </i>
   <v name="RWIGS">     -1.00000000     -1.00000000     -1.00000000     -1.00000000</v>
   <i type="int" name="NEDOS">   301</i>
   <i name="EMIN">     10.00000000</i>
   <i name="EMAX">    -10.00000000</i>
   <i name="EFERMI">      0.00000000</i>
  </separator>
  <separator name="writing" >
   <i type="int" name="NWRITE">     2</i>
   <i type="logical" name="LWAVE"> F  </i>
   <i type="logical" name="LCHARG"> F  </i>
   <i type="logical" name="LPARD"> F  </i>
   <i type="logical" name="LVTOT"> F  </i>
   <i type="logical" name="LVHAR"> F  </i>
   <i type="logical" name="LELF"> F  </i>
   <i type="logical" name="LOPTICS"> F  </i>
   <v name="STM">      0.00000000      0.00000000      0.00000000      0.00000000      0.00000000      0.00000000      0.00000000</v>
  </separator>
  <separator name="performance" >
   <i type="int" name="NPAR">    40</i>
   <i type="int" name="NSIM">     4</i>
   <i type="int" name="NBLK">    -1</i>
   <i type="logical" name="LPLANE"> F  </i>
   <i type="logical" name="LSCALAPACK"> T  </i>
   <i type="logical" name="LSCAAWARE"> F  </i>
   <i type="logical" name="LSCALU"> F  </i>
   <i type="logical" name="LASYNC"> F  </i>
   <i type="logical" name="LORBITALREAL"> F  </i>
  </separator>
  <separator name="miscellaneous" >
   <i type="int" name="IDIOT">     3</i>
   <i type="logical" name="LMUSIC"> F  </i>
   <v name="POMASS">     50.94100000     95.94000000    183.85000000     32.06600000</v>
   <v name="DARWINR">      0.00000000      0.00000000      0.00000000      0.00000000</v>
   <v name="DARWINV">      1.00000000      1.00000000      1.00000000      1.00000000</v>
   <i type="logical" name="LCORR"> T  </i>
  </separator>
  <i type="logical" name="GGA_COMPAT"> T  </i>
  <i type="logical" name="LBERRY"> F  </i>
  <i type="int" name="ICORELEVEL">     0</i>
  <i type="logical" name="LDAU"> F  </i>
  <i type="int" name="I_CONSTRAINED_M">     0</i>
  <separator name="electronic exchange-correlation" >
   <i type="string" name="GGA">--</i>
   <i type="int" name="VOSKOWN">     0</i>
   <i type="logical" name="LHFCALC"> F  </i>
   <i type="string" name="PRECFOCK"></i>
   <i type="logical" name="LSYMGRAD"> F  </i>
   <i type="logical" name="LHFONE"> F  </i>
   <i type="logical" name="LRHFCALC"> F  </i>
   <i type="logical" name="LTHOMAS"> F  </i>
   <i type="logical" name="LMODELHF"> F  </i>
   <i name="ENCUT4O">     -1.00000000</i>
   <i type="int" name="EXXOEP">     0</i>
   <i type="int" name="FOURORBIT">     0</i>
   <i name="AEXX">      0.00000000</i>
   <i name="HFALPHA">      0.00000000</i>
   <i name="MCALPHA">      0.00000000</i>
   <i name="ALDAX">      1.00000000</i>
   <i name="AGGAX">      1.00000000</i>
   <i name="ALDAC">      1.00000000</i>
   <i name="AGGAC">      1.00000000</i>
   <i type="int" name="NKREDX">     1</i>
   <i type="int" name="NKREDY">     1</i>
   <i type="int" name="NKREDZ">     1</i>
   <i type="logical" name="SHIFTRED"> F  </i>
   <i type="logical" name="ODDONLY"> F  </i>
   <i type="logical" name="EVENONLY"> F  </i>
   <i type="int" name="LMAXFOCK">     0</i>
   <i type="int" name="NMAXFOCKAE">     0</i>
   <i type="logical" name="LFOCKAEDFT"> F  </i>
   <i name="HFSCREEN">      0.00000000</i>
   <i name="HFSCREENC">      0.00000000</i>
   <i type="int" name="NBANDSGWLOW">     0</i>
  </separator>
  <separator name="vdW DFT" >
   <i type="logical" name="LUSE_VDW"> F  </i>
   <i name="Zab_VDW">     -0.84910000</i>
   <i name="PARAM1">      0.12340000</i>
   <i name="PARAM2">      1.00000000</i>
   <i name="PARAM3">      0.00000000</i>
  </separator>
  <separator name="model GW" >
   <i type="int" name="MODEL_GW">     0</i>
   <i name="MODEL_EPS0">     58.26239943</i>
   <i name="MODEL_ALPHA">      1.00000000</i>
  </separator>
  <separator name="linear response parameters" >
   <i type="logical" name="LEPSILON"> F  </i>
   <i type="logical" name="LRPA"> F  </i>
   <i type="logical" name="LNABLA"> F  </i>
   <i type="logical" name="LVEL"> F  </i>
   <i type="int" name="KINTER">     0</i>
   <i name="CSHIFT">      0.10000000</i>
   <i name="OMEGAMAX">     -1.00000000</i>
   <i name="DEG_THRESHOLD">      0.00200000</i>
  </separator>
  <separator name="orbital magnetization" >
   <i type="logical" name="NUCIND"> F  </i>
   <v name="MAGPOS">      0.00000000      0.00000000      0.00000000</v>
   <i type="logical" name="LNICSALL"> T  </i>
   <i type="logical" name="ORBITALMAG"> F  </i>
   <i type="logical" name="LMAGBLOCH"> F  </i>
   <i type="logical" name="LCHIMAG"> F  </i>
   <i type="logical" name="LGAUGE"> T  </i>
   <i type="int" name="MAGATOM">     0</i>
   <v name="MAGDIPOL">      0.00000000      0.00000000      0.00000000</v>
   <v name="AVECCONST">      0.00000000      0.00000000      0.00000000</v>
  </separator>
  <separator name="response functions" >
   <i type="logical" name="LADDER"> F  </i>
   <i type="logical" name="LFXC"> F  </i>
   <i type="logical" name="LHARTREE"> T  </i>
   <i type="int" name="IBSE">     0</i>
   <v type="int" name="KPOINT">    -1     0     0     0</v>
   <i type="logical" name="LTCTE"> F  </i>
   <i type="logical" name="LTETE"> F  </i>
   <i type="logical" name="LTRIPLET"> F  </i>
   <i type="logical" name="LFXCEPS"> F  </i>
   <i type="logical" name="LFXHEG"> F  </i>
   <i type="int" name="NATURALO">     0</i>
   <i type="logical" name="L2ORDER"> F  </i>
   <i type="logical" name="LUSEW"> F  </i>
   <i name="ENCUTGW">     -2.00000000</i>
   <i name="ENCUTGWSOFT">     -2.00000000</i>
   <i name="ENCUTLF">     -1.00000000</i>
   <i type="int" name="LMAXMP2">    -1</i>
   <i name="SCISSOR">      0.00000000</i>
   <i type="int" name="NOMEGA">     0</i>
   <i type="int" name="NOMEGAR">     0</i>
   <i type="int" name="NBANDSGW">    -1</i>
   <i type="int" name="NBANDSO">    -1</i>
   <i type="int" name="NBANDSV">    -1</i>
   <i type="int" name="NELM">     1</i>
   <i type="int" name="NELMHF">     1</i>
   <i type="int" name="DIM">     3</i>
   <i type="int" name="ANTIRES">     0</i>
   <i name="OMEGAMAX">    -30.00000000</i>
   <i name="OMEGAMIN">    -30.00000000</i>
   <i name="OMEGATL">   -200.00000000</i>
   <i type="int" name="OMEGAGRID">     0</i>
   <i name="CSHIFT">     -0.10000000</i>
   <i type="logical" name="SELFENERGY"> F  </i>
   <i type="logical" name="LSPECTRAL"> F  </i>
   <i type="logical" name="LSPECTRALGW"> F  </i>
   <i type="logical" name="LSINGLES"> F  </i>
   <i type="logical" name="LFERMIGW"> F  </i>
   <i type="logical" name="ODDONLYGW"> F  </i>
   <i type="logical" name="EVENONLYGW"> F  </i>
   <i type="int" name="NKREDLFX">     1</i>
   <i type="int" name="NKREDLFY">     1</i>
   <i type="int" name="NKREDLFZ">     1</i>
   <i type="int" name="MAXMEM">  1800</i>
   <i type="int" name="TELESCOPE">     0</i>
   <i type="int" name="TAUPAR">     1</i>
   <i type="int" name="OMEGAPAR">    -1</i>
   <i name="LAMBDA">      1.00000000</i>
  </separator>
  <separator name="External order field" >
   <i name="OFIELD_KAPPA">      0.00000000</i>
   <v name="OFIELD_K">      0.00000000      0.00000000      0.00000000</v>
   <i name="OFIELD_Q6_NEAR">      0.00000000</i>
   <i name="OFIELD_Q6_FAR">      0.00000000</i>
   <i name="OFIELD_A">      0.00000000</i>
  </separator>
 </parameters>
 <atominfo>
  <atoms>      27 </atoms>
  <types>       4 </types>
  <array name="atoms" >
   <dimension dim="1">ion</dimension>
   <field type="string">element</field>
   <field type="int">atomtype</field>
   <set>
    <rc><c>V </c><c>   1</c></rc>
    <rc><c>V </c><c>   1</c></rc>
    <rc><c>V </c><c>   1</c></rc>
    <rc><c>Mo</c><c>   2</c></rc>
    <rc><c>Mo</c><c>   2</c></rc>
    <rc><c>Mo</c><c>   2</c></rc>
    <rc><c>W </c><c>   3</c></rc>
    <rc><c>W </c><c>   3</c></rc>
    <rc><c>W </c><c>   3</c></rc>
    <rc><c>S </c><c>   4</c></rc>
    <rc><c>S </c><c>   4</c></rc>
    <rc><c>S </c><c>   4</c></rc>
    <rc><c>S </c><c>   4</c></rc>
    <rc><c>S </c><c>   4</c></rc>
    <rc><c>S </c><c>   4</c></rc>
    <rc><c>S </c><c>   4</c></rc>
    <rc><c>S </c><c>   4</c></rc>
    <rc><c>S </c><c>   4</c></rc>
    <rc><c>S </c><c>   4</c></rc>
    <rc><c>S </c><c>   4</c></rc>
    <rc><c>S </c><c>   4</c></rc>
    <rc><c>S </c><c>   4</c></rc>
    <rc><c>S </c><c>   4</c></rc>
    <rc><c>S </c><c>   4</c></rc>
    <rc><c>S </c><c>   4</c></rc>
    <rc><c>S </c><c>   4</c></rc>
    <rc><c>S </c><c>   4</c></rc>
   </set>
  </array>
  <array name="atomtypes" >
   <dimension dim="1">type</dimension>
   <field type="int">atomspertype</field>
   <field type="string">element</field>
   <field>mass</field>
   <field>valence</field>
   <field type="string">pseudopotential</field>
   <set>
    <rc><c>   3</c><c>V </c><c>     50.94100000</c><c>      5.00000000</c><c> PAW_PBE V 08Apr2002                    </c></rc>
    <rc><c>   3</c><c>Mo</c><c>     95.94000000</c><c>      6.00000000</c><c> PAW_PBE Mo 08Apr2002                   </c></rc>
    <rc><c>   3</c><c>W </c><c>    183.85000000</c><c>      6.00000000</c><c> PAW_PBE W 08Apr2002                    </c></rc>
    <rc><c>  18</c><c>S </c><c>     32.06600000</c><c>      6.00000000</c><c>  PAW_PBE S 17Jan2003                   </c></rc>
   </set>
  </array>
 </atominfo>
 <structure name="initialpos" >
  <crystal>
   <varray name="basis" >
    <v>       8.66999996       5.03999989       0.00000000 </v>
    <v>      -8.66999982       5.04000013       0.00000000 </v>
    <v>       0.00000000       0.00000000      30.00000000 </v>
   </varray>
   <i name="volume">   2621.80797419 </i>
   <varray name="rec_basis" >
    <v>       0.05767013       0.09920635       0.00000000 </v>
    <v>      -0.05767013       0.09920635       0.00000000 </v>
    <v>       0.00000000       0.00000000       0.03333333 </v>
   </varray>
  </crystal>
  <varray name="positions" >
   <v>       0.33333334       0.33333334       0.00000000 </v>
   <v>       0.33333334       0.66666669       0.00000000 </v>
   <v>       0.33333334       0.00000000       0.00000000 </v>
   <v>       0.66666669       0.00000000       0.00000000 </v>
   <v>       0.66666669       0.33333334       0.00000000 </v>
   <v>       1.00000000       0.33333334       0.00000000 </v>
   <v>       0.00000000       0.00000000       0.00000000 </v>
   <v>       0.00000000       0.66666669       0.00000000 </v>
   <v>       0.66666669       0.66666669       0.00000000 </v>
   <v>       0.11068511       0.22244981       0.95539999 </v>
   <v>       0.22244981       0.11068511       0.04460000 </v>
   <v>       0.11068511       0.55578315       0.95539999 </v>
   <v>       0.22244981       0.44401845       0.04460000 </v>
   <v>       0.11068511       0.88911647       0.95539999 </v>
   <v>       0.22244981       0.77735180       0.04460000 </v>
   <v>       0.44401845       0.22244981       0.95539999 </v>
   <v>       0.55578315       0.11068511       0.04460000 </v>
   <v>       0.44401845       0.55578315       0.95539999 </v>
   <v>       0.55578315       0.44401845       0.04460000 </v>
   <v>       0.44401845       0.88911647       0.95539999 </v>
   <v>       0.55578315       0.77735180       0.04460000 </v>
   <v>       0.77735180       0.22244981       0.95539999 </v>
   <v>       0.88911647       0.11068511       0.04460000 </v>
   <v>       0.77735180       0.55578315       0.95539999 </v>
   <v>       0.88911647       0.44401845       0.04460000 </v>
   <v>       0.77735180       0.88911647       0.95539999 </v>
   <v>       0.88911647       0.77735180       0.04460000 </v>
  </varray>
 </structure>
 <calculation>
  <scstep>
   <time name="dav">   22.09   22.16</time>
   <time name="total">   22.13   22.21</time>
   <energy>
    <i name="alphaZ">     81.65567618 </i>
    <i name="ewald">  41891.19379416 </i>
    <i name="hartreedc"> -47723.83914466 </i>
    <i name="XCdc">   -242.92452213 </i>
    <i name="pawpsdc">   3467.42045192 </i>
    <i name="pawaedc">  -2871.19716117 </i>
    <i name="eentropy">     -0.53182265 </i>
    <i name="bandstr">   -239.12927239 </i>
    <i name="atom">   6761.44252427 </i>
    <i name="e_fr_energy">   1124.09052353 </i>
    <i name="e_wo_entrp">   1124.62234618 </i>
    <i name="e_0_energy">   1124.35643486 </i>
   </energy>
  </scstep>
  <scstep>
   <time name="dav">   28.50   28.57</time>
   <time name="total">   28.50   28.58</time>
   <energy>
    <i name="e_fr_energy">     -2.69296954 </i>
    <i name="e_wo_entrp">     -2.48885902 </i>
    <i name="e_0_energy">     -2.59091428 </i>
   </energy>
  </scstep>
  <scstep>
   <time name="dav">   28.18   28.25</time>
   <time name="total">   28.18   28.26</time>
   <energy>
    <i name="e_fr_energy">   -199.94571522 </i>
    <i name="e_wo_entrp">   -199.67600758 </i>
    <i name="e_0_energy">   -199.81086140 </i>
   </energy>
  </scstep>
  <scstep>
   <time name="dav">   30.25   30.32</time>
   <time name="total">   30.25   30.33</time>
   <energy>
    <i name="e_fr_energy">   -209.01848335 </i>
    <i name="e_wo_entrp">   -208.74062605 </i>
    <i name="e_0_energy">   -208.87955470 </i>
   </energy>
  </scstep>
  <scstep>
   <time name="dav">   28.77   28.84</time>
   <time name="total">   29.24   29.32</time>
   <energy>
    <i name="e_fr_energy">   -209.35401485 </i>
    <i name="e_wo_entrp">   -209.07901604 </i>
    <i name="e_0_energy">   -209.21651545 </i>
   </energy>
  </scstep>
  <scstep>
   <time name="dav">   31.36   31.43</time>
   <time name="total">   31.86   31.95</time>
   <energy>
    <i name="e_fr_energy">   -240.93748369 </i>
    <i name="e_wo_entrp">   -240.66266386 </i>
    <i name="e_0_energy">   -240.80007377 </i>
   </energy>
  </scstep>
  <scstep>
   <time name="dav">   32.89   32.97</time>
   <time name="total">   33.40   33.49</time>
   <energy>
    <i name="e_fr_energy">   -196.27029100 </i>
    <i name="e_wo_entrp">   -195.93938854 </i>
    <i name="e_0_energy">   -196.10483977 </i>
   </energy>
  </scstep>
  <scstep>
   <time name="dav">   30.55   30.63</time>
   <time name="total">   31.08   31.16</time>
   <energy>
    <i name="e_fr_energy">   -189.53136057 </i>
    <i name="e_wo_entrp">   -189.19437155 </i>
    <i name="e_0_energy">   -189.36286606 </i>
   </energy>
  </scstep>
  <scstep>
   <time name="dav">   31.56   31.64</time>
   <time name="total">   32.09   32.17</time>
   <energy>
    <i name="e_fr_energy">   -188.08281159 </i>
    <i name="e_wo_entrp">   -187.73723309 </i>
    <i name="e_0_energy">   -187.91002234 </i>
   </energy>
  </scstep>
  <scstep>
   <time name="dav">   33.29   33.37</time>
   <time name="total">   33.83   33.92</time>
   <energy>
    <i name="e_fr_energy">   -186.92915301 </i>
    <i name="e_wo_entrp">   -186.57532763 </i>
    <i name="e_0_energy">   -186.75224032 </i>
   </energy>
  </scstep>
  <scstep>
   <time name="dav">   32.97   33.05</time>
   <time name="total">   33.51   33.59</time>
   <energy>
    <i name="e_fr_energy">   -187.07603237 </i>
    <i name="e_wo_entrp">   -186.73698109 </i>
    <i name="e_0_energy">   -186.90650673 </i>
   </energy>
  </scstep>
  <scstep>
   <time name="dav">   32.11   32.19</time>
   <time name="total">   32.65   32.74</time>
   <energy>
    <i name="e_fr_energy">   -186.92415832 </i>
    <i name="e_wo_entrp">   -186.58346363 </i>
    <i name="e_0_energy">   -186.75381098 </i>
   </energy>
  </scstep>
  <scstep>
   <time name="dav">   32.49   32.56</time>
   <time name="total">   33.03   33.11</time>
   <energy>
    <i name="e_fr_energy">   -186.85480981 </i>
    <i name="e_wo_entrp">   -186.51040563 </i>
    <i name="e_0_energy">   -186.68260772 </i>
   </energy>
  </scstep>
  <scstep>
   <time name="dav">   32.07   32.15</time>
   <time name="total">   32.62   32.72</time>
   <energy>
    <i name="e_fr_energy">   -186.84297658 </i>
    <i name="e_wo_entrp">   -186.49678692 </i>
    <i name="e_0_energy">   -186.66988175 </i>
   </energy>
  </scstep>
  <scstep>
   <time name="dav">   32.60   32.68</time>
   <time name="total">   33.14   33.23</time>
   <energy>
    <i name="e_fr_energy">   -186.82966781 </i>
    <i name="e_wo_entrp">   -186.48257985 </i>
    <i name="e_0_energy">   -186.65612383 </i>
   </energy>
  </scstep>
  <scstep>
   <time name="dav">   30.67   30.75</time>
   <time name="total">   31.21   31.29</time>
   <energy>
    <i name="e_fr_energy">   -186.82745148 </i>
    <i name="e_wo_entrp">   -186.48081661 </i>
    <i name="e_0_energy">   -186.65413404 </i>
   </energy>
  </scstep>
  <scstep>
   <time name="dav">   31.65   31.73</time>
   <time name="total">   32.19   32.28</time>
   <energy>
    <i name="e_fr_energy">   -186.82612835 </i>
    <i name="e_wo_entrp">   -186.48030934 </i>
    <i name="e_0_energy">   -186.65321884 </i>
   </energy>
  </scstep>
  <scstep>
   <time name="dav">   31.73   31.81</time>
   <time name="total">   32.27   32.36</time>
   <energy>
    <i name="e_fr_energy">   -186.82563019 </i>
    <i name="e_wo_entrp">   -186.47939887 </i>
    <i name="e_0_energy">   -186.65251453 </i>
   </energy>
  </scstep>
  <scstep>
   <time name="dav">   27.02   27.08</time>
   <time name="total">   27.56   27.63</time>
   <energy>
    <i name="e_fr_energy">   -186.82627870 </i>
    <i name="e_wo_entrp">   -186.48045256 </i>
    <i name="e_0_energy">   -186.65336563 </i>
   </energy>
  </scstep>
  <scstep>
   <time name="dav">   21.15   21.20</time>
   <time name="total">   21.69   21.75</time>
   <energy>
    <i name="e_fr_energy">   -186.82674530 </i>
    <i name="e_wo_entrp">   -186.48098394 </i>
    <i name="e_0_energy">   -186.65386462 </i>
   </energy>
  </scstep>
  <scstep>
   <time name="dav">   20.77   20.82</time>
   <time name="total">   21.31   21.37</time>
   <energy>
    <i name="e_fr_energy">   -186.82780834 </i>
    <i name="e_wo_entrp">   -186.48199237 </i>
    <i name="e_0_energy">   -186.65490035 </i>
   </energy>
  </scstep>
  <scstep>
   <time name="dav">   21.95   22.00</time>
   <time name="total">   22.49   22.55</time>
   <energy>
    <i name="e_fr_energy">   -186.82891046 </i>
    <i name="e_wo_entrp">   -186.48307380 </i>
    <i name="e_0_energy">   -186.65599213 </i>
   </energy>
  </scstep>
  <scstep>
   <time name="dav">   18.31   18.36</time>
   <time name="total">   18.85   18.91</time>
   <energy>
    <i name="e_fr_energy">   -186.82937086 </i>
    <i name="e_wo_entrp">   -186.48353550 </i>
    <i name="e_0_energy">   -186.65645318 </i>
   </energy>
  </scstep>
  <scstep>
   <time name="dav">   20.04   20.09</time>
   <time name="total">   20.59   20.64</time>
   <energy>
    <i name="e_fr_energy">   -186.83001295 </i>
    <i name="e_wo_entrp">   -186.48417552 </i>
    <i name="e_0_energy">   -186.65709423 </i>
   </energy>
  </scstep>
  <scstep>
   <time name="dav">   18.44   18.48</time>
   <time name="total">   18.98   19.03</time>
   <energy>
    <i name="e_fr_energy">   -186.83036364 </i>
    <i name="e_wo_entrp">   -186.48451284 </i>
    <i name="e_0_energy">   -186.65743824 </i>
   </energy>
  </scstep>
  <scstep>
   <time name="dav">   19.39   19.44</time>
   <time name="total">   19.93   19.99</time>
   <energy>
    <i name="e_fr_energy">   -186.83060780 </i>
    <i name="e_wo_entrp">   -186.48476815 </i>
    <i name="e_0_energy">   -186.65768797 </i>
   </energy>
  </scstep>
  <scstep>
   <time name="dav">   21.26   21.31</time>
   <time name="total">   21.29   21.35</time>
   <energy>
    <i name="alphaZ">     81.65567618 </i>
    <i name="ewald">  41891.19379416 </i>
    <i name="hartreedc"> -47833.69799664 </i>
    <i name="XCdc">   -231.60753982 </i>
    <i name="pawpsdc">   4192.07307644 </i>
    <i name="pawaedc">  -3610.07342039 </i>
    <i name="eentropy">     -0.34583929 </i>
    <i name="bandstr">  -1437.47095185 </i>
    <i name="atom">   6761.44252427 </i>
    <i name="e_fr_energy">   -186.83067694 </i>
    <i name="e_wo_entrp">   -186.48483766 </i>
    <i name="e_0_energy">   -186.65775730 </i>
   </energy>
  </scstep>
  <structure>
   <crystal>
    <varray name="basis" >
     <v>       8.66999996       5.03999989       0.00000000 </v>
     <v>      -8.66999982       5.04000013       0.00000000 </v>
     <v>       0.00000000       0.00000000      30.00000000 </v>
    </varray>
    <i name="volume">   2621.80797419 </i>
    <varray name="rec_basis" >
     <v>       0.05767013       0.09920635       0.00000000 </v>
     <v>      -0.05767013       0.09920635       0.00000000 </v>
     <v>       0.00000000       0.00000000       0.03333333 </v>
    </varray>
   </crystal>
   <varray name="positions" >
    <v>       0.33333334       0.33333334       0.00000000 </v>
    <v>       0.33333334       0.66666669       0.00000000 </v>
    <v>       0.33333334       0.00000000       0.00000000 </v>
    <v>       0.66666669       0.00000000       0.00000000 </v>
    <v>       0.66666669       0.33333334       0.00000000 </v>
    <v>       1.00000000       0.33333334       0.00000000 </v>
    <v>       0.00000000       0.00000000       0.00000000 </v>
    <v>       0.00000000       0.66666669       0.00000000 </v>
    <v>       0.66666669       0.66666669       0.00000000 </v>
    <v>       0.11068511       0.22244981       0.95539999 </v>
    <v>       0.22244981       0.11068511       0.04460000 </v>
    <v>       0.11068511       0.55578315       0.95539999 </v>
    <v>       0.22244981       0.44401845       0.04460000 </v>
    <v>       0.11068511       0.88911647       0.95539999 </v>
    <v>       0.22244981       0.77735180       0.04460000 </v>
    <v>       0.44401845       0.22244981       0.95539999 </v>
    <v>       0.55578315       0.11068511       0.04460000 </v>
    <v>       0.44401845       0.55578315       0.95539999 </v>
    <v>       0.55578315       0.44401845       0.04460000 </v>
    <v>       0.44401845       0.88911647       0.95539999 </v>
    <v>       0.55578315       0.77735180       0.04460000 </v>
    <v>       0.77735180       0.22244981       0.95539999 </v>
    <v>       0.88911647       0.11068511       0.04460000 </v>
    <v>       0.77735180       0.55578315       0.95539999 </v>
    <v>       0.88911647       0.44401845       0.04460000 </v>
    <v>       0.77735180       0.88911647       0.95539999 </v>
    <v>       0.88911647       0.77735180       0.04460000 </v>
   </varray>
  </structure>
  <varray name="forces" >
   <v>      -0.00952678      -0.01225399       0.02781934 </v>
   <v>      -0.00951539      -0.01353865       0.02644173 </v>
   <v>       0.22841769       0.37878560      -0.05663624 </v>
   <v>      -0.27833218       0.39420703      -0.13237724 </v>
   <v>       0.49876493      -0.02929171      -0.13698145 </v>
   <v>      -0.23618209      -0.39449099       0.17381688 </v>
   <v>      -0.51528181       0.07619591       0.12011777 </v>
   <v>       0.34375038      -0.39841859       0.11422145 </v>
   <v>      -0.05078023      -0.07558364      -0.09177566 </v>
   <v>       0.62457904       0.56078747      -2.14827079 </v>
   <v>       0.23847192       0.52253127       1.41200239 </v>
   <v>       0.37352449       0.71133568      -2.15649989 </v>
   <v>       0.32543140       0.66870990       1.38126213 </v>
   <v>       0.46531128       0.56646250      -2.09358910 </v>
   <v>       0.23827895       0.52151468       1.41523942 </v>
   <v>      -0.31606391      -0.66796843      -1.40576205 </v>
   <v>      -0.53500028      -0.70533806       2.16717208 </v>
   <v>      -0.23319061      -0.51534682      -1.43260929 </v>
   <v>      -0.61416035      -0.54733103       2.10521550 </v>
   <v>      -0.32608621      -0.66058761      -1.40909418 </v>
   <v>      -0.37047892      -0.69265675       2.11340015 </v>
   <v>       0.09609828      -0.03153320      -2.94197107 </v>
   <v>       0.06988256       0.03647269       2.92930330 </v>
   <v>       0.02867411       0.10621397      -2.91879707 </v>
   <v>      -0.18810511       0.19026491       2.92746849 </v>
   <v>       0.26060704      -0.03262010      -2.91561060 </v>
   <v>      -0.10908819       0.04347798       2.92649401 </v>
  </varray>
  <varray name="stress" >
   <v>       7.27062558       0.13421512      -1.56551694 </v>
   <v>       0.13421500       4.50430072       0.00062525 </v>
   <v>      -1.56551688       0.00062526      30.31226567 </v>
  </varray>
  <energy>
   <i name="e_fr_energy">   -186.83067694 </i>
   <i name="e_wo_entrp">   -186.65775730 </i>
   <i name="e_0_energy">     -0.34583929 </i>
  </energy>
  <time name="totalsc">  796.17  798.33</time>
 </calculation>
 <calculation>
  <scstep>
   <time name="dav">   22.03   22.09</time>
   <time name="total">   22.58   22.64</time>
   <energy>
    <i name="alphaZ">     78.91662636 </i>
    <i name="ewald">  39376.57850462 </i>
    <i name="hartreedc"> -45333.84229966 </i>
    <i name="XCdc">   -239.07969409 </i>
    <i name="pawpsdc">   4192.05022919 </i>
    <i name="pawaedc">  -3610.05093219 </i>
    <i name="eentropy">     -0.28810217 </i>
    <i name="bandstr">  -1413.24927223 </i>
    <i name="atom">   6761.44252427 </i>
    <i name="e_fr_energy">   -187.52241589 </i>
    <i name="e_wo_entrp">   -187.23431373 </i>
    <i name="e_0_energy">   -187.37836481 </i>
   </energy>
  </scstep>
  <scstep>
   <time name="dav">   30.75   30.82</time>
   <time name="total">   31.28   31.37</time>
   <energy>
    <i name="e_fr_energy">   -189.50759897 </i>
    <i name="e_wo_entrp">   -189.18104963 </i>
    <i name="e_0_energy">   -189.34432430 </i>
   </energy>
  </scstep>
  <scstep>
   <time name="dav">   31.24   31.31</time>
   <time name="total">   31.80   31.88</time>
   <energy>
    <i name="e_fr_energy">   -189.34960413 </i>
    <i name="e_wo_entrp">   -189.07509691 </i>
    <i name="e_0_energy">   -189.21235052 </i>
   </energy>
  </scstep>
  <scstep>
   <time name="dav">   31.81   31.88</time>
   <time name="total">   32.35   32.44</time>
   <energy>
    <i name="e_fr_energy">   -188.77270263 </i>
    <i name="e_wo_entrp">   -188.48615660 </i>
    <i name="e_0_energy">   -188.62942961 </i>
   </energy>
  </scstep>
  <scstep>
   <time name="dav">   26.91   26.98</time>
   <time name="total">   27.46   27.53</time>
   <energy>
    <i name="e_fr_energy">   -188.73060205 </i>
    <i name="e_wo_entrp">   -188.44423788 </i>
    <i name="e_0_energy">   -188.58741996 </i>
   </energy>
  </scstep>
  <scstep>
   <time name="dav">   32.91   32.99</time>
   <time name="total">   33.46   33.55</time>
   <energy>
    <i name="e_fr_energy">   -188.77932083 </i>
    <i name="e_wo_entrp">   -188.49031017 </i>
    <i name="e_0_energy">   -188.63481550 </i>
   </energy>
  </scstep>
  <scstep>
   <time name="dav">   31.80   31.87</time>
   <time name="total">   32.34   32.43</time>
   <energy>
    <i name="e_fr_energy">   -188.71217125 </i>
    <i name="e_wo_entrp">   -188.42578814 </i>
    <i name="e_0_energy">   -188.56897969 </i>
   </energy>
  </scstep>
  <scstep>
   <time name="dav">   29.03   29.10</time>
   <time name="total">   29.58   29.65</time>
   <energy>
    <i name="e_fr_energy">   -188.68891379 </i>
    <i name="e_wo_entrp">   -188.40336560 </i>
    <i name="e_0_energy">   -188.54613970 </i>
   </energy>
  </scstep>
  <scstep>
   <time name="dav">   31.30   31.37</time>
   <time name="total">   31.84   31.93</time>
   <energy>
    <i name="e_fr_energy">   -188.68992913 </i>
    <i name="e_wo_entrp">   -188.40460143 </i>
    <i name="e_0_energy">   -188.54726528 </i>
   </energy>
  </scstep>
  <scstep>
   <time name="dav">   32.51   32.59</time>
   <time name="total">   33.06   33.15</time>
   <energy>
    <i name="e_fr_energy">   -188.68783393 </i>
    <i name="e_wo_entrp">   -188.40290799 </i>
    <i name="e_0_energy">   -188.54537096 </i>
   </energy>
  </scstep>
  <scstep>
   <time name="dav">   29.19   29.26</time>
   <time name="total">   29.74   29.82</time>
   <energy>
    <i name="e_fr_energy">   -188.68735022 </i>
    <i name="e_wo_entrp">   -188.40264457 </i>
    <i name="e_0_energy">   -188.54499739 </i>
   </energy>
  </scstep>
  <scstep>
   <time name="dav">   26.09   26.15</time>
   <time name="total">   26.12   26.20</time>
   <energy>
    <i name="alphaZ">     78.91662636 </i>
    <i name="ewald">  39376.57850462 </i>
    <i name="hartreedc"> -45344.81681145 </i>
    <i name="XCdc">   -237.98147577 </i>
    <i name="pawpsdc">   3950.91114144 </i>
    <i name="pawaedc">  -3365.42414630 </i>
    <i name="eentropy">     -0.28471239 </i>
    <i name="bandstr">  -1408.02908581 </i>
    <i name="atom">   6761.44252427 </i>
    <i name="e_fr_energy">   -188.68743503 </i>
    <i name="e_wo_entrp">   -188.40272264 </i>
    <i name="e_0_energy">   -188.54507884 </i>
   </energy>
  </scstep>
  <structure>
   <crystal>
    <varray name="basis" >
     <v>       8.85628767       5.10977893       0.00000000 </v>
     <v>      -8.85233187       5.10297449       0.00000000 </v>
     <v>       0.00000000       0.00000000      30.00000000 </v>
    </varray>
    <i name="volume">   2712.80606891 </i>
    <varray name="rec_basis" >
     <v>       0.05643206       0.09789493       0.00000000 </v>
     <v>      -0.05650731       0.09793867       0.00000000 </v>
     <v>       0.00000000       0.00000000       0.03333333 </v>
    </varray>
   </crystal>
   <varray name="positions" >
    <v>       0.33324819       0.33330120       0.00004474 </v>
    <v>       0.33324207       0.66662836       0.00004252 </v>
    <v>       0.33578170       0.00117736      -0.00009108 </v>
    <v>       0.66777899       0.00266103      -0.00021287 </v>
    <v>       0.66791414       0.33180551      -0.00022028 </v>
    <v>       0.99745488       0.33210241       0.00027951 </v>
    <v>      -0.00106892       0.00179827       0.00019316 </v>
    <v>      -0.00095045       0.66380350       0.00018368 </v>
    <v>       0.66616367       0.66644622      -0.00014758 </v>
    <v>       0.11510671       0.22339605       0.95194538 </v>
    <v>       0.22561410       0.11252247       0.04687062 </v>
    <v>       0.11512875       0.55814838       0.95193215 </v>
    <v>       0.22655564       0.44631348       0.04682119 </v>
    <v>       0.11469076       0.89053297       0.95203331 </v>
    <v>       0.22560870       0.77918482       0.04687583 </v>
    <v>       0.43994223       0.22013227       0.95313940 </v>
    <v>       0.55091896       0.10879783       0.04808500 </v>
    <v>       0.44090324       0.55396549       0.95309623 </v>
    <v>       0.55145495       0.44310763       0.04798537 </v>
    <v>       0.43994967       0.88686213       0.95313404 </v>
    <v>       0.55143738       0.77506749       0.04799853 </v>
    <v>       0.77746824       0.22203153       0.95066904 </v>
    <v>       0.88948545       0.11066524       0.04931058 </v>
    <v>       0.77793991       0.55621171       0.95070631 </v>
    <v>       0.88950373       0.44545240       0.04930763 </v>
    <v>       0.77792073       0.88823530       0.95071143 </v>
    <v>       0.88902105       0.77786338       0.04930606 </v>
   </varray>
  </structure>
  <varray name="forces" >
   <v>      -0.00659706      -0.00076631       0.08964271 </v>
   <v>       0.00257984      -0.00460406       0.08909636 </v>
   <v>       0.18195607       0.32015332      -0.11077660 </v>
   <v>      -0.09221271       0.58679578      -0.03319813 </v>
   <v>       0.55602797       0.20861408      -0.03715118 </v>
   <v>      -0.32258892      -0.55889299       0.02205329 </v>
   <v>      -0.53117434      -0.10733499      -0.07237250 </v>
   <v>       0.17843179      -0.51727921      -0.07829178 </v>
   <v>       0.07172006       0.13696605       0.08887214 </v>
   <v>       0.06438989      -0.05004523       0.07232670 </v>
   <v>      -0.06083634      -0.06802840      -0.14139705 </v>
   <v>      -0.09635348       0.04139732       0.07190992 </v>
   <v>       0.00611595       0.03743393      -0.13759006 </v>
   <v>      -0.06336384      -0.08055700       0.38506394 </v>
   <v>      -0.04959752      -0.07170388      -0.13550674 </v>
   <v>       0.00243609      -0.04303930       0.05920485 </v>
   <v>      -0.02980103      -0.07108686       0.11747437 </v>
   <v>       0.05127219       0.06161268       0.04817895 </v>
   <v>      -0.06407290       0.05204029      -0.17060554 </v>
   <v>      -0.01497342      -0.03419062       0.05439740 </v>
   <v>       0.09678685      -0.03849705      -0.17123826 </v>
   <v>       0.00076237       0.00919858      -0.40040868 </v>
   <v>       0.11311572      -0.00526891       0.28544767 </v>
   <v>      -0.06074413       0.09487845      -0.03333320 </v>
   <v>      -0.04853525       0.08754491       0.29324430 </v>
   <v>       0.09555556       0.00535843      -0.04081738 </v>
   <v>       0.01970061       0.00930099      -0.11422552 </v>
  </varray>
  <varray name="stress" >
   <v>     -19.94407455      -0.04592976      -0.00215941 </v>
   <v>      -0.04592970     -19.56038886      -0.07977791 </v>
   <v>      -0.00215957      -0.07977788      -1.85180120 </v>
  </varray>
  <energy>
   <i name="e_fr_energy">   -188.68743503 </i>
   <i name="e_wo_entrp">   -188.54507884 </i>
   <i name="e_0_energy">     -0.28471239 </i>
  </energy>
  <time name="totalsc">  404.30  405.37</time>
 </calculation>
 <calculation>
  <scstep>
   <time name="dav">   24.15   24.21</time>
   <time name="total">   24.69   24.75</time>
   <energy>
    <i name="alphaZ">     82.34696836 </i>
    <i name="ewald">  41303.46193119 </i>
    <i name="hartreedc"> -47302.34960465 </i>
    <i name="XCdc">   -233.85077958 </i>
    <i name="pawpsdc">   3950.28894313 </i>
    <i name="pawaedc">  -3364.79472121 </i>
    <i name="eentropy">     -0.24031437 </i>
    <i name="bandstr">  -1386.93274593 </i>
    <i name="atom">   6761.44252427 </i>
    <i name="e_fr_energy">   -190.62779879 </i>
    <i name="e_wo_entrp">   -190.38748442 </i>
    <i name="e_0_energy">   -190.50764161 </i>
   </energy>
  </scstep>
  <scstep>
   <time name="dav">   29.31   29.38</time>
   <time name="total">   29.84   29.92</time>
   <energy>
    <i name="e_fr_energy">   -190.54653527 </i>
    <i name="e_wo_entrp">   -190.30880343 </i>
    <i name="e_0_energy">   -190.42766935 </i>
   </energy>
  </scstep>
  <scstep>
   <time name="dav">   31.01   31.09</time>
   <time name="total">   31.54   31.62</time>
   <energy>
    <i name="e_fr_energy">   -190.12353249 </i>
    <i name="e_wo_entrp">   -189.87114520 </i>
    <i name="e_0_energy">   -189.99733885 </i>
   </energy>
  </scstep>
  <scstep>
   <time name="dav">   31.51   31.59</time>
   <time name="total">   32.05   32.13</time>
   <energy>
    <i name="e_fr_energy">   -189.89568645 </i>
    <i name="e_wo_entrp">   -189.65650417 </i>
    <i name="e_0_energy">   -189.77609531 </i>
   </energy>
  </scstep>
  <scstep>
   <time name="dav">   29.77   29.84</time>
   <time name="total">   30.31   30.39</time>
   <energy>
    <i name="e_fr_energy">   -189.81231294 </i>
    <i name="e_wo_entrp">   -189.56908833 </i>
    <i name="e_0_energy">   -189.69070063 </i>
   </energy>
  </scstep>
  <scstep>
   <time name="dav">   29.91   29.98</time>
   <time name="total">   30.44   30.53</time>
   <energy>
    <i name="e_fr_energy">   -189.80028912 </i>
    <i name="e_wo_entrp">   -189.55698550 </i>
    <i name="e_0_energy">   -189.67863731 </i>
   </energy>
  </scstep>
  <scstep>
   <time name="dav">   29.35   29.42</time>
   <time name="total">   29.89   29.97</time>
   <energy>
    <i name="e_fr_energy">   -189.79399520 </i>
    <i name="e_wo_entrp">   -189.55090415 </i>
    <i name="e_0_energy">   -189.67244967 </i>
   </energy>
  </scstep>
  <scstep>
   <time name="dav">   29.10   29.17</time>
   <time name="total">   29.63   29.71</time>
   <energy>
    <i name="e_fr_energy">   -189.79366724 </i>
    <i name="e_wo_entrp">   -189.55052753 </i>
    <i name="e_0_energy">   -189.67209738 </i>
   </energy>
  </scstep>
  <scstep>
   <time name="dav">   27.41   27.48</time>
   <time name="total">   27.95   28.02</time>
   <energy>
    <i name="e_fr_energy">   -189.79418091 </i>
    <i name="e_wo_entrp">   -189.55095581 </i>
    <i name="e_0_energy">   -189.67256836 </i>
   </energy>
  </scstep>
  <scstep>
   <time name="dav">   27.36   27.43</time>
   <time name="total">   27.89   27.97</time>
   <energy>
    <i name="e_fr_energy">   -189.79400072 </i>
    <i name="e_wo_entrp">   -189.55066110 </i>
    <i name="e_0_energy">   -189.67233091 </i>
   </energy>
  </scstep>
  <scstep>
   <time name="dav">   23.69   23.74</time>
   <time name="total">   24.22   24.29</time>
   <energy>
    <i name="e_fr_energy">   -189.79382117 </i>
    <i name="e_wo_entrp">   -189.55048334 </i>
    <i name="e_0_energy">   -189.67215225 </i>
   </energy>
  </scstep>
  <scstep>
   <time name="dav">   17.68   17.73</time>
   <time name="total">   17.72   17.77</time>
   <energy>
    <i name="alphaZ">     82.34696836 </i>
    <i name="ewald">  41303.46193119 </i>
    <i name="hartreedc"> -47275.59234509 </i>
    <i name="XCdc">   -235.24710057 </i>
    <i name="pawpsdc">   4038.89398878 </i>
    <i name="pawaedc">  -3454.59977568 </i>
    <i name="eentropy">     -0.24332512 </i>
    <i name="bandstr">  -1410.25669073 </i>
    <i name="atom">   6761.44252427 </i>
    <i name="e_fr_energy">   -189.79382459 </i>
    <i name="e_wo_entrp">   -189.55049947 </i>
    <i name="e_0_energy">   -189.67216203 </i>
   </energy>
  </scstep>
  <structure>
   <crystal>
    <varray name="basis" >
     <v>       8.66780100       5.00282867       0.00000000 </v>
     <v>      -8.66442917       4.99703287       0.00000000 </v>
     <v>       0.00000000       0.00000000      30.00000000 </v>
    </varray>
    <i name="volume">   2599.79823435 </i>
    <varray name="rec_basis" >
     <v>       0.05766255       0.09998194       0.00000000 </v>
     <v>      -0.05772943       0.10002085       0.00000000 </v>
     <v>       0.00000000       0.00000000       0.03333333 </v>
    </varray>
   </crystal>
   <varray name="positions" >
    <v>       0.33324059       0.33330626       0.00009552 </v>
    <v>       0.33323689       0.66661822       0.00009299 </v>
    <v>       0.33648881       0.00153549      -0.00015383 </v>
    <v>       0.66866676       0.00372622      -0.00023168 </v>
    <v>       0.66879443       0.33161878      -0.00024132 </v>
    <v>       0.99621573       0.33148199       0.00029201 </v>
    <v>      -0.00175689       0.00212970       0.00015216 </v>
    <v>      -0.00163989       0.66277121       0.00013933 </v>
    <v>       0.66646031       0.66660531      -0.00009724 </v>
    <v>       0.11508520       0.22325092       0.95198635 </v>
    <v>       0.22544258       0.11246766       0.04679053 </v>
    <v>       0.11510522       0.55830981       0.95197288 </v>
    <v>       0.22662378       0.44636991       0.04674325 </v>
    <v>       0.11449597       0.89045974       0.95225144 </v>
    <v>       0.22544184       0.77911311       0.04679907 </v>
    <v>       0.43987297       0.22005830       0.95317294 </v>
    <v>       0.55077212       0.10870814       0.04815155 </v>
    <v>       0.44105491       0.55401880       0.95312352 </v>
    <v>       0.55148008       0.44325577       0.04788873 </v>
    <v>       0.43987843       0.88681961       0.95316486 </v>
    <v>       0.55146616       0.77491047       0.04790153 </v>
    <v>       0.77748427       0.22204611       0.95044222 </v>
    <v>       0.88958516       0.11054785       0.04947227 </v>
    <v>       0.77803950       0.55642796       0.95068742 </v>
    <v>       0.88960283       0.44564471       0.04947374 </v>
    <v>       0.77802128       0.88815245       0.95068831 </v>
    <v>       0.88905542       0.77785994       0.04924136 </v>
   </varray>
  </structure>
  <varray name="forces" >
   <v>      -0.00583995       0.00236365       0.08540241 </v>
   <v>       0.00641186      -0.00508252       0.08521545 </v>
   <v>       0.17292779       0.30573019      -0.09710698 </v>
   <v>      -0.02498934       0.63922409       0.00010891 </v>
   <v>       0.56599008       0.29527886      -0.00020700 </v>
   <v>      -0.35667210      -0.61621974      -0.01324321 </v>
   <v>      -0.54371650      -0.18300340      -0.09852191 </v>
   <v>       0.12071091      -0.57125604      -0.10036442 </v>
   <v>       0.11603696       0.20923157       0.10753892 </v>
   <v>       0.03669158       0.08970474      -0.42052063 </v>
   <v>       0.02131754       0.05289541       0.31001337 </v>
   <v>       0.04146098       0.08686884      -0.42037571 </v>
   <v>       0.02809077       0.07805806       0.29246852 </v>
   <v>       0.00354819       0.03364662      -0.07543829 </v>
   <v>       0.01454428       0.05927302       0.31312504 </v>
   <v>      -0.03025570      -0.08367637      -0.38328328 </v>
   <v>      -0.06336435      -0.12162188       0.60048093 </v>
   <v>      -0.02715532      -0.07166880      -0.41561490 </v>
   <v>      -0.03017918      -0.07873232       0.30506833 </v>
   <v>      -0.03411727      -0.08462662      -0.38704866 </v>
   <v>      -0.03589934      -0.07595480       0.30572131 </v>
   <v>       0.00649617       0.01894002      -0.97438176 </v>
   <v>       0.01184733      -0.01080009       0.86885627 </v>
   <v>      -0.02002764       0.01303286      -0.59851480 </v>
   <v>      -0.00679128      -0.00190662       0.87477643 </v>
   <v>       0.00712656      -0.00121357      -0.60582708 </v>
   <v>       0.02580699       0.02151488       0.44167274 </v>
  </varray>
  <varray name="stress" >
   <v>     -10.16420175      -0.01640725      -0.02838919 </v>
   <v>      -0.01640721      -9.84530759      -0.09552828 </v>
   <v>      -0.02838905      -0.09552819       6.48186493 </v>
  </varray>
  <energy>
   <i name="e_fr_energy">   -189.79382459 </i>
   <i name="e_wo_entrp">   -189.67216203 </i>
   <i name="e_0_energy">     -0.24332512 </i>
  </energy>
  <time name="totalsc">  378.60  379.61</time>
 </calculation>
 <calculation>
  <scstep>
   <time name="dav">   22.04   22.09</time>
   <time name="total">   22.56   22.61</time>
   <energy>
    <i name="alphaZ">     85.82043948 </i>
    <i name="ewald">  42834.33705232 </i>
    <i name="hartreedc"> -48850.80056100 </i>
    <i name="XCdc">   -232.96124405 </i>
    <i name="pawpsdc">   4038.91617017 </i>
    <i name="pawaedc">  -3454.61954772 </i>
    <i name="eentropy">     -0.20905833 </i>
    <i name="bandstr">  -1373.33363480 </i>
    <i name="atom">   6761.44252427 </i>
    <i name="e_fr_energy">   -191.40785965 </i>
    <i name="e_wo_entrp">   -191.19880132 </i>
    <i name="e_0_energy">   -191.30333048 </i>
   </energy>
  </scstep>
  <scstep>
   <time name="dav">   31.97   32.05</time>
   <time name="total">   32.48   32.57</time>
   <energy>
    <i name="e_fr_energy">   -191.15924190 </i>
    <i name="e_wo_entrp">   -190.95028419 </i>
    <i name="e_0_energy">   -191.05476305 </i>
   </energy>
  </scstep>
  <scstep>
   <time name="dav">   30.56   30.63</time>
   <time name="total">   31.07   31.15</time>
   <energy>
    <i name="e_fr_energy">   -191.37526337 </i>
    <i name="e_wo_entrp">   -191.14763973 </i>
    <i name="e_0_energy">   -191.26145155 </i>
   </energy>
  </scstep>
  <scstep>
   <time name="dav">   30.62   30.69</time>
   <time name="total">   31.14   31.22</time>
   <energy>
    <i name="e_fr_energy">   -190.98464397 </i>
    <i name="e_wo_entrp">   -190.77658330 </i>
    <i name="e_0_energy">   -190.88061364 </i>
   </energy>
  </scstep>
  <scstep>
   <time name="dav">   30.47   30.54</time>
   <time name="total">   30.99   31.07</time>
   <energy>
    <i name="e_fr_energy">   -190.85867145 </i>
    <i name="e_wo_entrp">   -190.64461152 </i>
    <i name="e_0_energy">   -190.75164149 </i>
   </energy>
  </scstep>
  <scstep>
   <time name="dav">   30.45   30.53</time>
   <time name="total">   30.98   31.05</time>
   <energy>
    <i name="e_fr_energy">   -190.85998570 </i>
    <i name="e_wo_entrp">   -190.64396575 </i>
    <i name="e_0_energy">   -190.75197573 </i>
   </energy>
  </scstep>
  <scstep>
   <time name="dav">   29.48   29.55</time>
   <time name="total">   30.00   30.08</time>
   <energy>
    <i name="e_fr_energy">   -190.83854329 </i>
    <i name="e_wo_entrp">   -190.62262817 </i>
    <i name="e_0_energy">   -190.73058573 </i>
   </energy>
  </scstep>
  <scstep>
   <time name="dav">   29.21   29.28</time>
   <time name="total">   29.73   29.81</time>
   <energy>
    <i name="e_fr_energy">   -190.83470970 </i>
    <i name="e_wo_entrp">   -190.61927087 </i>
    <i name="e_0_energy">   -190.72699029 </i>
   </energy>
  </scstep>
  <scstep>
   <time name="dav">   31.72   31.80</time>
   <time name="total">   32.24   32.33</time>
   <energy>
    <i name="e_fr_energy">   -190.83466893 </i>
    <i name="e_wo_entrp">   -190.61917248 </i>
    <i name="e_0_energy">   -190.72692071 </i>
   </energy>
  </scstep>
  <scstep>
   <time name="dav">   28.12   28.19</time>
   <time name="total">   28.64   28.71</time>
   <energy>
    <i name="e_fr_energy">   -190.83446370 </i>
    <i name="e_wo_entrp">   -190.61886258 </i>
    <i name="e_0_energy">   -190.72666314 </i>
   </energy>
  </scstep>
  <scstep>
   <time name="dav">   20.15   20.20</time>
   <time name="total">   20.18   20.24</time>
   <energy>
    <i name="alphaZ">     85.82043948 </i>
    <i name="ewald">  42834.33705232 </i>
    <i name="hartreedc"> -48822.01072434 </i>
    <i name="XCdc">   -234.28616912 </i>
    <i name="pawpsdc">   4064.52233369 </i>
    <i name="pawaedc">  -3480.42308443 </i>
    <i name="eentropy">     -0.21569652 </i>
    <i name="bandstr">  -1400.02113719 </i>
    <i name="atom">   6761.44252427 </i>
    <i name="e_fr_energy">   -190.83446182 </i>
    <i name="e_wo_entrp">   -190.61876530 </i>
    <i name="e_0_energy">   -190.72661356 </i>
   </energy>
  </scstep>
  <structure>
   <crystal>
    <varray name="basis" >
     <v>       8.48603173       4.90305381       0.00000000 </v>
     <v>      -8.48282955       4.89754503       0.00000000 </v>
     <v>       0.00000000       0.00000000      30.00000000 </v>
    </varray>
    <i name="volume">   2494.57476826 </i>
    <varray name="rec_basis" >
     <v>       0.05889836       0.10201534       0.00000000 </v>
     <v>      -0.05896460       0.10205385       0.00000000 </v>
     <v>       0.00000000       0.00000000       0.03333333 </v>
    </varray>
   </crystal>
   <varray name="positions" >
    <v>       0.33324317       0.33334886       0.00026858 </v>
    <v>       0.33323253       0.66655655       0.00026598 </v>
    <v>       0.33897729       0.00280149      -0.00034312 </v>
    <v>       0.67280321       0.00785185      -0.00020325 </v>
    <v>       0.67291487       0.33162324      -0.00021047 </v>
    <v>       0.99088093       0.32881974       0.00023473 </v>
    <v>      -0.00507073       0.00277862      -0.00007377 </v>
    <v>      -0.00499575       0.65870767      -0.00008697 </v>
    <v>       0.66843162       0.66761192       0.00014101 </v>
    <v>       0.11608675       0.22406727       0.95069922 </v>
    <v>       0.22626896       0.11290464       0.04781399 </v>
    <v>       0.11610906       0.55861908       0.95068652 </v>
    <v>       0.22734614       0.44682655       0.04771234 </v>
    <v>       0.11509920       0.89084560       0.95170550 </v>
    <v>       0.22628286       0.77966535       0.04782662 </v>
    <v>       0.43909225       0.21958966       0.95200547 </v>
    <v>       0.54960860       0.10809824       0.04980260 </v>
    <v>       0.44006461       0.55344930       0.95187113 </v>
    <v>       0.55060189       0.44249802       0.04892251 </v>
    <v>       0.43907288       0.88631516       0.95199048 </v>
    <v>       0.55057796       0.77466200       0.04893775 </v>
    <v>       0.77765868       0.22215720       0.94794073 </v>
    <v>       0.88940143       0.11056902       0.05176348 </v>
    <v>       0.77790361       0.55631987       0.94897086 </v>
    <v>       0.88940379       0.44537488       0.05177560 </v>
    <v>       0.77789632       0.88822968       0.94895677 </v>
    <v>       0.88932232       0.77792299       0.05062563 </v>
   </varray>
  </structure>
  <varray name="forces" >
   <v>       0.00032445      -0.00433975       0.05336323 </v>
   <v>      -0.00137746      -0.00172399       0.05361965 </v>
   <v>       0.19114624       0.33343169      -0.05824921 </v>
   <v>       0.05160807       0.62244627       0.02488569 </v>
   <v>       0.51750197       0.35166058       0.02967465 </v>
   <v>      -0.34721797      -0.59851044      -0.04017318 </v>
   <v>      -0.61944138      -0.20150323      -0.06268915 </v>
   <v>       0.14005106      -0.64054185      -0.05609418 </v>
   <v>       0.14350336       0.25987317       0.07447609 </v>
   <v>      -0.07461292       0.02167174      -0.25468595 </v>
   <v>      -0.01939487      -0.02215731       0.19214245 </v>
   <v>       0.05732612      -0.05330928      -0.25893948 </v>
   <v>      -0.05290559      -0.07150916       0.21202443 </v>
   <v>      -0.02058795      -0.03643006       0.07516159 </v>
   <v>      -0.02636771      -0.01882200       0.19048289 </v>
   <v>       0.03853239       0.05309998      -0.29550032 </v>
   <v>       0.00982611       0.01930298       0.40598801 </v>
   <v>       0.00712799      -0.00561034      -0.26751339 </v>
   <v>       0.07591004      -0.02121742       0.16124684 </v>
   <v>       0.04316370       0.05054049      -0.29340971 </v>
   <v>      -0.05913975       0.05604190       0.16366998 </v>
   <v>      -0.00016815      -0.00543977      -0.76478327 </v>
   <v>      -0.05809226       0.01749912       0.67188894 </v>
   <v>       0.01083837      -0.09342649      -0.46137622 </v>
   <v>       0.04052001      -0.03911671       0.67367706 </v>
   <v>      -0.08622211      -0.03751986      -0.46130292 </v>
   <v>       0.03814827       0.06560976       0.29241545 </v>
  </varray>
  <varray name="stress" >
   <v>      -5.85910518       0.17815982      -0.02056866 </v>
   <v>       0.17815980      -5.67941402       0.09689112 </v>
   <v>      -0.02056872       0.09689105       4.56143130 </v>
  </varray>
  <energy>
   <i name="e_fr_energy">   -190.83446182 </i>
   <i name="e_wo_entrp">   -190.72661356 </i>
   <i name="e_0_energy">     -0.21569652 </i>
  </energy>
  <time name="totalsc">  362.35  363.30</time>
 </calculation>
 <calculation>
  <scstep>
   <time name="dav">   22.04   22.10</time>
   <time name="total">   22.55   22.61</time>
   <energy>
    <i name="alphaZ">     90.20617085 </i>
    <i name="ewald">  44679.27410063 </i>
    <i name="hartreedc"> -50722.42648924 </i>
    <i name="XCdc">   -231.82898165 </i>
    <i name="pawpsdc">   4064.61737651 </i>
    <i name="pawaedc">  -3480.51471429 </i>
    <i name="eentropy">     -0.20452308 </i>
    <i name="bandstr">  -1352.83014867 </i>
    <i name="atom">   6761.44252427 </i>
    <i name="e_fr_energy">   -192.26468467 </i>
    <i name="e_wo_entrp">   -192.06016159 </i>
    <i name="e_0_energy">   -192.16242313 </i>
   </energy>
  </scstep>
  <scstep>
   <time name="dav">   25.81   25.87</time>
   <time name="total">   26.32   26.39</time>
   <energy>
    <i name="e_fr_energy">   -191.97282236 </i>
    <i name="e_wo_entrp">   -191.75218029 </i>
    <i name="e_0_energy">   -191.86250133 </i>
   </energy>
  </scstep>
  <scstep>
   <time name="dav">   27.68   27.75</time>
   <time name="total">   28.20   28.27</time>
   <energy>
    <i name="e_fr_energy">   -191.84796370 </i>
    <i name="e_wo_entrp">   -191.64979303 </i>
    <i name="e_0_energy">   -191.74887837 </i>
   </energy>
  </scstep>
  <scstep>
   <time name="dav">   30.36   30.44</time>
   <time name="total">   30.88   30.96</time>
   <energy>
    <i name="e_fr_energy">   -191.86402501 </i>
    <i name="e_wo_entrp">   -191.64081978 </i>
    <i name="e_0_energy">   -191.75242239 </i>
   </energy>
  </scstep>
  <scstep>
   <time name="dav">   30.70   30.78</time>
   <time name="total">   31.22   31.30</time>
   <energy>
    <i name="e_fr_energy">   -191.61255532 </i>
    <i name="e_wo_entrp">   -191.40193702 </i>
    <i name="e_0_energy">   -191.50724617 </i>
   </energy>
  </scstep>
  <scstep>
   <time name="dav">   30.49   30.57</time>
   <time name="total">   31.00   31.09</time>
   <energy>
    <i name="e_fr_energy">   -191.61098690 </i>
    <i name="e_wo_entrp">   -191.39580871 </i>
    <i name="e_0_energy">   -191.50339780 </i>
   </energy>
  </scstep>
  <scstep>
   <time name="dav">   30.63   30.71</time>
   <time name="total">   31.15   31.23</time>
   <energy>
    <i name="e_fr_energy">   -191.57550799 </i>
    <i name="e_wo_entrp">   -191.35815828 </i>
    <i name="e_0_energy">   -191.46683313 </i>
   </energy>
  </scstep>
  <scstep>
   <time name="dav">   29.14   29.21</time>
   <time name="total">   29.65   29.73</time>
   <energy>
    <i name="e_fr_energy">   -191.57170682 </i>
    <i name="e_wo_entrp">   -191.35593046 </i>
    <i name="e_0_energy">   -191.46381864 </i>
   </energy>
  </scstep>
  <scstep>
   <time name="dav">   29.90   29.97</time>
   <time name="total">   30.41   30.49</time>
   <energy>
    <i name="e_fr_energy">   -191.57022724 </i>
    <i name="e_wo_entrp">   -191.35449136 </i>
    <i name="e_0_energy">   -191.46235930 </i>
   </energy>
  </scstep>
  <scstep>
   <time name="dav">   29.26   29.33</time>
   <time name="total">   29.78   29.86</time>
   <energy>
    <i name="e_fr_energy">   -191.57006640 </i>
    <i name="e_wo_entrp">   -191.35425880 </i>
    <i name="e_0_energy">   -191.46216260 </i>
   </energy>
  </scstep>
  <scstep>
   <time name="dav">   25.21   25.27</time>
   <time name="total">   25.25   25.32</time>
   <energy>
    <i name="alphaZ">     90.20617085 </i>
    <i name="ewald">  44679.27410063 </i>
    <i name="hartreedc"> -50688.55891763 </i>
    <i name="XCdc">   -233.33937031 </i>
    <i name="pawpsdc">   4089.02933952 </i>
    <i name="pawaedc">  -3505.07546877 </i>
    <i name="eentropy">     -0.21597483 </i>
    <i name="bandstr">  -1384.33242370 </i>
    <i name="atom">   6761.44252427 </i>
    <i name="e_fr_energy">   -191.57001997 </i>
    <i name="e_wo_entrp">   -191.35404514 </i>
    <i name="e_0_energy">   -191.46203255 </i>
   </energy>
  </scstep>
  <structure>
   <crystal>
    <varray name="basis" >
     <v>       8.27753841       4.79486539       0.00000000 </v>
     <v>      -8.26342799       4.77046155       0.00000000 </v>
     <v>       0.00000000       0.00000000      30.00000000 </v>
    </varray>
    <i name="volume">   2373.29110544 </i>
    <varray name="rec_basis" >
     <v>       0.06030185       0.10445530       0.00000000 </v>
     <v>      -0.06061033       0.10463367       0.00000000 </v>
     <v>       0.00000000       0.00000000       0.03333333 </v>
    </varray>
   </crystal>
   <varray name="positions" >
    <v>       0.33320749       0.33331795       0.00049675 </v>
    <v>       0.33320833       0.66652403       0.00049529 </v>
    <v>       0.34434346       0.00550421      -0.00058531 </v>
    <v>       0.68108779       0.01532480      -0.00008328 </v>
    <v>       0.68117901       0.33236881      -0.00007034 </v>
    <v>       0.98073840       0.32376742       0.00005232 </v>
    <v>      -0.01212137       0.00447119      -0.00037171 </v>
    <v>      -0.01207288       0.64985837      -0.00035883 </v>
    <v>       0.67284263       0.66987855       0.00047755 </v>
    <v>       0.11640475       0.22532860       0.94909448 </v>
    <v>       0.22651213       0.11306998       0.04909967 </v>
    <v>       0.11644297       0.55770170       0.94906757 </v>
    <v>       0.22656916       0.44657421       0.04903681 </v>
    <v>       0.11508779       0.89085668       0.95147060 </v>
    <v>       0.22652184       0.77998626       0.04910542 </v>
    <v>       0.43955427       0.21974463       0.95032825 </v>
    <v>       0.54940626       0.10801022       0.05202290 </v>
    <v>       0.43938211       0.55299476       0.95025307 </v>
    <v>       0.55035804       0.44126139       0.05012171 </v>
    <v>       0.43952500       0.88636498       0.95031956 </v>
    <v>       0.55031774       0.77564746       0.05014704 </v>
    <v>       0.77767562       0.22214435       0.94417585 </v>
    <v>       0.88903726       0.11123935       0.05515646 </v>
    <v>       0.77680463       0.55498865       0.94647675 </v>
    <v>       0.88903558       0.44437906       0.05517616 </v>
    <v>       0.77680074       0.88848168       0.94645914 </v>
    <v>       0.89036573       0.77842515       0.05243602 </v>
   </varray>
  </structure>
  <varray name="forces" >
   <v>       0.01657120      -0.03797509       0.06006420 </v>
   <v>      -0.03776243      -0.00584075       0.05687383 </v>
   <v>       0.25644910       0.44333000      -0.07438861 </v>
   <v>       0.09868056       0.03528823      -0.10420842 </v>
   <v>      -0.01015471       0.09376062      -0.11308506 </v>
   <v>       0.00454847       0.00873499       0.06019505 </v>
   <v>      -0.47807539      -0.11355998       0.09266156 </v>
   <v>       0.13612433      -0.46331100       0.08055425 </v>
   <v>       0.13267660       0.23855247      -0.04151973 </v>
   <v>      -0.22241019      -0.10635897      -0.00269486 </v>
   <v>      -0.05627413      -0.14296004      -0.12160490 </v>
   <v>       0.01773031      -0.24673103       0.00094814 </v>
   <v>      -0.12049298      -0.20972643      -0.05857558 </v>
   <v>      -0.09749043      -0.17723779       0.42357902 </v>
   <v>      -0.09711172      -0.11964993      -0.12196407 </v>
   <v>       0.09845570       0.19310670      -0.00850585 </v>
   <v>       0.10167273       0.17387638       0.09513088 </v>
   <v>       0.04735553       0.08264875       0.05138755 </v>
   <v>       0.17778298       0.10022419      -0.10473715 </v>
   <v>       0.11519129       0.18187237      -0.00667326 </v>
   <v>      -0.00699005       0.20638423      -0.10212028 </v>
   <v>      -0.04430784      -0.07583390      -0.23829659 </v>
   <v>      -0.07611411       0.08396103       0.26030082 </v>
   <v>       0.01398579      -0.17439828      -0.18017997 </v>
   <v>       0.11129438      -0.02558730       0.26664193 </v>
   <v>      -0.15573185      -0.07732031      -0.19007900 </v>
   <v>       0.07439685       0.13475087       0.02029613 </v>
  </varray>
  <varray name="stress" >
   <v>       0.13811417       0.60257767       0.37913261 </v>
   <v>       0.60257754       0.87908510       0.67955885 </v>
   <v>       0.37913254       0.67955907      -0.73775060 </v>
  </varray>
  <energy>
   <i name="e_fr_energy">   -191.57001997 </i>
   <i name="e_wo_entrp">   -191.46203255 </i>
   <i name="e_0_energy">     -0.21597483 </i>
  </energy>
  <time name="totalsc">  358.97  359.92</time>
 </calculation>
 <calculation>
  <scstep>
   <time name="dav">   22.04   22.09</time>
   <time name="total">   22.55   22.61</time>
   <energy>
    <i name="alphaZ">     89.88586137 </i>
    <i name="ewald">  44519.41941044 </i>
    <i name="hartreedc"> -50525.83117592 </i>
    <i name="XCdc">   -233.62647039 </i>
    <i name="pawpsdc">   4089.27903097 </i>
    <i name="pawaedc">  -3505.32147563 </i>
    <i name="eentropy">     -0.21670252 </i>
    <i name="bandstr">  -1386.67641251 </i>
    <i name="atom">   6761.44252427 </i>
    <i name="e_fr_energy">   -191.64540991 </i>
    <i name="e_wo_entrp">   -191.42870739 </i>
    <i name="e_0_energy">   -191.53705865 </i>
   </energy>
  </scstep>
  <scstep>
   <time name="dav">   31.11   31.19</time>
   <time name="total">   31.62   31.71</time>
   <energy>
    <i name="e_fr_energy">   -191.72287500 </i>
    <i name="e_wo_entrp">   -191.49530557 </i>
    <i name="e_0_energy">   -191.60909028 </i>
   </energy>
  </scstep>
  <scstep>
   <time name="dav">   31.06   31.14</time>
   <time name="total">   31.57   31.66</time>
   <energy>
    <i name="e_fr_energy">   -191.65650817 </i>
    <i name="e_wo_entrp">   -191.43901048 </i>
    <i name="e_0_energy">   -191.54775933 </i>
   </energy>
  </scstep>
  <scstep>
   <time name="dav">   27.31   27.37</time>
   <time name="total">   27.82   27.89</time>
   <energy>
    <i name="e_fr_energy">   -191.66120025 </i>
    <i name="e_wo_entrp">   -191.44248449 </i>
    <i name="e_0_energy">   -191.55184237 </i>
   </energy>
  </scstep>
  <scstep>
   <time name="dav">   27.63   27.70</time>
   <time name="total">   28.14   28.22</time>
   <energy>
    <i name="e_fr_energy">   -191.65218863 </i>
    <i name="e_wo_entrp">   -191.43233625 </i>
    <i name="e_0_energy">   -191.54226244 </i>
   </energy>
  </scstep>
  <scstep>
   <time name="dav">   28.67   28.74</time>
   <time name="total">   29.18   29.26</time>
   <energy>
    <i name="e_fr_energy">   -191.65176659 </i>
    <i name="e_wo_entrp">   -191.43333935 </i>
    <i name="e_0_energy">   -191.54255297 </i>
   </energy>
  </scstep>
  <scstep>
   <time name="dav">   27.93   27.99</time>
   <time name="total">   28.44   28.52</time>
   <energy>
    <i name="e_fr_energy">   -191.65155458 </i>
    <i name="e_wo_entrp">   -191.43266516 </i>
    <i name="e_0_energy">   -191.54210987 </i>
   </energy>
  </scstep>
  <scstep>
   <time name="dav">   23.02   23.08</time>
   <time name="total">   23.53   23.60</time>
   <energy>
    <i name="e_fr_energy">   -191.65145220 </i>
    <i name="e_wo_entrp">   -191.43252938 </i>
    <i name="e_0_energy">   -191.54199079 </i>
   </energy>
  </scstep>
  <scstep>
   <time name="dav">   17.71   17.75</time>
   <time name="total">   17.75   17.80</time>
   <energy>
    <i name="alphaZ">     89.88586137 </i>
    <i name="ewald">  44519.41941044 </i>
    <i name="hartreedc"> -50529.46178942 </i>
    <i name="XCdc">   -233.50115768 </i>
    <i name="pawpsdc">   4084.29883479 </i>
    <i name="pawaedc">  -3500.27436097 </i>
    <i name="eentropy">     -0.21892011 </i>
    <i name="bandstr">  -1383.24182098 </i>
    <i name="atom">   6761.44252427 </i>
    <i name="e_fr_energy">   -191.65141826 </i>
    <i name="e_wo_entrp">   -191.43249816 </i>
    <i name="e_0_energy">   -191.54195821 </i>
   </energy>
  </scstep>
  <structure>
   <crystal>
    <varray name="basis" >
     <v>       8.29184027       4.81984231       0.00000000 </v>
     <v>      -8.26372123       4.77116990       0.00000000 </v>
     <v>       0.00000000       0.00000000      30.00000000 </v>
    </varray>
    <i name="volume">   2381.74836032 </i>
    <varray name="rec_basis" >
     <v>       0.06009665       0.10408809       0.00000000 </v>
     <v>      -0.06070972       0.10444227       0.00000000 </v>
     <v>       0.00000000       0.00000000       0.03333333 </v>
    </varray>
   </crystal>
   <varray name="positions" >
    <v>       0.33307362       0.33309238       0.00057934 </v>
    <v>       0.33307790       0.66660186       0.00057301 </v>
    <v>       0.34696245       0.00681096      -0.00068922 </v>
    <v>       0.68122808       0.01495393      -0.00024572 </v>
    <v>       0.68129931       0.33281382      -0.00024695 </v>
    <v>       0.98115621       0.32397767       0.00015035 </v>
    <v>      -0.01371747       0.00519347      -0.00021988 </v>
    <v>      -0.01364469       0.64759241      -0.00022624 </v>
    <v>       0.67417802       0.67056517       0.00040199 </v>
    <v>       0.11526628       0.22538018       0.94916044 </v>
    <v>       0.22565596       0.11253269       0.04885835 </v>
    <v>       0.11529566       0.55650924       0.94913947 </v>
    <v>       0.22526035       0.44591224       0.04889050 </v>
    <v>       0.11396673       0.89027507       0.95213269 </v>
    <v>       0.22566445       0.77966516       0.04886380 </v>
    <v>       0.44073464       0.22039107       0.95038581 </v>
    <v>       0.55052862       0.10856570       0.05207507 </v>
    <v>       0.43994344       0.55328098       0.95040047 </v>
    <v>       0.55134119       0.44130197       0.04990808 </v>
    <v>       0.44069852       0.88691663       0.95037972 </v>
    <v>       0.55129923       0.77661573       0.04993700 </v>
    <v>       0.77719194       0.22190516       0.94396365 </v>
    <v>       0.88924383       0.11182331       0.05541501 </v>
    <v>       0.77605486       0.55417066       0.94630666 </v>
    <v>       0.88923603       0.44399143       0.05544403 </v>
    <v>       0.77604647       0.88853171       0.94627427 </v>
    <v>       0.89117285       0.77884384       0.05238822 </v>
   </varray>
  </structure>
  <varray name="forces" >
   <v>      -0.00073972      -0.07342992       0.07189768 </v>
   <v>      -0.06048618      -0.03717530       0.07030450 </v>
   <v>       0.29387551       0.50683145      -0.03681918 </v>
   <v>       0.07659871       0.16397336       0.00194240 </v>
   <v>       0.11328066       0.14280946       0.00653057 </v>
   <v>      -0.08064528      -0.13904766      -0.04845420 </v>
   <v>      -0.53591018      -0.11440405      -0.01092089 </v>
   <v>       0.16864072      -0.51779404      -0.00608188 </v>
   <v>       0.14402117       0.26678990       0.00100864 </v>
   <v>      -0.12293517      -0.07497817       0.00277191 </v>
   <v>      -0.02936559      -0.10816937      -0.14402850 </v>
   <v>      -0.00160072      -0.14520012       0.00264852 </v>
   <v>      -0.05862623      -0.09953704      -0.04022839 </v>
   <v>      -0.06090223      -0.10805919       0.47996939 </v>
   <v>      -0.08089681      -0.07816507      -0.14510818 </v>
   <v>       0.04421524       0.12255980      -0.04368868 </v>
   <v>       0.05563084       0.09615963       0.05755008 </v>
   <v>       0.03431053       0.05817225       0.08249426 </v>
   <v>       0.07153578       0.06302624      -0.12538328 </v>
   <v>       0.08353338       0.09925450      -0.04235285 </v>
   <v>       0.01488418       0.09424467      -0.11982500 </v>
   <v>      -0.00424723      -0.01209486      -0.12749415 </v>
   <v>      -0.09377784       0.00268499       0.21783386 </v>
   <v>       0.00721373      -0.07361230      -0.15189301 </v>
   <v>       0.04573550      -0.07958535       0.21212114 </v>
   <v>      -0.06394611      -0.02908675      -0.15515972 </v>
   <v>       0.04060334       0.07383294      -0.00963502 </v>
  </varray>
  <varray name="stress" >
   <v>      -0.14940722      -0.01026903       0.05803945 </v>
   <v>      -0.01026886      -0.16472337       0.14369991 </v>
   <v>       0.05803951       0.14369985      -1.38232185 </v>
  </varray>
  <energy>
   <i name="e_fr_energy">   -191.65141826 </i>
   <i name="e_wo_entrp">   -191.54195821 </i>
   <i name="e_0_energy">     -0.21892011 </i>
  </energy>
  <time name="totalsc">  283.12  283.87</time>
 </calculation>
 <calculation>
  <scstep>
   <time name="dav">   21.99   22.04</time>
   <time name="total">   22.50   22.56</time>
   <energy>
    <i name="alphaZ">     89.98628979 </i>
    <i name="ewald">  44567.44387436 </i>
    <i name="hartreedc"> -50578.36370529 </i>
    <i name="XCdc">   -233.42610367 </i>
    <i name="pawpsdc">   4083.85770648 </i>
    <i name="pawaedc">  -3499.82926551 </i>
    <i name="eentropy">     -0.21747288 </i>
    <i name="bandstr">  -1382.62277368 </i>
    <i name="atom">   6761.44252427 </i>
    <i name="e_fr_energy">   -191.72892613 </i>
    <i name="e_wo_entrp">   -191.51145325 </i>
    <i name="e_0_energy">   -191.62018969 </i>
   </energy>
  </scstep>
  <scstep>
   <time name="dav">   32.59   32.67</time>
   <time name="total">   33.10   33.19</time>
   <energy>
    <i name="e_fr_energy">   -191.78506062 </i>
    <i name="e_wo_entrp">   -191.55552047 </i>
    <i name="e_0_energy">   -191.67029055 </i>
   </energy>
  </scstep>
  <scstep>
   <time name="dav">   31.06   31.14</time>
   <time name="total">   31.57   31.65</time>
   <energy>
    <i name="e_fr_energy">   -191.73714364 </i>
    <i name="e_wo_entrp">   -191.51907549 </i>
    <i name="e_0_energy">   -191.62810956 </i>
   </energy>
  </scstep>
  <scstep>
   <time name="dav">   26.83   26.90</time>
   <time name="total">   27.34   27.42</time>
   <energy>
    <i name="e_fr_energy">   -191.73871068 </i>
    <i name="e_wo_entrp">   -191.52014555 </i>
    <i name="e_0_energy">   -191.62942811 </i>
   </energy>
  </scstep>
  <scstep>
   <time name="dav">   28.09   28.16</time>
   <time name="total">   28.60   28.68</time>
   <energy>
    <i name="e_fr_energy">   -191.73389789 </i>
    <i name="e_wo_entrp">   -191.51382995 </i>
    <i name="e_0_energy">   -191.62386392 </i>
   </energy>
  </scstep>
  <scstep>
   <time name="dav">   27.08   27.15</time>
   <time name="total">   27.60   27.67</time>
   <energy>
    <i name="e_fr_energy">   -191.73367714 </i>
    <i name="e_wo_entrp">   -191.51415556 </i>
    <i name="e_0_energy">   -191.62391635 </i>
   </energy>
  </scstep>
  <scstep>
   <time name="dav">   27.95   28.02</time>
   <time name="total">   28.46   28.54</time>
   <energy>
    <i name="e_fr_energy">   -191.73356446 </i>
    <i name="e_wo_entrp">   -191.51357746 </i>
    <i name="e_0_energy">   -191.62357096 </i>
   </energy>
  </scstep>
  <scstep>
   <time name="dav">   22.80   22.85</time>
   <time name="total">   22.83   22.90</time>
   <energy>
    <i name="alphaZ">     89.98628979 </i>
    <i name="ewald">  44567.44387436 </i>
    <i name="hartreedc"> -50578.21587900 </i>
    <i name="XCdc">   -233.44326433 </i>
    <i name="pawpsdc">   4087.07170331 </i>
    <i name="pawaedc">  -3503.08276351 </i>
    <i name="eentropy">     -0.21996551 </i>
    <i name="bandstr">  -1382.71599183 </i>
    <i name="atom">   6761.44252427 </i>
    <i name="e_fr_energy">   -191.73347245 </i>
    <i name="e_wo_entrp">   -191.51350694 </i>
    <i name="e_0_energy">   -191.62348970 </i>
   </energy>
  </scstep>
  <structure>
   <crystal>
    <varray name="basis" >
     <v>       8.28723708       4.81745688       0.00000000 </v>
     <v>      -8.25885792       4.76833418       0.00000000 </v>
[...]
      <set comment="kpoint 31">
       <r>  -17.5217    1.0000 </r>
       <r>  -17.2731    1.0000 </r>
       <r>  -16.8937    1.0000 </r>
       <r>  -16.5681    1.0000 </r>
       <r>  -16.5232    1.0000 </r>
       <r>  -16.4644    1.0000 </r>
       <r>  -16.2748    1.0000 </r>
       <r>  -16.1736    1.0000 </r>
       <r>  -16.1163    1.0000 </r>
       <r>  -16.0854    1.0000 </r>
       <r>  -15.8792    1.0000 </r>
       <r>  -15.8334    1.0000 </r>
       <r>  -15.7932    1.0000 </r>
       <r>  -15.6843    1.0000 </r>
       <r>  -15.6020    1.0000 </r>
       <r>  -15.5251    1.0000 </r>
       <r>  -15.3856    1.0000 </r>
       <r>  -15.3644    1.0000 </r>
       <r>   -9.7866    1.0000 </r>
       <r>   -9.5138    1.0000 </r>
       <r>   -9.2669    1.0000 </r>
       <r>   -8.9228    1.0000 </r>
       <r>   -8.8232    1.0000 </r>
       <r>   -8.7001    1.0000 </r>
       <r>   -8.6252    1.0000 </r>
       <r>   -8.5322    1.0000 </r>
       <r>   -8.4130    1.0000 </r>
       <r>   -8.3559    1.0000 </r>
       <r>   -8.2748    1.0000 </r>
       <r>   -8.1516    1.0000 </r>
       <r>   -8.0742    1.0000 </r>
       <r>   -7.9785    1.0000 </r>
       <r>   -7.9498    1.0000 </r>
       <r>   -7.9230    1.0000 </r>
       <r>   -7.7392    1.0000 </r>
       <r>   -7.6487    1.0000 </r>
       <r>   -7.6276    1.0000 </r>
       <r>   -7.4985    1.0000 </r>
       <r>   -7.4239    1.0000 </r>
       <r>   -7.1940    1.0000 </r>
       <r>   -7.0999    1.0000 </r>
       <r>   -7.0648    1.0000 </r>
       <r>   -6.9581    1.0000 </r>
       <r>   -6.9004    1.0000 </r>
       <r>   -6.8010    1.0000 </r>
       <r>   -6.7481    1.0000 </r>
       <r>   -6.6553    1.0000 </r>
       <r>   -6.6259    1.0000 </r>
       <r>   -6.5901    1.0000 </r>
       <r>   -6.5369    1.0000 </r>
       <r>   -6.4367    1.0000 </r>
       <r>   -6.3712    1.0000 </r>
       <r>   -6.2824    1.0000 </r>
       <r>   -6.1445    1.0000 </r>
       <r>   -6.1086    1.0000 </r>
       <r>   -6.0453    1.0000 </r>
       <r>   -5.9669    1.0000 </r>
       <r>   -5.9303    1.0000 </r>
       <r>   -5.8428    1.0000 </r>
       <r>   -5.7992    1.0000 </r>
       <r>   -5.7231    1.0000 </r>
       <r>   -5.6350    1.0000 </r>
       <r>   -5.6181    1.0000 </r>
       <r>   -5.4263    1.0000 </r>
       <r>   -5.2945    1.0000 </r>
       <r>   -5.1589    1.0000 </r>
       <r>   -5.0333    1.0000 </r>
       <r>   -4.8852    1.0000 </r>
       <r>   -4.7984    1.0000 </r>
       <r>   -4.7005    1.0000 </r>
       <r>   -4.5156    1.0000 </r>
       <r>   -4.4133    1.0000 </r>
       <r>   -4.3155    1.0000 </r>
       <r>   -4.2163    1.0000 </r>
       <r>   -4.1723    1.0000 </r>
       <r>   -3.9509    1.0000 </r>
       <r>   -3.8076    1.0000 </r>
       <r>   -3.6155    0.9991 </r>
       <r>   -3.3719    0.9184 </r>
       <r>   -3.1172    0.3422 </r>
       <r>   -3.0262    0.1469 </r>
       <r>   -2.8089    0.0048 </r>
       <r>   -2.7619    0.0018 </r>
       <r>   -2.6417    0.0001 </r>
       <r>   -2.6128    0.0000 </r>
       <r>   -2.4989    0.0000 </r>
       <r>   -2.3727    0.0000 </r>
       <r>   -2.1458    0.0000 </r>
       <r>   -2.0380    0.0000 </r>
       <r>   -1.9582    0.0000 </r>
       <r>   -1.8467    0.0000 </r>
       <r>   -1.5041    0.0000 </r>
       <r>   -1.3891    0.0000 </r>
       <r>   -1.2552    0.0000 </r>
       <r>   -1.2185    0.0000 </r>
       <r>   -1.1297    0.0000 </r>
       <r>   -1.0278    0.0000 </r>
       <r>   -0.9733    0.0000 </r>
       <r>   -0.9336    0.0000 </r>
       <r>   -0.8420    0.0000 </r>
       <r>   -0.7862    0.0000 </r>
       <r>   -0.7139    0.0000 </r>
       <r>   -0.6595    0.0000 </r>
       <r>   -0.6067    0.0000 </r>
       <r>   -0.4496    0.0000 </r>
       <r>   -0.3150    0.0000 </r>
       <r>   -0.2341    0.0000 </r>
       <r>   -0.0962    0.0000 </r>
       <r>    0.0433    0.0000 </r>
       <r>    0.2648    0.0000 </r>
       <r>    0.2975    0.0000 </r>
       <r>    0.4680    0.0000 </r>
       <r>    0.8464    0.0000 </r>
       <r>    0.8914    0.0000 </r>
       <r>    1.1933    0.0000 </r>
       <r>    1.3626    0.0000 </r>
       <r>    1.5198    0.0000 </r>
       <r>    2.1502    0.0000 </r>
       <r>    2.2955    0.0000 </r>
       <r>    2.4101    0.0000 </r>
      </set>
      <set comment="kpoint 32">
       <r>  -17.5355    1.0000 </r>
       <r>  -17.2019    1.0000 </r>
       <r>  -17.0054    1.0000 </r>
       <r>  -16.5639    1.0000 </r>
       <r>  -16.5104    1.0000 </r>
       <r>  -16.3589    1.0000 </r>
       <r>  -16.2772    1.0000 </r>
       <r>  -16.1868    1.0000 </r>
       <r>  -16.1457    1.0000 </r>
       <r>  -16.0900    1.0000 </r>
       <r>  -15.9148    1.0000 </r>
       <r>  -15.8456    1.0000 </r>
       <r>  -15.7846    1.0000 </r>
       <r>  -15.6942    1.0000 </r>
       <r>  -15.5917    1.0000 </r>
       <r>  -15.5089    1.0000 </r>
       <r>  -15.3933    1.0000 </r>
       <r>  -15.3521    1.0000 </r>
       <r>   -9.7307    1.0000 </r>
       <r>   -9.6082    1.0000 </r>
       <r>   -9.3269    1.0000 </r>
       <r>   -8.9098    1.0000 </r>
       <r>   -8.7126    1.0000 </r>
       <r>   -8.6653    1.0000 </r>
       <r>   -8.5787    1.0000 </r>
       <r>   -8.4381    1.0000 </r>
       <r>   -8.4113    1.0000 </r>
       <r>   -8.3488    1.0000 </r>
       <r>   -8.2713    1.0000 </r>
       <r>   -8.1990    1.0000 </r>
       <r>   -8.1497    1.0000 </r>
       <r>   -8.0814    1.0000 </r>
       <r>   -8.0315    1.0000 </r>
       <r>   -7.9571    1.0000 </r>
       <r>   -7.7046    1.0000 </r>
       <r>   -7.6533    1.0000 </r>
       <r>   -7.5585    1.0000 </r>
       <r>   -7.4959    1.0000 </r>
       <r>   -7.3415    1.0000 </r>
       <r>   -7.2814    1.0000 </r>
       <r>   -7.1025    1.0000 </r>
       <r>   -7.0694    1.0000 </r>
       <r>   -6.9837    1.0000 </r>
       <r>   -6.8861    1.0000 </r>
       <r>   -6.8006    1.0000 </r>
       <r>   -6.7483    1.0000 </r>
       <r>   -6.6734    1.0000 </r>
       <r>   -6.6369    1.0000 </r>
       <r>   -6.5536    1.0000 </r>
       <r>   -6.5105    1.0000 </r>
       <r>   -6.4108    1.0000 </r>
       <r>   -6.3908    1.0000 </r>
       <r>   -6.3412    1.0000 </r>
       <r>   -6.1460    1.0000 </r>
       <r>   -6.0929    1.0000 </r>
       <r>   -6.0418    1.0000 </r>
       <r>   -5.9625    1.0000 </r>
       <r>   -5.9106    1.0000 </r>
       <r>   -5.8748    1.0000 </r>
       <r>   -5.7328    1.0000 </r>
       <r>   -5.6860    1.0000 </r>
       <r>   -5.5850    1.0000 </r>
       <r>   -5.5223    1.0000 </r>
       <r>   -5.3900    1.0000 </r>
       <r>   -5.3251    1.0000 </r>
       <r>   -5.2960    1.0000 </r>
       <r>   -5.0154    1.0000 </r>
       <r>   -4.9025    1.0000 </r>
       <r>   -4.8334    1.0000 </r>
       <r>   -4.7860    1.0000 </r>
       <r>   -4.5038    1.0000 </r>
       <r>   -4.4538    1.0000 </r>
       <r>   -4.3018    1.0000 </r>
       <r>   -4.2115    1.0000 </r>
       <r>   -4.1627    1.0000 </r>
       <r>   -3.9421    1.0000 </r>
       <r>   -3.8090    1.0000 </r>
       <r>   -3.5508    0.9961 </r>
       <r>   -3.3046    0.8209 </r>
       <r>   -3.1745    0.4995 </r>
       <r>   -3.0329    0.1581 </r>
       <r>   -2.8231    0.0065 </r>
       <r>   -2.7613    0.0017 </r>
       <r>   -2.6277    0.0001 </r>
       <r>   -2.5851    0.0000 </r>
       <r>   -2.5281    0.0000 </r>
       <r>   -2.3929    0.0000 </r>
       <r>   -2.1469    0.0000 </r>
       <r>   -2.0452    0.0000 </r>
       <r>   -1.9649    0.0000 </r>
       <r>   -1.8517    0.0000 </r>
       <r>   -1.5017    0.0000 </r>
       <r>   -1.3909    0.0000 </r>
       <r>   -1.2752    0.0000 </r>
       <r>   -1.2243    0.0000 </r>
       <r>   -1.1319    0.0000 </r>
       <r>   -1.0068    0.0000 </r>
       <r>   -0.9477    0.0000 </r>
       <r>   -0.8902    0.0000 </r>
       <r>   -0.8441    0.0000 </r>
       <r>   -0.8120    0.0000 </r>
       <r>   -0.7234    0.0000 </r>
       <r>   -0.6386    0.0000 </r>
       <r>   -0.6001    0.0000 </r>
       <r>   -0.4119    0.0000 </r>
       <r>   -0.3464    0.0000 </r>
       <r>   -0.2115    0.0000 </r>
       <r>   -0.1432    0.0000 </r>
       <r>    0.0690    0.0000 </r>
       <r>    0.2525    0.0000 </r>
       <r>    0.2784    0.0000 </r>
       <r>    0.4772    0.0000 </r>
       <r>    0.8373    0.0000 </r>
       <r>    0.8798    0.0000 </r>
       <r>    1.1795    0.0000 </r>
       <r>    1.3627    0.0000 </r>
       <r>    1.5118    0.0000 </r>
       <r>    2.1183    0.0000 </r>
       <r>    2.2631    0.0000 </r>
       <r>    2.5817    0.0000 </r>
      </set>
      <set comment="kpoint 33">
       <r>  -17.5226    1.0000 </r>
       <r>  -17.2683    1.0000 </r>
       <r>  -16.8983    1.0000 </r>
       <r>  -16.5633    1.0000 </r>
       <r>  -16.5289    1.0000 </r>
       <r>  -16.4723    1.0000 </r>
       <r>  -16.2425    1.0000 </r>
       <r>  -16.1786    1.0000 </r>
       <r>  -16.1438    1.0000 </r>
       <r>  -16.0861    1.0000 </r>
       <r>  -15.8810    1.0000 </r>
       <r>  -15.8436    1.0000 </r>
       <r>  -15.7468    1.0000 </r>
       <r>  -15.7078    1.0000 </r>
       <r>  -15.6036    1.0000 </r>
       <r>  -15.5204    1.0000 </r>
       <r>  -15.4091    1.0000 </r>
       <r>  -15.3436    1.0000 </r>
       <r>   -9.7882    1.0000 </r>
       <r>   -9.5144    1.0000 </r>
       <r>   -9.2692    1.0000 </r>
       <r>   -8.9261    1.0000 </r>
       <r>   -8.8169    1.0000 </r>
       <r>   -8.7189    1.0000 </r>
       <r>   -8.6193    1.0000 </r>
       <r>   -8.5391    1.0000 </r>
       <r>   -8.4014    1.0000 </r>
       <r>   -8.3535    1.0000 </r>
       <r>   -8.2610    1.0000 </r>
       <r>   -8.1615    1.0000 </r>
       <r>   -8.0641    1.0000 </r>
       <r>   -7.9969    1.0000 </r>
       <r>   -7.9532    1.0000 </r>
       <r>   -7.9255    1.0000 </r>
       <r>   -7.7406    1.0000 </r>
       <r>   -7.6682    1.0000 </r>
       <r>   -7.5830    1.0000 </r>
       <r>   -7.4879    1.0000 </r>
       <r>   -7.4219    1.0000 </r>
       <r>   -7.2227    1.0000 </r>
       <r>   -7.0894    1.0000 </r>
       <r>   -7.0596    1.0000 </r>
       <r>   -6.9522    1.0000 </r>
       <r>   -6.8951    1.0000 </r>
       <r>   -6.8206    1.0000 </r>
       <r>   -6.7605    1.0000 </r>
       <r>   -6.6569    1.0000 </r>
       <r>   -6.6213    1.0000 </r>
       <r>   -6.5858    1.0000 </r>
       <r>   -6.5178    1.0000 </r>
       <r>   -6.4392    1.0000 </r>
       <r>   -6.3802    1.0000 </r>
       <r>   -6.2710    1.0000 </r>
       <r>   -6.1234    1.0000 </r>
       <r>   -6.0999    1.0000 </r>
       <r>   -6.0486    1.0000 </r>
       <r>   -5.9748    1.0000 </r>
       <r>   -5.9303    1.0000 </r>
       <r>   -5.8610    1.0000 </r>
       <r>   -5.8094    1.0000 </r>
       <r>   -5.7152    1.0000 </r>
       <r>   -5.6623    1.0000 </r>
       <r>   -5.6016    1.0000 </r>
       <r>   -5.4155    1.0000 </r>
       <r>   -5.3090    1.0000 </r>
       <r>   -5.1437    1.0000 </r>
       <r>   -5.0580    1.0000 </r>
       <r>   -4.8770    1.0000 </r>
       <r>   -4.7954    1.0000 </r>
       <r>   -4.6968    1.0000 </r>
       <r>   -4.5476    1.0000 </r>
       <r>   -4.4208    1.0000 </r>
       <r>   -4.2888    1.0000 </r>
       <r>   -4.2198    1.0000 </r>
       <r>   -4.1713    1.0000 </r>
       <r>   -3.9527    1.0000 </r>
       <r>   -3.8086    1.0000 </r>
       <r>   -3.5759    0.9977 </r>
       <r>   -3.3018    0.8156 </r>
       <r>   -3.2215    0.6297 </r>
       <r>   -2.9638    0.0679 </r>
       <r>   -2.8216    0.0063 </r>
       <r>   -2.7727    0.0022 </r>
       <r>   -2.6556    0.0001 </r>
       <r>   -2.5844    0.0000 </r>
       <r>   -2.5526    0.0000 </r>
       <r>   -2.4041    0.0000 </r>
       <r>   -2.1427    0.0000 </r>
       <r>   -2.0443    0.0000 </r>
       <r>   -1.9709    0.0000 </r>
       <r>   -1.7988    0.0000 </r>
       <r>   -1.4959    0.0000 </r>
       <r>   -1.3713    0.0000 </r>
       <r>   -1.2730    0.0000 </r>
       <r>   -1.2261    0.0000 </r>
       <r>   -1.1324    0.0000 </r>
       <r>   -1.0177    0.0000 </r>
       <r>   -0.9861    0.0000 </r>
       <r>   -0.9041    0.0000 </r>
       <r>   -0.8320    0.0000 </r>
       <r>   -0.7788    0.0000 </r>
       <r>   -0.6975    0.0000 </r>
       <r>   -0.6553    0.0000 </r>
       <r>   -0.6030    0.0000 </r>
       <r>   -0.4925    0.0000 </r>
       <r>   -0.3110    0.0000 </r>
       <r>   -0.2668    0.0000 </r>
       <r>   -0.1034    0.0000 </r>
       <r>    0.0543    0.0000 </r>
       <r>    0.2535    0.0000 </r>
       <r>    0.2932    0.0000 </r>
       <r>    0.4895    0.0000 </r>
       <r>    0.8472    0.0000 </r>
       <r>    0.8875    0.0000 </r>
       <r>    1.1822    0.0000 </r>
       <r>    1.3670    0.0000 </r>
       <r>    1.5255    0.0000 </r>
       <r>    2.1509    0.0000 </r>
       <r>    2.2949    0.0000 </r>
       <r>    2.4125    0.0000 </r>
      </set>
      <set comment="kpoint 34">
       <r>  -17.5058    1.0000 </r>
       <r>  -17.3195    1.0000 </r>
       <r>  -16.7369    1.0000 </r>
       <r>  -16.6728    1.0000 </r>
       <r>  -16.5612    1.0000 </r>
       <r>  -16.5012    1.0000 </r>
       <r>  -16.2386    1.0000 </r>
       <r>  -16.1637    1.0000 </r>
       <r>  -16.1464    1.0000 </r>
       <r>  -16.0850    1.0000 </r>
       <r>  -15.8691    1.0000 </r>
       <r>  -15.8149    1.0000 </r>
       <r>  -15.7221    1.0000 </r>
       <r>  -15.6895    1.0000 </r>
       <r>  -15.6427    1.0000 </r>
       <r>  -15.5330    1.0000 </r>
       <r>  -15.4176    1.0000 </r>
       <r>  -15.3409    1.0000 </r>
       <r>   -9.8212    1.0000 </r>
       <r>   -9.4321    1.0000 </r>
       <r>   -9.1542    1.0000 </r>
       <r>   -9.0602    1.0000 </r>
       <r>   -8.8580    1.0000 </r>
       <r>   -8.7881    1.0000 </r>
       <r>   -8.6443    1.0000 </r>
       <r>   -8.5479    1.0000 </r>
       <r>   -8.4412    1.0000 </r>
       <r>   -8.3768    1.0000 </r>
       <r>   -8.2026    1.0000 </r>
       <r>   -8.1679    1.0000 </r>
       <r>   -8.0364    1.0000 </r>
       <r>   -7.9493    1.0000 </r>
       <r>   -7.8931    1.0000 </r>
       <r>   -7.8027    1.0000 </r>
       <r>   -7.7445    1.0000 </r>
       <r>   -7.7024    1.0000 </r>
       <r>   -7.6141    1.0000 </r>
       <r>   -7.5214    1.0000 </r>
       <r>   -7.4046    1.0000 </r>
       <r>   -7.2979    1.0000 </r>
       <r>   -7.0811    1.0000 </r>
       <r>   -6.9980    1.0000 </r>
       <r>   -6.9506    1.0000 </r>
       <r>   -6.8761    1.0000 </r>
       <r>   -6.8484    1.0000 </r>
       <r>   -6.7444    1.0000 </r>
       <r>   -6.6708    1.0000 </r>
       <r>   -6.6036    1.0000 </r>
       <r>   -6.5421    1.0000 </r>
       <r>   -6.5117    1.0000 </r>
       <r>   -6.4470    1.0000 </r>
       <r>   -6.4066    1.0000 </r>
       <r>   -6.2612    1.0000 </r>
       <r>   -6.1920    1.0000 </r>
       <r>   -6.1408    1.0000 </r>
       <r>   -5.9958    1.0000 </r>
       <r>   -5.9717    1.0000 </r>
       <r>   -5.9390    1.0000 </r>
       <r>   -5.8612    1.0000 </r>
       <r>   -5.8172    1.0000 </r>
       <r>   -5.7489    1.0000 </r>
       <r>   -5.7062    1.0000 </r>
       <r>   -5.6033    1.0000 </r>
       <r>   -5.4730    1.0000 </r>
       <r>   -5.3776    1.0000 </r>
       <r>   -5.0336    1.0000 </r>
       <r>   -4.9541    1.0000 </r>
       <r>   -4.9313    1.0000 </r>
       <r>   -4.7754    1.0000 </r>
       <r>   -4.6621    1.0000 </r>
       <r>   -4.5418    1.0000 </r>
       <r>   -4.3384    1.0000 </r>
       <r>   -4.2986    1.0000 </r>
       <r>   -4.2496    1.0000 </r>
       <r>   -4.1803    1.0000 </r>
       <r>   -3.9742    1.0000 </r>
       <r>   -3.8047    1.0000 </r>
       <r>   -3.6190    0.9992 </r>
       <r>   -3.3173    0.8434 </r>
       <r>   -3.2250    0.6391 </r>
       <r>   -2.9104    0.0308 </r>
       <r>   -2.8131    0.0053 </r>
       <r>   -2.7962    0.0037 </r>
       <r>   -2.6836    0.0003 </r>
       <r>   -2.5897    0.0000 </r>
       <r>   -2.5595    0.0000 </r>
       <r>   -2.4055    0.0000 </r>
       <r>   -2.1381    0.0000 </r>
       <r>   -2.0365    0.0000 </r>
       <r>   -1.9750    0.0000 </r>
       <r>   -1.7639    0.0000 </r>
       <r>   -1.4908    0.0000 </r>
       <r>   -1.3561    0.0000 </r>
       <r>   -1.2639    0.0000 </r>
       <r>   -1.2295    0.0000 </r>
       <r>   -1.1336    0.0000 </r>
       <r>   -1.0644    0.0000 </r>
       <r>   -0.9782    0.0000 </r>
       <r>   -0.9013    0.0000 </r>
       <r>   -0.8484    0.0000 </r>
       <r>   -0.7405    0.0000 </r>
       <r>   -0.6971    0.0000 </r>
       <r>   -0.6495    0.0000 </r>
       <r>   -0.6220    0.0000 </r>
       <r>   -0.5514    0.0000 </r>
       <r>   -0.3169    0.0000 </r>
       <r>   -0.2657    0.0000 </r>
       <r>   -0.0679    0.0000 </r>
       <r>    0.0268    0.0000 </r>
       <r>    0.2539    0.0000 </r>
       <r>    0.3046    0.0000 </r>
       <r>    0.4994    0.0000 </r>
       <r>    0.8524    0.0000 </r>
       <r>    0.9029    0.0000 </r>
       <r>    1.1872    0.0000 </r>
       <r>    1.3685    0.0000 </r>
       <r>    1.5384    0.0000 </r>
       <r>    2.2408    0.0000 </r>
       <r>    2.2561    0.0000 </r>
       <r>    2.3788    0.0000 </r>
      </set>
     </set>
    </set>
   </array>
  </eigenvalues>
  <separator name="orbital magnetization" >
   <v name="MAGDIPOLOUT">      0.00000000      0.00000000      0.00000000</v>
  </separator>
 </calculation>
 <structure name="finalpos" >
  <crystal>
   <varray name="basis" >
    <v>       8.32848274       4.83964449       0.00000000 </v>
    <v>      -8.30737871       4.80303770       0.00000000 </v>
    <v>       0.00000000       0.00000000      30.00000000 </v>
   </varray>
   <i name="volume">   2406.20328415 </i>
   <varray name="rec_basis" >
    <v>       0.05988319       0.10357452       0.00000000 </v>
    <v>      -0.06033960       0.10383764       0.00000000 </v>
    <v>       0.00000000       0.00000000       0.03333333 </v>
   </varray>
  </crystal>
  <varray name="positions" >
   <v>       0.33682633       0.32455802       0.00177975 </v>
   <v>       0.35270884       0.68602202       0.00072786 </v>
   <v>       0.36794457       0.01732141      -0.00111387 </v>
   <v>       0.67765211       0.00731176      -0.00040244 </v>
   <v>       0.68123736       0.33487610      -0.00053636 </v>
   <v>       0.96694273       0.31629217       0.00106872 </v>
   <v>      -0.02066288       0.01380302      -0.00010395 </v>
   <v>      -0.02344476       0.63111237       0.00000052 </v>
   <v>       0.68117332       0.67790874      -0.00072334 </v>
   <v>       0.10942763       0.22686186       0.94984711 </v>
   <v>       0.22431774       0.10826488       0.04720965 </v>
   <v>       0.11108849       0.55009839       0.95090994 </v>
   <v>       0.22099416       0.44573904       0.04462288 </v>
   <v>       0.11256076       0.88929771       0.95929237 </v>
   <v>       0.22574915       0.78183135       0.04626709 </v>
   <v>       0.44230088       0.22246105       0.94880879 </v>
   <v>       0.55427492       0.11067483       0.05304465 </v>
   <v>       0.44177254       0.55423202       0.95174395 </v>
   <v>       0.55304506       0.44502075       0.04882248 </v>
   <v>       0.44321295       0.88822454       0.94792381 </v>
   <v>       0.55528326       0.77564546       0.05087987 </v>
   <v>       0.77157302       0.21846500       0.94358827 </v>
   <v>       0.88348986       0.11034875       0.05737612 </v>
   <v>       0.77476345       0.55248936       0.94529809 </v>
   <v>       0.88383694       0.43946237       0.05749187 </v>
   <v>       0.77640485       0.88984578       0.94484016 </v>
   <v>       0.89374119       0.78004570       0.05133589 </v>
  </varray>
 </structure>
</modeling>
