unknown system                          
           1
     8.856288    5.109779    0.000000
    -8.852332    5.102974    0.000000
     0.000000    0.000000   30.000000
   V    Mo   W    S 
   3   3   3  18
Direct configuration=     1
   0.33333334  0.33333334  0.00000000
   0.33333334  0.66666669  0.00000000
   0.33333334  0.00000000  0.00000000
   0.66666669  0.00000000  0.00000000
   0.66666669  0.33333334  0.00000000
   1.00000000  0.33333334  0.00000000
   0.00000000  0.00000000  0.00000000
   0.00000000  0.66666669  0.00000000
   0.66666669  0.66666669  0.00000000
   0.11068511  0.22244981  0.95539999
   0.22244981  0.11068511  0.04460000
   0.11068511  0.55578315  0.95539999
   0.22244981  0.44401845  0.04460000
   0.11068511  0.88911647  0.95539999
   0.22244981  0.77735180  0.04460000
   0.44401845  0.22244981  0.95539999
   0.55578315  0.11068511  0.04460000
   0.44401845  0.55578315  0.95539999
   0.55578315  0.44401845  0.04460000
   0.44401845  0.88911647  0.95539999
   0.55578315  0.77735180  0.04460000
   0.77735180  0.22244981  0.95539999
   0.88911647  0.11068511  0.04460000
   0.77735180  0.55578315  0.95539999
   0.88911647  0.44401845  0.04460000
   0.77735180  0.88911647  0.95539999
   0.88911647  0.77735180  0.04460000
unknown system                          
           1
     8.667801    5.002829    0.000000
    -8.664429    4.997033    0.000000
     0.000000    0.000000   30.000000
   V    Mo   W    S 
   3   3   3  18
Direct configuration=     2
   0.33324819  0.33330120  0.00004474
   0.33324207  0.66662836  0.00004252
   0.33578170  0.00117736 -0.00009108
   0.66777899  0.00266103 -0.00021287
   0.66791414  0.33180551 -0.00022028
   0.99745488  0.33210241  0.00027951
  -0.00106892  0.00179827  0.00019316
  -0.00095045  0.66380350  0.00018368
   0.66616367  0.66644622 -0.00014758
   0.11510671  0.22339605  0.95194538
   0.22561410  0.11252247  0.04687062
   0.11512875  0.55814838  0.95193215
   0.22655564  0.44631348  0.04682119
   0.11469076  0.89053297  0.95203331
   0.22560870  0.77918482  0.04687583
   0.43994223  0.22013227  0.95313940
   0.55091896  0.10879783  0.04808500
   0.44090324  0.55396549  0.95309623
   0.55145495  0.44310763  0.04798537
   0.43994967  0.88686213  0.95313404
   0.55143738  0.77506749  0.04799853
   0.77746824  0.22203153  0.95066904
   0.88948545  0.11066524  0.04931058
   0.77793991  0.55621171  0.95070631
   0.88950373  0.44545240  0.04930763
   0.77792073  0.88823530  0.95071143
   0.88902105  0.77786338  0.04930606
unknown system                          
           1
     8.486032    4.903054    0.000000
    -8.482830    4.897545    0.000000
     0.000000    0.000000   30.000000
   V    Mo   W    S 
   3   3   3  18
Direct configuration=     3
   0.33324059  0.33330626  0.00009552
   0.33323689  0.66661822  0.00009299
   0.33648881  0.00153549 -0.00015383
   0.66866676  0.00372622 -0.00023168
   0.66879443  0.33161878 -0.00024132
   0.99621573  0.33148199  0.00029201
  -0.00175689  0.00212970  0.00015216
  -0.00163989  0.66277121  0.00013933
   0.66646031  0.66660531 -0.00009724
   0.11508520  0.22325092  0.95198635
   0.22544258  0.11246766  0.04679053
   0.11510522  0.55830981  0.95197288
   0.22662378  0.44636991  0.04674325
   0.11449597  0.89045974  0.95225144
   0.22544184  0.77911311  0.04679907
   0.43987297  0.22005830  0.95317294
   0.55077212  0.10870814  0.04815155
   0.44105491  0.55401880  0.95312352
   0.55148008  0.44325577  0.04788873
   0.43987843  0.88681961  0.95316486
   0.55146616  0.77491047  0.04790153
   0.77748427  0.22204611  0.95044222
   0.88958516  0.11054785  0.04947227
   0.77803950  0.55642796  0.95068742
   0.88960283  0.44564471  0.04947374
   0.77802128  0.88815245  0.95068831
   0.88905542  0.77785994  0.04924136
unknown system                          
           1
     8.277538    4.794865    0.000000
    -8.263428    4.770462    0.000000
     0.000000    0.000000   30.000000
   V    Mo   W    S 
   3   3   3  18
Direct configuration=     4
   0.33324317  0.33334886  0.00026858
   0.33323253  0.66655655  0.00026598
   0.33897729  0.00280149 -0.00034312
   0.67280321  0.00785185 -0.00020325
   0.67291487  0.33162324 -0.00021047
   0.99088093  0.32881974  0.00023473
  -0.00507073  0.00277862 -0.00007377
  -0.00499575  0.65870767 -0.00008697
   0.66843162  0.66761192  0.00014101
   0.11608675  0.22406727  0.95069922
   0.22626896  0.11290464  0.04781399
   0.11610906  0.55861908  0.95068652
   0.22734614  0.44682655  0.04771234
   0.11509920  0.89084560  0.95170550
   0.22628286  0.77966535  0.04782662
   0.43909225  0.21958966  0.95200547
   0.54960860  0.10809824  0.04980260
   0.44006461  0.55344930  0.95187113
   0.55060189  0.44249802  0.04892251
   0.43907288  0.88631516  0.95199048
   0.55057796  0.77466200  0.04893775
   0.77765868  0.22215720  0.94794073
   0.88940143  0.11056902  0.05176348
   0.77790361  0.55631987  0.94897086
   0.88940379  0.44537488  0.05177560
   0.77789632  0.88822968  0.94895677
   0.88932232  0.77792299  0.05062563
unknown system                          
           1
     8.291840    4.819842    0.000000
    -8.263721    4.771170    0.000000
     0.000000    0.000000   30.000000
   V    Mo   W    S 
   3   3   3  18
Direct configuration=     5
   0.33320749  0.33331795  0.00049675
   0.33320833  0.66652403  0.00049529
   0.34434346  0.00550421 -0.00058531
   0.68108779  0.01532480 -0.00008328
   0.68117901  0.33236881 -0.00007034
   0.98073840  0.32376742  0.00005232
  -0.01212137  0.00447119 -0.00037171
  -0.01207288  0.64985837 -0.00035883
   0.67284263  0.66987855  0.00047755
   0.11640475  0.22532860  0.94909448
   0.22651213  0.11306998  0.04909967
   0.11644297  0.55770170  0.94906757
   0.22656916  0.44657421  0.04903681
   0.11508779  0.89085668  0.95147060
   0.22652184  0.77998626  0.04910542
   0.43955427  0.21974463  0.95032825
   0.54940626  0.10801022  0.05202290
   0.43938211  0.55299476  0.95025307
   0.55035804  0.44126139  0.05012171
   0.43952500  0.88636498  0.95031956
   0.55031774  0.77564746  0.05014704
   0.77767562  0.22214435  0.94417585
   0.88903726  0.11123935  0.05515646
   0.77680463  0.55498865  0.94647675
   0.88903558  0.44437906  0.05517616
   0.77680074  0.88848168  0.94645914
   0.89036573  0.77842515  0.05243602
unknown system                          
           1
     8.287237    4.817457    0.000000
    -8.258858    4.768334    0.000000
     0.000000    0.000000   30.000000
   V    Mo   W    S 
   3   3   3  18
Direct configuration=     6
   0.33307362  0.33309238  0.00057934
   0.33307790  0.66660186  0.00057301
   0.34696245  0.00681096 -0.00068922
   0.68122808  0.01495393 -0.00024572
   0.68129931  0.33281382 -0.00024695
   0.98115621  0.32397767  0.00015035
  -0.01371747  0.00519347 -0.00021988
  -0.01364469  0.64759241 -0.00022624
   0.67417802  0.67056517  0.00040199
   0.11526628  0.22538018  0.94916044
   0.22565596  0.11253269  0.04885835
   0.11529566  0.55650924  0.94913947
   0.22526035  0.44591224  0.04889050
   0.11396673  0.89027507  0.95213269
   0.22566445  0.77966516  0.04886380
   0.44073464  0.22039107  0.95038581
   0.55052862  0.10856570  0.05207507
   0.43994344  0.55328098  0.95040047
   0.55134119  0.44130197  0.04990808
   0.44069852  0.88691663  0.95037972
   0.55129923  0.77661573  0.04993700
   0.77719194  0.22190516  0.94396365
   0.88924383  0.11182331  0.05541501
   0.77605486  0.55417066  0.94630666
   0.88923603  0.44399143  0.05544403
   0.77604647  0.88853171  0.94627427
   0.89117285  0.77884384  0.05238822
unknown system                          
           1
     8.297718    4.828559    0.000000
    -8.264968    4.771865    0.000000
     0.000000    0.000000   30.000000
   V    Mo   W    S 
   3   3   3  18
Direct configuration=     7
   0.33273098  0.33275038  0.00069067
   0.33274350  0.66659384  0.00068190
   0.35021323  0.00843159 -0.00074971
   0.68231539  0.01560981 -0.00024496
   0.68238588  0.33319172 -0.00023949
   0.98015791  0.32348033  0.00007865
  -0.01581128  0.00614255 -0.00023708
  -0.01572293  0.64456581 -0.00023642
   0.67588640  0.67146072  0.00040705
   0.11457851  0.22538915  0.94913591
   0.22507051  0.11210523  0.04866535
   0.11460714  0.55580241  0.94911473
   0.22460826  0.44559283  0.04885260
   0.11328695  0.88992919  0.95284566
   0.22508011  0.77952223  0.04866911
   0.44144629  0.22085343  0.95029263
   0.55113736  0.10886967  0.05220064
   0.44029835  0.55345393  0.95049532
   0.55183576  0.44137851  0.04974224
   0.44140695  0.88716207  0.95028865
   0.55178659  0.77704800  0.04977959
   0.77711406  0.22185513  0.94370675
   0.88900574  0.11211202  0.05580019
   0.77570027  0.55377047  0.94603480
   0.88898975  0.44347541  0.05582117
   0.77570765  0.88857504  0.94599715
   0.89165511  0.77909298  0.05240679
unknown system                          
           1
     8.306075    4.842730    0.000000
    -8.265827    4.773043    0.000000
     0.000000    0.000000   30.000000
   V    Mo   W    S 
   3   3   3  18
Direct configuration=     8
   0.33210763  0.33218234  0.00083726
   0.33214970  0.66648756  0.00082221
   0.35407717  0.01040709 -0.00088149
   0.68301959  0.01597238 -0.00029368
   0.68307013  0.33346960 -0.00028659
   0.97962516  0.32319599  0.00010445
  -0.01765617  0.00734077 -0.00021695
  -0.01760311  0.64154935 -0.00021511
   0.67764758  0.67237647  0.00038836
   0.11382011  0.22534075  0.94911286
   0.22446491  0.11159012  0.04835259
   0.11381584  0.55506755  0.94908835
   0.22408319  0.44531004  0.04875470
   0.11261584  0.88958774  0.95381186
   0.22445671  0.77945171  0.04836048
   0.44212930  0.22133624  0.95025382
   0.55180835  0.10920126  0.05234168
   0.44063807  0.55360501  0.95069764
   0.55231534  0.44158368  0.04948179
   0.44210627  0.88739458  0.95024451
   0.55228924  0.77735571  0.04953935
   0.77690451  0.22173632  0.94353551
   0.88877001  0.11248919  0.05613770
   0.77525662  0.55334140  0.94579496
   0.88874737  0.44287204  0.05615554
   0.77528072  0.88855866  0.94574582
   0.89227436  0.77941092  0.05233228
unknown system                          
           1
     8.318909    4.849082    0.000000
    -8.279271    4.780456    0.000000
     0.000000    0.000000   30.000000
   V    Mo   W    S 
   3   3   3  18
Direct configuration=     9
   0.33005688  0.33064494  0.00114267
   0.33019689  0.66600768  0.00111851
   0.36181155  0.01422338 -0.00123558
   0.68422570  0.01681493 -0.00036582
   0.68430886  0.33368084 -0.00036038
   0.97872683  0.32275769  0.00018939
  -0.02067774  0.00983197 -0.00021579
  -0.02058046  0.63605713 -0.00021872
   0.68123025  0.67434554  0.00032649
   0.11239311  0.22514632  0.94901638
   0.22347313  0.11047594  0.04765659
   0.11237335  0.55383204  0.94901387
   0.22347784  0.44501424  0.04859520
   0.11175321  0.88916119  0.95600399
   0.22348812  0.77958281  0.04764745
   0.44330322  0.22226190  0.95017311
   0.55306188  0.10981708  0.05265933
   0.44110419  0.55383941  0.95123608
   0.55300421  0.44218419  0.04886012
   0.44325509  0.88765263  0.95017645
   0.55293588  0.77744746  0.04894037
   0.77655654  0.22154396  0.94330532
   0.88809283  0.11312978  0.05674191
   0.77452804  0.55267123  0.94543289
   0.88805670  0.44155064  0.05675225
   0.77460320  0.88850578  0.94535723
   0.89345514  0.78003374  0.05205059
unknown system                          
           1
     8.318399    4.849829    0.000000
    -8.277979    4.779846    0.000000
     0.000000    0.000000   30.000000
   V    Mo   W    S 
   3   3   3  18
Direct configuration=    10
   0.32923832  0.33016398  0.00114207
   0.32943079  0.66567638  0.00111141
   0.36160809  0.01413180 -0.00127526
   0.68413241  0.01694987 -0.00033573
   0.68423498  0.33341310 -0.00033068
   0.97893836  0.32286332  0.00023861
  -0.02016506  0.00989150 -0.00019117
  -0.02009650  0.63650199 -0.00019336
   0.68151410  0.67454583  0.00028333
   0.11237002  0.22518730  0.94891678
   0.22358521  0.11035889  0.04763672
   0.11236355  0.55376213  0.94891489
   0.22354300  0.44506441  0.04868003
   0.11205535  0.88931221  0.95619269
   0.22360215  0.77980978  0.04762983
   0.44342331  0.22244276  0.95013791
   0.55322250  0.10989803  0.05271908
   0.44099736  0.55379559  0.95131662
   0.55287456  0.44223641  0.04877345
   0.44336978  0.88756495  0.95013163
   0.55278876  0.77726471  0.04887036
   0.77659421  0.22155201  0.94327689
   0.88795724  0.11315030  0.05677561
   0.77452140  0.55264372  0.94541344
   0.88792186  0.44140455  0.05678722
   0.77460450  0.88853085  0.94532156
   0.89358418  0.78009808  0.05205597
unknown system                          
           1
     8.322412    4.852591    0.000000
    -8.281731    4.782154    0.000000
     0.000000    0.000000   30.000000
   V    Mo   W    S 
   3   3   3  18
Direct configuration=    11
   0.32785843  0.32931030  0.00118825
   0.32814211  0.66517945  0.00114827
   0.36327704  0.01495600 -0.00140574
   0.68443693  0.01737601 -0.00033780
   0.68457011  0.33319964 -0.00033122
   0.97894180  0.32287246  0.00026903
  -0.02057033  0.01059092 -0.00017801
  -0.02049591  0.63540242 -0.00018077
   0.68267704  0.67524039  0.00024456
   0.11200253  0.22512577  0.94885898
   0.22348619  0.11006127  0.04747491
   0.11199188  0.55345165  0.94886510
   0.22345806  0.44503150  0.04870477
   0.11213641  0.88935261  0.95680290
   0.22350698  0.78000670  0.04746378
   0.44377238  0.22275749  0.95015604
   0.55357619  0.11007106  0.05277372
   0.44102168  0.55381183  0.95154438
   0.55292524  0.44241883  0.04849904
   0.44370909  0.88759043  0.95014525
   0.55282242  0.77713817  0.04862112
   0.77660268  0.22154087  0.94328529
   0.88775418  0.11324927  0.05685931
   0.77445618  0.55251623  0.94539940
   0.88771622  0.44110612  0.05687058
   0.77456539  0.88860762  0.94528795
   0.89387356  0.78024942  0.05197080
unknown system                          
           1
     8.323129    4.853339    0.000000
    -8.282216    4.782500    0.000000
     0.000000    0.000000   30.000000
   V    Mo   W    S 
   3   3   3  18
Direct configuration=    12
   0.32656737  0.32857687  0.00119988
   0.32695034  0.66465540  0.00115066
   0.36409398  0.01536004 -0.00149528
   0.68458557  0.01766826 -0.00032934
   0.68474899  0.33296876 -0.00032124
   0.97917020  0.32299343  0.00029915
  -0.02063624  0.01095457 -0.00015992
  -0.02056000  0.63497328 -0.00016319
   0.68350649  0.67576479  0.00021829
   0.11181808  0.22510308  0.94878020
   0.22349294  0.10988808  0.04741600
   0.11179576  0.55328083  0.94879160
   0.22343920  0.44502443  0.04877312
   0.11229972  0.88943415  0.95714711
   0.22351420  0.78018738  0.04740194
   0.44400686  0.22299672  0.95017431
   0.55379244  0.11017631  0.05281147
   0.44099591  0.55379655  0.95170246
   0.55288204  0.44250119  0.04828715
   0.44393923  0.88758545  0.95015559
   0.55277308  0.77702234  0.04843838
   0.77665713  0.22155293  0.94327770
   0.88764417  0.11331239  0.05691156
   0.77445817  0.55244403  0.94539517
   0.88760456  0.44093703  0.05692332
   0.77459333  0.88869826  0.94526359
   0.89408095  0.78035790  0.05195022
unknown system                          
           1
     8.317770    4.850794    0.000000
    -8.276218    4.778852    0.000000
     0.000000    0.000000   30.000000
   V    Mo   W    S 
   3   3   3  18
Direct configuration=    13
   0.32587879  0.32821009  0.00120208
   0.32632268  0.66435326  0.00114766
   0.36441743  0.01552134 -0.00153516
   0.68468463  0.01781581 -0.00032464
   0.68486624  0.33287119 -0.00031572
   0.97931207  0.32306830  0.00031292
  -0.02066395  0.01108173 -0.00014969
  -0.02058906  0.63481697 -0.00015306
   0.68392627  0.67603717  0.00020700
   0.11173864  0.22508303  0.94873810
   0.22349173  0.10981713  0.04739852
   0.11171054  0.55321658  0.94875303
   0.22343441  0.44502469  0.04881731
   0.11236338  0.88946492  0.95728886
   0.22351403  0.78025694  0.04738210
   0.44412439  0.22312000  0.95018692
   0.55389778  0.11022735  0.05282799
   0.44099424  0.55379503  0.95177991
   0.55285760  0.44253553  0.04817673
   0.44405441  0.88757880  0.95016421
   0.55274508  0.77696960  0.04834475
   0.77669931  0.22156580  0.94327489
   0.88760437  0.11334711  0.05693362
   0.77446550  0.55241430  0.94539552
   0.88756415  0.44086535  0.05694545
   0.77461472  0.88874372  0.94525231
   0.89418508  0.78041269  0.05194830
unknown system                          
           1
     8.329571    4.857855    0.000000
    -8.288182    4.786187    0.000000
     0.000000    0.000000   30.000000
   V    Mo   W    S 
   3   3   3  18
Direct configuration=    14
   0.32690824  0.32874744  0.00121427
   0.32712792  0.66484367  0.00117802
   0.36430403  0.01537609 -0.00150156
   0.68467719  0.01765827 -0.00033073
   0.68483614  0.33307765 -0.00032479
   0.97886695  0.32287672  0.00030898
  -0.02088266  0.01097595 -0.00016382
  -0.02068103  0.63470420 -0.00017353
   0.68356870  0.67578702  0.00022506
   0.11169650  0.22512993  0.94877945
   0.22344242  0.10978546  0.04737519
   0.11175150  0.55317819  0.94880180
   0.22337026  0.44505253  0.04873689
   0.11224452  0.88941243  0.95728754
   0.22351704  0.78020112  0.04735051
   0.44410171  0.22306073  0.95012639
   0.55391123  0.11023826  0.05284715
   0.44101474  0.55386365  0.95170988
   0.55302623  0.44262062  0.04830362
   0.44400188  0.88754761  0.95012206
   0.55281648  0.77698797  0.04841542
   0.77658580  0.22152215  0.94327874
   0.88753585  0.11331046  0.05693522
   0.77439486  0.55240919  0.94539490
   0.88749906  0.44082738  0.05694556
   0.77452395  0.88866779  0.94526417
   0.89405493  0.78035197  0.05189350
unknown system                          
           1
     8.331027    4.858600    0.000000
    -8.289711    4.787059    0.000000
     0.000000    0.000000   30.000000
   V    Mo   W    S 
   3   3   3  18
Direct configuration=    15
   0.32353829  0.32694986  0.00121087
   0.32422249  0.66332870  0.00113574
   0.36552294  0.01609928 -0.00166774
   0.68496120  0.01829250 -0.00030826
   0.68520128  0.33251103 -0.00029618
   0.97985822  0.32334259  0.00035863
  -0.02069304  0.01153838 -0.00011481
  -0.02066091  0.63432787 -0.00011662
   0.68530116  0.67692776  0.00016537
   0.11150029  0.22501930  0.94859601
   0.22349558  0.10959449  0.04734207
   0.11142956  0.55301121  0.94861795
   0.22343110  0.44501123  0.04896777
   0.11259020  0.88957388  0.95774679
   0.22350420  0.78049597  0.04732232
   0.44449227  0.22351537  0.95023470
   0.55422246  0.11038363  0.05288082
   0.44097844  0.55376654  0.95203260
   0.55273752  0.44261458  0.04781256
   0.44442493  0.88756983  0.95019408
   0.55264449  0.77680791  0.04804654
   0.77684371  0.22160974  0.94325248
   0.88748934  0.11347205  0.05701572
   0.77449058  0.55231271  0.94538265
   0.88744588  0.44063565  0.05702825
   0.77468696  0.88889785  0.94520143
   0.89455532  0.78060455  0.05195819
unknown system                          
           1
     8.321277    4.852589    0.000000
    -8.281071    4.782957    0.000000
     0.000000    0.000000   30.000000
   V    Mo   W    S 
   3   3   3  18
Direct configuration=    16
   0.32260453  0.32651182  0.00120336
   0.32325241  0.66287434  0.00112810
   0.36597613  0.01626332 -0.00172143
   0.68508663  0.01847873 -0.00030074
   0.68534048  0.33236044 -0.00028774
   0.98012567  0.32350329  0.00037913
  -0.02073683  0.01169149 -0.00009557
  -0.02061437  0.63412842 -0.00010347
   0.68587981  0.67732589  0.00013233
   0.11137074  0.22498385  0.94853372
   0.22348613  0.10948305  0.04732444
   0.11134202  0.55293664  0.94856442
   0.22343787  0.44505769  0.04902576
   0.11269012  0.88962629  0.95793729
   0.22353105  0.78057682  0.04729726
   0.44465495  0.22369165  0.95025189
   0.55436808  0.11045302  0.05290532
   0.44096598  0.55379071  0.95214952
   0.55270390  0.44265786  0.04766527
   0.44456182  0.88751114  0.95021164
   0.55254498  0.77670593  0.04790630
   0.77690363  0.22162714  0.94324057
   0.88743317  0.11351632  0.05705402
   0.77449497  0.55227550  0.94538031
   0.88738951  0.44053678  0.05706700
   0.77471047  0.88895558  0.94517579
   0.89471059  0.78069076  0.05197540
unknown system                          
           1
     8.322607    4.852186    0.000000
    -8.283317    4.784141    0.000000
     0.000000    0.000000   30.000000
   V    Mo   W    S 
   3   3   3  18
Direct configuration=    17
   0.32753648  0.32879767  0.00126974
   0.32864408  0.66550435  0.00121123
   0.36411880  0.01555622 -0.00147354
   0.68422438  0.01738897 -0.00033146
   0.68448385  0.33313866 -0.00032241
   0.97883968  0.32272715  0.00025654
  -0.02039552  0.01148581 -0.00023792
  -0.02061390  0.63468017 -0.00022061
   0.68259738  0.67507732  0.00027587
   0.11197069  0.22528574  0.94887934
   0.22353160  0.10994829  0.04737266
   0.11169743  0.55317906  0.94892155
   0.22342780  0.44484873  0.04858115
   0.11216670  0.88935466  0.95715548
   0.22345780  0.78020926  0.04731494
   0.44382165  0.22285337  0.95010706
   0.55363240  0.11011990  0.05282253
   0.44089730  0.55360162  0.95155672
   0.55290889  0.44244135  0.04848714
   0.44383100  0.88783474  0.95010523
   0.55310227  0.77725349  0.04867035
   0.77647929  0.22148595  0.94324207
   0.88756649  0.11322618  0.05690800
   0.77434342  0.55244557  0.94536523
   0.88754303  0.44093704  0.05692056
   0.77448910  0.88856233  0.94531965
   0.89391235  0.78027084  0.05184280
unknown system                          
           1
     8.319772    4.849688    0.000000
    -8.280926    4.782417    0.000000
     0.000000    0.000000   30.000000
   V    Mo   W    S 
   3   3   3  18
Direct configuration=    18
   0.32880504  0.32924311  0.00129442
   0.33033377  0.66645749  0.00124270
   0.36401558  0.01556022 -0.00141651
   0.68398395  0.01717698 -0.00034383
   0.68429675  0.33332619 -0.00034387
   0.97817734  0.32235183  0.00025871
  -0.02041880  0.01154908 -0.00025701
  -0.02078980  0.63453894 -0.00023592
   0.68179702  0.67448768  0.00030907
   0.11209954  0.22548296  0.94891660
   0.22351086  0.10993718  0.04735761
   0.11179582  0.55311727  0.94899078
   0.22335576  0.44479740  0.04844749
   0.11204078  0.88928711  0.95712691
   0.22345328  0.78020184  0.04725910
   0.44369208  0.22273861  0.95003835
   0.55349259  0.11007424  0.05282212
   0.44087209  0.55355211  0.95144740
   0.55295313  0.44241888  0.04867623
   0.44370756  0.88790539  0.95004190
   0.55325563  0.77735272  0.04885676
   0.77631880  0.22142615  0.94325520
   0.88750424  0.11317105  0.05688383
   0.77427311  0.55243647  0.94536849
   0.88750751  0.44092952  0.05689652
   0.77440197  0.88847505  0.94536882
   0.89377886  0.78021896  0.05173802
unknown system                          
           1
     8.326291    4.853733    0.000000
    -8.287165    4.785979    0.000000
     0.000000    0.000000   30.000000
   V    Mo   W    S 
   3   3   3  18
Direct configuration=    19
   0.32871028  0.32886247  0.00132360
   0.33112418  0.66717929  0.00126760
   0.36483866  0.01594738 -0.00145408
   0.68397373  0.01723179 -0.00035558
   0.68442940  0.33343215 -0.00036166
   0.97740226  0.32189779  0.00029902
  -0.02060144  0.01204055 -0.00028402
  -0.02110355  0.63379761 -0.00026474
   0.68191162  0.67445997  0.00024070
   0.11184135  0.22562962  0.94889464
   0.22344586  0.10967443  0.04726964
   0.11164625  0.55277373  0.94903811
   0.22314024  0.44479292  0.04832704
   0.11200191  0.88925910  0.95759228
   0.22350199  0.78038581  0.04709522
   0.44391579  0.22301919  0.94995635
   0.55376750  0.11025581  0.05288373
   0.44092292  0.55359331  0.95158410
   0.55294807  0.44251631  0.04860190
   0.44389374  0.88785359  0.94993811
   0.55332811  0.77723988  0.04882304
   0.77613958  0.22134328  0.94326944
   0.88721568  0.11316457  0.05694112
   0.77420708  0.55231242  0.94539145
   0.88726481  0.44065065  0.05695793
   0.77433090  0.88853902  0.94541672
   0.89401754  0.78036181  0.05160824
unknown system                          
           1
     8.330778    4.856851    0.000000
    -8.291405    4.788665    0.000000
     0.000000    0.000000   30.000000
   V    Mo   W    S 
   3   3   3  18
Direct configuration=    20
   0.32715725  0.32823066  0.00129772
   0.32923235  0.66615371  0.00123399
   0.36515419  0.01605727 -0.00151971
   0.68417671  0.01752215 -0.00033899
   0.68460500  0.33312698 -0.00034175
   0.97809979  0.32230317  0.00032625
  -0.02060036  0.01195894 -0.00022296
  -0.02097458  0.63389771 -0.00020995
   0.68287854  0.67515777  0.00022991
   0.11176158  0.22550534  0.94878655
   0.22346982  0.10962483  0.04728817
   0.11158913  0.55280846  0.94890799
   0.22322084  0.44485278  0.04850301
   0.11220091  0.88936282  0.95767004
   0.22352026  0.78045368  0.04714573
   0.44408428  0.22317457  0.95003112
   0.55388361  0.11028959  0.05288696
   0.44091758  0.55362069  0.95171544
   0.55286458  0.44253724  0.04837042
   0.44405028  0.88778902  0.95000511
   0.55314131  0.77711531  0.04860597
   0.77632741  0.22141309  0.94325576
   0.88727373  0.11325144  0.05697000
   0.77427618  0.55230267  0.94537716
   0.88730472  0.44062883  0.05698527
   0.77442558  0.88863899  0.94534785
   0.89417376  0.78043676  0.05169284
unknown system                          
           1
     8.330575    4.856618    0.000000
    -8.291254    4.788524    0.000000
     0.000000    0.000000   30.000000
   V    Mo   W    S 
   3   3   3  18
Direct configuration=    21
   0.32521995  0.32718847  0.00130016
   0.32777585  0.66557088  0.00121474
   0.36599599  0.01641795 -0.00162986
   0.68428261  0.01780923 -0.00032548
   0.68484914  0.33283379 -0.00032547
   0.97842919  0.32246946  0.00036094
  -0.02061053  0.01228890 -0.00018277
  -0.02093387  0.63354341 -0.00017740
   0.68398842  0.67590147  0.00019670
   0.11148736  0.22544427  0.94867646
   0.22350008  0.10944439  0.04725765
   0.11138644  0.55261519  0.94883214
   0.22318701  0.44491128  0.04859260
   0.11241928  0.88946535  0.95803591
   0.22361758  0.78066394  0.04709574
   0.44438578  0.22348046  0.95007747
   0.55417595  0.11044446  0.05291724
   0.44092725  0.55364347  0.95192909
   0.55274890  0.44259649  0.04806039
   0.44433032  0.88775452  0.95001804
   0.55303984  0.77694308  0.04836174
   0.77640029  0.22142894  0.94324862
   0.88714246  0.11330416  0.05703606
   0.77432527  0.55222371  0.94536869
   0.88718906  0.44045329  0.05705256
   0.77450149  0.88879645  0.94530371
   0.89445332  0.78057743  0.05170421
unknown system                          
           1
     8.334846    4.858091    0.000000
    -8.296293    4.791328    0.000000
     0.000000    0.000000   30.000000
   V    Mo   W    S 
   3   3   3  18
Direct configuration=    22
   0.32566323  0.32741335  0.00130076
   0.32807584  0.66570521  0.00122218
   0.36586111  0.01635694 -0.00161007
   0.68424218  0.01774641 -0.00032756
   0.68477025  0.33288276 -0.00032827
   0.97835534  0.32243453  0.00035192
  -0.02060237  0.01224515 -0.00019163
  -0.02093052  0.63359999 -0.00018509
   0.68374861  0.67573550  0.00020522
   0.11153338  0.22545885  0.94870098
   0.22349687  0.10947591  0.04725874
   0.11142459  0.55264809  0.94884894
   0.22319218  0.44490269  0.04857016
   0.11238060  0.88944820  0.95797253
   0.22360038  0.78062373  0.04710096
   0.44432739  0.22341193  0.95006680
   0.55411963  0.11041391  0.05291058
   0.44092015  0.55364195  0.95188533
   0.55278008  0.44258648  0.04812820
   0.44427100  0.88776013  0.95001761
   0.55305476  0.77697567  0.04840923
   0.77638029  0.22142491  0.94324867
   0.88716462  0.11329425  0.05702696
   0.77430712  0.55223349  0.94536536
   0.88720479  0.44048117  0.05704313
   0.77447805  0.88876424  0.94530867
   0.89439489  0.78054904  0.05169957
unknown system                          
           1
     8.329934    4.857135    0.000000
    -8.290383    4.788634    0.000000
     0.000000    0.000000   30.000000
   V    Mo   W    S 
   3   3   3  18
Direct configuration=    23
   0.32459877  0.32691120  0.00128642
   0.32696716  0.66535466  0.00122064
   0.36645818  0.01646648 -0.00166661
   0.68423166  0.01795571 -0.00032233
   0.68480488  0.33254869 -0.00032260
   0.97868828  0.32265028  0.00037564
  -0.02064767  0.01239310 -0.00016400
  -0.02070631  0.63339724 -0.00017487
   0.68438389  0.67621851  0.00017831
   0.11130910  0.22535936  0.94863182
   0.22347884  0.10927122  0.04723686
   0.11136212  0.55259867  0.94881165
   0.22321254  0.44505858  0.04861111
   0.11257357  0.88956017  0.95820404
   0.22371306  0.78074836  0.04705451
   0.44448522  0.22349318  0.95011179
   0.55419493  0.11044848  0.05290833
   0.44088001  0.55370926  0.95202436
   0.55273918  0.44261768  0.04795535
   0.44434773  0.88770309  0.95006543
   0.55286246  0.77681817  0.04822658
   0.77644358  0.22144331  0.94325136
   0.88711877  0.11330867  0.05704096
   0.77438987  0.55221497  0.94539180
   0.88716364  0.44040968  0.05706045
   0.77458795  0.88889652  0.94530363
   0.89457303  0.78065920  0.05169926
unknown system                          
           1
     8.334057    4.858847    0.000000
    -8.294716    4.790715    0.000000
     0.000000    0.000000   30.000000
   V    Mo   W    S 
   3   3   3  18
Direct configuration=    24
   0.32501191  0.32711298  0.00129346
   0.32784803  0.66560639  0.00121634
   0.36606406  0.01639278 -0.00163904
   0.68429605  0.01780273 -0.00032358
   0.68492437  0.33288727 -0.00032283
   0.97838498  0.32247004  0.00036691
  -0.02068639  0.01224929 -0.00018038
  -0.02095566  0.63347305 -0.00017573
   0.68410753  0.67597867  0.00018058
   0.11144485  0.22545736  0.94865592
   0.22345643  0.10937788  0.04728149
   0.11132382  0.55258917  0.94885203
   0.22314696  0.44491533  0.04860453
   0.11240592  0.88945756  0.95806520
   0.22363091  0.78064780  0.04706882
   0.44445707  0.22358558  0.95006068
   0.55422751  0.11047774  0.05291217
   0.44094043  0.55364818  0.95193798
   0.55274947  0.44260445  0.04804306
   0.44437186  0.88776248  0.95001835