   27   27  100    1
  0.9710400E+02  0.1002848E-08  0.1002848E-08  0.3000000E-08  0.5000000E-15
  1.000000000000000E-004
  CAR 
 unknown system                          
    159     34    120
 
  0.0000000E+00  0.0000000E+00  0.0000000E+00  0.1562500E-01
    1      -17.798184   1.000000
    2      -16.718843   1.000000
    3      -16.626494   1.000000
    4      -16.584339   1.000000
    5      -16.526336   1.000000
    6      -16.465563   1.000000
    7      -16.358569   1.000000
    8      -16.324282   1.000000
    9      -16.176537   1.000000
   10      -16.150872   1.000000
   11      -16.043869   1.000000
   12      -16.012143   1.000000
   13      -15.845199   1.000000
   14      -15.770619   1.000000
   15      -15.599549   1.000000
   16      -15.463507   1.000000
   17      -15.389624   1.000000
   18      -15.272044   1.000000
   19       -9.248987   1.000000
   20       -8.983015   1.000000
   21       -8.920985   1.000000
   22       -8.821595   1.000000
   23       -8.773776   1.000000
   24       -8.743416   1.000000
   25       -8.679945   1.000000
   26       -8.580800   1.000000
   27       -8.509341   1.000000
   28       -8.453177   1.000000
   29       -8.383246   1.000000
   30       -8.349818   1.000000
   31       -8.301549   1.000000
   32       -8.178986   1.000000
   33       -8.093505   1.000000
   34       -8.031013   1.000000
   35       -7.867071   1.000000
   36       -7.757371   1.000000
   37       -7.719972   1.000000
   38       -7.501071   1.000000
   39       -7.474661   1.000000
   40       -7.430823   1.000000
   41       -7.320612   1.000000
   42       -7.205018   1.000000
   43       -7.151796   1.000000
   44       -6.965850   1.000000
   45       -6.884954   1.000000
   46       -6.762559   1.000000
   47       -6.673927   1.000000
   48       -6.617998   1.000000
   49       -6.599064   1.000000
   50       -6.501782   1.000000
   51       -6.461400   1.000000
   52       -6.445470   1.000000
   53       -6.355322   1.000000
   54       -6.244767   1.000000
   55       -6.173850   1.000000
   56       -6.134614   1.000000
   57       -6.083510   1.000000
   58       -5.836700   1.000000
   59       -5.741002   1.000000
   60       -5.565394   1.000000
   61       -5.467863   1.000000
   62       -5.373616   1.000000
   63       -5.254276   1.000000
   64       -5.155539   1.000000
   65       -5.091263   1.000000
   66       -5.029815   1.000000
   67       -4.949210   1.000000
   68       -4.914289   1.000000
   69       -4.824375   1.000000
   70       -4.720842   1.000000
   71       -4.670813   1.000000
   72       -4.597824   1.000000
   73       -4.500468   1.000000
   74       -4.276374   1.000000
   75       -4.157728   1.000000
   76       -4.007191   1.000000
   77       -3.652185   0.996718
   78       -3.550386   0.977162
   79       -3.513545   0.958883
   80       -3.401623   0.828042
   81       -3.312766   0.624813
   82       -2.884614   0.003371
   83       -2.835298   0.001114
   84       -2.660893   0.000009
   85       -2.600721   0.000001
   86       -2.454297   0.000000
   87       -2.390005   0.000000
   88       -2.208600   0.000000
   89       -2.103225   0.000000
   90       -2.009541   0.000000
   91       -1.639509   0.000000
   92       -1.559319   0.000000
   93       -1.449457   0.000000
   94       -1.348397   0.000000
   95       -1.156314   0.000000
   96       -1.105573   0.000000
   97       -0.950298   0.000000
   98       -0.910451   0.000000
   99       -0.818688   0.000000
  100       -0.676107   0.000000
  101       -0.591534   0.000000
  102       -0.483384   0.000000
  103       -0.438595   0.000000
  104       -0.326137   0.000000
  105       -0.210035   0.000000
  106       -0.120106   0.000000
  107       -0.095690   0.000000
  108       -0.024995   0.000000
  109        0.065857   0.000000
  110        0.158000   0.000000
  111        0.290732   0.000000
  112        0.475730   0.000000
  113        0.659003   0.000000
  114        0.818104   0.000000
  115        0.897878   0.000000
  116        1.110337   0.000000
  117        1.292200   0.000000
  118        1.642554   0.000000
  119        1.834732   0.000000
  120        2.153031   0.000000
 
  0.1250000E+00  0.2775558E-16  0.0000000E+00  0.3125000E-01
    1      -17.772941   1.000000
    2      -16.792420   1.000000
    3      -16.682320   1.000000
    4      -16.591728   1.000000
    5      -16.569202   1.000000
    6      -16.426549   1.000000
    7      -16.327064   1.000000
    8      -16.287447   1.000000
    9      -16.181318   1.000000
   10      -16.132541   1.000000
   11      -16.049985   1.000000
   12      -15.942660   1.000000
   13      -15.842352   1.000000
   14      -15.758655   1.000000
   15      -15.609434   1.000000
   16      -15.481533   1.000000
   17      -15.392025   1.000000
   18      -15.275229   1.000000
   19       -9.236605   1.000000
   20       -9.184012   1.000000
   21       -9.014538   1.000000
   22       -8.898678   1.000000
   23       -8.795486   1.000000
   24       -8.739506   1.000000
   25       -8.702406   1.000000
   26       -8.550999   1.000000
   27       -8.502784   1.000000
   28       -8.440242   1.000000
   29       -8.335990   1.000000
   30       -8.263161   1.000000
   31       -8.188019   1.000000
   32       -8.140662   1.000000
   33       -8.084003   1.000000
   34       -7.912260   1.000000
   35       -7.807914   1.000000
   36       -7.734177   1.000000
   37       -7.670987   1.000000
   38       -7.557577   1.000000
   39       -7.521431   1.000000
   40       -7.401630   1.000000
   41       -7.321833   1.000000
   42       -7.222309   1.000000
   43       -7.143489   1.000000
   44       -6.940671   1.000000
   45       -6.910955   1.000000
   46       -6.756762   1.000000
   47       -6.717746   1.000000
   48       -6.654634   1.000000
   49       -6.558179   1.000000
   50       -6.490748   1.000000
   51       -6.476873   1.000000
   52       -6.413266   1.000000
   53       -6.331963   1.000000
   54       -6.266874   1.000000
   55       -6.208971   1.000000
   56       -6.156715   1.000000
   57       -5.979059   1.000000
   58       -5.862416   1.000000
   59       -5.738767   1.000000
   60       -5.569554   1.000000
   61       -5.450095   1.000000
   62       -5.430493   1.000000
   63       -5.335019   1.000000
   64       -5.256626   1.000000
   65       -5.128164   1.000000
   66       -5.017107   1.000000
   67       -4.970077   1.000000
   68       -4.908020   1.000000
   69       -4.776154   1.000000
   70       -4.730253   1.000000
   71       -4.660240   1.000000
   72       -4.594980   1.000000
   73       -4.426615   1.000000
   74       -4.237345   1.000000
   75       -4.134710   1.000000
   76       -3.974064   1.000000
   77       -3.758105   0.999737
   78       -3.663683   0.997441
   79       -3.572072   0.984290
   80       -3.319270   0.642123
   81       -3.208740   0.338183
   82       -2.879343   0.003011
   83       -2.798510   0.000453
   84       -2.662424   0.000009
   85       -2.593744   0.000001
   86       -2.456235   0.000000
   87       -2.377299   0.000000
   88       -2.194219   0.000000
   89       -2.090001   0.000000
   90       -1.990555   0.000000
   91       -1.641397   0.000000
   92       -1.566412   0.000000
   93       -1.441177   0.000000
   94       -1.354725   0.000000
   95       -1.154150   0.000000
   96       -1.088896   0.000000
   97       -0.946760   0.000000
   98       -0.910575   0.000000
   99       -0.830167   0.000000
  100       -0.733126   0.000000
  101       -0.683400   0.000000
  102       -0.568038   0.000000
  103       -0.481069   0.000000
  104       -0.409933   0.000000
  105       -0.330431   0.000000
  106       -0.115206   0.000000
  107       -0.092264   0.000000
  108       -0.002952   0.000000
  109        0.109610   0.000000
  110        0.180158   0.000000
  111        0.269274   0.000000
  112        0.573386   0.000000
  113        0.689010   0.000000
  114        0.861793   0.000000
  115        0.900682   0.000000
  116        1.098627   0.000000
  117        1.254208   0.000000
  118        1.685229   0.000000
  119        1.873641   0.000000
  120        2.187861   0.000000
 
  0.2500000E+00  0.5551115E-16  0.0000000E+00  0.3125000E-01
    1      -17.698189   1.000000
    2      -16.993807   1.000000
    3      -16.709794   1.000000
    4      -16.639418   1.000000
    5      -16.605990   1.000000
    6      -16.377670   1.000000
    7      -16.310153   1.000000
    8      -16.236810   1.000000
    9      -16.147829   1.000000
   10      -16.100924   1.000000
   11      -16.028623   1.000000
   12      -15.848566   1.000000
   13      -15.842146   1.000000
   14      -15.705353   1.000000
   15      -15.633719   1.000000
   16      -15.520345   1.000000
   17      -15.404223   1.000000
   18      -15.284640   1.000000
   19       -9.492765   1.000000
   20       -9.265722   1.000000
   21       -9.072069   1.000000
   22       -8.990539   1.000000
   23       -8.886882   1.000000
   24       -8.808912   1.000000
   25       -8.669038   1.000000
   26       -8.532157   1.000000
   27       -8.478071   1.000000
   28       -8.402355   1.000000
   29       -8.256207   1.000000
   30       -8.196503   1.000000
   31       -8.142411   1.000000
   32       -8.030102   1.000000
   33       -7.930065   1.000000
   34       -7.889452   1.000000
   35       -7.739348   1.000000
   36       -7.676806   1.000000
   37       -7.597970   1.000000
   38       -7.554999   1.000000
   39       -7.476701   1.000000
   40       -7.380594   1.000000
   41       -7.272159   1.000000
   42       -7.178169   1.000000
   43       -7.125337   1.000000
   44       -6.961400   1.000000
   45       -6.874140   1.000000
   46       -6.818369   1.000000
   47       -6.713277   1.000000
   48       -6.650900   1.000000
   49       -6.586495   1.000000
   50       -6.534857   1.000000
   51       -6.447111   1.000000
   52       -6.363012   1.000000
   53       -6.303263   1.000000
   54       -6.246516   1.000000
   55       -6.182925   1.000000
   56       -6.139623   1.000000
   57       -5.954278   1.000000
   58       -5.836044   1.000000
   59       -5.768477   1.000000
   60       -5.664498   1.000000
   61       -5.643233   1.000000
   62       -5.516467   1.000000
   63       -5.432247   1.000000
   64       -5.392673   1.000000
   65       -5.199111   1.000000
   66       -5.005879   1.000000
   67       -4.939459   1.000000
   68       -4.880476   1.000000
   69       -4.784190   1.000000
   70       -4.720869   1.000000
   71       -4.555803   1.000000
   72       -4.527388   1.000000
   73       -4.383719   1.000000
   74       -4.273466   1.000000
   75       -4.084363   1.000000
   76       -3.975438   1.000000
   77       -3.891200   0.999995
   78       -3.753776   0.999705
   79       -3.572366   0.984372
   80       -3.249338   0.448141
   81       -3.080465   0.092674
   82       -2.861030   0.002013
   83       -2.744093   0.000107
   84       -2.641464   0.000005
   85       -2.588832   0.000001
   86       -2.459660   0.000000
   87       -2.348761   0.000000
   88       -2.160912   0.000000
   89       -2.038020   0.000000
   90       -1.931289   0.000000
   91       -1.651447   0.000000
   92       -1.573425   0.000000
   93       -1.437644   0.000000
   94       -1.363356   0.000000
   95       -1.173686   0.000000
   96       -1.046178   0.000000
   97       -0.993207   0.000000
   98       -0.948401   0.000000
   99       -0.891164   0.000000
  100       -0.842178   0.000000
  101       -0.783018   0.000000
  102       -0.718250   0.000000
  103       -0.621019   0.000000
  104       -0.525385   0.000000
  105       -0.433273   0.000000
  106       -0.247507   0.000000
  107       -0.113775   0.000000
  108        0.002326   0.000000
  109        0.102175   0.000000
  110        0.256555   0.000000
  111        0.318131   0.000000
  112        0.647811   0.000000
  113        0.739346   0.000000
  114        0.887296   0.000000
  115        0.988037   0.000000
  116        1.124422   0.000000
  117        1.211661   0.000000
  118        1.805574   0.000000
  119        1.985122   0.000000
  120        2.291352   0.000000
 
  0.3750000E+00  0.0000000E+00  0.0000000E+00  0.3125000E-01
    1      -17.577413   1.000000
    2      -17.209372   1.000000
    3      -16.745044   1.000000
    4      -16.652172   1.000000
    5      -16.627413   1.000000
    6      -16.382986   1.000000
    7      -16.286788   1.000000
    8      -16.214596   1.000000
    9      -16.107593   1.000000
   10      -16.044780   1.000000
   11      -15.979950   1.000000
   12      -15.863056   1.000000
   13      -15.818877   1.000000
   14      -15.672820   1.000000
   15      -15.604832   1.000000
   16      -15.549738   1.000000
   17      -15.425524   1.000000
   18      -15.297403   1.000000
   19       -9.707688   1.000000
   20       -9.363505   1.000000
   21       -9.097945   1.000000
   22       -8.996896   1.000000
   23       -8.941449   1.000000
   24       -8.834562   1.000000
   25       -8.592338   1.000000
   26       -8.513652   1.000000
   27       -8.468130   1.000000
   28       -8.395311   1.000000
   29       -8.263602   1.000000
   30       -8.185570   1.000000
   31       -8.149795   1.000000
   32       -7.951413   1.000000
   33       -7.918907   1.000000
   34       -7.844411   1.000000
   35       -7.754744   1.000000
   36       -7.709107   1.000000
   37       -7.592658   1.000000
   38       -7.452512   1.000000
   39       -7.346097   1.000000
   40       -7.299714   1.000000
   41       -7.200792   1.000000
   42       -7.121436   1.000000
   43       -7.006079   1.000000
   44       -6.931653   1.000000
   45       -6.892283   1.000000
   46       -6.810677   1.000000
   47       -6.722143   1.000000
   48       -6.625027   1.000000
   49       -6.573053   1.000000
   50       -6.464745   1.000000
   51       -6.425015   1.000000
   52       -6.324639   1.000000
   53       -6.287562   1.000000
   54       -6.228473   1.000000
   55       -6.144663   1.000000
   56       -6.095938   1.000000
   57       -5.998832   1.000000
   58       -5.952232   1.000000
   59       -5.888279   1.000000
   60       -5.782603   1.000000
   61       -5.701315   1.000000
   62       -5.639890   1.000000
   63       -5.573678   1.000000
   64       -5.439608   1.000000
   65       -5.227172   1.000000
   66       -4.972821   1.000000
   67       -4.918914   1.000000
   68       -4.852513   1.000000
   69       -4.808426   1.000000
   70       -4.733259   1.000000
   71       -4.617604   1.000000
   72       -4.468649   1.000000
   73       -4.460202   1.000000
   74       -4.206527   1.000000
   75       -4.077146   1.000000
   76       -3.999762   1.000000
   77       -3.889128   0.999994
   78       -3.700494   0.998893
   79       -3.570744   0.983916
   80       -3.218589   0.364002
   81       -2.979868   0.020885
   82       -2.844689   0.001387
   83       -2.725438   0.000063
   84       -2.647356   0.000006
   85       -2.563524   0.000000
   86       -2.434039   0.000000
   87       -2.330780   0.000000
   88       -2.117181   0.000000
   89       -1.954921   0.000000
   90       -1.857106   0.000000
   91       -1.659000   0.000000
   92       -1.583299   0.000000
   93       -1.451480   0.000000
   94       -1.379855   0.000000
   95       -1.265636   0.000000
   96       -1.103156   0.000000
   97       -1.030290   0.000000
   98       -0.998748   0.000000
   99       -0.941602   0.000000
  100       -0.909504   0.000000
  101       -0.866538   0.000000
  102       -0.794050   0.000000
  103       -0.693289   0.000000
  104       -0.607648   0.000000
  105       -0.490922   0.000000
  106       -0.360620   0.000000
  107       -0.166620   0.000000
  108       -0.004222   0.000000
  109        0.075689   0.000000
  110        0.252756   0.000000
  111        0.358567   0.000000
  112        0.664953   0.000000
  113        0.791657   0.000000
  114        0.875561   0.000000
  115        1.041219   0.000000
  116        1.215910   0.000000
  117        1.242479   0.000000
  118        1.986934   0.000000
  119        2.158406   0.000000
  120        2.459845   0.000000
 
  0.5000000E+00  0.1110223E-15  0.0000000E+00  0.1562500E-01
    1      -17.443220   1.000000
    2      -17.377246   1.000000
    3      -16.759220   1.000000
    4      -16.660140   1.000000
    5      -16.627944   1.000000
    6      -16.391076   1.000000
    7      -16.278645   1.000000
    8      -16.209613   1.000000
    9      -16.093834   1.000000
   10      -16.001174   1.000000
   11      -15.949744   1.000000
   12      -15.884841   1.000000
   13      -15.822656   1.000000
   14      -15.686947   1.000000
   15      -15.574736   1.000000
   16      -15.543298   1.000000
   17      -15.440087   1.000000
   18      -15.304248   1.000000
   19       -9.784338   1.000000
   20       -9.403311   1.000000
   21       -9.127483   1.000000
   22       -9.022318   1.000000
   23       -8.889483   1.000000
   24       -8.825426   1.000000
   25       -8.583665   1.000000
   26       -8.515489   1.000000
   27       -8.490708   1.000000
   28       -8.384018   1.000000
   29       -8.268721   1.000000
   30       -8.171606   1.000000
   31       -8.118048   1.000000
   32       -7.985379   1.000000
   33       -7.884217   1.000000
   34       -7.851160   1.000000
   35       -7.817282   1.000000
   36       -7.751632   1.000000
   37       -7.535518   1.000000
   38       -7.401740   1.000000
   39       -7.331800   1.000000
   40       -7.254199   1.000000
   41       -7.148362   1.000000
   42       -7.033895   1.000000
   43       -7.010732   1.000000
   44       -6.945366   1.000000
   45       -6.885573   1.000000
   46       -6.703086   1.000000
   47       -6.659784   1.000000
   48       -6.605673   1.000000
   49       -6.584431   1.000000
   50       -6.535674   1.000000
   51       -6.453171   1.000000
   52       -6.261073   1.000000
   53       -6.248785   1.000000
   54       -6.212977   1.000000
   55       -6.172412   1.000000
   56       -6.105539   1.000000
   57       -6.057451   1.000000
   58       -5.987691   1.000000
   59       -5.915211   1.000000
   60       -5.851818   1.000000
   61       -5.695648   1.000000
   62       -5.622864   1.000000
   63       -5.560825   1.000000
   64       -5.505826   1.000000
   65       -5.247079   1.000000
   66       -5.142090   1.000000
   67       -4.934783   1.000000
   68       -4.844599   1.000000
   69       -4.791248   1.000000
   70       -4.718342   1.000000
   71       -4.619652   1.000000
   72       -4.448579   1.000000
   73       -4.438226   1.000000
   74       -4.186244   1.000000
   75       -4.137229   1.000000
   76       -3.977218   1.000000
   77       -3.843105   0.999976
   78       -3.663464   0.997429
   79       -3.583610   0.987235
   80       -3.211549   0.345476
   81       -2.923417   0.007447
   82       -2.857056   0.001841
   83       -2.715837   0.000048
   84       -2.661168   0.000009
   85       -2.556896   0.000000
   86       -2.406216   0.000000
   87       -2.327930   0.000000
   88       -2.093670   0.000000
   89       -1.905654   0.000000
   90       -1.822789   0.000000
   91       -1.661353   0.000000
   92       -1.590377   0.000000
   93       -1.460314   0.000000
   94       -1.406706   0.000000
   95       -1.324253   0.000000
   96       -1.124435   0.000000
   97       -1.073531   0.000000
   98       -1.020102   0.000000
   99       -0.977158   0.000000
  100       -0.914212   0.000000
  101       -0.869447   0.000000
  102       -0.817557   0.000000
  103       -0.730545   0.000000
  104       -0.613423   0.000000
  105       -0.524619   0.000000
  106       -0.390836   0.000000
  107       -0.192593   0.000000
  108       -0.010566   0.000000
  109        0.061117   0.000000
  110        0.235319   0.000000
  111        0.372949   0.000000
  112        0.668079   0.000000
  113        0.797726   0.000000
  114        0.884388   0.000000
  115        1.051670   0.000000
  116        1.253006   0.000000
  117        1.276048   0.000000
  118        2.186799   0.000000
  119        2.257969   0.000000
  120        2.358501   0.000000
 
  0.0000000E+00  0.1250000E+00  0.0000000E+00  0.3125000E-01
    1      -17.772723   1.000000
    2      -16.758783   1.000000
    3      -16.711460   1.000000
    4      -16.648038   1.000000
    5      -16.502958   1.000000
    6      -16.412590   1.000000
    7      -16.358359   1.000000
    8      -16.303046   1.000000
    9      -16.215231   1.000000
   10      -16.063269   1.000000
   11      -16.025637   1.000000
   12      -15.987823   1.000000
   13      -15.854094   1.000000
   14      -15.743395   1.000000
   15      -15.604744   1.000000
   16      -15.474609   1.000000
   17      -15.400835   1.000000
   18      -15.277499   1.000000
   19       -9.245126   1.000000
   20       -9.104637   1.000000
   21       -9.051453   1.000000
   22       -8.931551   1.000000
   23       -8.801886   1.000000
   24       -8.734731   1.000000
   25       -8.687530   1.000000
   26       -8.593640   1.000000
   27       -8.503625   1.000000
   28       -8.408150   1.000000
   29       -8.341963   1.000000
   30       -8.293980   1.000000
   31       -8.236838   1.000000
   32       -8.117449   1.000000
   33       -8.041358   1.000000
   34       -7.869579   1.000000
   35       -7.837301   1.000000
   36       -7.741631   1.000000
   37       -7.687522   1.000000
   38       -7.542946   1.000000
   39       -7.497808   1.000000
   40       -7.376801   1.000000
   41       -7.282925   1.000000
   42       -7.244179   1.000000
   43       -7.187157   1.000000
   44       -6.964451   1.000000
   45       -6.893743   1.000000
   46       -6.808740   1.000000
   47       -6.719089   1.000000
   48       -6.645116   1.000000
   49       -6.582993   1.000000
   50       -6.542136   1.000000
   51       -6.440455   1.000000
   52       -6.363060   1.000000
   53       -6.341480   1.000000
   54       -6.241861   1.000000
   55       -6.215718   1.000000
   56       -6.142324   1.000000
   57       -5.993927   1.000000
   58       -5.799270   1.000000
   59       -5.752732   1.000000
   60       -5.555447   1.000000
   61       -5.448565   1.000000
   62       -5.407789   1.000000
   63       -5.333954   1.000000
   64       -5.220423   1.000000
   65       -5.140050   1.000000
   66       -5.077539   1.000000
   67       -4.984399   1.000000
   68       -4.970761   1.000000
   69       -4.850024   1.000000
   70       -4.734673   1.000000
   71       -4.569783   1.000000
   72       -4.533362   1.000000
   73       -4.414402   1.000000
   74       -4.267314   1.000000
   75       -4.100901   1.000000
   76       -3.989498   1.000000
   77       -3.732765   0.999495
   78       -3.700781   0.998900
   79       -3.590860   0.988831
   80       -3.319083   0.641629
   81       -3.175382   0.256779
   82       -2.897910   0.004457
   83       -2.808413   0.000581
   84       -2.664086   0.000010
   85       -2.616063   0.000002
   86       -2.440176   0.000000
   87       -2.370854   0.000000
   88       -2.197418   0.000000
   89       -2.094422   0.000000
   90       -2.000176   0.000000
   91       -1.660298   0.000000
   92       -1.558976   0.000000
   93       -1.437592   0.000000
   94       -1.353483   0.000000
   95       -1.154100   0.000000
   96       -1.068613   0.000000
   97       -0.971151   0.000000
   98       -0.895943   0.000000
   99       -0.830143   0.000000
  100       -0.715196   0.000000
  101       -0.645038   0.000000
  102       -0.599555   0.000000
  103       -0.477648   0.000000
  104       -0.387190   0.000000
  105       -0.337450   0.000000
  106       -0.118533   0.000000
  107       -0.072799   0.000000
  108       -0.018432   0.000000
  109        0.066512   0.000000
  110        0.152938   0.000000
  111        0.279720   0.000000
  112        0.494451   0.000000
  113        0.756980   0.000000
  114        0.818968   0.000000
  115        0.936580   0.000000
  116        1.119719   0.000000
  117        1.290517   0.000000
  118        1.686827   0.000000
  119        1.873375   0.000000
  120        2.188204   0.000000
 
  0.1250000E+00  0.1250000E+00  0.0000000E+00  0.3125000E-01
    1      -17.722477   1.000000
    2      -16.904587   1.000000
    3      -16.785798   1.000000
    4      -16.643143   1.000000
    5      -16.487572   1.000000
    6      -16.402936   1.000000
    7      -16.344472   1.000000
    8      -16.265484   1.000000
    9      -16.181428   1.000000
   10      -16.076425   1.000000
   11      -15.998845   1.000000
   12      -15.914012   1.000000
   13      -15.850601   1.000000
   14      -15.700743   1.000000
   15      -15.613985   1.000000
   16      -15.509306   1.000000
   17      -15.413210   1.000000
   18      -15.280780   1.000000
   19       -9.356068   1.000000
   20       -9.300778   1.000000
   21       -9.101265   1.000000
   22       -8.989831   1.000000
   23       -8.804177   1.000000
   24       -8.784300   1.000000
   25       -8.690010   1.000000
   26       -8.544363   1.000000
   27       -8.441274   1.000000
   28       -8.379939   1.000000
   29       -8.305561   1.000000
   30       -8.231018   1.000000
   31       -8.148028   1.000000
   32       -8.116760   1.000000
   33       -7.978609   1.000000
   34       -7.900732   1.000000
   35       -7.764261   1.000000
   36       -7.685339   1.000000
   37       -7.613101   1.000000
   38       -7.486754   1.000000
   39       -7.461445   1.000000
   40       -7.390063   1.000000
   41       -7.293114   1.000000
   42       -7.246173   1.000000
   43       -7.126863   1.000000
   44       -6.999238   1.000000
   45       -6.880950   1.000000
   46       -6.795829   1.000000
   47       -6.726260   1.000000
   48       -6.685147   1.000000
   49       -6.569916   1.000000
   50       -6.544990   1.000000
   51       -6.480950   1.000000
   52       -6.332442   1.000000
   53       -6.288596   1.000000
   54       -6.238483   1.000000
   55       -6.211146   1.000000
   56       -6.111065   1.000000
   57       -5.924175   1.000000
   58       -5.831568   1.000000
   59       -5.762253   1.000000
   60       -5.626947   1.000000
   61       -5.545949   1.000000
   62       -5.511533   1.000000
   63       -5.404717   1.000000
   64       -5.330798   1.000000
   65       -5.154239   1.000000
   66       -5.072511   1.000000
   67       -4.992893   1.000000
   68       -4.960836   1.000000
   69       -4.785213   1.000000
   70       -4.707913   1.000000
   71       -4.539994   1.000000
   72       -4.496950   1.000000
   73       -4.335317   1.000000
   74       -4.234761   1.000000
   75       -4.150269   1.000000
   76       -4.050700   1.000000
   77       -3.862892   0.999987
   78       -3.723043   0.999357
   79       -3.586970   0.987998
   80       -3.199010   0.313401
   81       -3.109237   0.131139
   82       -2.905475   0.005206
   83       -2.767567   0.000202
   84       -2.658162   0.000008
   85       -2.608475   0.000002
   86       -2.443564   0.000000
   87       -2.354680   0.000000
   88       -2.169260   0.000000
   89       -2.049113   0.000000
   90       -1.975721   0.000000
   91       -1.667035   0.000000
   92       -1.567126   0.000000
   93       -1.436929   0.000000
   94       -1.353839   0.000000
   95       -1.144817   0.000000
   96       -1.060999   0.000000
   97       -0.976807   0.000000
   98       -0.917072   0.000000
   99       -0.865143   0.000000
  100       -0.812665   0.000000
  101       -0.768566   0.000000
  102       -0.686579   0.000000
  103       -0.569832   0.000000
  104       -0.497850   0.000000
  105       -0.372501   0.000000
  106       -0.187402   0.000000
  107       -0.105808   0.000000
  108       -0.041220   0.000000
  109        0.077696   0.000000
  110        0.185811   0.000000
  111        0.312576   0.000000
  112        0.581651   0.000000
  113        0.770983   0.000000
  114        0.872861   0.000000
  115        1.005338   0.000000
  116        1.122793   0.000000
  117        1.253527   0.000000
  118        1.768042   0.000000
  119        1.948337   0.000000
  120        2.257381   0.000000
 
  0.2500000E+00  0.1250000E+00  0.0000000E+00  0.3125000E-01
    1      -17.624276   1.000000
    2      -17.098610   1.000000
    3      -16.871155   1.000000
    4      -16.639242   1.000000
    5      -16.486006   1.000000
    6      -16.387587   1.000000
    7      -16.294664   1.000000
    8      -16.262196   1.000000
    9      -16.116236   1.000000
   10      -16.073076   1.000000
   11      -15.956520   1.000000
   12      -15.901879   1.000000
   13      -15.835469   1.000000
   14      -15.642475   1.000000
   15      -15.614156   1.000000
   16      -15.542536   1.000000
   17      -15.432355   1.000000
   18      -15.289515   1.000000
   19       -9.601402   1.000000
   20       -9.425499   1.000000
   21       -9.148689   1.000000
   22       -8.995968   1.000000
   23       -8.847358   1.000000
   24       -8.761335   1.000000
   25       -8.612604   1.000000
   26       -8.504983   1.000000
   27       -8.439666   1.000000
   28       -8.362064   1.000000
   29       -8.252582   1.000000
   30       -8.216277   1.000000
   31       -8.165407   1.000000
   32       -8.025414   1.000000
   33       -7.980272   1.000000
   34       -7.908779   1.000000
   35       -7.827420   1.000000
   36       -7.664174   1.000000
   37       -7.518887   1.000000
   38       -7.492156   1.000000
   39       -7.356029   1.000000
   40       -7.291998   1.000000
   41       -7.203992   1.000000
   42       -7.146174   1.000000
   43       -7.062413   1.000000
   44       -6.951466   1.000000
   45       -6.902617   1.000000
   46       -6.808981   1.000000
   47       -6.736373   1.000000