       N       E                     dE             d eps       ncg     rms          rms(c)
DAV:   1     0.112409826080E+04    0.11241E+04   -0.35863E+04  8160   0.577E+02
DAV:   2    -0.106084192577E+01   -0.11252E+04   -0.10802E+04 11280   0.173E+02
DAV:   3    -0.199748441951E+03   -0.19869E+03   -0.19075E+03 10880   0.823E+01
DAV:   4    -0.208985929026E+03   -0.92375E+01   -0.89777E+01 12160   0.263E+01
DAV:   5    -0.209298696266E+03   -0.31277E+00   -0.31192E+00 11200   0.361E+00    0.275E+01
DAV:   6    -0.237712287359E+03   -0.28414E+02   -0.10738E+02 12440   0.599E+01    0.595E+01
DAV:   7    -0.196623106711E+03    0.41089E+02   -0.17710E+02 13480   0.152E+02    0.201E+01
DAV:   8    -0.189635222715E+03    0.69879E+01   -0.17631E+01 12000   0.128E+01    0.128E+01
DAV:   9    -0.188216461407E+03    0.14188E+01   -0.31234E+00 13120   0.615E+00    0.940E+00
DAV:  10    -0.186951918639E+03    0.12645E+01   -0.17573E+00 13360   0.795E+00    0.215E+00
DAV:  11    -0.187042198296E+03   -0.90280E-01   -0.58243E-01 13600   0.293E+00    0.365E+00
DAV:  12    -0.186984379150E+03    0.57819E-01   -0.65821E-01 12720   0.433E+00    0.346E+00
DAV:  13    -0.186877550391E+03    0.10683E+00   -0.26246E-01 13240   0.299E+00    0.178E+00
DAV:  14    -0.186843627427E+03    0.33923E-01   -0.96759E-02 12920   0.153E+00    0.609E-01
DAV:  15    -0.186840103243E+03    0.35242E-02   -0.16608E-02 13040   0.562E-01    0.605E-01
DAV:  16    -0.186838833249E+03    0.12700E-02   -0.11021E-02 13440   0.550E-01    0.482E-01
DAV:  17    -0.186836278231E+03    0.25550E-02   -0.64595E-03 12600   0.397E-01    0.182E-01
DAV:  18    -0.186835970394E+03    0.30784E-03   -0.14223E-03 12240   0.156E-01    0.925E-02
DAV:  19    -0.186836009599E+03   -0.39205E-04   -0.57884E-04  9720   0.682E-02
   1 F= -.18683601E+03 E0= -.18666416E+03  d E =-.186836E+03
       N       E                     dE             d eps       ncg     rms          rms(c)
DAV:   1    -0.187493228944E+03   -0.65726E+00   -0.27432E+02  8160   0.351E+01    0.469E+00
DAV:   2    -0.189518732154E+03   -0.20255E+01   -0.20350E+01 11960   0.155E+01    0.103E+01
DAV:   3    -0.189330438996E+03    0.18829E+00   -0.55979E+00 12240   0.131E+01    0.616E+00
DAV:   4    -0.188767302523E+03    0.56314E+00   -0.57020E-01 11320   0.457E+00    0.248E+00
DAV:   5    -0.188849509247E+03   -0.82207E-01   -0.47880E-01 12160   0.404E+00    0.489E+00
DAV:   6    -0.188721373453E+03    0.12814E+00   -0.63180E-01 12240   0.393E+00    0.222E+00
DAV:   7    -0.188690321610E+03    0.31052E-01   -0.22170E-01 11920   0.205E+00    0.201E+00
DAV:   8    -0.188674167078E+03    0.16155E-01   -0.12726E-01 11880   0.209E+00    0.182E+00
DAV:   9    -0.188648669019E+03    0.25498E-01   -0.55507E-02 12040   0.120E+00    0.630E-01
DAV:  10    -0.188645530690E+03    0.31383E-02   -0.67342E-03 10520   0.302E-01    0.283E-01
DAV:  11    -0.188645214392E+03    0.31630E-03   -0.31550E-03 12960   0.257E-01    0.143E-01
DAV:  12    -0.188645333575E+03   -0.11918E-03   -0.94961E-04 10760   0.997E-02    0.113E-01
DAV:  13    -0.188645385990E+03   -0.52415E-04   -0.28970E-04  6880   0.719E-02
   2 F= -.18864539E+03 E0= -.18850525E+03  d E =-.180938E+01
       N       E                     dE             d eps       ncg     rms          rms(c)
DAV:   1    -0.190599948887E+03   -0.19546E+01   -0.31845E+01  9200   0.144E+01    0.448E+00
DAV:   2    -0.190532523963E+03    0.67425E-01   -0.28068E+00 12120   0.944E+00    0.716E+00
DAV:   3    -0.190077097867E+03    0.45543E+00   -0.13207E+00 12280   0.864E+00    0.428E+00
DAV:   4    -0.189859451200E+03    0.21765E+00   -0.70683E-01 13120   0.438E+00    0.251E+00
DAV:   5    -0.189812505837E+03    0.46945E-01   -0.34959E-01 12280   0.284E+00    0.238E+00
DAV:   6    -0.189757879811E+03    0.54626E-01   -0.11523E-01 12280   0.221E+00    0.707E-01
DAV:   7    -0.189752381502E+03    0.54983E-02   -0.12994E-02 11800   0.528E-01    0.238E-01
DAV:   8    -0.189753061555E+03   -0.68005E-03   -0.43358E-03 11760   0.348E-01    0.368E-01
DAV:   9    -0.189752152084E+03    0.90947E-03   -0.24993E-03 10240   0.313E-01    0.150E-01
DAV:  10    -0.189752511146E+03   -0.35906E-03   -0.11083E-03 10280   0.138E-01    0.140E-01
DAV:  11    -0.189752217891E+03    0.29325E-03   -0.58433E-04 10520   0.872E-02    0.186E-02
DAV:  12    -0.189752278182E+03   -0.60291E-04   -0.73348E-05  6640   0.247E-02
   3 F= -.18975228E+03 E0= -.18963432E+03  d E =-.110689E+01
       N       E                     dE             d eps       ncg     rms          rms(c)
DAV:   1    -0.191339193286E+03   -0.15870E+01   -0.77303E+01  8160   0.200E+01    0.463E+00
DAV:   2    -0.191161271417E+03    0.17792E+00   -0.54045E+00 13000   0.776E+00    0.462E+00
DAV:   3    -0.191318540393E+03   -0.15727E+00   -0.14953E+00 12200   0.910E+00    0.714E+00
DAV:   4    -0.190946677138E+03    0.37186E+00   -0.17295E+00 12160   0.848E+00    0.382E+00
DAV:   5    -0.190927029363E+03    0.19648E-01   -0.75146E-01 11200   0.560E+00    0.354E+00
DAV:   6    -0.190755613365E+03    0.17142E+00   -0.21995E-01 11600   0.317E+00    0.762E-01
DAV:   7    -0.190753848195E+03    0.17652E-02   -0.44786E-02 12600   0.998E-01    0.762E-01
DAV:   8    -0.190752433653E+03    0.14145E-02   -0.22846E-02 11920   0.103E+00    0.676E-01
DAV:   9    -0.190747511662E+03    0.49220E-02   -0.66235E-03 11240   0.559E-01    0.157E-01
DAV:  10    -0.190747869331E+03   -0.35767E-03   -0.15492E-03 10640   0.134E-01    0.133E-01
DAV:  11    -0.190747662877E+03    0.20645E-03   -0.83862E-04 10720   0.112E-01    0.419E-02
DAV:  12    -0.190747686135E+03   -0.23258E-04   -0.13277E-04  6640   0.418E-02
   4 F= -.19074769E+03 E0= -.19064655E+03  d E =-.995408E+00
       N       E                     dE             d eps       ncg     rms          rms(c)
DAV:   1    -0.192124243875E+03   -0.13766E+01   -0.16210E+02  8160   0.284E+01    0.572E+00
DAV:   2    -0.191883626914E+03    0.24062E+00   -0.93916E+00 11520   0.858E+00    0.435E+00
DAV:   3    -0.192380063675E+03   -0.49644E+00   -0.27315E+00 11920   0.104E+01    0.107E+01
DAV:   4    -0.191654439667E+03    0.72562E+00   -0.32478E+00 11800   0.123E+01    0.375E+00
DAV:   5    -0.191597505671E+03    0.56934E-01   -0.71896E-01 11920   0.577E+00    0.394E+00
DAV:   6    -0.191424904900E+03    0.17260E+00   -0.39015E-01 12560   0.435E+00    0.159E+00
DAV:   7    -0.191414445713E+03    0.10459E-01   -0.94239E-02 12440   0.203E+00    0.140E+00
DAV:   8    -0.191400820927E+03    0.13625E-01   -0.56365E-02 11360   0.165E+00    0.663E-01
DAV:   9    -0.191395108695E+03    0.57122E-02   -0.69760E-03 11720   0.484E-01    0.239E-01
DAV:  10    -0.191395070135E+03    0.38560E-04   -0.27499E-03 12160   0.241E-01    0.827E-02
DAV:  11    -0.191395130170E+03   -0.60036E-04   -0.52917E-04 10800   0.913E-02
   5 F= -.19139513E+03 E0= -.19129723E+03  d E =-.647444E+00
       N       E                     dE             d eps       ncg     rms          rms(c)
DAV:   1    -0.191430033200E+03   -0.34963E-01   -0.28833E+00  8160   0.358E+00    0.495E-01
DAV:   2    -0.191469906311E+03   -0.39873E-01   -0.18940E-01 12760   0.235E+00    0.176E+00
DAV:   3    -0.191439583282E+03    0.30323E-01   -0.61086E-02 12400   0.177E+00    0.354E-01
DAV:   4    -0.191439905615E+03   -0.32233E-03   -0.75689E-03 11120   0.599E-01    0.420E-01
DAV:   5    -0.191438069459E+03    0.18362E-02   -0.39643E-03 10720   0.468E-01    0.179E-01
DAV:   6    -0.191438008702E+03    0.60757E-04   -0.16802E-03 11520   0.211E-01    0.162E-01
DAV:   7    -0.191438250357E+03   -0.24166E-03   -0.22259E-03 10200   0.303E-01    0.235E-01
DAV:   8    -0.191437700165E+03    0.55019E-03   -0.97015E-04  8680   0.202E-01    0.273E-02
DAV:   9    -0.191437718838E+03   -0.18673E-04   -0.73672E-05  5880   0.322E-02
   6 F= -.19143772E+03 E0= -.19133772E+03  d E =-.425887E-01
       N       E                     dE             d eps       ncg     rms          rms(c)
DAV:   1    -0.191485247318E+03   -0.47547E-01   -0.74363E+00  8160   0.575E+00    0.705E-01
DAV:   2    -0.191535940525E+03   -0.50693E-01   -0.26467E-01 13200   0.232E+00    0.208E+00
DAV:   3    -0.191496163176E+03    0.39777E-01   -0.11100E-01 12440   0.230E+00    0.652E-01
DAV:   4    -0.191493981305E+03    0.21819E-02   -0.16246E-02 10920   0.746E-01    0.503E-01
DAV:   5    -0.191491868526E+03    0.21128E-02   -0.89607E-03 11360   0.711E-01    0.351E-01
DAV:   6    -0.191491013593E+03    0.85493E-03   -0.51027E-03 11400   0.432E-01    0.244E-01
DAV:   7    -0.191491599781E+03   -0.58619E-03   -0.49623E-03 11360   0.451E-01    0.352E-01
DAV:   8    -0.191490369900E+03    0.12299E-02   -0.22019E-03  9560   0.308E-01    0.408E-02
DAV:   9    -0.191490386226E+03   -0.16326E-04   -0.10690E-04  5560   0.431E-02
   7 F= -.19149039E+03 E0= -.19138822E+03  d E =-.526674E-01
       N       E                     dE             d eps       ncg     rms          rms(c)
DAV:   1    -0.191500115379E+03   -0.97455E-02   -0.29333E-01  8160   0.121E+00    0.242E-01
DAV:   2    -0.191500492003E+03   -0.37662E-03   -0.15168E-02 11560   0.497E-01    0.374E-01
DAV:   3    -0.191499836674E+03    0.65533E-03   -0.67402E-03 11480   0.577E-01    0.299E-01
DAV:   4    -0.191499095024E+03    0.74165E-03   -0.29126E-03 11040   0.358E-01    0.190E-01
DAV:   5    -0.191498949473E+03    0.14555E-03   -0.16597E-03  9840   0.292E-01    0.166E-01
DAV:   6    -0.191498610495E+03    0.33898E-03   -0.76113E-04  9840   0.183E-01    0.407E-02
DAV:   7    -0.191498599861E+03    0.10634E-04   -0.10281E-04  5800   0.476E-02
   8 F= -.19149860E+03 E0= -.19139601E+03  d E =-.821364E-02
       N       E                     dE             d eps       ncg     rms          rms(c)
DAV:   1    -0.191535083674E+03   -0.36473E-01   -0.32108E+00  8160   0.378E+00    0.448E-01
DAV:   2    -0.191561681536E+03   -0.26598E-01   -0.11523E-01 13600   0.181E+00    0.155E+00
DAV:   3    -0.191538996701E+03    0.22685E-01   -0.50830E-02 12400   0.155E+00    0.325E-01
DAV:   4    -0.191539251812E+03   -0.25511E-03   -0.59724E-03 11520   0.496E-01    0.380E-01
DAV:   5    -0.191537941905E+03    0.13099E-02   -0.43629E-03 11160   0.462E-01    0.212E-01
DAV:   6    -0.191537951914E+03   -0.10009E-04   -0.24832E-03 10360   0.295E-01    0.224E-01
DAV:   7    -0.191537762255E+03    0.18966E-03   -0.20377E-03  9720   0.303E-01    0.153E-01
DAV:   8    -0.191537460797E+03    0.30146E-03   -0.49240E-04  8240   0.138E-01    0.201E-02
DAV:   9    -0.191537470892E+03   -0.10096E-04   -0.58998E-05  6880   0.284E-02
   9 F= -.19153747E+03 E0= -.19143416E+03  d E =-.388710E-01
       N       E                     dE             d eps       ncg     rms          rms(c)
DAV:   1    -0.191452615442E+03    0.84845E-01   -0.14146E+01  8160   0.794E+00    0.923E-01
DAV:   2    -0.191547038151E+03   -0.94423E-01   -0.46465E-01 13600   0.352E+00    0.271E+00
DAV:   3    -0.191469351905E+03    0.77686E-01   -0.15827E-01 12240   0.289E+00    0.746E-01
DAV:   4    -0.191470471182E+03   -0.11193E-02   -0.29089E-02 11320   0.117E+00    0.870E-01
DAV:   5    -0.191463541704E+03    0.69295E-02   -0.22177E-02 11960   0.106E+00    0.448E-01
DAV:   6    -0.191463333146E+03    0.20856E-03   -0.10635E-02 11480   0.627E-01    0.468E-01
DAV:   7    -0.191462331370E+03    0.10018E-02   -0.83405E-03 11360   0.606E-01    0.301E-01
DAV:   8    -0.191461177558E+03    0.11538E-02   -0.21048E-03 11720   0.268E-01    0.469E-02
DAV:   9    -0.191461181124E+03   -0.35661E-05   -0.22363E-04  8080   0.520E-02
  10 F= -.19146118E+03 E0= -.19135985E+03  d E =0.762898E-01
       N       E                     dE             d eps       ncg     rms          rms(c)
DAV:   1    -0.191423408978E+03    0.37769E-01   -0.71291E+00  8160   0.561E+00    0.588E-01
DAV:   2    -0.191454202620E+03   -0.30794E-01   -0.18083E-01 13440   0.185E+00    0.157E+00
DAV:   3    -0.191432626578E+03    0.21576E-01   -0.66923E-02 12200   0.180E+00    0.624E-01
DAV:   4    -0.191429227132E+03    0.33994E-02   -0.11408E-02 11280   0.591E-01    0.307E-01
DAV:   5    -0.191429098608E+03    0.12852E-03   -0.63405E-03 12000   0.479E-01    0.419E-01
DAV:   6    -0.191427921801E+03    0.11768E-02   -0.56658E-03 11040   0.479E-01    0.213E-01
DAV:   7    -0.191427726359E+03    0.19544E-03   -0.15561E-03 10160   0.214E-01    0.112E-01
DAV:   8    -0.191427576369E+03    0.14999E-03   -0.52397E-04 10240   0.164E-01    0.786E-02
DAV:   9    -0.191427507686E+03    0.68683E-04   -0.14623E-04  7000   0.923E-02
  11 F= -.19142751E+03 E0= -.19132739E+03  d E =0.336734E-01
       N       E                     dE             d eps       ncg     rms          rms(c)
DAV:   1    -0.191431327876E+03   -0.37515E-02   -0.12066E+00  8160   0.232E+00    0.257E-01
DAV:   2    -0.191434175619E+03   -0.28477E-02   -0.38677E-02 12240   0.568E-01    0.285E-01
DAV:   3    -0.191434347507E+03   -0.17189E-03   -0.90041E-03 11320   0.562E-01    0.410E-01
DAV:   4    -0.191432919574E+03    0.14279E-02   -0.38496E-03 10560   0.393E-01    0.160E-01
DAV:   5    -0.191432804926E+03    0.11465E-03   -0.12111E-03  9560   0.233E-01    0.149E-01
DAV:   6    -0.191432712584E+03    0.92342E-04   -0.90600E-04  9880   0.214E-01
  12 F= -.19143271E+03 E0= -.19133184E+03  d E =-.520490E-02
       N       E                     dE             d eps       ncg     rms          rms(c)
DAV:   1    -0.191448261845E+03   -0.15457E-01   -0.12121E+00  8160   0.236E+00    0.317E-01
DAV:   2    -0.191458461307E+03   -0.10199E-01   -0.52263E-02 13600   0.115E+00    0.961E-01
DAV:   3    -0.191449994041E+03    0.84673E-02   -0.22024E-02 11720   0.102E+00    0.291E-01
DAV:   4    -0.191449679588E+03    0.31445E-03   -0.38547E-03 11360   0.393E-01    0.265E-01
DAV:   5    -0.191449174833E+03    0.50475E-03   -0.24628E-03 10480   0.352E-01    0.183E-01
DAV:   6    -0.191448958435E+03    0.21640E-03   -0.13311E-03  9520   0.216E-01    0.143E-01
DAV:   7    -0.191448910751E+03    0.47684E-04   -0.97380E-04  8320   0.211E-01
  13 F= -.19144891E+03 E0= -.19134626E+03  d E =-.161982E-01
       N       E                     dE             d eps       ncg     rms          rms(c)
DAV:   1    -0.191459334414E+03   -0.10376E-01   -0.52039E-01  8160   0.154E+00    0.205E-01
DAV:   2    -0.191464628211E+03   -0.52938E-02   -0.23699E-02 13600   0.789E-01    0.688E-01
DAV:   3    -0.191460157271E+03    0.44709E-02   -0.10533E-02 11480   0.700E-01    0.177E-01
DAV:   4    -0.191460091986E+03    0.65284E-04   -0.14996E-03  9720   0.233E-01    0.164E-01
DAV:   5    -0.191459912290E+03    0.17970E-03   -0.96903E-04  9640   0.215E-01    0.116E-01
DAV:   6    -0.191459820344E+03    0.91946E-04   -0.50271E-04  7800   0.136E-01
  14 F= -.19145982E+03 E0= -.19135554E+03  d E =-.109096E-01
       N       E                     dE             d eps       ncg     rms          rms(c)
DAV:   1    -0.191450283539E+03    0.96288E-02   -0.46719E-01  8160   0.149E+00    0.257E-01
DAV:   2    -0.191459190955E+03   -0.89074E-02   -0.30671E-02 13120   0.104E+00    0.947E-01
DAV:   3    -0.191450307144E+03    0.88838E-02   -0.16593E-02 11320   0.920E-01    0.179E-01
DAV:   4    -0.191450010149E+03    0.29699E-03   -0.14713E-03 10400   0.195E-01    0.967E-02
DAV:   5    -0.191449942182E+03    0.67967E-04   -0.70424E-04 10920   0.165E-01
  15 F= -.19144994E+03 E0= -.19134755E+03  d E =0.987816E-02
       N       E                     dE             d eps       ncg     rms          rms(c)
DAV:   1    -0.191446171359E+03    0.38388E-02   -0.79558E-01  8160   0.194E+00    0.356E-01
DAV:   2    -0.191447967323E+03   -0.17960E-02   -0.34171E-02 12480   0.831E-01    0.619E-01
DAV:   3    -0.191445567309E+03    0.24000E-02   -0.14932E-02 12080   0.878E-01    0.432E-01
DAV:   4    -0.191444013684E+03    0.15536E-02   -0.57991E-03 11320   0.503E-01    0.262E-01
DAV:   5    -0.191443929090E+03    0.84595E-04   -0.36275E-03 10360   0.445E-01    0.256E-01
DAV:   6    -0.191443089305E+03    0.83978E-03   -0.16561E-03 10920   0.268E-01    0.628E-02
DAV:   7    -0.191443159755E+03   -0.70450E-04   -0.42600E-04  7840   0.120E-01
  16 F= -.19144316E+03 E0= -.19134175E+03  d E =0.678243E-02
       N       E                     dE             d eps       ncg     rms          rms(c)
DAV:   1    -0.191471002584E+03   -0.27913E-01   -0.29406E+00  8160   0.371E+00    0.568E-01
DAV:   2    -0.191495478316E+03   -0.24476E-01   -0.13039E-01 13600   0.184E+00    0.162E+00
DAV:   3    -0.191472036516E+03    0.23442E-01   -0.62362E-02 12280   0.174E+00    0.494E-01
DAV:   4    -0.191469246448E+03    0.27901E-02   -0.89244E-03 11640   0.502E-01    0.249E-01
DAV:   5    -0.191469163572E+03    0.82877E-04   -0.53180E-03 11880   0.458E-01    0.338E-01
DAV:   6    -0.191468213459E+03    0.95011E-03   -0.42958E-03 11280   0.435E-01    0.187E-01
DAV:   7    -0.191468223378E+03   -0.99194E-05   -0.18998E-03  9640   0.264E-01    0.199E-01
DAV:   8    -0.191467842610E+03    0.38077E-03   -0.84204E-04  8200   0.193E-01    0.444E-02
DAV:   9    -0.191467825445E+03    0.17165E-04   -0.71855E-05  5680   0.423E-02
  17 F= -.19146783E+03 E0= -.19136321E+03  d E =-.246657E-01
       N       E                     dE             d eps       ncg     rms          rms(c)
DAV:   1    -0.191499244333E+03   -0.31402E-01   -0.35310E+00  8160   0.402E+00    0.538E-01
DAV:   2    -0.191530747066E+03   -0.31503E-01   -0.14643E-01 13600   0.197E+00    0.174E+00
DAV:   3    -0.191503180861E+03    0.27566E-01   -0.67110E-02 12320   0.178E+00    0.428E-01
DAV:   4    -0.191501137612E+03    0.20432E-02   -0.70265E-03 10760   0.411E-01    0.216E-01
DAV:   5    -0.191500744379E+03    0.39323E-03   -0.33040E-03 12520   0.338E-01    0.241E-01
DAV:   6    -0.191500530256E+03    0.21412E-03   -0.31494E-03 11760   0.384E-01    0.198E-01
DAV:   7    -0.191500342894E+03    0.18736E-03   -0.16255E-03  9680   0.240E-01    0.171E-01
DAV:   8    -0.191500081979E+03    0.26091E-03   -0.72369E-04  8280   0.170E-01    0.496E-02
DAV:   9    -0.191500063109E+03    0.18870E-04   -0.73217E-05  5760   0.461E-02
  18 F= -.19150006E+03 E0= -.19139267E+03  d E =-.322377E-01
       N       E                     dE             d eps       ncg     rms          rms(c)
DAV:   1    -0.191492164416E+03    0.79176E-02   -0.25016E-01  8160   0.106E+00    0.123E-01
DAV:   2    -0.191494100868E+03   -0.19365E-02   -0.88351E-03 13520   0.473E-01    0.410E-01
DAV:   3    -0.191492479109E+03    0.16218E-02   -0.35353E-03 10800   0.416E-01    0.105E-01
DAV:   4    -0.191492432654E+03    0.46455E-04   -0.41962E-04  8320   0.121E-01
  19 F= -.19149243E+03 E0= -.19138584E+03  d E =0.763046E-02
       N       E                     dE             d eps       ncg     rms          rms(c)
DAV:   1    -0.191512962023E+03   -0.20483E-01   -0.15700E+00  8160   0.265E+00    0.306E-01
DAV:   2    -0.191525031632E+03   -0.12070E-01   -0.57906E-02 13360   0.122E+00    0.975E-01
DAV:   3    -0.191515211496E+03    0.98201E-02   -0.19713E-02 11920   0.101E+00    0.248E-01
DAV:   4    -0.191515082983E+03    0.12851E-03   -0.28439E-03 10960   0.350E-01    0.226E-01
DAV:   5    -0.191514632131E+03    0.45085E-03   -0.18732E-03 11120   0.309E-01    0.140E-01
DAV:   6    -0.191514477000E+03    0.15513E-03   -0.72571E-04 10440   0.148E-01    0.750E-02
DAV:   7    -0.191514659997E+03   -0.18300E-03   -0.85705E-04  8880   0.177E-01    0.166E-01
DAV:   8    -0.191514398738E+03    0.26126E-03   -0.51516E-04  7600   0.142E-01    0.218E-02
DAV:   9    -0.191514410624E+03   -0.11885E-04   -0.34557E-05  5600   0.239E-02
  20 F= -.19151441E+03 E0= -.19140692E+03  d E =-.219780E-01
       N       E                     dE             d eps       ncg     rms          rms(c)
DAV:   1    -0.191516779205E+03   -0.23805E-02   -0.32574E-02  8160   0.384E-01    0.456E-02
DAV:   2    -0.191516871298E+03   -0.92093E-04   -0.85118E-04 12280   0.115E-01
  21 F= -.19151687E+03 E0= -.19140909E+03  d E =-.246067E-02
       N       E                     dE             d eps       ncg     rms          rms(c)
DAV:   1    -0.191541590603E+03   -0.24811E-01   -0.18088E+00  8160   0.287E+00    0.440E-01
DAV:   2    -0.191568035899E+03   -0.26445E-01   -0.95705E-02 13600   0.181E+00    0.167E+00
DAV:   3    -0.191542169701E+03    0.25866E-01   -0.53468E-02 11960   0.157E+00    0.269E-01
DAV:   4    -0.191541946215E+03    0.22349E-03   -0.45812E-03 11480   0.370E-01    0.295E-01
DAV:   5    -0.191541689477E+03    0.25674E-03   -0.48276E-03 10800   0.432E-01    0.301E-01
DAV:   6    -0.191541056774E+03    0.63270E-03   -0.29384E-03 10600   0.307E-01    0.158E-01
DAV:   7    -0.191540988866E+03    0.67908E-04   -0.12989E-03  9560   0.245E-01    0.133E-01
DAV:   8    -0.191540781017E+03    0.20785E-03   -0.41355E-04  8680   0.141E-01    0.280E-02
DAV:   9    -0.191540769294E+03    0.11723E-04   -0.49091E-05  6480   0.327E-02
  22 F= -.19154077E+03 E0= -.19143276E+03  d E =-.238980E-01
       N       E                     dE             d eps       ncg     rms          rms(c)
DAV:   1    -0.191558152563E+03   -0.17372E-01   -0.68236E-01  8160   0.175E+00    0.200E-01
DAV:   2    -0.191562520831E+03   -0.43683E-02   -0.22906E-02 13560   0.714E-01    0.598E-01
DAV:   3    -0.191559040619E+03    0.34802E-02   -0.82884E-03 11600   0.634E-01    0.171E-01
DAV:   4    -0.191558937547E+03    0.10307E-03   -0.11663E-03  9680   0.208E-01    0.139E-01
DAV:   5    -0.191558838044E+03    0.99503E-04   -0.92526E-04  9840   0.213E-01
  23 F= -.19155884E+03 E0= -.19145107E+03  d E =-.180687E-01
       N       E                     dE             d eps       ncg     rms          rms(c)
DAV:   1    -0.191558274805E+03    0.66274E-03   -0.55244E-02  8160   0.549E-01    0.150E-01
DAV:   2    -0.191562122846E+03   -0.38480E-02   -0.12369E-02 12440   0.659E-01    0.669E-01
DAV:   3    -0.191558140674E+03    0.39822E-02   -0.87769E-03 10880   0.571E-01    0.103E-01
DAV:   4    -0.191558117864E+03    0.22810E-04   -0.47668E-04  8480   0.118E-01
  24 F= -.19155812E+03 E0= -.19145008E+03  d E =0.720180E-03
       N       E                     dE             d eps       ncg     rms          rms(c)
DAV:   1    -0.191601101917E+03   -0.42961E-01   -0.34335E+00  8160   0.394E+00    0.511E-01
DAV:   2    -0.191635538714E+03   -0.34437E-01   -0.14379E-01 13520   0.205E+00    0.188E+00
DAV:   3    -0.191604866158E+03    0.30673E-01   -0.78265E-02 11960   0.180E+00    0.387E-01
DAV:   4    -0.191605731941E+03   -0.86578E-03   -0.10943E-02 11360   0.625E-01    0.532E-01
DAV:   5    -0.191603217404E+03    0.25145E-02   -0.80710E-03 10280   0.566E-01    0.236E-01
DAV:   6    -0.191603128960E+03    0.88443E-04   -0.29735E-03 11440   0.327E-01    0.224E-01
DAV:   7    -0.191602855235E+03    0.27373E-03   -0.20722E-03 10480   0.322E-01    0.140E-01
DAV:   8    -0.191602577805E+03    0.27743E-03   -0.47307E-04  8360   0.141E-01    0.248E-02
DAV:   9    -0.191602573361E+03    0.44433E-05   -0.67652E-05  6880   0.324E-02
  25 F= -.19160257E+03 E0= -.19149582E+03  d E =-.444555E-01
       N       E                     dE             d eps       ncg     rms          rms(c)
DAV:   1    -0.191553178811E+03    0.49399E-01   -0.40352E+00  8160   0.426E+00    0.497E-01
DAV:   2    -0.191584724770E+03   -0.31546E-01   -0.14422E-01 13600   0.189E+00    0.167E+00
DAV:   3    -0.191557768635E+03    0.26956E-01   -0.59663E-02 12360   0.167E+00    0.353E-01
DAV:   4    -0.191556498332E+03    0.12703E-02   -0.48691E-03 11160   0.313E-01    0.186E-01
DAV:   5    -0.191556173788E+03    0.32454E-03   -0.24304E-03 12160   0.247E-01    0.206E-01
DAV:   6    -0.191556593912E+03   -0.42012E-03   -0.39066E-03 11040   0.384E-01    0.299E-01
DAV:   7    -0.191555794151E+03    0.79976E-03   -0.19171E-03  9640   0.255E-01    0.660E-02
DAV:   8    -0.191555765466E+03    0.28685E-04   -0.20826E-04  6600   0.927E-02
  26 F= -.19155577E+03 E0= -.19144719E+03  d E =0.468079E-01
       N       E                     dE             d eps       ncg     rms          rms(c)
DAV:   1    -0.191592129148E+03   -0.36335E-01   -0.28211E+00  8160   0.357E+00    0.415E-01
DAV:   2    -0.191610875962E+03   -0.18747E-01   -0.10149E-01 13600   0.153E+00    0.123E+00
DAV:   3    -0.191596223619E+03    0.14652E-01   -0.35928E-02 11880   0.131E+00    0.369E-01
DAV:   4    -0.191595762119E+03    0.46150E-03   -0.58748E-03 10160   0.489E-01    0.343E-01
DAV:   5    -0.191595009911E+03    0.75221E-03   -0.50456E-03 12240   0.478E-01    0.266E-01
DAV:   6    -0.191594834816E+03    0.17509E-03   -0.32656E-03 10080   0.335E-01    0.233E-01
DAV:   7    -0.191594531165E+03    0.30365E-03   -0.21042E-03  9880   0.299E-01    0.132E-01
DAV:   8    -0.191594290273E+03    0.24089E-03   -0.45692E-04  8200   0.118E-01    0.243E-02
DAV:   9    -0.191594291566E+03   -0.12932E-05   -0.67375E-05  6680   0.300E-02
  27 F= -.19159429E+03 E0= -.19148700E+03  d E =-.385261E-01
       N       E                     dE             d eps       ncg     rms          rms(c)
DAV:   1    -0.191603547463E+03   -0.92572E-02   -0.13085E-01  8160   0.776E-01    0.103E-01
DAV:   2    -0.191604471504E+03   -0.92404E-03   -0.52365E-03 13400   0.353E-01    0.298E-01
DAV:   3    -0.191603648388E+03    0.82312E-03   -0.21493E-03  9960   0.313E-01    0.840E-02
DAV:   4    -0.191603626356E+03    0.22032E-04   -0.31538E-04  7360   0.106E-01
  28 F= -.19160363E+03 E0= -.19149689E+03  d E =-.933479E-02
       N       E                     dE             d eps       ncg     rms          rms(c)
DAV:   1    -0.191655892311E+03   -0.52244E-01   -0.38296E+00  8160   0.422E+00    0.571E-01
DAV:   2    -0.191680888476E+03   -0.24996E-01   -0.14960E-01 13600   0.182E+00    0.163E+00
DAV:   3    -0.191659430100E+03    0.21458E-01   -0.72973E-02 11960   0.172E+00    0.521E-01
DAV:   4    -0.191658079617E+03    0.13505E-02   -0.12515E-02 12200   0.642E-01    0.498E-01
DAV:   5    -0.191656695980E+03    0.13836E-02   -0.10647E-02 10920   0.671E-01    0.386E-01
DAV:   6    -0.191655334645E+03    0.13613E-02   -0.48295E-03 11040   0.385E-01    0.133E-01
DAV:   7    -0.191655384621E+03   -0.49976E-04   -0.15175E-03 11120   0.253E-01    0.156E-01
DAV:   8    -0.191655085133E+03    0.29949E-03   -0.57845E-04  9360   0.182E-01    0.421E-02
DAV:   9    -0.191655058824E+03    0.26310E-04   -0.79365E-05  6440   0.494E-02
  29 F= -.19165506E+03 E0= -.19155034E+03  d E =-.514325E-01
       N       E                     dE             d eps       ncg     rms          rms(c)
DAV:   1    -0.191680305988E+03   -0.25221E-01   -0.85186E-01  8160   0.196E+00    0.227E-01
DAV:   2    -0.191685755587E+03   -0.54496E-02   -0.29827E-02 12640   0.834E-01    0.674E-01
DAV:   3    -0.191681379979E+03    0.43756E-02   -0.11112E-02 12240   0.718E-01    0.195E-01
DAV:   4    -0.191681477263E+03   -0.97283E-04   -0.19930E-03  9680   0.298E-01    0.221E-01
DAV:   5    -0.191681051573E+03    0.42569E-03   -0.15062E-03  9840   0.274E-01    0.119E-01
DAV:   6    -0.191681104280E+03   -0.52707E-04   -0.82210E-04  9640   0.184E-01
  30 F= -.19168110E+03 E0= -.19157871E+03  d E =-.260455E-01
       N       E                     dE             d eps       ncg     rms          rms(c)
DAV:   1    -0.191725000224E+03   -0.43949E-01   -0.26470E+00  8160   0.345E+00    0.398E-01
DAV:   2    -0.191741706270E+03   -0.16706E-01   -0.88371E-02 13240   0.148E+00    0.118E+00
DAV:   3    -0.191728161751E+03    0.13545E-01   -0.33860E-02 12400   0.126E+00    0.340E-01
DAV:   4    -0.191728731974E+03   -0.57022E-03   -0.62965E-03 10720   0.570E-01    0.416E-01
DAV:   5    -0.191726936448E+03    0.17955E-02   -0.42780E-03 11240   0.481E-01    0.162E-01
DAV:   6    -0.191727443833E+03   -0.50738E-03   -0.24464E-03 11040   0.337E-01    0.267E-01
DAV:   7    -0.191726768335E+03    0.67550E-03   -0.15644E-03  9880   0.282E-01    0.662E-02
DAV:   8    -0.191726697444E+03    0.70891E-04   -0.14449E-04  5840   0.634E-02
  31 F= -.19172670E+03 E0= -.19162710E+03  d E =-.455932E-01
       N       E                     dE             d eps       ncg     rms          rms(c)
DAV:   1    -0.191746965611E+03   -0.20197E-01   -0.48862E-01  8160   0.149E+00    0.181E-01
DAV:   2    -0.191750059250E+03   -0.30936E-02   -0.18193E-02 13560   0.643E-01    0.517E-01
DAV:   3    -0.191747562046E+03    0.24972E-02   -0.65373E-03 11800   0.560E-01    0.142E-01
DAV:   4    -0.191747492300E+03    0.69747E-04   -0.89923E-04  9880   0.175E-01
  32 F= -.19174749E+03 E0= -.19164941E+03  d E =-.207949E-01
       N       E                     dE             d eps       ncg     rms          rms(c)
DAV:   1    -0.191791646393E+03   -0.44084E-01   -0.21292E+00  8160   0.319E+00    0.495E-01
DAV:   2    -0.191808894235E+03   -0.17248E-01   -0.99769E-02 13520   0.156E+00    0.141E+00
DAV:   3    -0.191792284199E+03    0.16610E-01   -0.50512E-02 12080   0.147E+00    0.420E-01
DAV:   4    -0.191790075556E+03    0.22086E-02   -0.60835E-03 11840   0.398E-01    0.183E-01
DAV:   5    -0.191789878072E+03    0.19748E-03   -0.31636E-03 10840   0.321E-01    0.223E-01
DAV:   6    -0.191789569290E+03    0.30878E-03   -0.24124E-03 10840   0.359E-01    0.165E-01
DAV:   7    -0.191789321869E+03    0.24742E-03   -0.81479E-04  9320   0.200E-01    0.882E-02
DAV:   8    -0.191789255435E+03    0.66434E-04   -0.27190E-04  7320   0.122E-01
  33 F= -.19178926E+03 E0= -.19169287E+03  d E =-.417631E-01
       N       E                     dE             d eps       ncg     rms          rms(c)
DAV:   1    -0.191722109478E+03    0.67212E-01   -0.64296E+00  8160   0.544E+00    0.769E-01
DAV:   2    -0.191771874681E+03   -0.49765E-01   -0.27537E-01 13480   0.276E+00    0.210E+00
DAV:   3    -0.191725355509E+03    0.46519E-01   -0.10282E-01 12280   0.232E+00    0.548E-01
DAV:   4    -0.191724049578E+03    0.13059E-02   -0.15447E-02 10280   0.845E-01    0.539E-01
DAV:   5    -0.191721864860E+03    0.21847E-02   -0.12843E-02 11640   0.858E-01    0.398E-01
DAV:   6    -0.191720082325E+03    0.17825E-02   -0.60490E-03 12240   0.476E-01    0.160E-01
DAV:   7    -0.191720404929E+03   -0.32260E-03   -0.27730E-03 11280   0.335E-01    0.265E-01
DAV:   8    -0.191719751904E+03    0.65302E-03   -0.14630E-03  9840   0.253E-01    0.594E-02
DAV:   9    -0.191719723820E+03    0.28084E-04   -0.11763E-04  5800   0.516E-02
  34 F= -.19171972E+03 E0= -.19161952E+03  d E =0.695316E-01
       N       E                     dE             d eps       ncg     rms          rms(c)
DAV:   1    -0.191825158819E+03   -0.10541E+00   -0.16145E+01  8160   0.856E+00    0.979E-01
DAV:   2    -0.191905870516E+03   -0.80712E-01   -0.51242E-01 13320   0.331E+00    0.256E+00
DAV:   3    -0.191846622606E+03    0.59248E-01   -0.16781E-01 12240   0.297E+00    0.810E-01
DAV:   4    -0.191841664031E+03    0.49586E-02   -0.24939E-02 10920   0.958E-01    0.701E-01
DAV:   5    -0.191839519467E+03    0.21446E-02   -0.21813E-02 12360   0.108E+00    0.625E-01
DAV:   6    -0.191836774961E+03    0.27445E-02   -0.12645E-02 11920   0.729E-01    0.325E-01
DAV:   7    -0.191836397128E+03    0.37783E-03   -0.62882E-03 11560   0.574E-01    0.295E-01
DAV:   8    -0.191835251652E+03    0.11455E-02   -0.20993E-03 11800   0.349E-01    0.641E-02
DAV:   9    -0.191835206277E+03    0.45375E-04   -0.21341E-04  6760   0.635E-02
  35 F= -.19183521E+03 E0= -.19174186E+03  d E =-.115482E+00
       N       E                     dE             d eps       ncg     rms          rms(c)
DAV:   1    -0.191931419089E+03   -0.96167E-01   -0.20625E+01  8160   0.968E+00    0.104E+00
DAV:   2    -0.192018096608E+03   -0.86678E-01   -0.63754E-01 12200   0.336E+00    0.253E+00
DAV:   3    -0.191965740331E+03    0.52356E-01   -0.19910E-01 12240   0.309E+00    0.972E-01
DAV:   4    -0.191960519386E+03    0.52209E-02   -0.32159E-02 12440   0.125E+00    0.858E-01
DAV:   5    -0.191953909810E+03    0.66096E-02   -0.23055E-02 12520   0.120E+00    0.504E-01
DAV:   6    -0.191953521912E+03    0.38790E-03   -0.12338E-02 11960   0.770E-01    0.449E-01
DAV:   7    -0.191952068516E+03    0.14534E-02   -0.77839E-03 11520   0.694E-01    0.300E-01
DAV:   8    -0.191950771606E+03    0.12969E-02   -0.22706E-03 11920   0.350E-01    0.629E-02
DAV:   9    -0.191950742405E+03    0.29201E-04   -0.31920E-04  8520   0.668E-02
  36 F= -.19195074E+03 E0= -.19186228E+03  d E =-.115536E+00
       N       E                     dE             d eps       ncg     rms          rms(c)
DAV:   1    -0.192010309272E+03   -0.59538E-01   -0.27375E+01  8160   0.112E+01    0.126E+00
DAV:   2    -0.192118557451E+03   -0.10825E+00   -0.99950E-01 11920   0.372E+00    0.259E+00
DAV:   3    -0.192072946592E+03    0.45611E-01   -0.26387E-01 12200   0.354E+00    0.129E+00
DAV:   4    -0.192054642998E+03    0.18304E-01   -0.40253E-02 12200   0.135E+00    0.724E-01
DAV:   5    -0.192051979516E+03    0.26635E-02   -0.27815E-02 12560   0.129E+00    0.695E-01
DAV:   6    -0.192049783717E+03    0.21958E-02   -0.18657E-02 12720   0.102E+00    0.489E-01
DAV:   7    -0.192047397899E+03    0.23858E-02   -0.92356E-03 11520   0.715E-01    0.322E-01
DAV:   8    -0.192046107662E+03    0.12902E-02   -0.28282E-03 12720   0.420E-01    0.884E-02
DAV:   9    -0.192046016787E+03    0.90874E-04   -0.40077E-04  8840   0.931E-02
  37 F= -.19204602E+03 E0= -.19195822E+03  d E =-.952744E-01
       N       E                     dE             d eps       ncg     rms          rms(c)
DAV:   1    -0.192062560310E+03   -0.16453E-01   -0.50627E+00  8160   0.475E+00    0.503E-01
DAV:   2    -0.192083245156E+03   -0.20685E-01   -0.18488E-01 10920   0.160E+00    0.986E-01
DAV:   3    -0.192075385928E+03    0.78592E-02   -0.40407E-02 12600   0.143E+00    0.530E-01
DAV:   4    -0.192073148368E+03    0.22376E-02   -0.70905E-03 12040   0.623E-01    0.325E-01
DAV:   5    -0.192072126728E+03    0.10216E-02   -0.39171E-03 11760   0.506E-01    0.198E-01
DAV:   6    -0.192072207985E+03   -0.81256E-04   -0.20414E-03 12720   0.307E-01    0.177E-01
DAV:   7    -0.192071964722E+03    0.24326E-03   -0.12115E-03 10080   0.280E-01    0.142E-01
DAV:   8    -0.192071732378E+03    0.23234E-03   -0.40975E-04  8680   0.157E-01    0.278E-02
DAV:   9    -0.192071731647E+03    0.73103E-06   -0.62055E-05  6560   0.329E-02
  38 F= -.19207173E+03 E0= -.19198383E+03  d E =-.257149E-01
       N       E                     dE             d eps       ncg     rms          rms(c)
DAV:   1    -0.192074502671E+03   -0.27703E-02   -0.42147E-01  8160   0.139E+00    0.172E-01
DAV:   2    -0.192075694547E+03   -0.11919E-02   -0.12917E-02 12560   0.529E-01    0.301E-01
DAV:   3    -0.192074714456E+03    0.98009E-03   -0.35458E-03 12480   0.439E-01    0.139E-01
DAV:   4    -0.192074652577E+03    0.61879E-04   -0.97053E-04 11200   0.229E-01
  39 F= -.19207465E+03 E0= -.19198672E+03  d E =-.292093E-02
       N       E                     dE             d eps       ncg     rms          rms(c)
DAV:   1    -0.192084588706E+03   -0.98742E-02   -0.75662E-01  8160   0.189E+00    0.233E-01
DAV:   2    -0.192085815552E+03   -0.12268E-02   -0.25267E-02 11560   0.423E-01    0.182E-01
DAV:   3    -0.192086376711E+03   -0.56116E-03   -0.38596E-03 11920   0.474E-01    0.312E-01
DAV:   4    -0.192085202511E+03    0.11742E-02   -0.20331E-03 11280   0.367E-01    0.105E-01
DAV:   5    -0.192085390251E+03   -0.18774E-03   -0.10735E-03 10040   0.251E-01    0.169E-01
DAV:   6    -0.192085083778E+03    0.30647E-03   -0.67932E-04  9200   0.196E-01    0.444E-02
DAV:   7    -0.192085094481E+03   -0.10703E-04   -0.14185E-04  6200   0.919E-02
  40 F= -.19208509E+03 E0= -.19199584E+03  d E =-.104419E-01
       N       E                     dE             d eps       ncg     rms          rms(c)
DAV:   1    -0.192092108982E+03   -0.70252E-02   -0.40655E-01  8160   0.136E+00    0.152E-01
DAV:   2    -0.192093458354E+03   -0.13494E-02   -0.15085E-02 11080   0.446E-01    0.206E-01
DAV:   3    -0.192093235637E+03    0.22272E-03   -0.19793E-03 12360   0.366E-01    0.160E-01
DAV:   4    -0.192092993529E+03    0.24211E-03   -0.62124E-04  9320   0.204E-01    0.984E-02
DAV:   5    -0.192092937325E+03    0.56204E-04   -0.40111E-04  8800   0.156E-01
  41 F= -.19209294E+03 E0= -.19200377E+03  d E =-.784284E-02
       N       E                     dE             d eps       ncg     rms          rms(c)
DAV:   1    -0.192099923279E+03   -0.69298E-02   -0.34195E-01  8160   0.126E+00    0.144E-01
DAV:   2    -0.192101254557E+03   -0.13313E-02   -0.11139E-02 11640   0.397E-01    0.279E-01
DAV:   3    -0.192100590676E+03    0.66388E-03   -0.25709E-03 12120   0.387E-01    0.142E-01
DAV:   4    -0.192100402903E+03    0.18777E-03   -0.45907E-04  8520   0.143E-01    0.633E-02
DAV:   5    -0.192100452777E+03   -0.49875E-04   -0.31651E-04  9200   0.141E-01
  42 F= -.19210045E+03 E0= -.19201192E+03  d E =-.751545E-02
       N       E                     dE             d eps       ncg     rms          rms(c)
DAV:   1    -0.192100093974E+03    0.30893E-03   -0.80179E-03  9480   0.231E-01    0.542E-02
DAV:   2    -0.192100548191E+03   -0.45422E-03   -0.10649E-03 11920   0.241E-01    0.196E-01
DAV:   3    -0.192100076422E+03    0.47177E-03   -0.60533E-04  8880   0.218E-01    0.371E-02
DAV:   4    -0.192100066910E+03    0.95121E-05   -0.61575E-05  5800   0.437E-02
  43 F= -.19210007E+03 E0= -.19201120E+03  d E =0.385867E-03
       N       E                     dE             d eps       ncg     rms          rms(c)
DAV:   1    -0.192109645715E+03   -0.95693E-02   -0.62501E-01  8160   0.171E+00    0.197E-01
DAV:   2    -0.192110634470E+03   -0.98876E-03   -0.20308E-02 12000   0.379E-01    0.114E-01
DAV:   3    -0.192110492909E+03    0.14156E-03   -0.98739E-04 11720   0.173E-01    0.118E-01
DAV:   4    -0.192110578356E+03   -0.85448E-04   -0.86534E-04 11040   0.257E-01
  44 F= -.19211058E+03 E0= -.19202079E+03  d E =-.105114E-01
       N       E                     dE             d eps       ncg     rms          rms(c)
DAV:   1    -0.192103921985E+03    0.65709E-02   -0.22559E-01  8160   0.106E+00    0.154E-01
DAV:   2    -0.192106516070E+03   -0.25941E-02   -0.11712E-02 12040   0.611E-01    0.464E-01
DAV:   3    -0.192104129061E+03    0.23870E-02   -0.45172E-03 11040   0.525E-01    0.103E-01
DAV:   4    -0.192104147298E+03   -0.18237E-04   -0.57254E-04  8800   0.189E-01
  45 F= -.19210415E+03 E0= -.19201498E+03  d E =0.643106E-02
       N       E                     dE             d eps       ncg     rms          rms(c)
DAV:   1    -0.192093486830E+03    0.10642E-01   -0.92040E-01  8160   0.216E+00    0.374E-01
DAV:   2    -0.192093901405E+03   -0.41458E-03   -0.37389E-02 10680   0.686E-01    0.423E-01
DAV:   3    -0.192094267674E+03   -0.36627E-03   -0.13094E-02 12240   0.861E-01    0.497E-01
DAV:   4    -0.192091521287E+03    0.27464E-02   -0.55762E-03 11280   0.594E-01    0.192E-01
DAV:   5    -0.192091578153E+03   -0.56866E-04   -0.29665E-03 11200   0.393E-01    0.235E-01
DAV:   6    -0.192090994442E+03    0.58371E-03   -0.15463E-03 11640   0.308E-01    0.963E-02
DAV:   7    -0.192090962900E+03    0.31541E-04   -0.39457E-04  8880   0.152E-01
  46 F= -.19209096E+03 E0= -.19200296E+03  d E =0.131844E-01
       N       E                     dE             d eps       ncg     rms          rms(c)
DAV:   1    -0.192113985250E+03   -0.22991E-01   -0.26869E+00  8160   0.359E+00    0.478E-01
DAV:   2    -0.192119125206E+03   -0.51400E-02   -0.93891E-02 10920   0.108E+00    0.579E-01
DAV:   3    -0.192118446604E+03    0.67860E-03   -0.20590E-02 11800   0.110E+00    0.549E-01
DAV:   4    -0.192114976939E+03    0.34697E-02   -0.74839E-03 12240   0.703E-01    0.277E-01
DAV:   5    -0.192114882675E+03    0.94264E-04   -0.41483E-03 11280   0.540E-01    0.277E-01
DAV:   6    -0.192113922304E+03    0.96037E-03   -0.23527E-03 11600   0.354E-01    0.716E-02
DAV:   7    -0.192113900163E+03    0.22141E-04   -0.40434E-04  8680   0.118E-01
  47 F= -.19211390E+03 E0= -.19202483E+03  d E =-.229373E-01
       N       E                     dE             d eps       ncg     rms          rms(c)
DAV:   1    -0.192121953953E+03   -0.80316E-02   -0.38218E-01  8160   0.134E+00    0.152E-01
DAV:   2    -0.192122795300E+03   -0.84135E-03   -0.12265E-02 12280   0.309E-01    0.141E-01
DAV:   3    -0.192123142949E+03   -0.34765E-03   -0.20121E-03 12280   0.340E-01    0.237E-01
DAV:   4    -0.192122547081E+03    0.59587E-03   -0.99547E-04  9600   0.251E-01    0.639E-02
DAV:   5    -0.192122560350E+03   -0.13270E-04   -0.33664E-04  6920   0.103E-01
  48 F= -.19212256E+03 E0= -.19203416E+03  d E =-.866019E-02
       N       E                     dE             d eps       ncg     rms          rms(c)
DAV:   1    -0.192125372368E+03   -0.28253E-02   -0.40771E-02  8160   0.468E-01    0.113E-01
DAV:   2    -0.192127560481E+03   -0.21881E-02   -0.48569E-03 12200   0.551E-01    0.443E-01
DAV:   3    -0.192125275742E+03    0.22847E-02   -0.28073E-03 10640   0.460E-01    0.443E-02
DAV:   4    -0.192125303417E+03   -0.27675E-04   -0.14239E-04  5800   0.696E-02
  49 F= -.19212530E+03 E0= -.19203693E+03  d E =-.274307E-02
       N       E                     dE             d eps       ncg     rms          rms(c)
DAV:   1    -0.192126412709E+03   -0.11370E-02   -0.16459E-02  8160   0.299E-01    0.770E-02
DAV:   2    -0.192127189458E+03   -0.77675E-03   -0.20377E-03 11000   0.324E-01    0.278E-01
DAV:   3    -0.192126325096E+03    0.86436E-03   -0.12327E-03 10080   0.283E-01    0.347E-02
DAV:   4    -0.192126337811E+03   -0.12715E-04   -0.72952E-05  5640   0.572E-02
  50 F= -.19212634E+03 E0= -.19203804E+03  d E =-.103439E-02
       N       E                     dE             d eps       ncg     rms          rms(c)
DAV:   1    -0.192137860218E+03   -0.11535E-01   -0.74234E-01  8160   0.185E+00    0.200E-01
DAV:   2    -0.192139692167E+03   -0.18319E-02   -0.21675E-02 11760   0.511E-01    0.281E-01
DAV:   3    -0.192139399757E+03    0.29241E-03   -0.36742E-03 12040   0.477E-01    0.238E-01
DAV:   4    -0.192138799794E+03    0.59996E-03   -0.11606E-03 10080   0.264E-01    0.101E-01
DAV:   5    -0.192138853712E+03   -0.53918E-04   -0.81343E-04  9560   0.210E-01
  51 F= -.19213885E+03 E0= -.19205082E+03  d E =-.125159E-01
       N       E                     dE             d eps       ncg     rms          rms(c)
DAV:   1    -0.192138153809E+03    0.64599E-03   -0.36228E-02  8160   0.443E-01    0.107E-01
DAV:   2    -0.192140055191E+03   -0.19014E-02   -0.53303E-03 12320   0.485E-01    0.412E-01
DAV:   3    -0.192138119633E+03    0.19356E-02   -0.30930E-03 10200   0.445E-01    0.744E-02
DAV:   4    -0.192138046409E+03    0.73224E-04   -0.23069E-04  7000   0.766E-02
  52 F= -.19213805E+03 E0= -.19204999E+03  d E =0.807303E-03
       N       E                     dE             d eps       ncg     rms          rms(c)
DAV:   1    -0.192153115114E+03   -0.14995E-01   -0.98349E-01  8160   0.214E+00    0.239E-01
DAV:   2    -0.192155934788E+03   -0.28197E-02   -0.30480E-02 11680   0.606E-01    0.344E-01
DAV:   3    -0.192155331206E+03    0.60358E-03   -0.48366E-03 11640   0.579E-01    0.278E-01
DAV:   4    -0.192154634206E+03    0.69700E-03   -0.18208E-03 10560   0.319E-01    0.145E-01
DAV:   5    -0.192154510452E+03    0.12375E-03   -0.10229E-03 10120   0.250E-01    0.111E-01
DAV:   6    -0.192154500526E+03    0.99261E-05   -0.60041E-04  9160   0.169E-01
  53 F= -.19215450E+03 E0= -.19206698E+03  d E =-.164541E-01
       N       E                     dE             d eps       ncg     rms          rms(c)
DAV:   1    -0.192156920217E+03   -0.24098E-02   -0.20712E-02  8160   0.341E-01    0.624E-02
DAV:   2    -0.192157434818E+03   -0.51460E-03   -0.15905E-03 12400   0.261E-01    0.209E-01
DAV:   3    -0.192156918578E+03    0.51624E-03   -0.75929E-04  8960   0.232E-01    0.372E-02
DAV:   4    -0.192156940862E+03   -0.22284E-04   -0.94020E-05  5760   0.713E-02
  54 F= -.19215694E+03 E0= -.19206963E+03  d E =-.244034E-02
       N       E                     dE             d eps       ncg     rms          rms(c)
DAV:   1    -0.192140862277E+03    0.16056E-01   -0.86159E-01  8160   0.200E+00    0.224E-01
DAV:   2    -0.192143794590E+03   -0.29323E-02   -0.25142E-02 12080   0.673E-01    0.428E-01
DAV:   3    -0.192142181562E+03    0.16130E-02   -0.60924E-03 11840   0.608E-01    0.221E-01
DAV:   4    -0.192141771960E+03    0.40960E-03   -0.14365E-03 10280   0.255E-01    0.126E-01
DAV:   5    -0.192141693142E+03    0.78817E-04   -0.95001E-04 10520   0.225E-01
  55 F= -.19214169E+03 E0= -.19205412E+03  d E =0.152477E-01
       N       E                     dE             d eps       ncg     rms          rms(c)
DAV:   1    -0.192139454666E+03    0.23173E-02   -0.19544E-01  8160   0.970E-01    0.140E-01
DAV:   2    -0.192139853350E+03   -0.39868E-03   -0.71835E-03 12600   0.301E-01    0.178E-01
DAV:   3    -0.192139696177E+03    0.15717E-03   -0.18719E-03 12040   0.307E-01    0.170E-01
DAV:   4    -0.192139441462E+03    0.25471E-03   -0.79820E-04 10920   0.225E-01    0.945E-02
DAV:   5    -0.192139343166E+03    0.98296E-04   -0.39085E-04  7520   0.120E-01
  56 F= -.19213934E+03 E0= -.19205105E+03  d E =0.234998E-02
       N       E                     dE             d eps       ncg     rms          rms(c)
DAV:   1    -0.192111251887E+03    0.28190E-01   -0.35265E+00  8160   0.408E+00    0.471E-01
DAV:   2    -0.192120112831E+03   -0.88609E-02   -0.96910E-02 11400   0.112E+00    0.723E-01
DAV:   3    -0.192117554007E+03    0.25588E-02   -0.21774E-02 11560   0.114E+00    0.533E-01
DAV:   4    -0.192114770603E+03    0.27834E-02   -0.67157E-03 11800   0.581E-01    0.261E-01
DAV:   5    -0.192114490619E+03    0.27998E-03   -0.37954E-03 10760   0.483E-01    0.252E-01
DAV:   6    -0.192114267785E+03    0.22283E-03   -0.28492E-03 10600   0.390E-01    0.187E-01
DAV:   7    -0.192113867280E+03    0.40051E-03   -0.11155E-03 10240   0.259E-01    0.107E-01
DAV:   8    -0.192113729385E+03    0.13789E-03   -0.26536E-04  8720   0.124E-01    0.226E-02
DAV:   9    -0.192113726983E+03    0.24019E-05   -0.39336E-05  6800   0.279E-02
  57 F= -.19211373E+03 E0= -.19202476E+03  d E =0.256162E-01
       N       E                     dE             d eps       ncg     rms          rms(c)
DAV:   1    -0.192089151328E+03    0.24578E-01   -0.57949E+00  8160   0.524E+00    0.589E-01
DAV:   2    -0.192097593631E+03   -0.84423E-02   -0.14942E-01 10880   0.110E+00    0.497E-01
DAV:   3    -0.192103974853E+03   -0.63812E-02   -0.27554E-02 12200   0.127E+00    0.916E-01
DAV:   4    -0.192094426205E+03    0.95486E-02   -0.14633E-02 11400   0.986E-01    0.241E-01
DAV:   5    -0.192094417263E+03    0.89423E-05   -0.41831E-03 11360   0.351E-01    0.247E-01
DAV:   6    -0.192094432136E+03   -0.14873E-04   -0.34749E-03 11560   0.475E-01    0.272E-01
DAV:   7    -0.192093497329E+03    0.93481E-03   -0.11558E-03 10080   0.286E-01    0.329E-02
DAV:   8    -0.192093503326E+03   -0.59972E-05   -0.10190E-04  6000   0.492E-02
  58 F= -.19209350E+03 E0= -.19200565E+03  d E =0.202237E-01
       N       E                     dE             d eps       ncg     rms          rms(c)
DAV:   1    -0.192097341786E+03   -0.38445E-02   -0.34653E-01  8160   0.125E+00    0.138E-01
DAV:   2    -0.192098762560E+03   -0.14208E-02   -0.12415E-02 10720   0.414E-01    0.267E-01
DAV:   3    -0.192098188642E+03    0.57392E-03   -0.24923E-03 12360   0.380E-01    0.151E-01
DAV:   4    -0.192097942593E+03    0.24605E-03   -0.41230E-04  8360   0.135E-01    0.519E-02
DAV:   5    -0.192097988726E+03   -0.46133E-04   -0.21143E-04  7080   0.113E-01
  59 F= -.19209799E+03 E0= -.19201026E+03  d E =-.448540E-02
       N       E                     dE             d eps       ncg     rms          rms(c)
DAV:   1    -0.192097612469E+03    0.33012E-03   -0.88153E-01  8160   0.204E+00    0.244E-01
DAV:   2    -0.192099283957E+03   -0.16715E-02   -0.25937E-02 10880   0.477E-01    0.254E-01
DAV:   3    -0.192099473352E+03   -0.18939E-03   -0.51123E-03 11680   0.533E-01    0.303E-01
DAV:   4    -0.192098563744E+03    0.90961E-03   -0.18920E-03 10520   0.376E-01    0.137E-01
DAV:   5    -0.192098412305E+03    0.15144E-03   -0.88489E-04 10240   0.219E-01    0.109E-01
DAV:   6    -0.192098385633E+03    0.26671E-04   -0.55556E-04  9720   0.196E-01
  60 F= -.19209839E+03 E0= -.19201160E+03  d E =-.396907E-03
       N       E                     dE             d eps       ncg     rms          rms(c)
DAV:   1    -0.192101184025E+03   -0.27717E-02   -0.50865E-01  8160   0.152E+00    0.161E-01
DAV:   2    -0.192102072392E+03   -0.88837E-03   -0.14562E-02 12080   0.352E-01    0.135E-01
DAV:   3    -0.192102590382E+03   -0.51799E-03   -0.22461E-03 12280   0.361E-01    0.261E-01
DAV:   4    -0.192101832879E+03    0.75750E-03   -0.10712E-03 10160   0.270E-01    0.606E-02
DAV:   5    -0.192101951422E+03   -0.11854E-03   -0.35558E-04  8840   0.154E-01    0.110E-01
DAV:   6    -0.192101832414E+03    0.11901E-03   -0.29423E-04  8440   0.146E-01    0.423E-02
DAV:   7    -0.192101819963E+03    0.12451E-04   -0.72848E-05  6200   0.664E-02
  61 F= -.19210182E+03 E0= -.19201551E+03  d E =-.343433E-02
       N       E                     dE             d eps       ncg     rms          rms(c)
DAV:   1    -0.192104554987E+03   -0.27226E-02   -0.85340E-01  8160   0.199E+00    0.230E-01
DAV:   2    -0.192105963704E+03   -0.14087E-02   -0.25393E-02 11000   0.489E-01    0.183E-01
DAV:   3    -0.192106358258E+03   -0.39455E-03   -0.34973E-03 12240   0.441E-01    0.256E-01
DAV:   4    -0.192105544456E+03    0.81380E-03   -0.17156E-03 10520   0.348E-01    0.108E-01
DAV:   5    -0.192105632393E+03   -0.87938E-04   -0.69372E-04  9440   0.207E-01
  62 F= -.19210563E+03 E0= -.19202030E+03  d E =-.381243E-02
       N       E                     dE             d eps       ncg     rms          rms(c)
DAV:   1    -0.192105701769E+03   -0.15731E-03   -0.24750E-03 10160   0.218E-01    0.670E-02
DAV:   2    -0.192106506362E+03   -0.80459E-03   -0.16908E-03 10520   0.329E-01    0.270E-01
DAV:   3    -0.192105652367E+03    0.85399E-03   -0.11587E-03  9840   0.284E-01    0.427E-02
DAV:   4    -0.192105645599E+03    0.67684E-05   -0.55622E-05  5920   0.563E-02
  63 F= -.19210565E+03 E0= -.19202039E+03  d E =-.132057E-04
       N       E                     dE             d eps       ncg     rms          rms(c)
DAV:   1    -0.192108187562E+03   -0.25352E-02   -0.23920E-01  8160   0.104E+00    0.113E-01
DAV:   2    -0.192108855581E+03   -0.66802E-03   -0.66420E-03 11840   0.298E-01    0.192E-01
DAV:   3    -0.192108626494E+03    0.22909E-03   -0.14360E-03 11080   0.294E-01    0.133E-01
DAV:   4    -0.192108447139E+03    0.17936E-03   -0.31640E-04  7880   0.130E-01    0.429E-02
DAV:   5    -0.192108462053E+03   -0.14914E-04   -0.14836E-04  7280   0.927E-02
  64 F= -.19210846E+03 E0= -.19202357E+03  d E =-.281645E-02
       N       E                     dE             d eps       ncg     rms          rms(c)
DAV:   1    -0.192109755145E+03   -0.13080E-02   -0.61257E-02  8160   0.534E-01    0.643E-02
DAV:   2    -0.192110025207E+03   -0.27006E-03   -0.19970E-03 11960   0.183E-01    0.132E-01
DAV:   3    -0.192109859388E+03    0.16582E-03   -0.44708E-04  9920   0.175E-01    0.596E-02
DAV:   4    -0.192109862608E+03   -0.32195E-05   -0.12622E-04  5840   0.928E-02
  65 F= -.19210986E+03 E0= -.19202486E+03  d E =-.140056E-02
       N       E                     dE             d eps       ncg     rms          rms(c)
DAV:   1    -0.192109569553E+03    0.28984E-03   -0.37839E-03  8160   0.146E-01    0.202E-02
DAV:   2    -0.192109603701E+03   -0.34149E-04   -0.13443E-04  6800   0.767E-02
  66 F= -.19210960E+03 E0= -.19202469E+03  d E =0.258907E-03
       N       E                     dE             d eps       ncg     rms          rms(c)
DAV:   1    -0.192109434697E+03    0.13486E-03   -0.35605E-03 10160   0.161E-01    0.360E-02
DAV:   2    -0.192109631249E+03   -0.19655E-03   -0.50483E-04  9920   0.170E-01    0.135E-01
DAV:   3    -0.192109415817E+03    0.21543E-03   -0.24016E-04  7200   0.138E-01    0.147E-02
DAV:   4    -0.192109424850E+03   -0.90334E-05   -0.22389E-05  5680   0.361E-02
  67 F= -.19210942E+03 E0= -.19202459E+03  d E =0.178851E-03
       N       E                     dE             d eps       ncg     rms          rms(c)
DAV:   1    -0.192110948241E+03   -0.15324E-02   -0.13218E-01  8160   0.796E-01    0.123E-01
DAV:   2    -0.192111610576E+03   -0.66233E-03   -0.51095E-03 12000   0.368E-01    0.266E-01
DAV:   3    -0.192110901697E+03    0.70888E-03   -0.15634E-03 10840   0.331E-01    0.907E-02
DAV:   4    -0.192110858134E+03    0.43563E-04   -0.39424E-04  8720   0.141E-01
  68 F= -.19211086E+03 E0= -.19202559E+03  d E =-.143328E-02
       N       E                     dE             d eps       ncg     rms          rms(c)
DAV:   1    -0.192111976477E+03   -0.10748E-02   -0.93515E-02  8200   0.719E-01    0.212E-01
DAV:   2    -0.192116724423E+03   -0.47479E-02   -0.14683E-02 11400   0.943E-01    0.674E-01
DAV:   3    -0.192111245764E+03    0.54787E-02   -0.65311E-03 10400   0.719E-01    0.938E-02
DAV:   4    -0.192111448801E+03   -0.20304E-03   -0.10034E-03  9640   0.255E-01    0.173E-01
DAV:   5    -0.192111114736E+03    0.33406E-03   -0.71380E-04  9880   0.230E-01    0.785E-02
DAV:   6    -0.192111098698E+03    0.16039E-04   -0.28785E-04  7920   0.129E-01
  69 F= -.19211110E+03 E0= -.19202629E+03  d E =-.240564E-03
       N       E                     dE             d eps       ncg     rms          rms(c)
DAV:   1    -0.192112915304E+03   -0.18006E-02   -0.17254E-01  8160   0.883E-01    0.904E-02
DAV:   2    -0.192113276746E+03   -0.36144E-03   -0.52726E-03 12080   0.219E-01    0.761E-02
DAV:   3    -0.192113383045E+03   -0.10630E-03   -0.55363E-04 10360   0.188E-01    0.128E-01
DAV:   4    -0.192113204648E+03    0.17840E-03   -0.30841E-04  8240   0.155E-01    0.420E-02
DAV:   5    -0.192113217460E+03   -0.12812E-04   -0.91818E-05  5640   0.712E-02
  70 F= -.19211322E+03 E0= -.19202895E+03  d E =-.211876E-02
       N       E                     dE             d eps       ncg     rms          rms(c)
DAV:   1    -0.192114391112E+03   -0.11865E-02   -0.51403E-02  8160   0.492E-01    0.708E-02
DAV:   2    -0.192114974109E+03   -0.58300E-03   -0.22050E-03 12560   0.267E-01    0.228E-01
DAV:   3    -0.192114421759E+03    0.55235E-03   -0.88534E-04  9880   0.242E-01    0.415E-02
DAV:   4    -0.192114426840E+03   -0.50811E-05   -0.56368E-05  5880   0.527E-02
  71 F= -.19211443E+03 E0= -.19203020E+03  d E =-.120938E-02
       N       E                     dE             d eps       ncg     rms          rms(c)
DAV:   1    -0.192115016059E+03   -0.59430E-03   -0.12150E-02  8160   0.247E-01    0.458E-02
DAV:   2    -0.192115264689E+03   -0.24863E-03   -0.73153E-04 11960   0.186E-01    0.149E-01
DAV:   3    -0.192115001256E+03    0.26343E-03   -0.34598E-04  8360   0.163E-01    0.244E-02
DAV:   4    -0.192115021609E+03   -0.20353E-04   -0.42170E-05  5640   0.527E-02
  72 F= -.19211502E+03 E0= -.19203088E+03  d E =-.594769E-03
       N       E                     dE             d eps       ncg     rms          rms(c)
DAV:   1    -0.192119566988E+03   -0.45657E-02   -0.95861E-01  8160   0.209E+00    0.231E-01
DAV:   2    -0.192121328687E+03   -0.17617E-02   -0.24493E-02 12240   0.511E-01    0.295E-01
DAV:   3    -0.192121478570E+03   -0.14988E-03   -0.56748E-03 12440   0.569E-01    0.335E-01
DAV:   4    -0.192120310708E+03    0.11679E-02   -0.18234E-03 11080   0.331E-01    0.882E-02
DAV:   5    -0.192120257065E+03    0.53643E-04   -0.55872E-04 10240   0.141E-01
  73 F= -.19212026E+03 E0= -.19203649E+03  d E =-.523546E-02
       N       E                     dE             d eps       ncg     rms          rms(c)
DAV:   1    -0.192120187938E+03    0.12277E-03   -0.31642E-03 10120   0.207E-01    0.974E-02
DAV:   2    -0.192121974973E+03   -0.17870E-02   -0.33986E-03 10960   0.512E-01    0.387E-01
DAV:   3    -0.192120058365E+03    0.19166E-02   -0.21100E-03 10080   0.415E-01    0.430E-02
DAV:   4    -0.192120062443E+03   -0.40779E-05   -0.59912E-05  5880   0.630E-02
  74 F= -.19212006E+03 E0= -.19203645E+03  d E =0.194622E-03
       N       E                     dE             d eps       ncg     rms          rms(c)
DAV:   1    -0.192121994029E+03   -0.19357E-02   -0.12390E-01  8160   0.757E-01    0.916E-02
DAV:   2    -0.192122306598E+03   -0.31257E-03   -0.35398E-03 11040   0.249E-01    0.143E-01
DAV:   3    -0.192122172780E+03    0.13382E-03   -0.78334E-04 10760   0.228E-01    0.998E-02
DAV:   4    -0.192122093524E+03    0.79256E-04   -0.24870E-04  6960   0.127E-01
  75 F= -.19212209E+03 E0= -.19203857E+03  d E =-.203108E-02
       N       E                     dE             d eps       ncg     rms          rms(c)
DAV:   1    -0.192121238198E+03    0.93458E-03   -0.18593E-02  8160   0.312E-01    0.596E-02
DAV:   2    -0.192121952156E+03   -0.71396E-03   -0.14614E-03 11200   0.299E-01    0.248E-01
DAV:   3    -0.192121240783E+03    0.71137E-03   -0.81743E-04 10120   0.254E-01    0.331E-02
DAV:   4    -0.192121246301E+03   -0.55186E-05   -0.52077E-05  5600   0.574E-02
  76 F= -.19212125E+03 E0= -.19203772E+03  d E =0.847223E-03
       N       E                     dE             d eps       ncg     rms          rms(c)
DAV:   1    -0.192120566657E+03    0.67413E-03   -0.58524E-02  8160   0.536E-01    0.886E-02
DAV:   2    -0.192120668900E+03   -0.10224E-03   -0.20776E-03 10960   0.195E-01    0.125E-01
DAV:   3    -0.192120534377E+03    0.13452E-03   -0.77411E-04 10520   0.215E-01    0.926E-02
DAV:   4    -0.192120460249E+03    0.74128E-04   -0.22243E-04  7400   0.121E-01
  77 F= -.19212046E+03 E0= -.19203725E+03  d E =0.786052E-03
       N       E                     dE             d eps       ncg     rms          rms(c)
DAV:   1    -0.192119207802E+03    0.13266E-02   -0.13688E-01  8160   0.806E-01    0.129E-01
DAV:   2    -0.192119292222E+03   -0.84420E-04   -0.43051E-03 10920   0.238E-01    0.146E-01
DAV:   3    -0.192119253151E+03    0.39071E-04   -0.11785E-03 10160   0.288E-01    0.149E-01
DAV:   4    -0.192119053763E+03    0.19939E-03   -0.51417E-04  8880   0.193E-01    0.878E-02
DAV:   5    -0.192119018658E+03    0.35105E-04   -0.36393E-04  8600   0.156E-01
  78 F= -.19211902E+03 E0= -.19203550E+03  d E =0.144159E-02
       N       E                     dE             d eps       ncg     rms          rms(c)
DAV:   1    -0.192122050484E+03   -0.29967E-02   -0.28401E-01  8160   0.117E+00    0.153E-01
DAV:   2    -0.192122741201E+03   -0.69072E-03   -0.78974E-03 12000   0.355E-01    0.246E-01
DAV:   3    -0.192122315785E+03    0.42542E-03   -0.23981E-03 11360   0.395E-01    0.181E-01
DAV:   4    -0.192122020768E+03    0.29502E-03   -0.78548E-04  9200   0.203E-01    0.895E-02
DAV:   5    -0.192122020454E+03    0.31446E-06   -0.40931E-04  8800   0.174E-01
  79 F= -.19212202E+03 E0= -.19203921E+03  d E =-.300180E-02
       N       E                     dE             d eps       ncg     rms          rms(c)
DAV:   1    -0.192122313425E+03   -0.29266E-03   -0.19735E-02  8160   0.329E-01    0.526E-02
DAV:   2    -0.192122622588E+03   -0.30916E-03   -0.12638E-03 11320   0.211E-01    0.152E-01
DAV:   3    -0.192122320751E+03    0.30184E-03   -0.47818E-04  8960   0.182E-01    0.338E-02
DAV:   4    -0.192122324354E+03   -0.36034E-05   -0.48844E-05  5520   0.567E-02
  80 F= -.19212232E+03 E0= -.19203920E+03  d E =-.303900E-03
       N       E                     dE             d eps       ncg     rms          rms(c)
DAV:   1    -0.192122465153E+03   -0.14440E-03   -0.39091E-02  8160   0.425E-01    0.696E-02
DAV:   2    -0.192123023392E+03   -0.55824E-03   -0.20472E-03 11920   0.285E-01    0.215E-01
DAV:   3    -0.192122483613E+03    0.53978E-03   -0.71084E-04  9320   0.238E-01    0.413E-02
DAV:   4    -0.192122498917E+03   -0.15304E-04   -0.99870E-05  5680   0.774E-02
  81 F= -.19212250E+03 E0= -.19203953E+03  d E =-.174563E-03
       N       E                     dE             d eps       ncg     rms          rms(c)
DAV:   1    -0.192124430541E+03   -0.19469E-02   -0.13447E-01  8160   0.792E-01    0.930E-02
DAV:   2    -0.192124723270E+03   -0.29273E-03   -0.35244E-03 12320   0.240E-01    0.138E-01
DAV:   3    -0.192124618722E+03    0.10455E-03   -0.81980E-04 10240   0.232E-01    0.109E-01
DAV:   4    -0.192124512971E+03    0.10575E-03   -0.24825E-04  7480   0.125E-01    0.532E-02
DAV:   5    -0.192124521562E+03   -0.85905E-05   -0.12930E-04  6600   0.103E-01
  82 F= -.19212452E+03 E0= -.19204157E+03  d E =-.202264E-02
       N       E                     dE             d eps       ncg     rms          rms(c)
DAV:   1    -0.192121413386E+03    0.30996E-02   -0.29101E-01  8160   0.116E+00    0.142E-01
DAV:   2    -0.192123088549E+03   -0.16752E-02   -0.98671E-03 12480   0.457E-01    0.350E-01
DAV:   3    -0.192121813336E+03    0.12752E-02   -0.29235E-03 11320   0.438E-01    0.117E-01
DAV:   4    -0.192121731439E+03    0.81898E-04   -0.43923E-04  8280   0.147E-01
  83 F= -.19212173E+03 E0= -.19203884E+03  d E =0.279012E-02
       N       E                     dE             d eps       ncg     rms          rms(c)
DAV:   1    -0.192117337884E+03    0.44755E-02   -0.74905E-01  8160   0.187E+00    0.253E-01
DAV:   2    -0.192120201797E+03   -0.28639E-02   -0.21831E-02 12880   0.675E-01    0.502E-01
DAV:   3    -0.192117935102E+03    0.22667E-02   -0.71829E-03 12280   0.680E-01    0.251E-01
DAV:   4    -0.192117440897E+03    0.49420E-03   -0.18818E-03 11480   0.289E-01    0.140E-01
DAV:   5    -0.192117384008E+03    0.56889E-04   -0.13767E-03 10480   0.271E-01    0.149E-01
DAV:   6    -0.192117175396E+03    0.20861E-03   -0.69346E-04 10880   0.208E-01    0.712E-02
DAV:   7    -0.192117172428E+03    0.29685E-05   -0.20554E-04  7800   0.125E-01
  84 F= -.19211717E+03 E0= -.19203349E+03  d E =0.455901E-02
       N       E                     dE             d eps       ncg     rms          rms(c)
DAV:   1    -0.192115450423E+03    0.17250E-02   -0.11645E-01  8160   0.738E-01    0.942E-02
DAV:   2    -0.192115901865E+03   -0.45144E-03   -0.36050E-03 11800   0.256E-01    0.183E-01
DAV:   3    -0.192115585333E+03    0.31653E-03   -0.10089E-03 10600   0.256E-01    0.895E-02
DAV:   4    -0.192115540139E+03    0.45195E-04   -0.21556E-04  7120   0.116E-01
  85 F= -.19211554E+03 E0= -.19203186E+03  d E =0.163229E-02
       N       E                     dE             d eps       ncg     rms          rms(c)
DAV:   1    -0.192120188260E+03   -0.46029E-02   -0.10794E+00  8160   0.224E+00    0.261E-01
DAV:   2    -0.192124295602E+03   -0.41073E-02   -0.31153E-02 12160   0.786E-01    0.521E-01
DAV:   3    -0.192121557175E+03    0.27384E-02   -0.72198E-03 11880   0.717E-01    0.227E-01
DAV:   4    -0.192121078665E+03    0.47851E-03   -0.14555E-03 10880   0.272E-01    0.136E-01
DAV:   5    -0.192121104395E+03   -0.25730E-04   -0.93255E-04 11240   0.254E-01
  86 F= -.19212110E+03 E0= -.19203841E+03  d E =-.556426E-02
       N       E                     dE             d eps       ncg     rms          rms(c)
DAV:   1    -0.192118411480E+03    0.26672E-02   -0.22171E-01  8160   0.105E+00    0.143E-01
DAV:   2    -0.192120626650E+03   -0.22152E-02   -0.10084E-02 12920   0.575E-01    0.423E-01
DAV:   3    -0.192118655316E+03    0.19713E-02   -0.40522E-03 11600   0.503E-01    0.118E-01
DAV:   4    -0.192118565785E+03    0.89531E-04   -0.46917E-04  8800   0.160E-01
  87 F= -.19211857E+03 E0= -.19203501E+03  d E =0.253861E-02
       N       E                     dE             d eps       ncg     rms          rms(c)
DAV:   1    -0.192117334515E+03    0.13208E-02   -0.11326E-01  8160   0.752E-01    0.130E-01
DAV:   2    -0.192118150460E+03   -0.81594E-03   -0.41811E-03 12760   0.370E-01    0.287E-01
DAV:   3    -0.192117289441E+03    0.86102E-03   -0.19338E-03 10920   0.369E-01    0.122E-01
DAV:   4    -0.192117251127E+03    0.38314E-04   -0.58606E-04  8240   0.179E-01
  88 F= -.19211725E+03 E0= -.19203352E+03  d E =0.131466E-02
       N       E                     dE             d eps       ncg     rms          rms(c)
DAV:   1    -0.192117779684E+03   -0.49024E-03   -0.26991E-02  8160   0.377E-01    0.554E-02
DAV:   2    -0.192118126746E+03   -0.34706E-03   -0.14904E-03 11640   0.230E-01    0.153E-01
DAV:   3    -0.192117801297E+03    0.32545E-03   -0.55014E-04  9760   0.191E-01    0.300E-02
DAV:   4    -0.192117804353E+03   -0.30558E-05   -0.43549E-05  5760   0.543E-02
  89 F= -.19211780E+03 E0= -.19203387E+03  d E =-.553226E-03
       N       E                     dE             d eps       ncg     rms          rms(c)
DAV:   1    -0.192119483098E+03   -0.16818E-02   -0.13106E-01  8160   0.785E-01    0.990E-02
DAV:   2    -0.192119861368E+03   -0.37827E-03   -0.34643E-03 12040   0.261E-01    0.182E-01
DAV:   3    -0.192119577298E+03    0.28407E-03   -0.10352E-03 10800   0.258E-01    0.989E-02
DAV:   4    -0.192119523872E+03    0.53426E-04   -0.27074E-04  7720   0.130E-01
  90 F= -.19211952E+03 E0= -.19203566E+03  d E =-.171952E-02
       N       E                     dE             d eps       ncg     rms          rms(c)
DAV:   1    -0.192119543438E+03    0.33860E-04   -0.17227E-02  8200   0.308E-01    0.549E-02
DAV:   2    -0.192119918779E+03   -0.37534E-03   -0.11956E-03 12400   0.222E-01    0.171E-01
DAV:   3    -0.192119560319E+03    0.35846E-03   -0.50298E-04  8960   0.202E-01    0.382E-02
DAV:   4    -0.192119568438E+03   -0.81189E-05   -0.68524E-05  5520   0.642E-02
  91 F= -.19211957E+03 E0= -.19203575E+03  d E =-.445655E-04
       N       E                     dE             d eps       ncg     rms          rms(c)
DAV:   1    -0.192120376638E+03   -0.81632E-03   -0.67377E-02  8160   0.553E-01    0.734E-02
DAV:   2    -0.192120542570E+03   -0.16593E-03   -0.22263E-03 10600   0.172E-01    0.108E-01
DAV:   3    -0.192120483582E+03    0.58988E-04   -0.52588E-04  9360   0.184E-01
  92 F= -.19212048E+03 E0= -.19203718E+03  d E =-.915145E-03
       N       E                     dE             d eps       ncg     rms          rms(c)
DAV:   1    -0.192120691786E+03   -0.14922E-03   -0.64986E-03  8160   0.197E-01    0.468E-02
DAV:   2    -0.192120823659E+03   -0.13187E-03   -0.45297E-04  8840   0.144E-01    0.116E-01
DAV:   3    -0.192120672328E+03    0.15133E-03   -0.28084E-04  8120   0.147E-01    0.404E-02
DAV:   4    -0.192120667361E+03    0.49669E-05   -0.57440E-05  5680   0.534E-02
  93 F= -.19212067E+03 E0= -.19203732E+03  d E =-.183778E-03
       N       E                     dE             d eps       ncg     rms          rms(c)
DAV:   1    -0.192121573713E+03   -0.90139E-03   -0.61935E-02  8160   0.530E-01    0.659E-02
DAV:   2    -0.192121891085E+03   -0.31737E-03   -0.21138E-03 12320   0.212E-01    0.145E-01
DAV:   3    -0.192121654083E+03    0.23700E-03   -0.55040E-04  9440   0.191E-01    0.555E-02
DAV:   4    -0.192121651596E+03    0.24872E-05   -0.10756E-04  5880   0.837E-02
  94 F= -.19212165E+03 E0= -.19203840E+03  d E =-.984236E-03
       N       E                     dE             d eps       ncg     rms          rms(c)
DAV:   1    -0.192122729329E+03   -0.10752E-02   -0.54106E-02  8160   0.514E-01    0.775E-02
DAV:   2    -0.192122942955E+03   -0.21363E-03   -0.17313E-03 12720   0.192E-01    0.134E-01
DAV:   3    -0.192122756604E+03    0.18635E-03   -0.52817E-04 10080   0.202E-01    0.733E-02
DAV:   4    -0.192122719481E+03    0.37123E-04   -0.14663E-04  6080   0.994E-02
  95 F= -.19212272E+03 E0= -.19203957E+03  d E =-.106789E-02
       N       E                     dE             d eps       ncg     rms          rms(c)
DAV:   1    -0.192122362330E+03    0.39427E-03   -0.52418E-03  8160   0.184E-01    0.430E-02
DAV:   2    -0.192122700733E+03   -0.33840E-03   -0.84868E-04 11080   0.222E-01    0.164E-01
DAV:   3    -0.192122350353E+03    0.35038E-03   -0.47072E-04  8640   0.182E-01    0.252E-02
DAV:   4    -0.192122354710E+03   -0.43567E-05   -0.23815E-05  5640   0.375E-02
  96 F= -.19212235E+03 E0= -.19203911E+03  d E =0.364772E-03
       N       E                     dE             d eps       ncg     rms          rms(c)
DAV:   1    -0.192122890763E+03   -0.54041E-03   -0.19179E-02  8160   0.304E-01    0.511E-02
DAV:   2    -0.192122909726E+03   -0.18963E-04   -0.82195E-04 10320   0.113E-01
  97 F= -.19212291E+03 E0= -.19203993E+03  d E =-.555016E-03
       N       E                     dE             d eps       ncg     rms          rms(c)
DAV:   1    -0.192123860983E+03   -0.97022E-03   -0.39388E-02  8160   0.452E-01    0.784E-02
DAV:   2    -0.192124517532E+03   -0.65655E-03   -0.19527E-03 12560   0.310E-01    0.234E-01
DAV:   3    -0.192123839275E+03    0.67826E-03   -0.83869E-04  9880   0.268E-01    0.440E-02
DAV:   4    -0.192123878018E+03   -0.38743E-04   -0.15056E-04  6760   0.945E-02
  98 F= -.19212388E+03 E0= -.19204106E+03  d E =-.968292E-03
       N       E                     dE             d eps       ncg     rms          rms(c)
DAV:   1    -0.192124071518E+03   -0.23224E-03   -0.23197E-03  8200   0.133E-01    0.307E-02
DAV:   2    -0.192124172549E+03   -0.10103E-03   -0.24777E-04  8440   0.117E-01    0.995E-02
DAV:   3    -0.192124060494E+03    0.11206E-03   -0.15673E-04  6280   0.110E-01    0.201E-02
DAV:   4    -0.192124064038E+03   -0.35447E-05   -0.21802E-05  5680   0.308E-02
  99 F= -.19212406E+03 E0= -.19204106E+03  d E =-.186020E-03
       N       E                     dE             d eps       ncg     rms          rms(c)
DAV:   1    -0.192125856371E+03   -0.17959E-02   -0.12336E-01  8160   0.759E-01    0.932E-02
DAV:   2    -0.192126065305E+03   -0.20893E-03   -0.30369E-03 11280   0.201E-01    0.121E-01
DAV:   3    -0.192126019663E+03    0.45642E-04   -0.67714E-04 10440   0.223E-01
 100 F= -.19212602E+03 E0= -.19204285E+03  d E =-.195562E-02
