<?xml version="1.0" encoding="ISO-8859-1"?>
<modeling>
 <generator>
  <i name="program" type="string">vasp </i>
  <i name="version" type="string">5.4.1  </i>
  <i name="subversion" type="string">05Feb16 (build Jul 05 2020 17:13:04) complex                          parallel </i>
  <i name="platform" type="string">IFC91_ompi </i>
  <i name="date" type="string">2024 04 28 </i>
  <i name="time" type="string">13:34:24 </i>
 </generator>
 <incar>
  <i type="int" name="ISTART">     0</i>
  <i type="string" name="PREC">normal</i>
  <i type="string" name="ALGO"> Normal</i>
  <i type="int" name="ISPIN">     1</i>
  <i type="int" name="ICHARG">     2</i>
  <i type="int" name="IBRION">     1</i>
  <i type="int" name="NSW">   100</i>
  <i type="int" name="ISIF">     3</i>
  <i type="int" name="ISYM">     0</i>
  <i name="SYMPREC">      0.00000001</i>
  <i name="POTIM">      0.50000000</i>
  <i type="logical" name="LREAL"> F  </i>
  <i type="logical" name="LPLANE"> F  </i>
  <i type="int" name="ISMEAR">     0</i>
  <i type="logical" name="LWAVE"> F  </i>
  <i type="logical" name="LCHARG"> F  </i>
  <v type="int" name="KPOINT_BSE">    -1     0     0     0</v>
 </incar>
 <kpoints>
  <generation param="Gamma">
   <v type="int" name="divisions">       8        8        1 </v>
   <v name="usershift">      0.00000000       0.00000000       0.00000000 </v>
   <v name="genvec1">      0.12500000       0.00000000       0.00000000 </v>
   <v name="genvec2">     -0.00000000       0.12500000       0.00000000 </v>
   <v name="genvec3">      0.00000000       0.00000000       1.00000000 </v>
   <v name="shift">      0.00000000       0.00000000       0.00000000 </v>
  </generation>
  <varray name="kpointlist" >
   <v>       0.00000000       0.00000000       0.00000000 </v>
   <v>       0.12500000       0.00000000       0.00000000 </v>
   <v>       0.25000000       0.00000000       0.00000000 </v>
   <v>       0.37500000       0.00000000       0.00000000 </v>
   <v>       0.50000000       0.00000000       0.00000000 </v>
   <v>       0.00000000       0.12500000       0.00000000 </v>
   <v>       0.12500000       0.12500000       0.00000000 </v>
   <v>       0.25000000       0.12500000       0.00000000 </v>
   <v>       0.37500000       0.12500000       0.00000000 </v>
   <v>       0.50000000       0.12500000       0.00000000 </v>
   <v>      -0.37500000       0.12500000       0.00000000 </v>
   <v>      -0.25000000       0.12500000       0.00000000 </v>
   <v>      -0.12500000       0.12500000       0.00000000 </v>
   <v>       0.00000000       0.25000000       0.00000000 </v>
   <v>       0.12500000       0.25000000       0.00000000 </v>
   <v>       0.25000000       0.25000000       0.00000000 </v>
   <v>       0.37500000       0.25000000       0.00000000 </v>
   <v>       0.50000000       0.25000000       0.00000000 </v>
   <v>      -0.37500000       0.25000000       0.00000000 </v>
   <v>      -0.25000000       0.25000000       0.00000000 </v>
   <v>      -0.12500000       0.25000000       0.00000000 </v>
   <v>      -0.00000000       0.37500000       0.00000000 </v>
   <v>       0.12500000       0.37500000       0.00000000 </v>
   <v>       0.25000000       0.37500000       0.00000000 </v>
   <v>       0.37500000       0.37500000       0.00000000 </v>
   <v>       0.50000000       0.37500000       0.00000000 </v>
   <v>      -0.37500000       0.37500000       0.00000000 </v>
   <v>      -0.25000000       0.37500000       0.00000000 </v>
   <v>      -0.12500000       0.37500000       0.00000000 </v>
   <v>       0.00000000       0.50000000       0.00000000 </v>
   <v>       0.12500000       0.50000000       0.00000000 </v>
   <v>       0.25000000       0.50000000       0.00000000 </v>
   <v>       0.37500000       0.50000000       0.00000000 </v>
   <v>       0.50000000       0.50000000       0.00000000 </v>
  </varray>
  <varray name="weights" >
   <v>       0.01562500 </v>
   <v>       0.03125000 </v>
   <v>       0.03125000 </v>
   <v>       0.03125000 </v>
   <v>       0.01562500 </v>
   <v>       0.03125000 </v>
   <v>       0.03125000 </v>
   <v>       0.03125000 </v>
   <v>       0.03125000 </v>
   <v>       0.03125000 </v>
   <v>       0.03125000 </v>
   <v>       0.03125000 </v>
   <v>       0.03125000 </v>
   <v>       0.03125000 </v>
   <v>       0.03125000 </v>
   <v>       0.03125000 </v>
   <v>       0.03125000 </v>
   <v>       0.03125000 </v>
   <v>       0.03125000 </v>
   <v>       0.03125000 </v>
   <v>       0.03125000 </v>
   <v>       0.03125000 </v>
   <v>       0.03125000 </v>
   <v>       0.03125000 </v>
   <v>       0.03125000 </v>
   <v>       0.03125000 </v>
   <v>       0.03125000 </v>
   <v>       0.03125000 </v>
   <v>       0.03125000 </v>
   <v>       0.01562500 </v>
   <v>       0.03125000 </v>
   <v>       0.03125000 </v>
   <v>       0.03125000 </v>
   <v>       0.01562500 </v>
  </varray>
 </kpoints>
 <parameters>
  <separator name="general" >
   <i type="string" name="SYSTEM">unknown system</i>
   <i type="logical" name="LCOMPAT"> F  </i>
  </separator>
  <separator name="electronic" >
   <i type="string" name="PREC">normal</i>
   <i name="ENMAX">    280.00000000</i>
   <i name="ENAUG">    373.43800000</i>
   <i name="EDIFF">      0.00010000</i>
   <i type="int" name="IALGO">    38</i>
   <i type="int" name="IWAVPR">    11</i>
   <i type="int" name="NBANDS">   120</i>
   <i name="NELECT">    159.00000000</i>
   <i type="int" name="TURBO">     0</i>
   <i type="int" name="IRESTART">     0</i>
   <i type="int" name="NREBOOT">     0</i>
   <i type="int" name="NMIN">     0</i>
   <i name="EREF">      0.00000000</i>
   <separator name="electronic smearing" >
    <i type="int" name="ISMEAR">     0</i>
    <i name="SIGMA">      0.20000000</i>
    <i name="KSPACING">      0.50000000</i>
    <i type="logical" name="KGAMMA"> T  </i>
   </separator>
   <separator name="electronic projectors" >
    <i type="logical" name="LREAL"> F  </i>
    <v name="ROPT">      0.00000000      0.00000000      0.00000000      0.00000000</v>
    <i type="int" name="LMAXPAW">  -100</i>
    <i type="int" name="LMAXMIX">     2</i>
    <i type="logical" name="NLSPLINE"> F  </i>
   </separator>
   <separator name="electronic startup" >
    <i type="int" name="ISTART">     0</i>
    <i type="int" name="ICHARG">     2</i>
    <i type="int" name="INIWAV">     1</i>
   </separator>
   <separator name="electronic spin" >
    <i type="int" name="ISPIN">     1</i>
    <i type="logical" name="LNONCOLLINEAR"> F  </i>
    <v name="MAGMOM">      1.00000000      1.00000000      1.00000000      1.00000000      1.00000000      1.00000000      1.00000000      1.00000000      1.00000000      1.00000000      1.00000000      1.00000000      1.00000000      1.00000000      1.00000000      1.00000000      1.00000000      1.00000000      1.00000000      1.00000000
      1.00000000      1.00000000      1.00000000      1.00000000      1.00000000      1.00000000      1.00000000</v>
    <i name="NUPDOWN">     -1.00000000</i>
    <i type="logical" name="LSORBIT"> F  </i>
    <v name="SAXIS">      0.00000000      0.00000000      1.00000000</v>
    <i type="logical" name="LSPIRAL"> F  </i>
    <v name="QSPIRAL">      0.00000000      0.00000000      0.00000000</v>
    <i type="logical" name="LZEROZ"> F  </i>
   </separator>
   <separator name="electronic exchange-correlation" >
    <i type="logical" name="LASPH"> F  </i>
    <i type="logical" name="LMETAGGA"> F  </i>
   </separator>
   <separator name="electronic convergence" >
    <i type="int" name="NELM">    60</i>
    <i type="int" name="NELMDL">    -5</i>
    <i type="int" name="NELMIN">     2</i>
    <i name="ENINI">    280.00000000</i>
    <separator name="electronic convergence detail" >
     <i type="logical" name="LDIAG"> T  </i>
     <i type="logical" name="LSUBROT"> F  </i>
     <i name="WEIMIN">      0.00100000</i>
     <i name="EBREAK">      0.00000021</i>
     <i name="DEPER">      0.30000000</i>
     <i type="int" name="NRMM">     4</i>
     <i name="TIME">      0.40000000</i>
    </separator>
   </separator>
   <separator name="electronic mixer" >
    <i name="AMIX">      0.40000000</i>
    <i name="BMIX">      1.00000000</i>
    <i name="AMIN">      0.10000000</i>
    <i name="AMIX_MAG">      1.60000000</i>
    <i name="BMIX_MAG">      1.00000000</i>
    <separator name="electronic mixer details" >
     <i type="int" name="IMIX">     4</i>
     <i type="logical" name="MIXFIRST"> F  </i>
     <i type="int" name="MAXMIX">   -45</i>
     <i name="WC">    100.00000000</i>
     <i type="int" name="INIMIX">     1</i>
     <i type="int" name="MIXPRE">     1</i>
     <i type="int" name="MREMOVE">     5</i>
    </separator>
   </separator>
   <separator name="electronic dipolcorrection" >
    <i type="logical" name="LDIPOL"> F  </i>
    <i type="logical" name="LMONO"> F  </i>
    <i type="int" name="IDIPOL">     0</i>
    <i name="EPSILON">      1.00000000</i>
    <v name="DIPOL">   -100.00000000   -100.00000000   -100.00000000</v>
    <i name="EFIELD">      0.00000000</i>
   </separator>
  </separator>
  <separator name="grids" >
   <i type="int" name="NGX">    42</i>
   <i type="int" name="NGY">    42</i>
   <i type="int" name="NGZ">   126</i>
   <i type="int" name="NGXF">    84</i>
   <i type="int" name="NGYF">    84</i>
   <i type="int" name="NGZF">   252</i>
   <i type="logical" name="ADDGRID"> F  </i>
  </separator>
  <separator name="ionic" >
   <i type="int" name="NSW">   100</i>
   <i type="int" name="IBRION">     1</i>
   <i type="int" name="ISIF">     3</i>
   <i name="PSTRESS">      0.00000000</i>
   <i name="EDIFFG">      0.00100000</i>
   <i type="int" name="NFREE">     0</i>
   <i name="POTIM">      0.50000000</i>
   <i name="SMASS">     -3.00000000</i>
   <i name="SCALEE">      1.00000000</i>
  </separator>
  <separator name="ionic md" >
   <i name="TEBEG">      0.00010000</i>
   <i name="TEEND">      0.00010000</i>
   <i type="int" name="NBLOCK">     1</i>
   <i type="int" name="KBLOCK">   100</i>
   <i type="int" name="NPACO">   256</i>
   <i name="APACO">     16.00000000</i>
  </separator>
  <separator name="symmetry" >
   <i type="int" name="ISYM">     0</i>
   <i name="SYMPREC">      0.00000001</i>
  </separator>
  <separator name="dos" >
   <i type="logical" name="LORBIT"> F  </i>
   <v name="RWIGS">     -1.00000000     -1.00000000     -1.00000000     -1.00000000</v>
   <i type="int" name="NEDOS">   301</i>
   <i name="EMIN">     10.00000000</i>
   <i name="EMAX">    -10.00000000</i>
   <i name="EFERMI">      0.00000000</i>
  </separator>
  <separator name="writing" >
   <i type="int" name="NWRITE">     2</i>
   <i type="logical" name="LWAVE"> F  </i>
   <i type="logical" name="LCHARG"> F  </i>
   <i type="logical" name="LPARD"> F  </i>
   <i type="logical" name="LVTOT"> F  </i>
   <i type="logical" name="LVHAR"> F  </i>
   <i type="logical" name="LELF"> F  </i>
   <i type="logical" name="LOPTICS"> F  </i>
   <v name="STM">      0.00000000      0.00000000      0.00000000      0.00000000      0.00000000      0.00000000      0.00000000</v>
  </separator>
  <separator name="performance" >
   <i type="int" name="NPAR">    40</i>
   <i type="int" name="NSIM">     4</i>
   <i type="int" name="NBLK">    -1</i>
   <i type="logical" name="LPLANE"> F  </i>
   <i type="logical" name="LSCALAPACK"> T  </i>
   <i type="logical" name="LSCAAWARE"> F  </i>
   <i type="logical" name="LSCALU"> F  </i>
   <i type="logical" name="LASYNC"> F  </i>
   <i type="logical" name="LORBITALREAL"> F  </i>
  </separator>
  <separator name="miscellaneous" >
   <i type="int" name="IDIOT">     3</i>
   <i type="logical" name="LMUSIC"> F  </i>
   <v name="POMASS">     50.94100000     95.94000000    183.85000000     32.06600000</v>
   <v name="DARWINR">      0.00000000      0.00000000      0.00000000      0.00000000</v>
   <v name="DARWINV">      1.00000000      1.00000000      1.00000000      1.00000000</v>
   <i type="logical" name="LCORR"> T  </i>
  </separator>
  <i type="logical" name="GGA_COMPAT"> T  </i>
  <i type="logical" name="LBERRY"> F  </i>
  <i type="int" name="ICORELEVEL">     0</i>
  <i type="logical" name="LDAU"> F  </i>
  <i type="int" name="I_CONSTRAINED_M">     0</i>
  <separator name="electronic exchange-correlation" >
   <i type="string" name="GGA">--</i>
   <i type="int" name="VOSKOWN">     0</i>
   <i type="logical" name="LHFCALC"> F  </i>
   <i type="string" name="PRECFOCK"></i>
   <i type="logical" name="LSYMGRAD"> F  </i>
   <i type="logical" name="LHFONE"> F  </i>
   <i type="logical" name="LRHFCALC"> F  </i>
   <i type="logical" name="LTHOMAS"> F  </i>
   <i type="logical" name="LMODELHF"> F  </i>
   <i name="ENCUT4O">     -1.00000000</i>
   <i type="int" name="EXXOEP">     0</i>
   <i type="int" name="FOURORBIT">     0</i>
   <i name="AEXX">      0.00000000</i>
   <i name="HFALPHA">      0.00000000</i>
   <i name="MCALPHA">      0.00000000</i>
   <i name="ALDAX">      1.00000000</i>
   <i name="AGGAX">      1.00000000</i>
   <i name="ALDAC">      1.00000000</i>
   <i name="AGGAC">      1.00000000</i>
   <i type="int" name="NKREDX">     1</i>
   <i type="int" name="NKREDY">     1</i>
   <i type="int" name="NKREDZ">     1</i>
   <i type="logical" name="SHIFTRED"> F  </i>
   <i type="logical" name="ODDONLY"> F  </i>
   <i type="logical" name="EVENONLY"> F  </i>
   <i type="int" name="LMAXFOCK">     0</i>
   <i type="int" name="NMAXFOCKAE">     0</i>
   <i type="logical" name="LFOCKAEDFT"> F  </i>
   <i name="HFSCREEN">      0.00000000</i>
   <i name="HFSCREENC">      0.00000000</i>
   <i type="int" name="NBANDSGWLOW">     0</i>
  </separator>
  <separator name="vdW DFT" >
   <i type="logical" name="LUSE_VDW"> F  </i>
   <i name="Zab_VDW">     -0.84910000</i>
   <i name="PARAM1">      0.12340000</i>
   <i name="PARAM2">      1.00000000</i>
   <i name="PARAM3">      0.00000000</i>
  </separator>
  <separator name="model GW" >
   <i type="int" name="MODEL_GW">     0</i>
   <i name="MODEL_EPS0">     58.26239943</i>
   <i name="MODEL_ALPHA">      1.00000000</i>
  </separator>
  <separator name="linear response parameters" >
   <i type="logical" name="LEPSILON"> F  </i>
   <i type="logical" name="LRPA"> F  </i>
   <i type="logical" name="LNABLA"> F  </i>
   <i type="logical" name="LVEL"> F  </i>
   <i type="int" name="KINTER">     0</i>
   <i name="CSHIFT">      0.10000000</i>
   <i name="OMEGAMAX">     -1.00000000</i>
   <i name="DEG_THRESHOLD">      0.00200000</i>
  </separator>
  <separator name="orbital magnetization" >
   <i type="logical" name="NUCIND"> F  </i>
   <v name="MAGPOS">      0.00000000      0.00000000      0.00000000</v>
   <i type="logical" name="LNICSALL"> T  </i>
   <i type="logical" name="ORBITALMAG"> F  </i>
   <i type="logical" name="LMAGBLOCH"> F  </i>
   <i type="logical" name="LCHIMAG"> F  </i>
   <i type="logical" name="LGAUGE"> T  </i>
   <i type="int" name="MAGATOM">     0</i>
   <v name="MAGDIPOL">      0.00000000      0.00000000      0.00000000</v>
   <v name="AVECCONST">      0.00000000      0.00000000      0.00000000</v>
  </separator>
  <separator name="response functions" >
   <i type="logical" name="LADDER"> F  </i>
   <i type="logical" name="LFXC"> F  </i>
   <i type="logical" name="LHARTREE"> T  </i>
   <i type="int" name="IBSE">     0</i>
   <v type="int" name="KPOINT">    -1     0     0     0</v>
   <i type="logical" name="LTCTE"> F  </i>
   <i type="logical" name="LTETE"> F  </i>
   <i type="logical" name="LTRIPLET"> F  </i>
   <i type="logical" name="LFXCEPS"> F  </i>
   <i type="logical" name="LFXHEG"> F  </i>
   <i type="int" name="NATURALO">     0</i>
   <i type="logical" name="L2ORDER"> F  </i>
   <i type="logical" name="LUSEW"> F  </i>
   <i name="ENCUTGW">     -2.00000000</i>
   <i name="ENCUTGWSOFT">     -2.00000000</i>
   <i name="ENCUTLF">     -1.00000000</i>
   <i type="int" name="LMAXMP2">    -1</i>
   <i name="SCISSOR">      0.00000000</i>
   <i type="int" name="NOMEGA">     0</i>
   <i type="int" name="NOMEGAR">     0</i>
   <i type="int" name="NBANDSGW">    -1</i>
   <i type="int" name="NBANDSO">    -1</i>
   <i type="int" name="NBANDSV">    -1</i>
   <i type="int" name="NELM">     1</i>
   <i type="int" name="NELMHF">     1</i>
   <i type="int" name="DIM">     3</i>
   <i type="int" name="ANTIRES">     0</i>
   <i name="OMEGAMAX">    -30.00000000</i>
   <i name="OMEGAMIN">    -30.00000000</i>
   <i name="OMEGATL">   -200.00000000</i>
   <i type="int" name="OMEGAGRID">     0</i>
   <i name="CSHIFT">     -0.10000000</i>
   <i type="logical" name="SELFENERGY"> F  </i>
   <i type="logical" name="LSPECTRAL"> F  </i>
   <i type="logical" name="LSPECTRALGW"> F  </i>
   <i type="logical" name="LSINGLES"> F  </i>
   <i type="logical" name="LFERMIGW"> F  </i>
   <i type="logical" name="ODDONLYGW"> F  </i>
   <i type="logical" name="EVENONLYGW"> F  </i>
   <i type="int" name="NKREDLFX">     1</i>
   <i type="int" name="NKREDLFY">     1</i>
   <i type="int" name="NKREDLFZ">     1</i>
   <i type="int" name="MAXMEM">  1800</i>
   <i type="int" name="TELESCOPE">     0</i>
   <i type="int" name="TAUPAR">     1</i>
   <i type="int" name="OMEGAPAR">    -1</i>
   <i name="LAMBDA">      1.00000000</i>
  </separator>
  <separator name="External order field" >
   <i name="OFIELD_KAPPA">      0.00000000</i>
   <v name="OFIELD_K">      0.00000000      0.00000000      0.00000000</v>
   <i name="OFIELD_Q6_NEAR">      0.00000000</i>
   <i name="OFIELD_Q6_FAR">      0.00000000</i>
   <i name="OFIELD_A">      0.00000000</i>
  </separator>
 </parameters>
 <atominfo>
  <atoms>      27 </atoms>
  <types>       4 </types>
  <array name="atoms" >
   <dimension dim="1">ion</dimension>
   <field type="string">element</field>
   <field type="int">atomtype</field>
   <set>
    <rc><c>V </c><c>   1</c></rc>
    <rc><c>V </c><c>   1</c></rc>
    <rc><c>V </c><c>   1</c></rc>
    <rc><c>Mo</c><c>   2</c></rc>
    <rc><c>Mo</c><c>   2</c></rc>
    <rc><c>Mo</c><c>   2</c></rc>
    <rc><c>W </c><c>   3</c></rc>
    <rc><c>W </c><c>   3</c></rc>
    <rc><c>W </c><c>   3</c></rc>
    <rc><c>S </c><c>   4</c></rc>
    <rc><c>S </c><c>   4</c></rc>
    <rc><c>S </c><c>   4</c></rc>
    <rc><c>S </c><c>   4</c></rc>
    <rc><c>S </c><c>   4</c></rc>
    <rc><c>S </c><c>   4</c></rc>
    <rc><c>S </c><c>   4</c></rc>
    <rc><c>S </c><c>   4</c></rc>
    <rc><c>S </c><c>   4</c></rc>
    <rc><c>S </c><c>   4</c></rc>
    <rc><c>S </c><c>   4</c></rc>
    <rc><c>S </c><c>   4</c></rc>
    <rc><c>S </c><c>   4</c></rc>
    <rc><c>S </c><c>   4</c></rc>
    <rc><c>S </c><c>   4</c></rc>
    <rc><c>S </c><c>   4</c></rc>
    <rc><c>S </c><c>   4</c></rc>
    <rc><c>S </c><c>   4</c></rc>
   </set>
  </array>
  <array name="atomtypes" >
   <dimension dim="1">type</dimension>
   <field type="int">atomspertype</field>
   <field type="string">element</field>
   <field>mass</field>
   <field>valence</field>
   <field type="string">pseudopotential</field>
   <set>
    <rc><c>   3</c><c>V </c><c>     50.94100000</c><c>      5.00000000</c><c> PAW_PBE V 08Apr2002                    </c></rc>
    <rc><c>   3</c><c>Mo</c><c>     95.94000000</c><c>      6.00000000</c><c> PAW_PBE Mo 08Apr2002                   </c></rc>
    <rc><c>   3</c><c>W </c><c>    183.85000000</c><c>      6.00000000</c><c> PAW_PBE W 08Apr2002                    </c></rc>
    <rc><c>  18</c><c>S </c><c>     32.06600000</c><c>      6.00000000</c><c>  PAW_PBE S 17Jan2003                   </c></rc>
   </set>
  </array>
 </atominfo>
 <structure name="initialpos" >
  <crystal>
   <varray name="basis" >
    <v>       8.66999996       5.03999989       0.00000000 </v>
    <v>      -8.66999982       5.04000013       0.00000000 </v>
    <v>       0.00000000       0.00000000      30.00000000 </v>
   </varray>
   <i name="volume">   2621.80797419 </i>
   <varray name="rec_basis" >
    <v>       0.05767013       0.09920635       0.00000000 </v>
    <v>      -0.05767013       0.09920635       0.00000000 </v>
    <v>       0.00000000       0.00000000       0.03333333 </v>
   </varray>
  </crystal>
  <varray name="positions" >
   <v>       0.66666669       0.00000000       0.00000000 </v>
   <v>       1.00000000       0.33333334       0.00000000 </v>
   <v>       0.66666669       0.33333334       0.00000000 </v>
   <v>       0.00000000       0.66666669       0.00000000 </v>
   <v>       0.33333334       0.33333334       0.00000000 </v>
   <v>       0.00000000       0.00000000       0.00000000 </v>
   <v>       0.33333334       0.00000000       0.00000000 </v>
   <v>       0.33333334       0.66666669       0.00000000 </v>
   <v>       0.66666669       0.66666669       0.00000000 </v>
   <v>       0.11068511       0.22244981       0.95539999 </v>
   <v>       0.22244981       0.11068511       0.04460000 </v>
   <v>       0.11068511       0.55578315       0.95539999 </v>
   <v>       0.22244981       0.44401845       0.04460000 </v>
   <v>       0.11068511       0.88911647       0.95539999 </v>
   <v>       0.22244981       0.77735180       0.04460000 </v>
   <v>       0.44401845       0.22244981       0.95539999 </v>
   <v>       0.55578315       0.11068511       0.04460000 </v>
   <v>       0.44401845       0.55578315       0.95539999 </v>
   <v>       0.55578315       0.44401845       0.04460000 </v>
   <v>       0.44401845       0.88911647       0.95539999 </v>
   <v>       0.55578315       0.77735180       0.04460000 </v>
   <v>       0.77735180       0.22244981       0.95539999 </v>
   <v>       0.88911647       0.11068511       0.04460000 </v>
   <v>       0.77735180       0.55578315       0.95539999 </v>
   <v>       0.88911647       0.44401845       0.04460000 </v>
   <v>       0.77735180       0.88911647       0.95539999 </v>
   <v>       0.88911647       0.77735180       0.04460000 </v>
  </varray>
 </structure>
 <calculation>
  <scstep>
   <time name="dav">   21.96   22.01</time>
   <time name="total">   22.00   22.06</time>
   <energy>
    <i name="alphaZ">     81.65567618 </i>
    <i name="ewald">  41891.17178115 </i>
    <i name="hartreedc"> -47723.81646505 </i>
    <i name="XCdc">   -242.92502626 </i>
    <i name="pawpsdc">   3467.42045192 </i>
    <i name="pawaedc">  -2871.19716117 </i>
    <i name="eentropy">     -0.53802289 </i>
    <i name="bandstr">   -239.11549735 </i>
    <i name="atom">   6761.44252427 </i>
    <i name="e_fr_energy">   1124.09826080 </i>
    <i name="e_wo_entrp">   1124.63628369 </i>
    <i name="e_0_energy">   1124.36727225 </i>
   </energy>
  </scstep>
  <scstep>
   <time name="dav">   28.55   28.62</time>
   <time name="total">   28.56   28.63</time>
   <energy>
    <i name="e_fr_energy">     -1.06084193 </i>
    <i name="e_wo_entrp">     -0.85688852 </i>
    <i name="e_0_energy">     -0.95886522 </i>
   </energy>
  </scstep>
  <scstep>
   <time name="dav">   27.71   27.78</time>
   <time name="total">   27.71   27.79</time>
   <energy>
    <i name="e_fr_energy">   -199.74844195 </i>
    <i name="e_wo_entrp">   -199.48629985 </i>
    <i name="e_0_energy">   -199.61737090 </i>
   </energy>
  </scstep>
  <scstep>
   <time name="dav">   30.39   30.46</time>
   <time name="total">   30.39   30.49</time>
   <energy>
    <i name="e_fr_energy">   -208.98592903 </i>
    <i name="e_wo_entrp">   -208.69344037 </i>
    <i name="e_0_energy">   -208.83968470 </i>
   </energy>
  </scstep>
  <scstep>
   <time name="dav">   28.29   28.36</time>
   <time name="total">   28.76   28.83</time>
   <energy>
    <i name="e_fr_energy">   -209.29869627 </i>
    <i name="e_wo_entrp">   -209.00911475 </i>
    <i name="e_0_energy">   -209.15390551 </i>
   </energy>
  </scstep>
  <scstep>
   <time name="dav">   30.84   30.92</time>
   <time name="total">   31.34   31.42</time>
   <energy>
    <i name="e_fr_energy">   -237.71228736 </i>
    <i name="e_wo_entrp">   -237.45145793 </i>
    <i name="e_0_energy">   -237.58187264 </i>
   </energy>
  </scstep>
  <scstep>
   <time name="dav">   33.08   33.16</time>
   <time name="total">   33.59   33.68</time>
   <energy>
    <i name="e_fr_energy">   -196.62310671 </i>
    <i name="e_wo_entrp">   -196.29761755 </i>
    <i name="e_0_energy">   -196.46036213 </i>
   </energy>
  </scstep>
  <scstep>
   <time name="dav">   29.98   30.05</time>
   <time name="total">   30.49   30.57</time>
   <energy>
    <i name="e_fr_energy">   -189.63522271 </i>
    <i name="e_wo_entrp">   -189.32852257 </i>
    <i name="e_0_energy">   -189.48187264 </i>
   </energy>
  </scstep>
  <scstep>
   <time name="dav">   32.36   32.44</time>
   <time name="total">   32.88   32.96</time>
   <energy>
    <i name="e_fr_energy">   -188.21646141 </i>
    <i name="e_wo_entrp">   -187.88686340 </i>
    <i name="e_0_energy">   -188.05166240 </i>
   </energy>
  </scstep>
  <scstep>
   <time name="dav">   32.83   32.91</time>
   <time name="total">   33.36   33.45</time>
   <energy>
    <i name="e_fr_energy">   -186.95191864 </i>
    <i name="e_wo_entrp">   -186.59912578 </i>
    <i name="e_0_energy">   -186.77552221 </i>
   </energy>
  </scstep>
  <scstep>
   <time name="dav">   33.39   33.47</time>
   <time name="total">   33.92   34.01</time>
   <energy>
    <i name="e_fr_energy">   -187.04219830 </i>
    <i name="e_wo_entrp">   -186.70233392 </i>
    <i name="e_0_energy">   -186.87226611 </i>
   </energy>
  </scstep>
  <scstep>
   <time name="dav">   31.50   31.57</time>
   <time name="total">   32.03   32.11</time>
   <energy>
    <i name="e_fr_energy">   -186.98437915 </i>
    <i name="e_wo_entrp">   -186.64611318 </i>
    <i name="e_0_energy">   -186.81524616 </i>
   </energy>
  </scstep>
  <scstep>
   <time name="dav">   32.58   32.66</time>
   <time name="total">   33.11   33.20</time>
   <energy>
    <i name="e_fr_energy">   -186.87755039 </i>
    <i name="e_wo_entrp">   -186.54152811 </i>
    <i name="e_0_energy">   -186.70953925 </i>
   </energy>
  </scstep>
  <scstep>
   <time name="dav">   31.82   31.90</time>
   <time name="total">   32.35   32.44</time>
   <energy>
    <i name="e_fr_energy">   -186.84362743 </i>
    <i name="e_wo_entrp">   -186.49847524 </i>
    <i name="e_0_energy">   -186.67105133 </i>
   </energy>
  </scstep>
  <scstep>
   <time name="dav">   32.29   32.37</time>
   <time name="total">   32.83   32.92</time>
   <energy>
    <i name="e_fr_energy">   -186.84010324 </i>
    <i name="e_wo_entrp">   -186.49497976 </i>
    <i name="e_0_energy">   -186.66754150 </i>
   </energy>
  </scstep>
  <scstep>
   <time name="dav">   33.01   33.09</time>
   <time name="total">   33.54   33.63</time>
   <energy>
    <i name="e_fr_energy">   -186.83883325 </i>
    <i name="e_wo_entrp">   -186.49422385 </i>
    <i name="e_0_energy">   -186.66652855 </i>
   </energy>
  </scstep>
  <scstep>
   <time name="dav">   31.17   31.25</time>
   <time name="total">   31.71   31.79</time>
   <energy>
    <i name="e_fr_energy">   -186.83627823 </i>
    <i name="e_wo_entrp">   -186.49312140 </i>
    <i name="e_0_energy">   -186.66469981 </i>
   </energy>
  </scstep>
  <scstep>
   <time name="dav">   30.41   30.48</time>
   <time name="total">   30.94   31.02</time>
   <energy>
    <i name="e_fr_energy">   -186.83597039 </i>
    <i name="e_wo_entrp">   -186.49228334 </i>
    <i name="e_0_energy">   -186.66412687 </i>
   </energy>
  </scstep>
  <scstep>
   <time name="dav">   25.30   25.36</time>
   <time name="total">   25.33   25.40</time>
   <energy>
    <i name="alphaZ">     81.65567618 </i>
    <i name="ewald">  41891.17178115 </i>
    <i name="hartreedc"> -47818.70101412 </i>
    <i name="XCdc">   -231.69396254 </i>
    <i name="pawpsdc">   4194.26765593 </i>
    <i name="pawaedc">  -3612.28616621 </i>
    <i name="eentropy">     -0.34370604 </i>
    <i name="bandstr">  -1452.34879822 </i>
    <i name="atom">   6761.44252427 </i>
    <i name="e_fr_energy">   -186.83600960 </i>
    <i name="e_wo_entrp">   -186.49230356 </i>
    <i name="e_0_energy">   -186.66415658 </i>
   </energy>
  </scstep>
  <structure>
   <crystal>
    <varray name="basis" >
     <v>       8.66999996       5.03999989       0.00000000 </v>
     <v>      -8.66999982       5.04000013       0.00000000 </v>
     <v>       0.00000000       0.00000000      30.00000000 </v>
    </varray>
    <i name="volume">   2621.80797419 </i>
    <varray name="rec_basis" >
     <v>       0.05767013       0.09920635       0.00000000 </v>
     <v>      -0.05767013       0.09920635       0.00000000 </v>
     <v>       0.00000000       0.00000000       0.03333333 </v>
    </varray>
   </crystal>
   <varray name="positions" >
    <v>       0.66666669       0.00000000       0.00000000 </v>
    <v>       1.00000000       0.33333334       0.00000000 </v>
    <v>       0.66666669       0.33333334       0.00000000 </v>
    <v>       0.00000000       0.66666669       0.00000000 </v>
    <v>       0.33333334       0.33333334       0.00000000 </v>
    <v>       0.00000000       0.00000000       0.00000000 </v>
    <v>       0.33333334       0.00000000       0.00000000 </v>
    <v>       0.33333334       0.66666669       0.00000000 </v>
    <v>       0.66666669       0.66666669       0.00000000 </v>
    <v>       0.11068511       0.22244981       0.95539999 </v>
    <v>       0.22244981       0.11068511       0.04460000 </v>
    <v>       0.11068511       0.55578315       0.95539999 </v>
    <v>       0.22244981       0.44401845       0.04460000 </v>
    <v>       0.11068511       0.88911647       0.95539999 </v>
    <v>       0.22244981       0.77735180       0.04460000 </v>
    <v>       0.44401845       0.22244981       0.95539999 </v>
    <v>       0.55578315       0.11068511       0.04460000 </v>
    <v>       0.44401845       0.55578315       0.95539999 </v>
    <v>       0.55578315       0.44401845       0.04460000 </v>
    <v>       0.44401845       0.88911647       0.95539999 </v>
    <v>       0.55578315       0.77735180       0.04460000 </v>
    <v>       0.77735180       0.22244981       0.95539999 </v>
    <v>       0.88911647       0.11068511       0.04460000 </v>
    <v>       0.77735180       0.55578315       0.95539999 </v>
    <v>       0.88911647       0.44401845       0.04460000 </v>
    <v>       0.77735180       0.88911647       0.95539999 </v>
    <v>       0.88911647       0.77735180       0.04460000 </v>
   </varray>
  </structure>
  <varray name="forces" >
   <v>       0.13472400       0.25677805      -0.01253001 </v>
   <v>       0.12333720      -0.02593863       0.00811657 </v>
   <v>      -0.03247280       0.12763178       0.00692584 </v>
   <v>      -0.21648245       0.10925809      -0.03746407 </v>
   <v>      -0.01019887      -0.30216641       0.06094108 </v>
   <v>       0.20369440       0.14849392      -0.09239431 </v>
   <v>      -0.53030382      -0.20130856      -0.10413125 </v>
   <v>      -0.00920379      -0.36493608       0.09602054 </v>
   <v>       0.30189736       0.16102556       0.10522379 </v>
   <v>      -0.74402910      -0.01950022      -2.10835153 </v>
   <v>       0.02659024       0.03291345       2.92886170 </v>
   <v>       0.60221904      -0.54607710      -2.15751184 </v>
   <v>      -0.60982851      -0.52477261       2.18463160 </v>
   <v>       0.20825330       0.16378919      -2.96689724 </v>
   <v>      -0.01093517       0.14520127       2.87976951 </v>
   <v>       0.63952857       0.53641367      -2.13977006 </v>
   <v>       0.25003530       0.53724985       1.38170074 </v>
   <v>       0.06137979       0.14090714      -2.84238980 </v>
   <v>       0.63808846       0.15992823       2.11554691 </v>
   <v>       0.45183017       0.57381247      -2.12681996 </v>
   <v>      -0.45138605       0.54910666       2.17068077 </v>
   <v>       0.06878434      -0.00377030      -0.77617091 </v>
   <v>      -0.90957009       0.00423345       1.44217155 </v>
   <v>       0.38337268      -0.68893651      -2.17864779 </v>
   <v>       0.32284152      -0.67431883       1.38702675 </v>
   <v>      -0.65739805      -0.12142110      -2.09768717 </v>
   <v>      -0.23476765      -0.17359642       2.87314858 </v>
  </varray>
  <varray name="stress" >
   <v>       7.53791622       0.04552649      -1.62541771 </v>
   <v>       0.04552659       4.43719659       0.01713504 </v>
   <v>      -1.62541767       0.01713506      31.13955366 </v>
  </varray>
  <energy>
   <i name="e_fr_energy">   -186.83600960 </i>
   <i name="e_wo_entrp">   -186.66415658 </i>
   <i name="e_0_energy">     -0.34370604 </i>
  </energy>
  <time name="totalsc">  627.05  628.73</time>
 </calculation>
 <calculation>
  <scstep>
   <time name="dav">   21.86   21.91</time>
   <time name="total">   22.40   22.46</time>
   <energy>
    <i name="alphaZ">     78.87154468 </i>
    <i name="ewald">  39352.36825068 </i>
    <i name="hartreedc"> -45299.95963047 </i>
    <i name="XCdc">   -239.17434785 </i>
    <i name="pawpsdc">   4193.04680117 </i>
    <i name="pawaedc">  -3611.04661261 </i>
    <i name="eentropy">     -0.28129314 </i>
    <i name="bandstr">  -1422.76046568 </i>
    <i name="atom">   6761.44252427 </i>
    <i name="e_fr_energy">   -187.49322894 </i>
    <i name="e_wo_entrp">   -187.21193580 </i>
    <i name="e_0_energy">   -187.35258237 </i>
   </energy>
  </scstep>
  <scstep>
   <time name="dav">   29.89   29.97</time>
   <time name="total">   30.43   30.51</time>
   <energy>
    <i name="e_fr_energy">   -189.51873215 </i>
    <i name="e_wo_entrp">   -189.18281386 </i>
    <i name="e_0_energy">   -189.35077301 </i>
   </energy>
  </scstep>
  <scstep>
   <time name="dav">   30.33   30.40</time>
   <time name="total">   30.88   30.96</time>
   <energy>
    <i name="e_fr_energy">   -189.33043900 </i>
    <i name="e_wo_entrp">   -189.06927146 </i>
    <i name="e_0_energy">   -189.19985523 </i>
   </energy>
  </scstep>
  <scstep>
   <time name="dav">   28.38   28.44</time>
   <time name="total">   28.92   29.00</time>
   <energy>
    <i name="e_fr_energy">   -188.76730252 </i>
    <i name="e_wo_entrp">   -188.48466456 </i>
    <i name="e_0_energy">   -188.62598354 </i>
   </energy>
  </scstep>
  <scstep>
   <time name="dav">   30.19   30.27</time>
   <time name="total">   30.74   30.82</time>
   <energy>
    <i name="e_fr_energy">   -188.84950925 </i>
    <i name="e_wo_entrp">   -188.56165339 </i>
    <i name="e_0_energy">   -188.70558132 </i>
   </energy>
  </scstep>
  <scstep>
   <time name="dav">   30.40   30.48</time>
   <time name="total">   30.95   31.03</time>
   <energy>
    <i name="e_fr_energy">   -188.72137345 </i>
    <i name="e_wo_entrp">   -188.43769095 </i>
    <i name="e_0_energy">   -188.57953220 </i>
   </energy>
  </scstep>
  <scstep>
   <time name="dav">   29.71   29.78</time>
   <time name="total">   30.26   30.34</time>
   <energy>
    <i name="e_fr_energy">   -188.69032161 </i>
    <i name="e_wo_entrp">   -188.40706085 </i>
    <i name="e_0_energy">   -188.54869123 </i>
   </energy>
  </scstep>
  <scstep>
   <time name="dav">   29.59   29.66</time>
   <time name="total">   30.13   30.21</time>
   <energy>
    <i name="e_fr_energy">   -188.67416708 </i>
    <i name="e_wo_entrp">   -188.38971994 </i>
    <i name="e_0_energy">   -188.53194351 </i>
   </energy>
  </scstep>
  <scstep>
   <time name="dav">   29.98   30.05</time>
   <time name="total">   30.52   30.60</time>
   <energy>
    <i name="e_fr_energy">   -188.64866902 </i>
    <i name="e_wo_entrp">   -188.36680113 </i>
    <i name="e_0_energy">   -188.50773508 </i>
   </energy>
  </scstep>
  <scstep>
   <time name="dav">   26.78   26.84</time>
   <time name="total">   27.32   27.39</time>
   <energy>
    <i name="e_fr_energy">   -188.64553069 </i>
    <i name="e_wo_entrp">   -188.36431725 </i>
    <i name="e_0_energy">   -188.50492397 </i>
   </energy>
  </scstep>
  <scstep>
   <time name="dav">   31.93   32.01</time>
   <time name="total">   32.47   32.56</time>
   <energy>
    <i name="e_fr_energy">   -188.64521439 </i>
    <i name="e_wo_entrp">   -188.36531225 </i>
    <i name="e_0_energy">   -188.50526332 </i>
   </energy>
  </scstep>
  <scstep>
   <time name="dav">   27.33   27.40</time>
   <time name="total">   27.87   27.95</time>
   <energy>
    <i name="e_fr_energy">   -188.64533357 </i>
    <i name="e_wo_entrp">   -188.36531172 </i>
    <i name="e_0_energy">   -188.50532265 </i>
   </energy>
  </scstep>
  <scstep>
   <time name="dav">   19.46   19.51</time>
   <time name="total">   19.50   19.55</time>
   <energy>
    <i name="alphaZ">     78.87154468 </i>
    <i name="ewald">  39352.36825068 </i>
    <i name="hartreedc"> -45317.35151708 </i>
    <i name="XCdc">   -238.02974099 </i>
    <i name="pawpsdc">   3949.55246036 </i>
    <i name="pawaedc">  -3364.04332202 </i>
    <i name="eentropy">     -0.28026369 </i>
    <i name="bandstr">  -1411.17532220 </i>
    <i name="atom">   6761.44252427 </i>
    <i name="e_fr_energy">   -188.64538599 </i>
    <i name="e_wo_entrp">   -188.36512230 </i>
    <i name="e_0_energy">   -188.50525414 </i>
   </energy>
  </scstep>
  <structure>
   <crystal>
    <varray name="basis" >
     <v>       8.86175652       5.10654182       0.00000000 </v>
     <v>      -8.86041460       5.10423387       0.00000000 </v>
     <v>       0.00000000       0.00000000      30.00000000 </v>
    </varray>
    <i name="volume">   2714.35666438 </i>
    <varray name="rec_basis" >
     <v>       0.05641374       0.09792834       0.00000000 </v>
     <v>      -0.05643925       0.09794317       0.00000000 </v>
     <v>       0.00000000       0.00000000       0.03333333 </v>
    </varray>
   </crystal>
   <varray name="positions" >
    <v>       0.66827044       0.00085411      -0.00002015 </v>
    <v>       1.00021900       0.33286606       0.00001305 </v>
    <v>       0.66718718       0.33403453       0.00001114 </v>
    <v>      -0.00007938       0.66779188      -0.00006025 </v>
    <v>       0.33185881       0.33191556       0.00009800 </v>
    <v>       0.00127740       0.00014398      -0.00014858 </v>
    <v>       0.33089449       0.00051193      -0.00016745 </v>
    <v>       0.33156116       0.66494572       0.00015441 </v>
    <v>       0.66827728       0.66659742       0.00016921 </v>
    <v>       0.10852177       0.22442649       0.95200957 </v>
    <v>       0.22268131       0.11076865       0.04930987 </v>
    <v>       0.10974707       0.55149417       0.95193052 </v>
    <v>       0.21824162       0.44320354       0.04811308 </v>
    <v>       0.11204840       0.88932096       0.95062896 </v>
    <v>       0.22311432       0.77807715       0.04923092 </v>
    <v>       0.44836499       0.22323780       0.95195905 </v>
    <v>       0.55905006       0.11256074       0.04682190 </v>
    <v>       0.44486360       0.55628676       0.95082918 </v>
    <v>       0.55832383       0.44300860       0.04800199 </v>
    <v>       0.44802177       0.89060566       0.95197988 </v>
    <v>       0.55715534       0.78123564       0.04809065 </v>
    <v>       0.77752512       0.22224040       0.95415184 </v>
    <v>       0.88660616       0.11323594       0.04691914 </v>
    <v>       0.77512117       0.55141931       0.95189653 </v>
    <v>       0.88678739       0.43989298       0.04683046 </v>
    <v>       0.77494169       0.89036433       0.95202672 </v>
    <v>       0.88763248       0.77717413       0.04922028 </v>
   </varray>
  </structure>
  <varray name="forces" >
   <v>       0.14164957       0.12999442       0.01316382 </v>
   <v>       0.13318879       0.07116138       0.01560895 </v>
   <v>      -0.09674084       0.12637783       0.09467995 </v>
   <v>      -0.34606710       0.34232252       0.05463145 </v>
   <v>      -0.01646474      -0.27097958      -0.06382992 </v>
   <v>       0.52636571       0.16617182      -0.04113269 </v>
   <v>      -0.58382330      -0.39260544      -0.04558818 </v>
   <v>       0.05460187      -0.28610336      -0.06785392 </v>
   <v>       0.23069438       0.13378202       0.03182545 </v>
   <v>      -0.06563554      -0.01268647      -0.08045002 </v>
   <v>       0.13048963       0.00395409       0.21132000 </v>
   <v>       0.07037413       0.04120446       0.04251619 </v>
   <v>      -0.08154005       0.03266306       0.09398513 </v>
   <v>       0.04485434       0.11362345      -0.30722867 </v>
   <v>       0.07290595       0.11690183      -0.01850514 </v>
   <v>       0.08325704      -0.05934720       0.03901565 </v>
   <v>      -0.06516300      -0.06441498      -0.25397456 </v>
   <v>      -0.07275928       0.10846372       0.15677958 </v>
   <v>      -0.01881863       0.10454708      -0.00854911 </v>
   <v>      -0.06953625      -0.07263748       0.26449344 </v>
   <v>       0.06816082      -0.07209206      -0.13667038 </v>
   <v>       0.01866681       0.01326991       0.14037382 </v>
   <v>      -0.04053170       0.01324548      -0.10542578 </v>
   <v>      -0.09753784      -0.04319478      -0.03414847 </v>
   <v>       0.00795377      -0.05057731      -0.16140465 </v>
   <v>       0.03487187      -0.09225742       0.03235438 </v>
   <v>      -0.06341642      -0.10078700       0.13401369 </v>
  </varray>
  <varray name="stress" >
   <v>     -20.05737054      -0.00023277       0.05883801 </v>
   <v>      -0.00023274     -19.58151182      -0.01412941 </v>
   <v>       0.05883792      -0.01412944      -1.72389406 </v>
  </varray>
  <energy>
   <i name="e_fr_energy">   -188.64538599 </i>
   <i name="e_wo_entrp">   -188.50525414 </i>
   <i name="e_0_energy">     -0.28026369 </i>
  </energy>
  <time name="totalsc">  414.70  415.80</time>
 </calculation>
 <calculation>
  <scstep>
   <time name="dav">   24.04   24.10</time>
   <time name="total">   24.57   24.63</time>
   <energy>
    <i name="alphaZ">     82.32750732 </i>
    <i name="ewald">  41294.62670317 </i>
    <i name="hartreedc"> -47290.68632419 </i>
    <i name="XCdc">   -233.86098941 </i>
    <i name="pawpsdc">   3948.75887552 </i>
    <i name="pawaedc">  -3363.24216908 </i>
    <i name="eentropy">     -0.23460807 </i>
    <i name="bandstr">  -1389.73146842 </i>
    <i name="atom">   6761.44252427 </i>
    <i name="e_fr_energy">   -190.59994889 </i>
    <i name="e_wo_entrp">   -190.36534082 </i>
    <i name="e_0_energy">   -190.48264485 </i>
   </energy>
  </scstep>
  <scstep>
   <time name="dav">   30.25   30.32</time>
   <time name="total">   30.77   30.85</time>
   <energy>
    <i name="e_fr_energy">   -190.53252396 </i>
    <i name="e_wo_entrp">   -190.30912926 </i>
    <i name="e_0_energy">   -190.42082661 </i>
   </energy>
  </scstep>
  <scstep>
   <time name="dav">   30.43   30.50</time>
   <time name="total">   30.95   31.04</time>
   <energy>
    <i name="e_fr_energy">   -190.07709787 </i>
    <i name="e_wo_entrp">   -189.82554740 </i>
    <i name="e_0_energy">   -189.95132263 </i>
   </energy>
  </scstep>
  <scstep>
   <time name="dav">   32.31   32.39</time>
   <time name="total">   32.84   32.93</time>
   <energy>
    <i name="e_fr_energy">   -189.85945120 </i>
    <i name="e_wo_entrp">   -189.63235645 </i>
    <i name="e_0_energy">   -189.74590383 </i>
   </energy>
  </scstep>
  <scstep>
   <time name="dav">   30.39   30.47</time>
   <time name="total">   30.92   31.01</time>
   <energy>
    <i name="e_fr_energy">   -189.81250584 </i>
    <i name="e_wo_entrp">   -189.57063911 </i>
    <i name="e_0_energy">   -189.69157248 </i>
   </energy>
  </scstep>
  <scstep>
   <time name="dav">   30.45   30.52</time>
   <time name="total">   30.99   31.07</time>
   <energy>
    <i name="e_fr_energy">   -189.75787981 </i>
    <i name="e_wo_entrp">   -189.52379922 </i>
    <i name="e_0_energy">   -189.64083951 </i>
   </energy>
  </scstep>
  <scstep>
   <time name="dav">   29.45   29.52</time>
   <time name="total">   29.98   30.06</time>
   <energy>
    <i name="e_fr_energy">   -189.75238150 </i>
    <i name="e_wo_entrp">   -189.51624502 </i>
    <i name="e_0_energy">   -189.63431326 </i>
   </energy>
  </scstep>
  <scstep>
   <time name="dav">   29.40   29.48</time>
   <time name="total">   29.93   30.01</time>
   <energy>
    <i name="e_fr_energy">   -189.75306156 </i>
    <i name="e_wo_entrp">   -189.51775218 </i>
    <i name="e_0_energy">   -189.63540687 </i>
   </energy>
  </scstep>
  <scstep>
   <time name="dav">   26.26   26.32</time>
   <time name="total">   26.80   27.08</time>
   <energy>
    <i name="e_fr_energy">   -189.75215208 </i>
    <i name="e_wo_entrp">   -189.51625155 </i>
    <i name="e_0_energy">   -189.63420181 </i>
   </energy>
  </scstep>
  <scstep>
   <time name="dav">   26.30   26.37</time>
   <time name="total">   26.83   26.90</time>
   <energy>
    <i name="e_fr_energy">   -189.75251115 </i>
    <i name="e_wo_entrp">   -189.51689066 </i>
    <i name="e_0_energy">   -189.63470090 </i>
   </energy>
  </scstep>
  <scstep>
   <time name="dav">   26.89   26.96</time>
   <time name="total">   27.42   27.49</time>
   <energy>
    <i name="e_fr_energy">   -189.75221789 </i>
    <i name="e_wo_entrp">   -189.51627887 </i>
    <i name="e_0_energy">   -189.63424838 </i>
   </energy>
  </scstep>
  <scstep>
   <time name="dav">   18.94   18.99</time>
   <time name="total">   18.98   19.03</time>
   <energy>
    <i name="alphaZ">     82.32750732 </i>
    <i name="ewald">  41294.62670317 </i>
    <i name="hartreedc"> -47265.84346769 </i>
    <i name="XCdc">   -235.25699206 </i>
    <i name="pawpsdc">   4038.75182792 </i>
    <i name="pawaedc">  -3454.45087889 </i>
    <i name="eentropy">     -0.23592149 </i>
    <i name="bandstr">  -1411.11358073 </i>
    <i name="atom">   6761.44252427 </i>
    <i name="e_fr_energy">   -189.75227818 </i>
    <i name="e_wo_entrp">   -189.51635669 </i>
    <i name="e_0_energy">   -189.63431744 </i>
   </energy>
  </scstep>
  <structure>
   <crystal>
    <varray name="basis" >
     <v>       8.67150423       4.99950942       0.00000000 </v>
     <v>      -8.67019365       4.99725426       0.00000000 </v>
     <v>       0.00000000       0.00000000      30.00000000 </v>
    </varray>
    <i name="volume">   2600.41278929 </i>
    <varray name="rec_basis" >
     <v>       0.05765147       0.10002482       0.00000000 </v>
     <v>      -0.05767749       0.10003994       0.00000000 </v>
     <v>       0.00000000       0.00000000       0.03333333 </v>
    </varray>
   </crystal>
   <varray name="positions" >
    <v>       0.66862392       0.00093492      -0.00001266 </v>
    <v>       1.00046605       0.33285672       0.00002193 </v>
    <v>       0.66730520       0.33433882       0.00006497 </v>
    <v>       0.00015944       0.66869700      -0.00002918 </v>
    <v>       0.33139029       0.33147867       0.00006170 </v>
    <v>       0.00206153      -0.00008516      -0.00017197 </v>
    <v>       0.32967681       0.00041807      -0.00019337 </v>
    <v>       0.33113577       0.66441514       0.00011583 </v>
    <v>       0.66872277       0.66659884       0.00018731 </v>
    <v>       0.10843742       0.22446849       0.95196383 </v>
    <v>       0.22281349       0.11064963       0.04943003 </v>
    <v>       0.10988362       0.55149526       0.95195470 </v>
    <v>       0.21821771       0.44333662       0.04816652 </v>
    <v>       0.11228137       0.88946762       0.95045426 </v>
    <v>       0.22337976       0.77820227       0.04922040 </v>
    <v>       0.44834597       0.22305849       0.95198124 </v>
    <v>       0.55887974       0.11251585       0.04667748 </v>
    <v>       0.44497477       0.55653803       0.95091832 </v>
    <v>       0.55848037       0.44320139       0.04799712 </v>
    <v>       0.44783351       0.89055124       0.95213027 </v>
    <v>       0.55710050       0.78104957       0.04801293 </v>
    <v>       0.77756525       0.22224459       0.95423166 </v>
    <v>       0.88658928       0.11329709       0.04685919 </v>
    <v>       0.77495514       0.55144105       0.95187711 </v>
    <v>       0.88671055       0.43980082       0.04673868 </v>
    <v>       0.77482113       0.89017662       0.95204512 </v>
    <v>       0.88740308       0.77706679       0.04929648 </v>
   </varray>
  </structure>
  <varray name="forces" >
   <v>       0.16447780       0.05841843       0.02088034 </v>
   <v>       0.15929956       0.13830467       0.01898328 </v>
   <v>      -0.15532749       0.12103115       0.09672988 </v>
   <v>      -0.39658951       0.41691617       0.05327722 </v>
   <v>      -0.02607035      -0.25398033      -0.06733256 </v>
   <v>       0.63116598       0.15245418      -0.01683815 </v>
   <v>      -0.59258345      -0.45892503      -0.01432505 </v>
   <v>       0.08079072      -0.25779762      -0.08854996 </v>
   <v>       0.19609858       0.11869553      -0.00019877 </v>
   <v>      -0.14581979      -0.02621127      -0.58099592 </v>
   <v>       0.04139001       0.00137608       0.78792869 </v>
   <v>       0.05065274      -0.10743440      -0.45808090 </v>
   <v>      -0.07492307      -0.11612946       0.62020942 </v>
   <v>       0.00143831       0.03510552      -0.91784977 </v>
   <v>       0.03037314       0.06854173       0.53937389 </v>
   <v>       0.08666143       0.07790699      -0.46810058 </v>
   <v>       0.00112212       0.04447163       0.18322676 </v>
   <v>      -0.02267399       0.05435131      -0.38601107 </v>
   <v>       0.09137770       0.02394380       0.49369720 </v>
   <v>      -0.00902136       0.05329007      -0.21978709 </v>
   <v>      -0.00844570       0.05183824       0.37164519 </v>
   <v>       0.01563130       0.01857465      -0.28259016 </v>
   <v>      -0.09428657       0.01729156       0.33741257 </v>
   <v>       0.03120801      -0.10088966      -0.54427641 </v>
   <v>       0.04528512      -0.10135620       0.27852933 </v>
   <v>      -0.06796490      -0.01605469      -0.46206109 </v>
   <v>      -0.03326634      -0.01373304       0.70510371 </v>
  </varray>
  <varray name="stress" >
   <v>     -10.23229787      -0.00069709       0.05667611 </v>
   <v>      -0.00069729      -9.83525737      -0.01049430 </v>
   <v>       0.05667598      -0.01049445       6.51069017 </v>
  </varray>
  <energy>
   <i name="e_fr_energy">   -189.75227818 </i>
   <i name="e_wo_entrp">   -189.63431744 </i>
   <i name="e_0_energy">     -0.23592149 </i>
  </energy>
  <time name="totalsc">  383.18  384.41</time>
 </calculation>
 <calculation>
  <scstep>
   <time name="dav">   21.86   21.91</time>
   <time name="total">   22.38   22.43</time>
   <energy>
    <i name="alphaZ">     85.81932750 </i>
    <i name="ewald">  42832.73002613 </i>
    <i name="hartreedc"> -48848.71648159 </i>
    <i name="XCdc">   -232.95924112 </i>
    <i name="pawpsdc">   4038.64893795 </i>
    <i name="pawaedc">  -3454.34284192 </i>
    <i name="eentropy">     -0.19698642 </i>
    <i name="bandstr">  -1373.76445809 </i>
    <i name="atom">   6761.44252427 </i>
    <i name="e_fr_energy">   -191.33919329 </i>
    <i name="e_wo_entrp">   -191.14220687 </i>
    <i name="e_0_energy">   -191.24070008 </i>
   </energy>
  </scstep>
  <scstep>
   <time name="dav">   32.04   32.11</time>
   <time name="total">   32.55   32.63</time>
   <energy>
    <i name="e_fr_energy">   -191.16127142 </i>
    <i name="e_wo_entrp">   -190.96655316 </i>
    <i name="e_0_energy">   -191.06391229 </i>
   </energy>
  </scstep>
  <scstep>
   <time name="dav">   30.36   30.43</time>
   <time name="total">   30.89  150.03</time>
   <energy>
    <i name="e_fr_energy">   -191.31854039 </i>
    <i name="e_wo_entrp">   -191.10063207 </i>
    <i name="e_0_energy">   -191.20958623 </i>
   </energy>
  </scstep>
  <scstep>
   <time name="dav">   30.27   30.34</time>
   <time name="total">   30.79   30.87</time>
   <energy>
    <i name="e_fr_energy">   -190.94667714 </i>
    <i name="e_wo_entrp">   -190.73625828 </i>
    <i name="e_0_energy">   -190.84146771 </i>
   </energy>
  </scstep>
  <scstep>
   <time name="dav">   28.22   28.29</time>
   <time name="total">   28.74   28.82</time>
   <energy>
    <i name="e_fr_energy">   -190.92702936 </i>
    <i name="e_wo_entrp">   -190.73902516 </i>
    <i name="e_0_energy">   -190.83302726 </i>
   </energy>
  </scstep>
  <scstep>
   <time name="dav">   29.17   29.24</time>
   <time name="total">   29.68   29.76</time>
   <energy>
    <i name="e_fr_energy">   -190.75561336 </i>
    <i name="e_wo_entrp">   -190.55382714 </i>
    <i name="e_0_energy">   -190.65472025 </i>
   </energy>
  </scstep>
  <scstep>
   <time name="dav">   31.22   31.30</time>
   <time name="total">   31.74   31.83</time>
   <energy>
    <i name="e_fr_energy">   -190.75384819 </i>
    <i name="e_wo_entrp">   -190.55155948 </i>
    <i name="e_0_energy">   -190.65270384 </i>
   </energy>
  </scstep>
  <scstep>
   <time name="dav">   29.88   29.95</time>
   <time name="total">   30.40   30.48</time>
   <energy>
    <i name="e_fr_energy">   -190.75243365 </i>
    <i name="e_wo_entrp">   -190.55011053 </i>
    <i name="e_0_energy">   -190.65127209 </i>
   </energy>
  </scstep>
  <scstep>
   <time name="dav">   28.42   28.49</time>
   <time name="total">   28.94   29.02</time>
   <energy>
    <i name="e_fr_energy">   -190.74751166 </i>
    <i name="e_wo_entrp">   -190.54549087 </i>
    <i name="e_0_energy">   -190.64650127 </i>
   </energy>
  </scstep>
  <scstep>
   <time name="dav">   27.16   27.23</time>
   <time name="total">   27.68   27.75</time>
   <energy>
    <i name="e_fr_energy">   -190.74786933 </i>
    <i name="e_wo_entrp">   -190.54582748 </i>
    <i name="e_0_energy">   -190.64684841 </i>
   </energy>
  </scstep>
  <scstep>
   <time name="dav">   27.37   27.43</time>
   <time name="total">   27.89   27.96</time>
   <energy>
    <i name="e_fr_energy">   -190.74766288 </i>
    <i name="e_wo_entrp">   -190.54551579 </i>
    <i name="e_0_energy">   -190.64658934 </i>
   </energy>
  </scstep>
  <scstep>
   <time name="dav">   19.04   19.08</time>
   <time name="total">   19.07   19.13</time>
   <energy>
    <i name="alphaZ">     85.81932750 </i>
    <i name="ewald">  42832.73002613 </i>
    <i name="hartreedc"> -48820.45606799 </i>
    <i name="XCdc">   -234.29470717 </i>
    <i name="pawpsdc">   4063.71690064 </i>
    <i name="pawaedc">  -3479.59708934 </i>
    <i name="eentropy">     -0.20226510 </i>
    <i name="bandstr">  -1399.90633508 </i>
    <i name="atom">   6761.44252427 </i>
    <i name="e_fr_energy">   -190.74768613 </i>
    <i name="e_wo_entrp">   -190.54542104 </i>
    <i name="e_0_energy">   -190.64655359 </i>
   </energy>
  </scstep>
  <structure>
   <crystal>
    <varray name="basis" >
     <v>       8.48762043       4.89995830       0.00000000 </v>
     <v>      -8.48637042       4.89780486       0.00000000 </v>
     <v>       0.00000000       0.00000000      30.00000000 </v>
    </varray>
    <i name="volume">   2494.60709125 </i>
    <varray name="rec_basis" >
     <v>       0.05890072       0.10205660       0.00000000 </v>
     <v>      -0.05892661       0.10207163       0.00000000 </v>
     <v>       0.00000000       0.00000000       0.03333333 </v>
    </varray>
   </crystal>
   <varray name="positions" >
    <v>       0.66943891       0.00049662       0.00003706 </v>
    <v>       1.00211131       0.33327684       0.00006406 </v>
    <v>       0.66740550       0.33572861       0.00026690 </v>
    <v>       0.00145157       0.67299868       0.00007994 </v>
    <v>       0.32973372       0.33003763      -0.00008061 </v>
    <v>       0.00541122      -0.00159397      -0.00018632 </v>
    <v>       0.32448554      -0.00046809      -0.00019664 </v>
    <v>       0.32992031       0.66254103      -0.00008491 </v>
    <v>       0.67008753       0.66664602       0.00015987 </v>
    <v>       0.10759865       0.22491210       0.95033897 </v>
    <v>       0.22283793       0.11062964       0.05154736 </v>
    <v>       0.10899694       0.55029887       0.95058419 </v>
    <v>       0.21686036       0.44250140       0.04989421 </v>
    <v>       0.11224980       0.88954969       0.94803933 </v>
    <v>       0.22373813       0.77846280       0.05080750 </v>
    <v>       0.44949201       0.22356893       0.95058449 </v>
    <v>       0.55952695       0.11296567       0.04742563 </v>
    <v>       0.44517072       0.55675470       0.94966137 </v>
    <v>       0.55891786       0.44266399       0.04944274 </v>
    <v>       0.44853333       0.89114344       0.95126673 </v>
    <v>       0.55759253       0.78182155       0.04921106 </v>
    <v>       0.77774686       0.22232198       0.95328987 </v>
    <v>       0.88629039       0.11383287       0.04793121 </v>
    <v>       0.77447673       0.55036927       0.95032017 </v>
    <v>       0.88616664       0.43882303       0.04768639 </v>
    <v>       0.77451720       0.89065744       0.95067159 </v>
    <v>       0.88745581       0.77727371       0.05123773 </v>
   </varray>
  </structure>
  <varray name="forces" >
   <v>       0.17431747       0.03201768       0.03206892 </v>
   <v>       0.17702208       0.16286695       0.02245238 </v>
   <v>      -0.15112682       0.10384626       0.06546915 </v>
   <v>      -0.45768605       0.46544779       0.01353558 </v>
   <v>      -0.06301448      -0.22148823      -0.04505921 </v>
   <v>       0.67600875       0.09934104       0.02733688 </v>
   <v>      -0.56445962      -0.46343552       0.01936317 </v>
   <v>       0.14795958      -0.23615225      -0.06955890 </v>
   <v>       0.15296594       0.12736301      -0.03913815 </v>
   <v>      -0.02467302      -0.07056571      -0.40458799 </v>
   <v>      -0.03567685       0.00113600       0.57896711 </v>
   <v>      -0.05029820      -0.08859927      -0.27086413 </v>
   <v>      -0.01608119      -0.08547146       0.44838714 </v>
   <v>      -0.01893863      -0.01660149      -0.79325444 </v>
   <v>      -0.02017849       0.03324303       0.33609454 </v>
   <v>       0.03081433      -0.01229707      -0.29414228 </v>
   <v>      -0.06455087      -0.05237074       0.08025144 </v>
   <v>       0.05144297      -0.00051905      -0.23587247 </v>
   <v>       0.00602067      -0.01573574       0.33108780 </v>
   <v>      -0.07108261       0.00203872      -0.08514660 </v>
   <v>       0.00966751       0.00198747       0.25729724 </v>
   <v>       0.01075636       0.03220176      -0.26095155 </v>
   <v>       0.05669491       0.03473081       0.23510221 </v>
   <v>       0.05450057       0.00966497      -0.34881493 </v>
   <v>      -0.02197462       0.05114335       0.17931010 </v>
   <v>       0.04087212       0.05802932      -0.29419937 </v>
   <v>      -0.02930182       0.04817836       0.51486638 </v>
  </varray>
  <varray name="stress" >
   <v>      -5.69512099       0.06533056      -0.13368237 </v>
   <v>       0.06533060      -5.86955606       0.10706827 </v>
   <v>      -0.13368231       0.10706856       4.55052907 </v>
  </varray>
  <energy>
   <i name="e_fr_energy">   -190.74768613 </i>
   <i name="e_wo_entrp">   -190.64655359 </i>
   <i name="e_0_energy">     -0.20226510 </i>
  </energy>
  <time name="totalsc">  383.37  503.45</time>
 </calculation>
 <calculation>
  <scstep>
   <time name="dav">   21.98   22.03</time>
   <time name="total">   22.49   22.54</time>
   <energy>
    <i name="alphaZ">     90.17322700 </i>
    <i name="ewald">  44671.30524466 </i>
    <i name="hartreedc"> -50714.06130746 </i>
    <i name="XCdc">   -231.81564713 </i>
    <i name="pawpsdc">   4063.71472836 </i>
    <i name="pawaedc">  -3479.59102101 </i>
    <i name="eentropy">     -0.18598996 </i>
    <i name="bandstr">  -1353.10600260 </i>
    <i name="atom">   6761.44252427 </i>
    <i name="e_fr_energy">   -192.12424387 </i>
    <i name="e_wo_entrp">   -191.93825391 </i>
    <i name="e_0_energy">   -192.03124889 </i>
   </energy>
  </scstep>
  <scstep>
   <time name="dav">   28.96   29.03</time>
   <time name="total">   29.47   29.55</time>
   <energy>
    <i name="e_fr_energy">   -191.88362691 </i>
    <i name="e_wo_entrp">   -191.68427755 </i>
    <i name="e_0_energy">   -191.78395223 </i>
   </energy>
  </scstep>
  <scstep>
   <time name="dav">   29.85   29.92</time>
   <time name="total">   30.35   30.43</time>
   <energy>
    <i name="e_fr_energy">   -192.38006368 </i>
    <i name="e_wo_entrp">   -192.19539721 </i>
    <i name="e_0_energy">   -192.28773044 </i>
   </energy>
  </scstep>
  <scstep>
   <time name="dav">   29.59   29.66</time>
   <time name="total">   30.10   30.18</time>
   <energy>
    <i name="e_fr_energy">   -191.65443967 </i>
    <i name="e_wo_entrp">   -191.46037595 </i>
    <i name="e_0_energy">   -191.55740781 </i>
   </energy>
  </scstep>
  <scstep>
   <time name="dav">   29.76   29.84</time>
   <time name="total">   30.27   30.35</time>
   <energy>
    <i name="e_fr_energy">   -191.59750567 </i>
    <i name="e_wo_entrp">   -191.39874310 </i>
    <i name="e_0_energy">   -191.49812438 </i>
   </energy>
  </scstep>
  <scstep>
   <time name="dav">   31.17   31.25</time>
   <time name="total">   31.68   31.77</time>
   <energy>
    <i name="e_fr_energy">   -191.42490490 </i>
    <i name="e_wo_entrp">   -191.23471571 </i>
    <i name="e_0_energy">   -191.32981030 </i>
   </energy>
  </scstep>
  <scstep>
   <time name="dav">   30.89   30.96</time>
   <time name="total">   31.39   31.48</time>
   <energy>
    <i name="e_fr_energy">   -191.41444571 </i>
    <i name="e_wo_entrp">   -191.21126518 </i>
    <i name="e_0_energy">   -191.31285545 </i>
   </energy>
  </scstep>
  <scstep>
   <time name="dav">   28.64   28.71</time>
   <time name="total">   29.16   29.24</time>
   <energy>
    <i name="e_fr_energy">   -191.40082093 </i>
    <i name="e_wo_entrp">   -191.20733204 </i>
    <i name="e_0_energy">   -191.30407649 </i>
   </energy>
  </scstep>
  <scstep>
   <time name="dav">   29.40   29.47</time>
   <time name="total">   29.90   29.98</time>
   <energy>
    <i name="e_fr_energy">   -191.39510870 </i>
    <i name="e_wo_entrp">   -191.20014152 </i>
    <i name="e_0_energy">   -191.29762511 </i>
   </energy>
  </scstep>
  <scstep>
   <time name="dav">   30.33   30.40</time>
   <time name="total">   30.84   30.92</time>
   <energy>
    <i name="e_fr_energy">   -191.39507013 </i>
    <i name="e_wo_entrp">   -191.19937019 </i>
    <i name="e_0_energy">   -191.29722016 </i>
   </energy>
  </scstep>
  <scstep>
   <time name="dav">   27.55   27.62</time>
   <time name="total">   27.59   27.67</time>
   <energy>
    <i name="alphaZ">     90.17322700 </i>
    <i name="ewald">  44671.30524466 </i>
    <i name="hartreedc"> -50680.22964513 </i>
    <i name="XCdc">   -233.34097083 </i>
    <i name="pawpsdc">   4086.73036297 </i>
    <i name="pawaedc">  -3502.73010258 </i>
    <i name="eentropy">     -0.19579769 </i>
    <i name="bandstr">  -1384.54997284 </i>
    <i name="atom">   6761.44252427 </i>
    <i name="e_fr_energy">   -191.39513017 </i>
    <i name="e_wo_entrp">   -191.19933248 </i>
    <i name="e_0_energy">   -191.29723132 </i>
   </energy>
  </scstep>
  <structure>
   <crystal>
    <varray name="basis" >
     <v>       8.28580877       4.78132580       0.00000000 </v>
     <v>      -8.28080191       4.77266549       0.00000000 </v>
     <v>       0.00000000       0.00000000      30.00000000 </v>
    </varray>
    <i name="volume">   2374.15816265 </i>
    <varray name="rec_basis" >
     <v>       0.06030768       0.10463669       0.00000000 </v>
     <v>      -0.06041711       0.10469996       0.00000000 </v>
     <v>       0.00000000       0.00000000       0.03333333 </v>
    </varray>
   </crystal>
   <varray name="positions" >
    <v>       0.67091839      -0.00052241       0.00016545 </v>
    <v>       1.00550310       0.33413670       0.00015430 </v>
    <v>       0.66752153       0.33816067       0.00054422 </v>
    <v>       0.00400178       0.68201297       0.00015300 </v>
    <v>       0.32661739       0.32776562      -0.00027387 </v>
    <v>       0.01152900      -0.00520557      -0.00007805 </v>
    <v>       0.31468503      -0.00227714      -0.00010776 </v>
    <v>       0.32811354       0.65870176      -0.00038983 </v>
    <v>       0.67263338       0.66707916      -0.00000522 </v>
    <v>       0.10635953       0.22450661       0.94816697 </v>
    <v>       0.22252310       0.11095848       0.05449904 </v>
    <v>       0.10718330       0.54906378       0.94893547 </v>
    <v>       0.21519696       0.44115251       0.05226165 </v>
    <v>       0.11172797       0.88939558       0.94425158 </v>
    <v>       0.22390059       0.77895078       0.05277750 </v>
    <v>       0.45014983       0.22367876       0.94884439 </v>
    <v>       0.55907232       0.11307724       0.04821551 </v>
    <v>       0.44547355       0.55631378       0.94813011 </v>
    <v>       0.55886593       0.44200980       0.05131838 </v>
    <v>       0.44865427       0.89194772       0.95039583 </v>
    <v>       0.55797308       0.78234905       0.05077534 </v>
    <v>       0.77820550       0.22263059       0.95184138 </v>
    <v>       0.88686297       0.11406939       0.04933871 </v>
    <v>       0.77481993       0.54957523       0.94834965 </v>
    <v>       0.88636575       0.43908253       0.04886878 </v>
    <v>       0.77533243       0.89143814       0.94894662 </v>
    <v>       0.88802432       0.77816275       0.05392075 </v>
   </varray>
  </structure>
  <varray name="forces" >
   <v>       0.13983663       0.09807157       0.00190999 </v>
   <v>       0.17060530       0.07132172      -0.02952383 </v>
   <v>      -0.05370643       0.05852965       0.01880945 </v>
   <v>      -0.23316813       0.11894545      -0.06890700 </v>
   <v>      -0.14958044      -0.06685023       0.01772929 </v>
   <v>       0.10214000      -0.05644006       0.01216991 </v>
   <v>      -0.17879489      -0.11278405      -0.02946720 </v>
   <v>       0.25272942      -0.15729449      -0.01367095 </v>
   <v>       0.05030356       0.12744005       0.01618019 </v>
   <v>       0.11911125      -0.14009139      -0.05713064 </v>
   <v>      -0.07542852       0.01706225       0.23695300 </v>
   <v>      -0.14901560      -0.01571548       0.05090135 </v>
   <v>       0.04038142      -0.01106879       0.15512511 </v>
   <v>      -0.01328803      -0.02354706      -0.36804695 </v>
   <v>      -0.04345952       0.01365392       0.00991887 </v>
   <v>      -0.02694147      -0.13382793       0.00379584 </v>
   <v>      -0.14351969      -0.20885521      -0.14054136 </v>
   <v>       0.11228183      -0.03881819      -0.04780964 </v>
   <v>      -0.09574037      -0.01201681       0.01123492 </v>
   <v>      -0.16372367      -0.08640993       0.18259774 </v>
   <v>       0.05931067      -0.08397202       0.00809955 </v>
   <v>       0.00638457       0.03718930      -0.01478547 </v>
   <v>       0.23564183       0.04347060       0.01531971 </v>
   <v>       0.02651196       0.11551036      -0.05577549 </v>
   <v>      -0.10550312       0.24966450      -0.07335777 </v>
   <v>       0.15285953       0.11804212      -0.01598061 </v>
   <v>      -0.03622810       0.07879015       0.17425198 </v>
  </varray>
  <varray name="stress" >
   <v>       0.34657571       0.05117407      -0.24847455 </v>
   <v>       0.05117413       0.01415338       0.27999747 </v>
   <v>      -0.24847452       0.27999738      -0.29651258 </v>
  </varray>
  <energy>
   <i name="e_fr_energy">   -191.39513017 </i>
   <i name="e_wo_entrp">   -191.29723132 </i>
   <i name="e_0_energy">     -0.19579769 </i>
  </energy>
  <time name="totalsc">  365.52  366.48</time>
 </calculation>
 <calculation>
  <scstep>
   <time name="dav">   21.95   22.00</time>
   <time name="total">   22.46   22.52</time>
   <energy>
    <i name="alphaZ">     90.04608220 </i>
    <i name="ewald">  44592.67947424 </i>
    <i name="hartreedc"> -50601.16450128 </i>
    <i name="XCdc">   -233.51457080 </i>
    <i name="pawpsdc">   4087.10037162 </i>
    <i name="pawaedc">  -3503.09730903 </i>
    <i name="eentropy">     -0.19884776 </i>
    <i name="bandstr">  -1384.72325668 </i>
    <i name="atom">   6761.44252427 </i>
    <i name="e_fr_energy">   -191.43003320 </i>
    <i name="e_wo_entrp">   -191.23118544 </i>
    <i name="e_0_energy">   -191.33060932 </i>
   </energy>
  </scstep>
  <scstep>
   <time name="dav">   31.59   31.67</time>
   <time name="total">   32.10   32.18</time>
   <energy>
    <i name="e_fr_energy">   -191.46990631 </i>
    <i name="e_wo_entrp">   -191.26200163 </i>
    <i name="e_0_energy">   -191.36595397 </i>
   </energy>
  </scstep>
  <scstep>
   <time name="dav">   30.84   30.91</time>
   <time name="total">   31.35   31.43</time>
   <energy>
    <i name="e_fr_energy">   -191.43958328 </i>
    <i name="e_wo_entrp">   -191.24076241 </i>
    <i name="e_0_energy">   -191.34017285 </i>
   </energy>
  </scstep>
  <scstep>
   <time name="dav">   28.10   28.17</time>
   <time name="total">   28.61   28.69</time>
   <energy>
    <i name="e_fr_energy">   -191.43990562 </i>
    <i name="e_wo_entrp">   -191.24001967 </i>
    <i name="e_0_energy">   -191.33996264 </i>
   </energy>
  </scstep>
  <scstep>
   <time name="dav">   27.34   27.41</time>
   <time name="total">   27.85   27.93</time>
   <energy>
    <i name="e_fr_energy">   -191.43806946 </i>
    <i name="e_wo_entrp">   -191.23762845 </i>
    <i name="e_0_energy">   -191.33784895 </i>
   </energy>
  </scstep>
  <scstep>
   <time name="dav">   29.04   29.11</time>
   <time name="total">   29.55   29.62</time>
   <energy>
    <i name="e_fr_energy">   -191.43800870 </i>
    <i name="e_wo_entrp">   -191.23763298 </i>
    <i name="e_0_energy">   -191.33782084 </i>
   </energy>
  </scstep>
  <scstep>
   <time name="dav">   26.27   26.33</time>
   <time name="total">   26.78   26.85</time>
   <energy>
    <i name="e_fr_energy">   -191.43825036 </i>
    <i name="e_wo_entrp">   -191.23908102 </i>
    <i name="e_0_energy">   -191.33866569 </i>
   </energy>
  </scstep>
  <scstep>
   <time name="dav">   23.09   23.15</time>
   <time name="total">   23.61   23.89</time>
   <energy>
    <i name="e_fr_energy">   -191.43770016 </i>
    <i name="e_wo_entrp">   -191.23772326 </i>
    <i name="e_0_energy">   -191.33771171 </i>
   </energy>
  </scstep>
  <scstep>
   <time name="dav">   17.39   17.43</time>
   <time name="total">   17.42   17.47</time>
   <energy>
    <i name="alphaZ">     90.04608220 </i>
    <i name="ewald">  44592.67947424 </i>
    <i name="hartreedc"> -50603.20944021 </i>
    <i name="XCdc">   -233.45582342 </i>
    <i name="pawpsdc">   4082.59387745 </i>
    <i name="pawaedc">  -3498.52723434 </i>
    <i name="eentropy">     -0.19999303 </i>
    <i name="bandstr">  -1382.80718600 </i>
    <i name="atom">   6761.44252427 </i>
    <i name="e_fr_energy">   -191.43771884 </i>
    <i name="e_wo_entrp">   -191.23772581 </i>
    <i name="e_0_energy">   -191.33772232 </i>
   </energy>
  </scstep>
  <structure>
   <crystal>
    <varray name="basis" >
     <v>       8.29575321       4.78372487       0.00000000 </v>
     <v>      -8.28954029       4.77298057       0.00000000 </v>
     <v>       0.00000000       0.00000000      30.00000000 </v>
    </varray>
    <i name="volume">   2377.51046689 </i>
    <varray name="rec_basis" >
     <v>       0.06022662       0.10459942       0.00000000 </v>
     <v>      -0.06036219       0.10467781       0.00000000 </v>
     <v>       0.00000000       0.00000000       0.03333333 </v>
    </varray>
   </crystal>
   <varray name="positions" >
    <v>       0.67177149      -0.00041788       0.00016627 </v>
    <v>       1.00627638       0.33398771       0.00010663 </v>
    <v>       0.66765583       0.33855797       0.00056876 </v>
    <v>       0.00388201       0.68310416       0.00004387 </v>
    <v>       0.32591870       0.32789958      -0.00024276 </v>
    <v>       0.01143623      -0.00571037      -0.00006085 </v>
    <v>       0.31379328      -0.00229236      -0.00015544 </v>
    <v>       0.32808653       0.65727756      -0.00040574 </v>
    <v>       0.67335885       0.66755541       0.00002295 </v>
    <v>       0.10603228       0.22348523       0.94812065 </v>
    <v>       0.22239973       0.11124960       0.05481227 </v>
    <v>       0.10671976       0.54943530       0.94904927 </v>
    <v>       0.21529063       0.44101129       0.05245758 </v>
    <v>       0.11158580       0.88932120       0.94374737 </v>
    <v>       0.22384312       0.77913335       0.05275263 </v>
    <v>       0.44939937       0.22309091       0.94888610 </v>
    <v>       0.55764241       0.11245335       0.04797723 </v>
    <v>       0.44559609       0.55581347       0.94808792 </v>
    <v>       0.55853606       0.44223779       0.05129802 </v>
    <v>       0.44775867       0.89197059       0.95070190 </v>
    <v>       0.55771915       0.78175350       0.05075551 </v>
    <v>       0.77839837       0.22278994       0.95184732 </v>
    <v>       0.88773564       0.11360894       0.04933359 </v>
    <v>       0.77545754       0.55008649       0.94830229 </v>
    <v>       0.88729190       0.44060835       0.04872890 </v>
    <v>       0.77633197       0.89156732       0.94895699 </v>
    <v>       0.88829669       0.77863604       0.05414067 </v>
   </varray>
  </structure>
  <varray name="forces" >
   <v>       0.13330569       0.13830255       0.00239239 </v>
   <v>       0.18410715       0.05701054      -0.02465784 </v>
   <v>      -0.03865690       0.06113499       0.04221803 </v>
   <v>      -0.28369512       0.12085744      -0.01886735 </v>
   <v>      -0.15510398      -0.08709761       0.03025183 </v>
   <v>       0.18368427      -0.02672158       0.01135982 </v>
   <v>      -0.29288058      -0.14522708      -0.00167366 </v>
   <v>       0.28542411      -0.17663371      -0.02156799 </v>
   <v>       0.07351868       0.14432806       0.03232431 </v>
   <v>       0.06011204      -0.08210313      -0.05004636 </v>
   <v>      -0.04339233       0.00656730       0.10616848 </v>
   <v>      -0.08184912      -0.01251394       0.06847799 </v>
   <v>       0.02361187      -0.02329774       0.14098326 </v>
   <v>      -0.03053027      -0.00091718      -0.21668225 </v>
   <v>      -0.01131075      -0.00321463      -0.07218738 </v>
   <v>      -0.04388776      -0.06882516       0.01377880 </v>
   <v>      -0.07908692      -0.12434906      -0.14242477 </v>
   <v>       0.08450039      -0.01405639      -0.03342722 </v>
   <v>      -0.06524275      -0.00216186      -0.02515587 </v>
   <v>      -0.08261599      -0.07020916       0.19129060 </v>
   <v>       0.04251542      -0.05538564      -0.01034737 </v>
   <v>       0.00880817       0.02357690       0.02108780 </v>
   <v>       0.12870063       0.02757574       0.02595695 </v>
   <v>      -0.00085539       0.06131744      -0.04815777 </v>
   <v>      -0.06068043       0.15947813      -0.10610285 </v>
   <v>       0.08342325       0.05624814      -0.03341243 </v>
   <v>      -0.02192340       0.03631664       0.11842084 </v>
  </varray>
  <varray name="stress" >
   <v>      -0.24759131      -0.03907985      -0.08749392 </v>
   <v>      -0.03907993      -0.25273605       0.13571961 </v>
   <v>      -0.08749390       0.13571953      -1.09570941 </v>
  </varray>
  <energy>
   <i name="e_fr_energy">   -191.43771884 </i>
   <i name="e_wo_entrp">   -191.33772232 </i>
   <i name="e_0_energy">     -0.19999303 </i>
  </energy>
  <time name="totalsc">  282.10  283.07</time>
 </calculation>
 <calculation>
  <scstep>
   <time name="dav">   21.96   22.01</time>
   <time name="total">   22.47   22.52</time>
   <energy>
    <i name="alphaZ">     90.28621162 </i>
    <i name="ewald">  44694.34423443 </i>
    <i name="hartreedc"> -50707.72456899 </i>
    <i name="XCdc">   -233.32079049 </i>
    <i name="pawpsdc">   4082.41403715 </i>
    <i name="pawaedc">  -3498.34548496 </i>
    <i name="eentropy">     -0.20196245 </i>
    <i name="bandstr">  -1380.37944790 </i>
    <i name="atom">   6761.44252427 </i>
    <i name="e_fr_energy">   -191.48524732 </i>
    <i name="e_wo_entrp">   -191.28328486 </i>
    <i name="e_0_energy">   -191.38426609 </i>
   </energy>
  </scstep>
  <scstep>
   <time name="dav">   32.61   32.69</time>
   <time name="total">   33.11   33.20</time>
   <energy>
    <i name="e_fr_energy">   -191.53594052 </i>
    <i name="e_wo_entrp">   -191.32019511 </i>
    <i name="e_0_energy">   -191.42806781 </i>
   </energy>
  </scstep>
  <scstep>
   <time name="dav">   30.86   30.93</time>
   <time name="total">   31.37   31.45</time>
   <energy>
    <i name="e_fr_energy">   -191.49616318 </i>
    <i name="e_wo_entrp">   -191.29448633 </i>
    <i name="e_0_energy">   -191.39532475 </i>
   </energy>
  </scstep>
  <scstep>
   <time name="dav">   27.71   27.78</time>
   <time name="total">   28.22   28.30</time>
   <energy>
    <i name="e_fr_energy">   -191.49398131 </i>
    <i name="e_wo_entrp">   -191.29069388 </i>
    <i name="e_0_energy">   -191.39233759 </i>
   </energy>
  </scstep>
  <scstep>
   <time name="dav">   28.66   28.72</time>
   <time name="total">   29.16   29.24</time>
   <energy>
    <i name="e_fr_energy">   -191.49186853 </i>
    <i name="e_wo_entrp">   -191.28734107 </i>
    <i name="e_0_energy">   -191.38960480 </i>
   </energy>
  </scstep>
  <scstep>
   <time name="dav">   28.74   28.81</time>
   <time name="total">   29.25   29.33</time>
   <energy>
    <i name="e_fr_energy">   -191.49101359 </i>
    <i name="e_wo_entrp">   -191.28622423 </i>
    <i name="e_0_energy">   -191.38861891 </i>
   </energy>
  </scstep>
  <scstep>
   <time name="dav">   28.65   28.72</time>
   <time name="total">   29.16   29.24</time>
   <energy>
    <i name="e_fr_energy">   -191.49159978 </i>
    <i name="e_wo_entrp">   -191.28869006 </i>
    <i name="e_0_energy">   -191.39014492 </i>
   </energy>
  </scstep>
  <scstep>
   <time name="dav">   24.90   24.96</time>
   <time name="total">   25.44   25.51</time>
   <energy>
    <i name="e_fr_energy">   -191.49036990 </i>
    <i name="e_wo_entrp">   -191.28582231 </i>
    <i name="e_0_energy">   -191.38809610 </i>
   </energy>
  </scstep>
  <scstep>
   <time name="dav">   16.71   16.75</time>
   <time name="total">   16.74   16.79</time>
   <energy>
    <i name="alphaZ">     90.28621162 </i>
    <i name="ewald">  44694.34423443 </i>
    <i name="hartreedc"> -50706.43509925 </i>
    <i name="XCdc">   -233.37711540 </i>
    <i name="pawpsdc">   4084.92587692 </i>
    <i name="pawaedc">  -3500.89067094 </i>
    <i name="eentropy">     -0.20432756 </i>
    <i name="bandstr">  -1381.58202034 </i>
    <i name="atom">   6761.44252427 </i>
    <i name="e_fr_energy">   -191.49038623 </i>
    <i name="e_wo_entrp">   -191.28605867 </i>
    <i name="e_0_energy">   -191.38822245 </i>
   </energy>
  </scstep>
  <structure>
   <crystal>
    <varray name="basis" >
     <v>       8.28456044       4.77619421       0.00000000 </v>
     <v>      -8.27943913       4.76734548       0.00000000 </v>
     <v>       0.00000000       0.00000000      30.00000000 </v>
    </varray>
    <i name="volume">   2371.18712908 </i>
    <varray name="rec_basis" >
     <v>       0.06031593       0.10475056       0.00000000 </v>
     <v>      -0.06042789       0.10481535       0.00000000 </v>
     <v>       0.00000000       0.00000000       0.03333333 </v>
    </varray>
   </crystal>
   <varray name="positions" >
    <v>       0.67327501      -0.00005181       0.00017592 </v>
    <v>       1.00751181       0.33369184       0.00005579 </v>
    <v>       0.66791948       0.33921624       0.00066834 </v>
    <v>       0.00369180       0.68535304       0.00000118 </v>
    <v>       0.32461497       0.32784088      -0.00018531 </v>
    <v>       0.01216965      -0.00673777      -0.00003233 </v>
    <v>       0.31133626      -0.00220715      -0.00015831 </v>
    <v>       0.32794054       0.65482908      -0.00046316 </v>
    <v>       0.67470918       0.66826378       0.00008565 </v>
    <v>       0.10565333       0.22265398       0.94792209 </v>
    <v>       0.22225899       0.11148667       0.05517365 </v>
    <v>       0.10622846       0.54962722       0.94912524 </v>
    <v>       0.21516082       0.44070317       0.05286165 </v>
    <v>       0.11143332       0.88941799       0.94311519 </v>
    <v>       0.22377961       0.77918205       0.05268737 </v>
[...]
      <set comment="kpoint 31">
       <r>  -17.4886    1.0000 </r>
       <r>  -17.2740    1.0000 </r>
       <r>  -16.9382    1.0000 </r>
       <r>  -16.6268    1.0000 </r>
       <r>  -16.4958    1.0000 </r>
       <r>  -16.4321    1.0000 </r>
       <r>  -16.2750    1.0000 </r>
       <r>  -16.1776    1.0000 </r>
       <r>  -16.1050    1.0000 </r>
       <r>  -16.0344    1.0000 </r>
       <r>  -15.9894    1.0000 </r>
       <r>  -15.9012    1.0000 </r>
       <r>  -15.7735    1.0000 </r>
       <r>  -15.6635    1.0000 </r>
       <r>  -15.6008    1.0000 </r>
       <r>  -15.5194    1.0000 </r>
       <r>  -15.4264    1.0000 </r>
       <r>  -15.3241    1.0000 </r>
       <r>   -9.7180    1.0000 </r>
       <r>   -9.4602    1.0000 </r>
       <r>   -9.3156    1.0000 </r>
       <r>   -8.9153    1.0000 </r>
       <r>   -8.8014    1.0000 </r>
       <r>   -8.7221    1.0000 </r>
       <r>   -8.5828    1.0000 </r>
       <r>   -8.5429    1.0000 </r>
       <r>   -8.4602    1.0000 </r>
       <r>   -8.3537    1.0000 </r>
       <r>   -8.2405    1.0000 </r>
       <r>   -8.1822    1.0000 </r>
       <r>   -8.1343    1.0000 </r>
       <r>   -8.0614    1.0000 </r>
       <r>   -8.0130    1.0000 </r>
       <r>   -7.9154    1.0000 </r>
       <r>   -7.8323    1.0000 </r>
       <r>   -7.6901    1.0000 </r>
       <r>   -7.5665    1.0000 </r>
       <r>   -7.4442    1.0000 </r>
       <r>   -7.3783    1.0000 </r>
       <r>   -7.3005    1.0000 </r>
       <r>   -7.1144    1.0000 </r>
       <r>   -7.0540    1.0000 </r>
       <r>   -7.0300    1.0000 </r>
       <r>   -6.9125    1.0000 </r>
       <r>   -6.8135    1.0000 </r>
       <r>   -6.7726    1.0000 </r>
       <r>   -6.6523    1.0000 </r>
       <r>   -6.6029    1.0000 </r>
       <r>   -6.5435    1.0000 </r>
       <r>   -6.4798    1.0000 </r>
       <r>   -6.4238    1.0000 </r>
       <r>   -6.3700    1.0000 </r>
       <r>   -6.2494    1.0000 </r>
       <r>   -6.2139    1.0000 </r>
       <r>   -6.1519    1.0000 </r>
       <r>   -6.0656    1.0000 </r>
       <r>   -6.0038    1.0000 </r>
       <r>   -5.9285    1.0000 </r>
       <r>   -5.8414    1.0000 </r>
       <r>   -5.7377    1.0000 </r>
       <r>   -5.6560    1.0000 </r>
       <r>   -5.5999    1.0000 </r>
       <r>   -5.5373    1.0000 </r>
       <r>   -5.4300    1.0000 </r>
       <r>   -5.3337    1.0000 </r>
       <r>   -5.1863    1.0000 </r>
       <r>   -5.1268    1.0000 </r>
       <r>   -4.8774    1.0000 </r>
       <r>   -4.7843    1.0000 </r>
       <r>   -4.7197    1.0000 </r>
       <r>   -4.5999    1.0000 </r>
       <r>   -4.5261    1.0000 </r>
       <r>   -4.3860    1.0000 </r>
       <r>   -4.1858    1.0000 </r>
       <r>   -4.1246    1.0000 </r>
       <r>   -4.0153    1.0000 </r>
       <r>   -3.8099    0.9999 </r>
       <r>   -3.6070    0.9918 </r>
       <r>   -3.4556    0.9080 </r>
       <r>   -3.1927    0.2978 </r>
       <r>   -2.9561    0.0138 </r>
       <r>   -2.8863    0.0035 </r>
       <r>   -2.8362    0.0011 </r>
       <r>   -2.6922    0.0000 </r>
       <r>   -2.6396    0.0000 </r>
       <r>   -2.3539    0.0000 </r>
       <r>   -2.3033    0.0000 </r>
       <r>   -2.1393    0.0000 </r>
       <r>   -2.0069    0.0000 </r>
       <r>   -1.8689    0.0000 </r>
       <r>   -1.7509    0.0000 </r>
       <r>   -1.4708    0.0000 </r>
       <r>   -1.4244    0.0000 </r>
       <r>   -1.3986    0.0000 </r>
       <r>   -1.2259    0.0000 </r>
       <r>   -1.1189    0.0000 </r>
       <r>   -1.0970    0.0000 </r>
       <r>   -1.0240    0.0000 </r>
       <r>   -0.9588    0.0000 </r>
       <r>   -0.8894    0.0000 </r>
       <r>   -0.8245    0.0000 </r>
       <r>   -0.7289    0.0000 </r>
       <r>   -0.6782    0.0000 </r>
       <r>   -0.6194    0.0000 </r>
       <r>   -0.5741    0.0000 </r>
       <r>   -0.3279    0.0000 </r>
       <r>   -0.2527    0.0000 </r>
       <r>   -0.1552    0.0000 </r>
       <r>   -0.0480    0.0000 </r>
       <r>    0.0980    0.0000 </r>
       <r>    0.4062    0.0000 </r>
       <r>    0.6881    0.0000 </r>
       <r>    0.7423    0.0000 </r>
       <r>    0.9856    0.0000 </r>
       <r>    1.0965    0.0000 </r>
       <r>    1.2842    0.0000 </r>
       <r>    1.4237    0.0000 </r>
       <r>    2.1348    0.0000 </r>
       <r>    2.2928    0.0000 </r>
       <r>    2.3931    0.0000 </r>
      </set>
      <set comment="kpoint 32">
       <r>  -17.5102    1.0000 </r>
       <r>  -17.1586    1.0000 </r>
       <r>  -17.0812    1.0000 </r>
       <r>  -16.6280    1.0000 </r>
       <r>  -16.4514    1.0000 </r>
       <r>  -16.3367    1.0000 </r>
       <r>  -16.2726    1.0000 </r>
       <r>  -16.2405    1.0000 </r>
       <r>  -16.1052    1.0000 </r>
       <r>  -16.0390    1.0000 </r>
       <r>  -16.0099    1.0000 </r>
       <r>  -15.9165    1.0000 </r>
       <r>  -15.7772    1.0000 </r>
       <r>  -15.6697    1.0000 </r>
       <r>  -15.5992    1.0000 </r>
       <r>  -15.5186    1.0000 </r>
       <r>  -15.4166    1.0000 </r>
       <r>  -15.3147    1.0000 </r>
       <r>   -9.6591    1.0000 </r>
       <r>   -9.5450    1.0000 </r>
       <r>   -9.3933    1.0000 </r>
       <r>   -8.9045    1.0000 </r>
       <r>   -8.7556    1.0000 </r>
       <r>   -8.5877    1.0000 </r>
       <r>   -8.5492    1.0000 </r>
       <r>   -8.4748    1.0000 </r>
       <r>   -8.3968    1.0000 </r>
       <r>   -8.3750    1.0000 </r>
       <r>   -8.3084    1.0000 </r>
       <r>   -8.2515    1.0000 </r>
       <r>   -8.1516    1.0000 </r>
       <r>   -8.0919    1.0000 </r>
       <r>   -8.0421    1.0000 </r>
       <r>   -8.0097    1.0000 </r>
       <r>   -7.8491    1.0000 </r>
       <r>   -7.6183    1.0000 </r>
       <r>   -7.5419    1.0000 </r>
       <r>   -7.4331    1.0000 </r>
       <r>   -7.3233    1.0000 </r>
       <r>   -7.2567    1.0000 </r>
       <r>   -7.2115    1.0000 </r>
       <r>   -7.0630    1.0000 </r>
       <r>   -6.9745    1.0000 </r>
       <r>   -6.9542    1.0000 </r>
       <r>   -6.8756    1.0000 </r>
       <r>   -6.7246    1.0000 </r>
       <r>   -6.7043    1.0000 </r>
       <r>   -6.6077    1.0000 </r>
       <r>   -6.5380    1.0000 </r>
       <r>   -6.5028    1.0000 </r>
       <r>   -6.4353    1.0000 </r>
       <r>   -6.3325    1.0000 </r>
       <r>   -6.2913    1.0000 </r>
       <r>   -6.1910    1.0000 </r>
       <r>   -6.1659    1.0000 </r>
       <r>   -6.0650    1.0000 </r>
       <r>   -6.0171    1.0000 </r>
       <r>   -5.8815    1.0000 </r>
       <r>   -5.7696    1.0000 </r>
       <r>   -5.7231    1.0000 </r>
       <r>   -5.6653    1.0000 </r>
       <r>   -5.5788    1.0000 </r>
       <r>   -5.5001    1.0000 </r>
       <r>   -5.3916    1.0000 </r>
       <r>   -5.3231    1.0000 </r>
       <r>   -5.2696    1.0000 </r>
       <r>   -5.0954    1.0000 </r>
       <r>   -4.9830    1.0000 </r>
       <r>   -4.8247    1.0000 </r>
       <r>   -4.7287    1.0000 </r>
       <r>   -4.6271    1.0000 </r>
       <r>   -4.4967    1.0000 </r>
       <r>   -4.4105    1.0000 </r>
       <r>   -4.2153    1.0000 </r>
       <r>   -4.0849    1.0000 </r>
       <r>   -3.9749    1.0000 </r>
       <r>   -3.7437    0.9996 </r>
       <r>   -3.6071    0.9918 </r>
       <r>   -3.4257    0.8680 </r>
       <r>   -3.3237    0.6537 </r>
       <r>   -2.9247    0.0076 </r>
       <r>   -2.8774    0.0029 </r>
       <r>   -2.7932    0.0004 </r>
       <r>   -2.6703    0.0000 </r>
       <r>   -2.6156    0.0000 </r>
       <r>   -2.3702    0.0000 </r>
       <r>   -2.3258    0.0000 </r>
       <r>   -2.1720    0.0000 </r>
       <r>   -1.9562    0.0000 </r>
       <r>   -1.8851    0.0000 </r>
       <r>   -1.7643    0.0000 </r>
       <r>   -1.5008    0.0000 </r>
       <r>   -1.4477    0.0000 </r>
       <r>   -1.3927    0.0000 </r>
       <r>   -1.2388    0.0000 </r>
       <r>   -1.1354    0.0000 </r>
       <r>   -1.0524    0.0000 </r>
       <r>   -1.0072    0.0000 </r>
       <r>   -0.9465    0.0000 </r>
       <r>   -0.8650    0.0000 </r>
       <r>   -0.7784    0.0000 </r>
       <r>   -0.7491    0.0000 </r>
       <r>   -0.6705    0.0000 </r>
       <r>   -0.6252    0.0000 </r>
       <r>   -0.5526    0.0000 </r>
       <r>   -0.3988    0.0000 </r>
       <r>   -0.2736    0.0000 </r>
       <r>   -0.1660    0.0000 </r>
       <r>   -0.0092    0.0000 </r>
       <r>    0.1113    0.0000 </r>
       <r>    0.4058    0.0000 </r>
       <r>    0.7156    0.0000 </r>
       <r>    0.7954    0.0000 </r>
       <r>    0.9146    0.0000 </r>
       <r>    1.0470    0.0000 </r>
       <r>    1.2487    0.0000 </r>
       <r>    1.4244    0.0000 </r>
       <r>    2.1023    0.0000 </r>
       <r>    2.2597    0.0000 </r>
       <r>    2.5655    0.0000 </r>
      </set>
      <set comment="kpoint 33">
       <r>  -17.4966    1.0000 </r>
       <r>  -17.2612    1.0000 </r>
       <r>  -16.9382    1.0000 </r>
       <r>  -16.6314    1.0000 </r>
       <r>  -16.5066    1.0000 </r>
       <r>  -16.4073    1.0000 </r>
       <r>  -16.3055    1.0000 </r>
       <r>  -16.1910    1.0000 </r>
       <r>  -16.0709    1.0000 </r>
       <r>  -16.0235    1.0000 </r>
       <r>  -15.9728    1.0000 </r>
       <r>  -15.8938    1.0000 </r>
       <r>  -15.7995    1.0000 </r>
       <r>  -15.6852    1.0000 </r>
       <r>  -15.6269    1.0000 </r>
       <r>  -15.5030    1.0000 </r>
       <r>  -15.4235    1.0000 </r>
       <r>  -15.3096    1.0000 </r>
       <r>   -9.7366    1.0000 </r>
       <r>   -9.4144    1.0000 </r>
       <r>   -9.3403    1.0000 </r>
       <r>   -8.9416    1.0000 </r>
       <r>   -8.8864    1.0000 </r>
       <r>   -8.7417    1.0000 </r>
       <r>   -8.5337    1.0000 </r>
       <r>   -8.4752    1.0000 </r>
       <r>   -8.4143    1.0000 </r>
       <r>   -8.3244    1.0000 </r>
       <r>   -8.2436    1.0000 </r>
       <r>   -8.1774    1.0000 </r>
       <r>   -8.1398    1.0000 </r>
       <r>   -8.0803    1.0000 </r>
       <r>   -8.0240    1.0000 </r>
       <r>   -7.9495    1.0000 </r>
       <r>   -7.8177    1.0000 </r>
       <r>   -7.6336    1.0000 </r>
       <r>   -7.5772    1.0000 </r>
       <r>   -7.4519    1.0000 </r>
       <r>   -7.3378    1.0000 </r>
       <r>   -7.2556    1.0000 </r>
       <r>   -7.1243    1.0000 </r>
       <r>   -7.0727    1.0000 </r>
       <r>   -7.0005    1.0000 </r>
       <r>   -6.9236    1.0000 </r>
       <r>   -6.8246    1.0000 </r>
       <r>   -6.7903    1.0000 </r>
       <r>   -6.7321    1.0000 </r>
       <r>   -6.6539    1.0000 </r>
       <r>   -6.5405    1.0000 </r>
       <r>   -6.4964    1.0000 </r>
       <r>   -6.4394    1.0000 </r>
       <r>   -6.3369    1.0000 </r>
       <r>   -6.2794    1.0000 </r>
       <r>   -6.1573    1.0000 </r>
       <r>   -6.1182    1.0000 </r>
       <r>   -6.0896    1.0000 </r>
       <r>   -6.0415    1.0000 </r>
       <r>   -5.9289    1.0000 </r>
       <r>   -5.8789    1.0000 </r>
       <r>   -5.7477    1.0000 </r>
       <r>   -5.6610    1.0000 </r>
       <r>   -5.5979    1.0000 </r>
       <r>   -5.5290    1.0000 </r>
       <r>   -5.3888    1.0000 </r>
       <r>   -5.3001    1.0000 </r>
       <r>   -5.1706    1.0000 </r>
       <r>   -5.1191    1.0000 </r>
       <r>   -4.9377    1.0000 </r>
       <r>   -4.8405    1.0000 </r>
       <r>   -4.7203    1.0000 </r>
       <r>   -4.6203    1.0000 </r>
       <r>   -4.4517    1.0000 </r>
       <r>   -4.3840    1.0000 </r>
       <r>   -4.2184    1.0000 </r>
       <r>   -4.0847    1.0000 </r>
       <r>   -3.9685    1.0000 </r>
       <r>   -3.7340    0.9995 </r>
       <r>   -3.6543    0.9969 </r>
       <r>   -3.4706    0.9242 </r>
       <r>   -3.3356    0.6843 </r>
       <r>   -2.9165    0.0065 </r>
       <r>   -2.8501    0.0016 </r>
       <r>   -2.7755    0.0002 </r>
       <r>   -2.6583    0.0000 </r>
       <r>   -2.5948    0.0000 </r>
       <r>   -2.4219    0.0000 </r>
       <r>   -2.3166    0.0000 </r>
       <r>   -2.1854    0.0000 </r>
       <r>   -1.9000    0.0000 </r>
       <r>   -1.8743    0.0000 </r>
       <r>   -1.7710    0.0000 </r>
       <r>   -1.5286    0.0000 </r>
       <r>   -1.4574    0.0000 </r>
       <r>   -1.3788    0.0000 </r>
       <r>   -1.2528    0.0000 </r>
       <r>   -1.1420    0.0000 </r>
       <r>   -1.0296    0.0000 </r>
       <r>   -0.9992    0.0000 </r>
       <r>   -0.9373    0.0000 </r>
       <r>   -0.8498    0.0000 </r>
       <r>   -0.8085    0.0000 </r>
       <r>   -0.7303    0.0000 </r>
       <r>   -0.6983    0.0000 </r>
       <r>   -0.5925    0.0000 </r>
       <r>   -0.5206    0.0000 </r>
       <r>   -0.4596    0.0000 </r>
       <r>   -0.3589    0.0000 </r>
       <r>   -0.1396    0.0000 </r>
       <r>    0.0017    0.0000 </r>
       <r>    0.1331    0.0000 </r>
       <r>    0.3947    0.0000 </r>
       <r>    0.6929    0.0000 </r>
       <r>    0.8795    0.0000 </r>
       <r>    0.9427    0.0000 </r>
       <r>    1.0132    0.0000 </r>
       <r>    1.2186    0.0000 </r>
       <r>    1.4205    0.0000 </r>
       <r>    2.1311    0.0000 </r>
       <r>    2.2899    0.0000 </r>
       <r>    2.3846    0.0000 </r>
      </set>
      <set comment="kpoint 34">
       <r>  -17.4748    1.0000 </r>
       <r>  -17.3243    1.0000 </r>
       <r>  -16.7900    1.0000 </r>
       <r>  -16.6631    1.0000 </r>
       <r>  -16.6200    1.0000 </r>
       <r>  -16.4176    1.0000 </r>
       <r>  -16.3021    1.0000 </r>
       <r>  -16.1865    1.0000 </r>
       <r>  -16.0724    1.0000 </r>
       <r>  -16.0166    1.0000 </r>
       <r>  -15.9177    1.0000 </r>
       <r>  -15.8626    1.0000 </r>
       <r>  -15.7937    1.0000 </r>
       <r>  -15.7358    1.0000 </r>
       <r>  -15.6381    1.0000 </r>
       <r>  -15.4868    1.0000 </r>
       <r>  -15.4362    1.0000 </r>
       <r>  -15.3085    1.0000 </r>
       <r>   -9.7727    1.0000 </r>
       <r>   -9.3150    1.0000 </r>
       <r>   -9.2478    1.0000 </r>
       <r>   -9.0210    1.0000 </r>
       <r>   -8.9796    1.0000 </r>
       <r>   -8.8329    1.0000 </r>
       <r>   -8.5447    1.0000 </r>
       <r>   -8.4848    1.0000 </r>
       <r>   -8.4206    1.0000 </r>
       <r>   -8.3347    1.0000 </r>
       <r>   -8.2389    1.0000 </r>
       <r>   -8.1261    1.0000 </r>
       <r>   -8.1087    1.0000 </r>
       <r>   -8.0867    1.0000 </r>
       <r>   -7.9443    1.0000 </r>
       <r>   -7.9208    1.0000 </r>
       <r>   -7.7501    1.0000 </r>
       <r>   -7.6281    1.0000 </r>
       <r>   -7.6154    1.0000 </r>
       <r>   -7.4873    1.0000 </r>
       <r>   -7.3425    1.0000 </r>
       <r>   -7.2338    1.0000 </r>
       <r>   -7.1612    1.0000 </r>
       <r>   -7.0811    1.0000 </r>
       <r>   -6.9748    1.0000 </r>
       <r>   -6.9304    1.0000 </r>
       <r>   -6.8471    1.0000 </r>
       <r>   -6.7437    1.0000 </r>
       <r>   -6.7392    1.0000 </r>
       <r>   -6.6043    1.0000 </r>
       <r>   -6.5732    1.0000 </r>
       <r>   -6.4796    1.0000 </r>
       <r>   -6.4600    1.0000 </r>
       <r>   -6.3559    1.0000 </r>
       <r>   -6.2734    1.0000 </r>
       <r>   -6.1861    1.0000 </r>
       <r>   -6.1212    1.0000 </r>
       <r>   -6.0958    1.0000 </r>
       <r>   -6.0374    1.0000 </r>
       <r>   -5.9649    1.0000 </r>
       <r>   -5.8792    1.0000 </r>
       <r>   -5.7891    1.0000 </r>
       <r>   -5.6792    1.0000 </r>
       <r>   -5.6064    1.0000 </r>
       <r>   -5.5501    1.0000 </r>
       <r>   -5.4145    1.0000 </r>
       <r>   -5.3235    1.0000 </r>
       <r>   -5.1095    1.0000 </r>
       <r>   -5.0328    1.0000 </r>
       <r>   -4.9243    1.0000 </r>
       <r>   -4.8633    1.0000 </r>
       <r>   -4.7044    1.0000 </r>
       <r>   -4.6362    1.0000 </r>
       <r>   -4.4379    1.0000 </r>
       <r>   -4.3071    1.0000 </r>
       <r>   -4.1807    1.0000 </r>
       <r>   -4.1314    1.0000 </r>
       <r>   -3.9774    1.0000 </r>
       <r>   -3.7649    0.9998 </r>
       <r>   -3.6928    0.9987 </r>
       <r>   -3.4829    0.9359 </r>
       <r>   -3.3227    0.6513 </r>
       <r>   -2.9196    0.0069 </r>
       <r>   -2.8328    0.0011 </r>
       <r>   -2.7707    0.0002 </r>
       <r>   -2.6561    0.0000 </r>
       <r>   -2.5873    0.0000 </r>
       <r>   -2.4492    0.0000 </r>
       <r>   -2.3087    0.0000 </r>
       <r>   -2.1849    0.0000 </r>
       <r>   -1.8998    0.0000 </r>
       <r>   -1.8366    0.0000 </r>
       <r>   -1.7724    0.0000 </r>
       <r>   -1.5373    0.0000 </r>
       <r>   -1.4604    0.0000 </r>
       <r>   -1.3716    0.0000 </r>
       <r>   -1.2695    0.0000 </r>
       <r>   -1.1317    0.0000 </r>
       <r>   -1.0179    0.0000 </r>
       <r>   -0.9985    0.0000 </r>
       <r>   -0.9215    0.0000 </r>
       <r>   -0.8839    0.0000 </r>
       <r>   -0.8004    0.0000 </r>
       <r>   -0.7320    0.0000 </r>
       <r>   -0.7045    0.0000 </r>
       <r>   -0.6157    0.0000 </r>
       <r>   -0.5342    0.0000 </r>
       <r>   -0.4099    0.0000 </r>
       <r>   -0.4001    0.0000 </r>
       <r>   -0.1409    0.0000 </r>
       <r>   -0.0244    0.0000 </r>
       <r>    0.1728    0.0000 </r>
       <r>    0.3743    0.0000 </r>
       <r>    0.6778    0.0000 </r>
       <r>    0.9278    0.0000 </r>
       <r>    0.9562    0.0000 </r>
       <r>    1.0249    0.0000 </r>
       <r>    1.2040    0.0000 </r>
       <r>    1.4169    0.0000 </r>
       <r>    2.2082    0.0000 </r>
       <r>    2.2418    0.0000 </r>
       <r>    2.3709    0.0000 </r>
      </set>
     </set>
    </set>
   </array>
  </eigenvalues>
  <separator name="orbital magnetization" >
   <v name="MAGDIPOLOUT">      0.00000000      0.00000000      0.00000000</v>
  </separator>
 </calculation>
 <structure name="finalpos" >
  <crystal>
   <varray name="basis" >
    <v>       8.35669154       4.84687047       0.00000000 </v>
    <v>      -8.33834147       4.81486018       0.00000000 </v>
    <v>       0.00000000       0.00000000      30.00000000 </v>
   </varray>
   <i name="volume">   2419.53486912 </i>
   <varray name="rec_basis" >
    <v>       0.05969982       0.10338774       0.00000000 </v>
    <v>      -0.06009672       0.10361526       0.00000000 </v>
    <v>       0.00000000       0.00000000       0.03333333 </v>
   </varray>
  </crystal>
  <varray name="positions" >
   <v>       0.70135176       0.01681387      -0.00167559 </v>
   <v>       1.01368556       0.32164187      -0.00028239 </v>
   <v>       0.66252916       0.34250499       0.00248939 </v>
   <v>      -0.00073150       0.68734439      -0.00036184 </v>
   <v>       0.30643479       0.31479282       0.00075662 </v>
   <v>       0.00799582      -0.00593869       0.00028956 </v>
   <v>       0.30908029       0.01057203      -0.00089695 </v>
   <v>       0.29712103       0.63002079       0.00076466 </v>
   <v>       0.70679245       0.68841649      -0.00045041 </v>
   <v>       0.10492181       0.21710143       0.94586333 </v>
   <v>       0.21954084       0.11117737       0.05697692 </v>
   <v>       0.09735233       0.54140706       0.94832716 </v>
   <v>       0.20816417       0.43229728       0.05601419 </v>
   <v>       0.11157071       0.88989604       0.94304242 </v>
   <v>       0.22490116       0.78080553       0.05089430 </v>
   <v>       0.44521426       0.22581716       0.94886146 </v>
   <v>       0.55685890       0.11151277       0.04463035 </v>
   <v>       0.45153195       0.55805572       0.95464208 </v>
   <v>       0.55617093       0.45089478       0.04838966 </v>
   <v>       0.44388784       0.88749176       0.95864922 </v>
   <v>       0.55634807       0.77848950       0.04473100 </v>
   <v>       0.78154546       0.22428856       0.95141693 </v>
   <v>       0.88972937       0.11426710       0.05197653 </v>
   <v>       0.77778577       0.55094550       0.94730535 </v>
   <v>       0.88951634       0.44134055       0.04473187 </v>
   <v>       0.78341103       0.89244954       0.94596291 </v>
   <v>       0.89550416       0.78380824       0.05695117 </v>
  </varray>
 </structure>
</modeling>
