unknown system                          
           1
     8.861757    5.106542    0.000000
    -8.860415    5.104234    0.000000
     0.000000    0.000000   30.000000
   V    Mo   W    S 
   3   3   3  18
Direct configuration=     1
   0.66666669  0.00000000  0.00000000
   1.00000000  0.33333334  0.00000000
   0.66666669  0.33333334  0.00000000
   0.00000000  0.66666669  0.00000000
   0.33333334  0.33333334  0.00000000
   0.00000000  0.00000000  0.00000000
   0.33333334  0.00000000  0.00000000
   0.33333334  0.66666669  0.00000000
   0.66666669  0.66666669  0.00000000
   0.11068511  0.22244981  0.95539999
   0.22244981  0.11068511  0.04460000
   0.11068511  0.55578315  0.95539999
   0.22244981  0.44401845  0.04460000
   0.11068511  0.88911647  0.95539999
   0.22244981  0.77735180  0.04460000
   0.44401845  0.22244981  0.95539999
   0.55578315  0.11068511  0.04460000
   0.44401845  0.55578315  0.95539999
   0.55578315  0.44401845  0.04460000
   0.44401845  0.88911647  0.95539999
   0.55578315  0.77735180  0.04460000
   0.77735180  0.22244981  0.95539999
   0.88911647  0.11068511  0.04460000
   0.77735180  0.55578315  0.95539999
   0.88911647  0.44401845  0.04460000
   0.77735180  0.88911647  0.95539999
   0.88911647  0.77735180  0.04460000
unknown system                          
           1
     8.671504    4.999509    0.000000
    -8.670194    4.997254    0.000000
     0.000000    0.000000   30.000000
   V    Mo   W    S 
   3   3   3  18
Direct configuration=     2
   0.66827044  0.00085411 -0.00002015
   1.00021900  0.33286606  0.00001305
   0.66718718  0.33403453  0.00001114
  -0.00007938  0.66779188 -0.00006025
   0.33185881  0.33191556  0.00009800
   0.00127740  0.00014398 -0.00014858
   0.33089449  0.00051193 -0.00016745
   0.33156116  0.66494572  0.00015441
   0.66827728  0.66659742  0.00016921
   0.10852177  0.22442649  0.95200957
   0.22268131  0.11076865  0.04930987
   0.10974707  0.55149417  0.95193052
   0.21824162  0.44320354  0.04811308
   0.11204840  0.88932096  0.95062896
   0.22311432  0.77807715  0.04923092
   0.44836499  0.22323780  0.95195905
   0.55905006  0.11256074  0.04682190
   0.44486360  0.55628676  0.95082918
   0.55832383  0.44300860  0.04800199
   0.44802177  0.89060566  0.95197988
   0.55715534  0.78123564  0.04809065
   0.77752512  0.22224040  0.95415184
   0.88660616  0.11323594  0.04691914
   0.77512117  0.55141931  0.95189653
   0.88678739  0.43989298  0.04683046
   0.77494169  0.89036433  0.95202672
   0.88763248  0.77717413  0.04922028
unknown system                          
           1
     8.487620    4.899958    0.000000
    -8.486370    4.897805    0.000000
     0.000000    0.000000   30.000000
   V    Mo   W    S 
   3   3   3  18
Direct configuration=     3
   0.66862392  0.00093492 -0.00001266
   1.00046605  0.33285672  0.00002193
   0.66730520  0.33433882  0.00006497
   0.00015944  0.66869700 -0.00002918
   0.33139029  0.33147867  0.00006170
   0.00206153 -0.00008516 -0.00017197
   0.32967681  0.00041807 -0.00019337
   0.33113577  0.66441514  0.00011583
   0.66872277  0.66659884  0.00018731
   0.10843742  0.22446849  0.95196383
   0.22281349  0.11064963  0.04943003
   0.10988362  0.55149526  0.95195470
   0.21821771  0.44333662  0.04816652
   0.11228137  0.88946762  0.95045426
   0.22337976  0.77820227  0.04922040
   0.44834597  0.22305849  0.95198124
   0.55887974  0.11251585  0.04667748
   0.44497477  0.55653803  0.95091832
   0.55848037  0.44320139  0.04799712
   0.44783351  0.89055124  0.95213027
   0.55710050  0.78104957  0.04801293
   0.77756525  0.22224459  0.95423166
   0.88658928  0.11329709  0.04685919
   0.77495514  0.55144105  0.95187711
   0.88671055  0.43980082  0.04673868
   0.77482113  0.89017662  0.95204512
   0.88740308  0.77706679  0.04929648
unknown system                          
           1
     8.285809    4.781326    0.000000
    -8.280802    4.772665    0.000000
     0.000000    0.000000   30.000000
   V    Mo   W    S 
   3   3   3  18
Direct configuration=     4
   0.66943891  0.00049662  0.00003706
   1.00211131  0.33327684  0.00006406
   0.66740550  0.33572861  0.00026690
   0.00145157  0.67299868  0.00007994
   0.32973372  0.33003763 -0.00008061
   0.00541122 -0.00159397 -0.00018632
   0.32448554 -0.00046809 -0.00019664
   0.32992031  0.66254103 -0.00008491
   0.67008753  0.66664602  0.00015987
   0.10759865  0.22491210  0.95033897
   0.22283793  0.11062964  0.05154736
   0.10899694  0.55029887  0.95058419
   0.21686036  0.44250140  0.04989421
   0.11224980  0.88954969  0.94803933
   0.22373813  0.77846280  0.05080750
   0.44949201  0.22356893  0.95058449
   0.55952695  0.11296567  0.04742563
   0.44517072  0.55675470  0.94966137
   0.55891786  0.44266399  0.04944274
   0.44853333  0.89114344  0.95126673
   0.55759253  0.78182155  0.04921106
   0.77774686  0.22232198  0.95328987
   0.88629039  0.11383287  0.04793121
   0.77447673  0.55036927  0.95032017
   0.88616664  0.43882303  0.04768639
   0.77451720  0.89065744  0.95067159
   0.88745581  0.77727371  0.05123773
unknown system                          
           1
     8.295753    4.783725    0.000000
    -8.289540    4.772981    0.000000
     0.000000    0.000000   30.000000
   V    Mo   W    S 
   3   3   3  18
Direct configuration=     5
   0.67091839 -0.00052241  0.00016545
   1.00550310  0.33413670  0.00015430
   0.66752153  0.33816067  0.00054422
   0.00400178  0.68201297  0.00015300
   0.32661739  0.32776562 -0.00027387
   0.01152900 -0.00520557 -0.00007805
   0.31468503 -0.00227714 -0.00010776
   0.32811354  0.65870176 -0.00038983
   0.67263338  0.66707916 -0.00000522
   0.10635953  0.22450661  0.94816697
   0.22252310  0.11095848  0.05449904
   0.10718330  0.54906378  0.94893547
   0.21519696  0.44115251  0.05226165
   0.11172797  0.88939558  0.94425158
   0.22390059  0.77895078  0.05277750
   0.45014983  0.22367876  0.94884439
   0.55907232  0.11307724  0.04821551
   0.44547355  0.55631378  0.94813011
   0.55886593  0.44200980  0.05131838
   0.44865427  0.89194772  0.95039583
   0.55797308  0.78234905  0.05077534
   0.77820550  0.22263059  0.95184138
   0.88686297  0.11406939  0.04933871
   0.77481993  0.54957523  0.94834965
   0.88636575  0.43908253  0.04886878
   0.77533243  0.89143814  0.94894662
   0.88802432  0.77816275  0.05392075
unknown system                          
           1
     8.284560    4.776194    0.000000
    -8.279439    4.767345    0.000000
     0.000000    0.000000   30.000000
   V    Mo   W    S 
   3   3   3  18
Direct configuration=     6
   0.67177149 -0.00041788  0.00016627
   1.00627638  0.33398771  0.00010663
   0.66765583  0.33855797  0.00056876
   0.00388201  0.68310416  0.00004387
   0.32591870  0.32789958 -0.00024276
   0.01143623 -0.00571037 -0.00006085
   0.31379328 -0.00229236 -0.00015544
   0.32808653  0.65727756 -0.00040574
   0.67335885  0.66755541  0.00002295
   0.10603228  0.22348523  0.94812065
   0.22239973  0.11124960  0.05481227
   0.10671976  0.54943530  0.94904927
   0.21529063  0.44101129  0.05245758
   0.11158580  0.88932120  0.94374737
   0.22384312  0.77913335  0.05275263
   0.44939937  0.22309091  0.94888610
   0.55764241  0.11245335  0.04797723
   0.44559609  0.55581347  0.94808792
   0.55853606  0.44223779  0.05129802
   0.44775867  0.89197059  0.95070190
   0.55771915  0.78175350  0.05075551
   0.77839837  0.22278994  0.95184732
   0.88773564  0.11360894  0.04933359
   0.77545754  0.55008649  0.94830229
   0.88729190  0.44060835  0.04872890
   0.77633197  0.89156732  0.94895699
   0.88829669  0.77863604  0.05414067
unknown system                          
           1
     8.294100    4.780692    0.000000
    -8.288795    4.771526    0.000000
     0.000000    0.000000   30.000000
   V    Mo   W    S 
   3   3   3  18
Direct configuration=     7
   0.67327501 -0.00005181  0.00017592
   1.00751181  0.33369184  0.00005579
   0.66791948  0.33921624  0.00066834
   0.00369180  0.68535304  0.00000118
   0.32461497  0.32784088 -0.00018531
   0.01216965 -0.00673777 -0.00003233
   0.31133626 -0.00220715 -0.00015831
   0.32794054  0.65482908 -0.00046316
   0.67470918  0.66826378  0.00008565
   0.10565333  0.22265398  0.94792209
   0.22225899  0.11148667  0.05517365
   0.10622846  0.54962722  0.94912524
   0.21516082  0.44070317  0.05286165
   0.11143332  0.88941799  0.94311519
   0.22377961  0.77918205  0.05268737
   0.44877864  0.22278706  0.94884081
   0.55644766  0.11191313  0.04770679
   0.44583866  0.55535600  0.94794643
   0.55825764  0.44244916  0.05132554
   0.44695558  0.89186043  0.95107355
   0.55752303  0.78122909  0.05080222
   0.77861306  0.22293115  0.95182944
   0.88846575  0.11329051  0.04944931
   0.77590108  0.55047923  0.94811434
   0.88816037  0.44196601  0.04855393
   0.77709714  0.89166511  0.94881268
   0.88849261  0.77901834  0.05451189
unknown system                          
           1
     8.299118    4.781520    0.000000
    -8.293884    4.772481    0.000000
     0.000000    0.000000   30.000000
   V    Mo   W    S 
   3   3   3  18
Direct configuration=     8
   0.67364810  0.00018840  0.00017082
   1.00760296  0.33354036  0.00004605
   0.66800206  0.33923689  0.00068381
   0.00334693  0.68520641 -0.00002108
   0.32446591  0.32797102 -0.00019091
   0.01189576 -0.00669640 -0.00003206
   0.31148776 -0.00194350 -0.00018789
   0.32804392  0.65437141 -0.00047600
   0.67488684  0.66841623  0.00009470
   0.10563857  0.22259588  0.94795999
   0.22222227  0.11152900  0.05513756
   0.10624188  0.54965754  0.94921936
   0.21514426  0.44068543  0.05286167
   0.11142177  0.88943677  0.94317473
   0.22378213  0.77914972  0.05256630
   0.44870262  0.22279251  0.94890359
   0.55637292  0.11185427  0.04762200
   0.44590997  0.55530584  0.94798161
   0.55824899  0.44250617  0.05125367
   0.44686284  0.89176102  0.95120555
   0.55749569  0.78119137  0.05074799
   0.77863124  0.22292742  0.95188943
   0.88847763  0.11329001  0.04943692
   0.77589264  0.55051998  0.94815417
   0.88824425  0.44205902  0.04846661
   0.77708128  0.89161537  0.94883966
   0.88846326  0.77904632  0.05449162
unknown system                          
           1
     8.286540    4.779380    0.000000
    -8.280507    4.768946    0.000000
     0.000000    0.000000   30.000000
   V    Mo   W    S 
   3   3   3  18
Direct configuration=     9
   0.67507976  0.00084114  0.00016640
   1.00835013  0.33313555  0.00001189
   0.66829777  0.33957731  0.00076774
   0.00259220  0.68610167 -0.00006024
   0.32352282  0.32810994 -0.00017146
   0.01185309 -0.00716218 -0.00001268
   0.31050448 -0.00136460 -0.00022815
   0.32818765  0.65233817 -0.00051764
   0.67585193  0.66903870  0.00014838
   0.10542999  0.22219671  0.94788232
   0.22208186  0.11168499  0.05527109
   0.10603284  0.54972353  0.94938907
   0.21499610  0.44047193  0.05308657
   0.11130698  0.88951162  0.94295551
   0.22377075  0.77911367  0.05232523
   0.44837350  0.22273680  0.94894480
   0.55582112  0.11155163  0.04738366
   0.44617253  0.55502376  0.94792942
   0.55813187  0.44267110  0.05116789
   0.44640002  0.89153544  0.95159019
   0.55739700  0.78096330  0.05069970
   0.77877473  0.22299023  0.95194853
   0.88875135  0.11320567  0.04951808
   0.77601380  0.55069703  0.94809381
   0.88871248  0.44268497  0.04826906
   0.77731474  0.89157309  0.94877582
   0.88849297  0.77926324  0.05466489
unknown system                          
           1
     8.283950    4.780371    0.000000
    -8.277430    4.769086    0.000000
     0.000000    0.000000   30.000000
   V    Mo   W    S 
   3   3   3  18
Direct configuration=    10
   0.67178534 -0.00086570  0.00019253
   1.00691616  0.33406347  0.00007941
   0.66759377  0.33892701  0.00057916
   0.00472419  0.68476840  0.00003027
   0.32550687  0.32787318 -0.00019518
   0.01230952 -0.00632734 -0.00005493
   0.31207092 -0.00292894 -0.00010549
   0.32762641  0.65660531 -0.00044513
   0.67380397  0.66766897  0.00002060
   0.10580619  0.22286019  0.94805561
   0.22241082  0.11138794  0.05503938
   0.10632355  0.54960360  0.94899177
   0.21534243  0.44096326  0.05262815
   0.11156157  0.88937113  0.94326611
   0.22377334  0.77923326  0.05294720
   0.44890197  0.22269416  0.94887285
   0.55667701  0.11209154  0.04784444
   0.44558588  0.55561819  0.94806140
   0.55833932  0.44237431  0.05138895
   0.44726462  0.89209321  0.95074169
   0.55757124  0.78129009  0.05081616
   0.77847142  0.22288009  0.95185607
   0.88841804  0.11326803  0.04927516
   0.77592976  0.55041729  0.94821846
   0.88790410  0.44172388  0.04864057
   0.77709094  0.89172664  0.94893584
   0.88850511  0.77883332  0.05431887
unknown system                          
           1
     8.278301    4.778048    0.000000
    -8.271791    4.766778    0.000000
     0.000000    0.000000   30.000000
   V    Mo   W    S 
   3   3   3  18
Direct configuration=    11
   0.66931745 -0.00243256  0.00023303
   1.00625533  0.33475806  0.00012437
   0.66698045  0.33869792  0.00046267
   0.00689811  0.68460954  0.00003717
   0.32678022  0.32769174 -0.00020160
   0.01306144 -0.00593764 -0.00008042
   0.31238736 -0.00460802 -0.00005541
   0.32679677  0.65960872 -0.00042301
   0.67259262  0.66668602 -0.00007973
   0.10600258  0.22303506  0.94816649
   0.22266590  0.11134089  0.05502001
   0.10637475  0.54962384  0.94868465
   0.21559598  0.44135648  0.05238513
   0.11182401  0.88933373  0.94324055
   0.22379421  0.77934315  0.05352861
   0.44896316  0.22242629  0.94887201
   0.55674645  0.11224070  0.04804387
   0.44517549  0.55597608  0.94817187
   0.55841544  0.44227462  0.05158269
   0.44758092  0.89246928  0.95021036
   0.55750327  0.78121155  0.05089491
   0.77824908  0.22276998  0.95185968
   0.88849985  0.11308757  0.04901224
   0.77617850  0.55044434  0.94830040
   0.88767340  0.44166070  0.04878752
   0.77728313  0.89190660  0.94907473
   0.88861856  0.77863981  0.05414710
unknown system                          
           1
     8.284696    4.780883    0.000000
    -8.278202    4.769642    0.000000
     0.000000    0.000000   30.000000
   V    Mo   W    S 
   3   3   3  18
Direct configuration=    12
   0.66911874 -0.00288122  0.00028040
   1.00658738  0.33486256  0.00014417
   0.66680949  0.33909058  0.00049923
   0.00779416  0.68534963 -0.00000340
   0.32664868  0.32729663 -0.00017336
   0.01364877 -0.00605260 -0.00007279
   0.31151171 -0.00545873 -0.00001960
   0.32601275  0.66018089 -0.00040915
   0.67297027  0.66655996 -0.00010254
   0.10602293  0.22282657  0.94820065
   0.22279170  0.11141802  0.05507611
   0.10630786  0.54979563  0.94864733
   0.21568919  0.44154865  0.05236004
   0.11189953  0.88939175  0.94301762
   0.22377541  0.77936079  0.05368317
   0.44866753  0.22214280  0.94894937
   0.55625437  0.11201532  0.04787460
   0.44509513  0.55604173  0.94829393
   0.55838763  0.44243169  0.05159930
   0.44726414  0.89241669  0.95024105
   0.55717549  0.78077372  0.05083861
   0.77817163  0.22268419  0.95198200
   0.88875211  0.11282724  0.04885384
   0.77652662  0.55072902  0.94833826
   0.88800104  0.44226274  0.04862401
   0.77754032  0.89190544  0.94915378
   0.88878987  0.77869475  0.05412329
unknown system                          
           1
     8.287463    4.782188    0.000000
    -8.280808    4.770670    0.000000
     0.000000    0.000000   30.000000
   V    Mo   W    S 
   3   3   3  18
Direct configuration=    13
   0.67014661 -0.00254764  0.00028787
   1.00718606  0.33455101  0.00011915
   0.66692524  0.33947011  0.00055994
   0.00735058  0.68586855 -0.00006464
   0.32595851  0.32715265 -0.00017057
   0.01359856 -0.00623454 -0.00008784
   0.31089097 -0.00516640 -0.00006630
   0.32582728  0.65910768 -0.00044050
   0.67385548  0.66703044 -0.00007968
   0.10592771  0.22260264  0.94812657
   0.22273003  0.11152297  0.05519681
   0.10615433  0.54981105  0.94872036
   0.21559566  0.44142239  0.05251947
   0.11182817  0.88947149  0.94285611
   0.22374242  0.77932196  0.05358850
   0.44845516  0.22208686  0.94897684
   0.55589366  0.11179763  0.04770297
   0.44525155  0.55590903  0.94832559
   0.55828518  0.44256163  0.05156826
   0.44697213  0.89227806  0.95048326
   0.55704733  0.78054721  0.05079821
   0.77823120  0.22268545  0.95203411
   0.88891001  0.11276143  0.04893487
   0.77662535  0.55083647  0.94826206
   0.88833293  0.44266335  0.04849220
   0.77764254  0.89185532  0.94909212
   0.88884979  0.77884764  0.05426418
unknown system                          
           1
     8.281550    4.779055    0.000000
    -8.274799    4.767368    0.000000
     0.000000    0.000000   30.000000
   V    Mo   W    S 
   3   3   3  18
Direct configuration=    14
   0.67082081 -0.00235189  0.00030343
   1.00757984  0.33433232  0.00010694
   0.66697310  0.33979695  0.00060595
   0.00719480  0.68624717 -0.00009223
   0.32550281  0.32698791 -0.00015230
   0.01360285 -0.00634584 -0.00008854
   0.31040215 -0.00507836 -0.00007275
   0.32546736  0.65846509 -0.00045298
   0.67459510  0.66732391 -0.00005758
   0.10587817  0.22246152  0.94807903
   0.22269147  0.11156149  0.05525075
   0.10602609  0.54979735  0.94876226
   0.21554140  0.44136020  0.05260049
   0.11179226  0.88954514  0.94274790
   0.22370284  0.77931481  0.05352785
   0.44831638  0.22204275  0.94901181
   0.55563409  0.11167366  0.04755876
   0.44536031  0.55586394  0.94838783
   0.55822898  0.44266714  0.05153457
   0.44677225  0.89219645  0.95064235
   0.55695223  0.78034815  0.05074574
   0.77825875  0.22269178  0.95209478
   0.88904455  0.11272431  0.04897665
   0.77669020  0.55089758  0.94822259
   0.88853677  0.44293212  0.04837200
   0.77772490  0.89181036  0.94905380
   0.88892399  0.77894845  0.05433078
unknown system                          
           1
     8.270173    4.771242    0.000000
    -8.264031    4.760616    0.000000
     0.000000    0.000000   30.000000
   V    Mo   W    S 
   3   3   3  18
Direct configuration=    15
   0.67012798 -0.00247316  0.00028774
   1.00726729  0.33465773  0.00011669
   0.66688644  0.33964475  0.00057044
   0.00729784  0.68602749 -0.00004978
   0.32607612  0.32722782 -0.00015861
   0.01376022 -0.00632703 -0.00006923
   0.31071782 -0.00514274 -0.00004669
   0.32593955  0.65893097 -0.00042687
   0.67378426  0.66677001 -0.00007117
   0.10592324  0.22253377  0.94810725
   0.22274616  0.11152903  0.05520071
   0.10619573  0.54988941  0.94873317
   0.21565219  0.44145741  0.05254547
   0.11182719  0.88948546  0.94280770
   0.22374926  0.77931516  0.05354382
   0.44844871  0.22207236  0.94898882
   0.55580492  0.11183217  0.04767518
   0.44523838  0.55586178  0.94830156
   0.55829486  0.44256191  0.05155969
   0.44683089  0.89219475  0.95050095
   0.55695880  0.78044084  0.05081599
   0.77821156  0.22273877  0.95203620
   0.88897985  0.11271104  0.04895355
   0.77661731  0.55081723  0.94826714
   0.88833468  0.44276882  0.04846152
   0.77769801  0.89182992  0.94907616
   0.88884518  0.77885876  0.05427248
unknown system                          
           1
     8.285100    4.780062    0.000000
    -8.278586    4.768790    0.000000
     0.000000    0.000000   30.000000
   V    Mo   W    S 
   3   3   3  18
Direct configuration=    16
   0.66947521 -0.00259743  0.00025571
   1.00733393  0.33507579  0.00010466
   0.66678099  0.33973133  0.00049453
   0.00720073  0.68625553 -0.00006232
   0.32662049  0.32780513 -0.00019569
   0.01407350 -0.00646091 -0.00009330
   0.31062748 -0.00519453 -0.00007887
   0.32673498  0.65878366 -0.00040854
   0.67280245  0.66609143 -0.00010560
   0.10593287  0.22245615  0.94813633
   0.22281766  0.11160027  0.05528126
   0.10635119  0.55007005  0.94872380
   0.21575521  0.44147008  0.05261567
   0.11183777  0.88942357  0.94276215
   0.22378025  0.77926780  0.05355705
   0.44852092  0.22203987  0.94892804
   0.55576191  0.11194605  0.04779311
   0.44516759  0.55574622  0.94811900
   0.55826684  0.44244727  0.05172807
   0.44669733  0.89208687  0.95040178
   0.55691259  0.78039807  0.05093533
   0.77818388  0.22287067  0.95197493
   0.88908107  0.11263058  0.04893604
   0.77664964  0.55075849  0.94821237
   0.88833225  0.44289010  0.04854692
   0.77778583  0.89178773  0.94913057
   0.88872990  0.77883460  0.05430690
unknown system                          
           1
     8.295396    4.785482    0.000000
    -8.288536    4.773612    0.000000
     0.000000    0.000000   30.000000
   V    Mo   W    S 
   3   3   3  18
Direct configuration=    17
   0.67132127 -0.00214051  0.00030281
   1.00789404  0.33421722  0.00009122
   0.66703064  0.34002920  0.00062211
   0.00694256  0.68655585 -0.00011822
   0.32518810  0.32698523 -0.00015654
   0.01358966 -0.00647677 -0.00010259
   0.31003189 -0.00492342 -0.00009795
   0.32538477  0.65779310 -0.00046395
   0.67503160  0.66749844 -0.00004785
   0.10583695  0.22234810  0.94805228
   0.22265021  0.11159776  0.05530433
   0.10595821  0.54980475  0.94881025
   0.21550066  0.44128975  0.05267937
   0.11175572  0.88958540  0.94269137
   0.22368362  0.77929834  0.05345338
   0.44824093  0.22203276  0.94902645
   0.55546025  0.11161072  0.04747917
   0.44545805  0.55580087  0.94840081
   0.55817658  0.44272330  0.05153153
   0.44660660  0.89210574  0.95076521
   0.55689853  0.78022084  0.05072203
   0.77829504  0.22273844  0.95211999
   0.88915519  0.11271537  0.04902400
   0.77671504  0.55091511  0.94818284
   0.88867739  0.44311086  0.04830431
   0.77778449  0.89175554  0.94903019
   0.88894645  0.77902246  0.05439337
unknown system                          
           1
     8.295874    4.785636    0.000000
    -8.289092    4.773902    0.000000
     0.000000    0.000000   30.000000
   V    Mo   W    S 
   3   3   3  18
Direct configuration=    18
   0.67338981 -0.00146649  0.00034334
   1.00864897  0.33337798  0.00006903
   0.66725783  0.34055673  0.00075127
   0.00630045  0.68700446 -0.00017342
   0.32375318  0.32638466 -0.00011140
   0.01308447 -0.00663158 -0.00009677
   0.30927614 -0.00438700 -0.00012212
   0.32424821  0.65614145 -0.00051505
   0.67733756  0.66877599  0.00002796
   0.10570064  0.22213424  0.94791822
   0.22244626  0.11162978  0.05537903
   0.10554337  0.54958327  0.94890950
   0.21524654  0.44104079  0.05284538
   0.11162732  0.88974288  0.94254856
   0.22359489  0.77930142  0.05328030
   0.44798555  0.22206519  0.94909277
   0.55508016  0.11132310  0.04716423
   0.44583145  0.55577476  0.94860773
   0.55805846  0.44298689  0.05137140
   0.44636816  0.89201281  0.95117402
   0.55685910  0.77997402  0.05054052
   0.77842611  0.22271566  0.95223227
   0.88933814  0.11279797  0.04918590
   0.77675992  0.55101096  0.94808896
   0.88906070  0.44342471  0.04805523
   0.77783925  0.89167058  0.94888341
   0.88915183  0.77926921  0.05454965
unknown system                          
           1
     8.292994    4.783391    0.000000
    -8.286176    4.771595    0.000000
     0.000000    0.000000   30.000000
   V    Mo   W    S 
   3   3   3  18
Direct configuration=    19
   0.67287918 -0.00158716  0.00032900
   1.00850584  0.33359184  0.00007316
   0.66720083  0.34046358  0.00071922
   0.00632564  0.68691571 -0.00015579
   0.32417119  0.32669762 -0.00011184
   0.01321519 -0.00661447 -0.00008587
   0.30946390 -0.00443507 -0.00011092
   0.32472447  0.65635522 -0.00049725
   0.67662913  0.66838220  0.00001887
   0.10571751  0.22215823  0.94793753
   0.22250110  0.11164715  0.05537887
   0.10565054  0.54965969  0.94888919
   0.21530528  0.44106877  0.05284123
   0.11164624  0.88969654  0.94254541
   0.22361382  0.77928696  0.05330225
   0.44805127  0.22206105  0.94905496
   0.55515310  0.11139768  0.04724441
   0.44575189  0.55573321  0.94849881
   0.55808041  0.44290552  0.05144042
   0.44639635  0.89200604  0.95108108
   0.55688222  0.78004041  0.05060659
   0.77839449  0.22273530  0.95219986
   0.88930122  0.11276211  0.04914971
   0.77675384  0.55098206  0.94808332
   0.88898952  0.44339468  0.04811794
   0.77783265  0.89168626  0.94891973
   0.88907763  0.77922334  0.05453000
unknown system                          
           1
     8.294016    4.784057    0.000000
    -8.287137    4.772156    0.000000
     0.000000    0.000000   30.000000
   V    Mo   W    S 
   3   3   3  18
Direct configuration=    20
   0.67411783 -0.00111000  0.00032670
   1.00906652  0.33316111  0.00004282
   0.66732351  0.34078642  0.00077312
   0.00579281  0.68727902 -0.00020026
   0.32335212  0.32658995 -0.00011062
   0.01294870 -0.00678993 -0.00010298
   0.30893705 -0.00396612 -0.00016132
   0.32427275  0.65494710 -0.00054044
   0.67785801  0.66908948  0.00005682
   0.10566802  0.22201927  0.94787581
   0.22237408  0.11167721  0.05541413
   0.10547855  0.54956647  0.94899892
   0.21517642  0.44091316  0.05296478
   0.11157768  0.88980402  0.94252572
   0.22358877  0.77927265  0.05311591
   0.44785823  0.22208775  0.94910430
   0.55491265  0.11121993  0.04705948
   0.44600616  0.55567768  0.94860365
   0.55800204  0.44309103  0.05135002
   0.44617931  0.89185798  0.95138662
   0.55687210  0.77988954  0.05049590
   0.77849031  0.22274145  0.95226713
   0.88939676  0.11281723  0.04926950
   0.77674578  0.55106596  0.94803798
   0.88922503  0.44358370  0.04796622
   0.77783792  0.89157130  0.94885370
   0.88915536  0.77937111  0.05462632
unknown system                          
           1
     8.303191    4.787876    0.000000
    -8.296527    4.776350    0.000000
     0.000000    0.000000   30.000000
   V    Mo   W    S 
   3   3   3  18
Direct configuration=    21
   0.67428378 -0.00107271  0.00033330
   1.00908011  0.33308573  0.00004361
   0.66733575  0.34081714  0.00078537
   0.00579496  0.68727028 -0.00020522
   0.32322036  0.32644551 -0.00011079
   0.01288601 -0.00677950 -0.00010769
   0.30890528 -0.00396139 -0.00016359
   0.32408440  0.65494369 -0.00054483
   0.67811455  0.66922490  0.00005825
   0.10565983  0.22201176  0.94786534
   0.22235731  0.11167173  0.05542084
   0.10543267  0.54953752  0.94899261
   0.21515770  0.44090603  0.05296500
   0.11157046  0.88981255  0.94252036
   0.22358371  0.77927979  0.05312468
   0.44785199  0.22209105  0.94911109
   0.55490230  0.11120437  0.04703897
   0.44602868  0.55569879  0.94864162
   0.55799550  0.44311035  0.05133051
   0.44618595  0.89187577  0.95140429
   0.55686805  0.77987421  0.05047605
   0.77849471  0.22273501  0.95227223
   0.88940728  0.11282992  0.04928421
   0.77675075  0.55106421  0.94803465
   0.88923629  0.44358040  0.04795368
   0.77783909  0.89157237  0.94883668
   0.88918698  0.77938497  0.05463868
unknown system                          
           1
     8.301974    4.786934    0.000000
    -8.295147    4.775127    0.000000
     0.000000    0.000000   30.000000
   V    Mo   W    S 
   3   3   3  18
Direct configuration=    22
   0.67546314 -0.00042632  0.00032414
   1.00969373  0.33272644  0.00002569
   0.66751605  0.34100002  0.00083601
   0.00500582  0.68748431 -0.00021675
   0.32248963  0.32669322 -0.00008482
   0.01246831 -0.00697994 -0.00008026
   0.30863739 -0.00333666 -0.00019017
   0.32402010  0.65324837 -0.00055825
   0.67891824  0.66978972  0.00012851
   0.10553353  0.22189908  0.94776552
   0.22223593  0.11176780  0.05550257
   0.10520071  0.54937921  0.94907854
   0.21491807  0.44063910  0.05315955
   0.11145742  0.88985920  0.94241350
   0.22356004  0.77924035  0.05294082
   0.44772800  0.22217430  0.94908384
   0.55471888  0.11106206  0.04692431
   0.44629074  0.55554931  0.94856756
   0.55793599  0.44322662  0.05129939
   0.44599385  0.89172895  0.95165614
   0.55690708  0.77984086  0.05045553
   0.77866701  0.22278625  0.95229089
   0.88949599  0.11296054  0.04941887
   0.77676593  0.55112907  0.94792946
   0.88949641  0.44372610  0.04783769
   0.77786539  0.89151295  0.94872084
   0.88923107  0.77953353  0.05477076
unknown system                          
           1
     8.298007    4.785098    0.000000
    -8.290971    4.772926    0.000000
     0.000000    0.000000   30.000000
   V    Mo   W    S 
   3   3   3  18
Direct configuration=    23
   0.67638616  0.00000130  0.00032084
   1.00998529  0.33241981  0.00001214
   0.66759310  0.34117922  0.00088338
   0.00457854  0.68760439 -0.00023768
   0.32195796  0.32657903 -0.00008632
   0.01219073 -0.00708938 -0.00008399
   0.30839376 -0.00293396 -0.00022256
   0.32372591  0.65232546 -0.00058409
   0.67976275  0.67027829  0.00015595
   0.10549193  0.22181264  0.94771768
   0.22214368  0.11178345  0.05551423
   0.10508608  0.54930698  0.94913882
   0.21482685  0.44053348  0.05324140
   0.11140325  0.88990582  0.94241775
   0.22356713  0.77923294  0.05281375
   0.44764301  0.22222569  0.94911181
   0.55463339  0.11098400  0.04681525
   0.44645072  0.55551528  0.94863142
   0.55790665  0.44332838  0.05121483
   0.44587109  0.89162467  0.95185415
   0.55690917  0.77979031  0.05037814
   0.77873195  0.22279851  0.95231845
   0.88952143  0.11301231  0.04950998
   0.77673582  0.55115768  0.94791338
   0.88958684  0.44376844  0.04774989
   0.77783782  0.89144254  0.94866626
   0.88929346  0.77962716  0.05483503
unknown system                          
           1
     8.305333    4.788196    0.000000
    -8.298152    4.775775    0.000000
     0.000000    0.000000   30.000000
   V    Mo   W    S 
   3   3   3  18
Direct configuration=    24
   0.67636790 -0.00001496  0.00032725
   1.00996960  0.33239696  0.00000982
   0.66758960  0.34126421  0.00088626
   0.00463339  0.68765284 -0.00025365
   0.32195973  0.32649860 -0.00009309
   0.01225656 -0.00709067 -0.00009832
   0.30830849 -0.00298178 -0.00022906
   0.32361496  0.65239553 -0.00059707
   0.67988453  0.67021925  0.00014427
   0.10551413  0.22182435  0.94774279
   0.22215393  0.11175088  0.05548338
   0.10511759  0.54932305  0.94916347
   0.21484763  0.44057651  0.05321217
   0.11144253  0.88993672  0.94246007
   0.22355903  0.77923260  0.05280501
   0.44763857  0.22221132  0.94915897
   0.55462099  0.11102527  0.04678268
   0.44643025  0.55555773  0.94868982
   0.55793896  0.44332773  0.05117654
   0.44584090  0.89160544  0.95186716