   27   27  100    1
  0.9710400E+02  0.1002848E-08  0.1002848E-08  0.3000000E-08  0.5000000E-15
  1.000000000000000E-004
  CAR 
 unknown system                          
    159     34    120
 
  0.0000000E+00  0.0000000E+00  0.0000000E+00  0.1562500E-01
    1      -17.821027   1.000000
    2      -16.623619   1.000000
    3      -16.593784   1.000000
    4      -16.472813   1.000000
    5      -16.467629   1.000000
    6      -16.456676   1.000000
    7      -16.394334   1.000000
    8      -16.311248   1.000000
    9      -16.106611   1.000000
   10      -16.067187   1.000000
   11      -16.016349   1.000000
   12      -15.975522   1.000000
   13      -15.933028   1.000000
   14      -15.885549   1.000000
   15      -15.601886   1.000000
   16      -15.528499   1.000000
   17      -15.452362   1.000000
   18      -15.423357   1.000000
   19       -9.306091   1.000000
   20       -8.903531   1.000000
   21       -8.827948   1.000000
   22       -8.771805   1.000000
   23       -8.678816   1.000000
   24       -8.623653   1.000000
   25       -8.608748   1.000000
   26       -8.514345   1.000000
   27       -8.497049   1.000000
   28       -8.408752   1.000000
   29       -8.371823   1.000000
   30       -8.272307   1.000000
   31       -8.263734   1.000000
   32       -8.196293   1.000000
   33       -8.161238   1.000000
   34       -8.048221   1.000000
   35       -7.912273   1.000000
   36       -7.874568   1.000000
   37       -7.735356   1.000000
   38       -7.628400   1.000000
   39       -7.523710   1.000000
   40       -7.387982   1.000000
   41       -7.346674   1.000000
   42       -7.236236   1.000000
   43       -7.209690   1.000000
   44       -6.853398   1.000000
   45       -6.811818   1.000000
   46       -6.737748   1.000000
   47       -6.703879   1.000000
   48       -6.663801   1.000000
   49       -6.559050   1.000000
   50       -6.509561   1.000000
   51       -6.461854   1.000000
   52       -6.403909   1.000000
   53       -6.311627   1.000000
   54       -6.276709   1.000000
   55       -6.234030   1.000000
   56       -6.140330   1.000000
   57       -6.075475   1.000000
   58       -5.845583   1.000000
   59       -5.640174   1.000000
   60       -5.585465   1.000000
   61       -5.482656   1.000000
   62       -5.448409   1.000000
   63       -5.355681   1.000000
   64       -5.236362   1.000000
   65       -4.924931   1.000000
   66       -4.897077   1.000000
   67       -4.768295   1.000000
   68       -4.753771   1.000000
   69       -4.659603   1.000000
   70       -4.570310   1.000000
   71       -4.538678   1.000000
   72       -4.478330   1.000000
   73       -4.465245   1.000000
   74       -4.304640   1.000000
   75       -4.136803   1.000000
   76       -4.070604   1.000000
   77       -3.529888   0.999828
   78       -3.490421   0.999516
   79       -3.441870   0.998444
   80       -3.079052   0.652117
   81       -3.020005   0.489435
   82       -2.657638   0.004815
   83       -2.562122   0.000549
   84       -2.524690   0.000209
   85       -2.487108   0.000074
   86       -2.432711   0.000015
   87       -2.262306   0.000000
   88       -2.202914   0.000000
   89       -2.021802   0.000000
   90       -1.990084   0.000000
   91       -1.852755   0.000000
   92       -1.816363   0.000000
   93       -1.709877   0.000000
   94       -1.649971   0.000000
   95       -1.435760   0.000000
   96       -1.260261   0.000000
   97       -1.146057   0.000000
   98       -1.026734   0.000000
   99       -0.907685   0.000000
  100       -0.430350   0.000000
  101       -0.368396   0.000000
  102       -0.322868   0.000000
  103       -0.297710   0.000000
  104       -0.209549   0.000000
  105       -0.119927   0.000000
  106        0.129259   0.000000
  107        0.261393   0.000000
  108        0.329698   0.000000
  109        0.363410   0.000000
  110        0.390811   0.000000
  111        0.437106   0.000000
  112        0.712921   0.000000
  113        0.855708   0.000000
  114        0.881613   0.000000
  115        0.928356   0.000000
  116        0.984786   0.000000
  117        0.992492   0.000000
  118        1.680462   0.000000
  119        1.834245   0.000000
  120        2.189007   0.000000
 
  0.1250000E+00  0.2775558E-16  0.0000000E+00  0.3125000E-01
    1      -17.794823   1.000000
    2      -16.751308   1.000000
    3      -16.606725   1.000000
    4      -16.556016   1.000000
    5      -16.502864   1.000000
    6      -16.339046   1.000000
    7      -16.318854   1.000000
    8      -16.281411   1.000000
    9      -16.155273   1.000000
   10      -16.106403   1.000000
   11      -16.013924   1.000000
   12      -15.920634   1.000000
   13      -15.867793   1.000000
   14      -15.849354   1.000000
   15      -15.623471   1.000000
   16      -15.538786   1.000000
   17      -15.462700   1.000000
   18      -15.428396   1.000000
   19       -9.295742   1.000000
   20       -9.125576   1.000000
   21       -8.918001   1.000000
   22       -8.859483   1.000000
   23       -8.764950   1.000000
   24       -8.645077   1.000000
   25       -8.613000   1.000000
   26       -8.534136   1.000000
   27       -8.484582   1.000000
   28       -8.391594   1.000000
   29       -8.320240   1.000000
   30       -8.245578   1.000000
   31       -8.167244   1.000000
   32       -8.122530   1.000000
   33       -8.023743   1.000000
   34       -7.981597   1.000000
   35       -7.831868   1.000000
   36       -7.753464   1.000000
   37       -7.718354   1.000000
   38       -7.581113   1.000000
   39       -7.490404   1.000000
   40       -7.466477   1.000000
   41       -7.328432   1.000000
   42       -7.215273   1.000000
   43       -7.152643   1.000000
   44       -6.968269   1.000000
   45       -6.854806   1.000000
   46       -6.794474   1.000000
   47       -6.716000   1.000000
   48       -6.624697   1.000000
   49       -6.548516   1.000000
   50       -6.502209   1.000000
   51       -6.445019   1.000000
   52       -6.378966   1.000000
   53       -6.346004   1.000000
   54       -6.297720   1.000000
   55       -6.231137   1.000000
   56       -6.161776   1.000000
   57       -6.099191   1.000000
   58       -5.819110   1.000000
   59       -5.648466   1.000000
   60       -5.578136   1.000000
   61       -5.484230   1.000000
   62       -5.343876   1.000000
   63       -5.281664   1.000000
   64       -5.161852   1.000000
   65       -5.098931   1.000000
   66       -5.061437   1.000000
   67       -4.977595   1.000000
   68       -4.893478   1.000000
   69       -4.665716   1.000000
   70       -4.645937   1.000000
   71       -4.570046   1.000000
   72       -4.393548   1.000000
   73       -4.276622   1.000000
   74       -4.105270   1.000000
   75       -4.021839   1.000000
   76       -3.926413   1.000000
   77       -3.696443   0.999999
   78       -3.640005   0.999993
   79       -3.511310   0.999717
   80       -2.957506   0.319744
   81       -2.901719   0.194099
   82       -2.694049   0.009868
   83       -2.633815   0.002914
   84       -2.518277   0.000176
   85       -2.498868   0.000103
   86       -2.412916   0.000008
   87       -2.258538   0.000000
   88       -2.215531   0.000000
   89       -2.068398   0.000000
   90       -2.002439   0.000000
   91       -1.868695   0.000000
   92       -1.782245   0.000000
   93       -1.702024   0.000000
   94       -1.590729   0.000000
   95       -1.404334   0.000000
   96       -1.246970   0.000000
   97       -1.135584   0.000000
   98       -1.006575   0.000000
   99       -0.866969   0.000000
  100       -0.507540   0.000000
  101       -0.466841   0.000000
  102       -0.403177   0.000000
  103       -0.339354   0.000000
  104       -0.248309   0.000000
  105       -0.126244   0.000000
  106       -0.002523   0.000000
  107        0.151390   0.000000
  108        0.262858   0.000000
  109        0.330590   0.000000
  110        0.453351   0.000000
  111        0.487598   0.000000
  112        0.688494   0.000000
  113        0.824539   0.000000
  114        0.926115   0.000000
  115        0.980314   0.000000
  116        1.057058   0.000000
  117        1.109483   0.000000
  118        1.723592   0.000000
  119        1.873897   0.000000
  120        2.224288   0.000000
 
  0.2500000E+00  0.5551115E-16  0.0000000E+00  0.3125000E-01
    1      -17.717068   1.000000
    2      -16.981198   1.000000
    3      -16.653334   1.000000
    4      -16.573652   1.000000
    5      -16.537834   1.000000
    6      -16.292028   1.000000
    7      -16.242855   1.000000
    8      -16.231675   1.000000
    9      -16.166078   1.000000
   10      -16.121800   1.000000
   11      -16.015621   1.000000
   12      -15.857186   1.000000
   13      -15.818693   1.000000
   14      -15.704509   1.000000
   15      -15.660948   1.000000
   16      -15.573408   1.000000
   17      -15.492078   1.000000
   18      -15.444319   1.000000
   19       -9.489005   1.000000
   20       -9.243079   1.000000
   21       -9.054133   1.000000
   22       -8.970552   1.000000
   23       -8.918385   1.000000
   24       -8.747430   1.000000
   25       -8.561797   1.000000
   26       -8.496060   1.000000
   27       -8.437631   1.000000
   28       -8.381042   1.000000
   29       -8.257265   1.000000
   30       -8.217250   1.000000
   31       -8.185136   1.000000
   32       -8.058114   1.000000
   33       -7.879889   1.000000
   34       -7.774059   1.000000
   35       -7.725911   1.000000
   36       -7.646557   1.000000
   37       -7.603952   1.000000
   38       -7.541167   1.000000
   39       -7.415191   1.000000
   40       -7.357746   1.000000
   41       -7.211046   1.000000
   42       -7.168822   1.000000
   43       -7.081859   1.000000
   44       -7.025621   1.000000
   45       -6.922754   1.000000
   46       -6.851865   1.000000
   47       -6.728611   1.000000
   48       -6.665149   1.000000
   49       -6.596079   1.000000
   50       -6.542932   1.000000
   51       -6.482002   1.000000
   52       -6.385334   1.000000
   53       -6.316956   1.000000
   54       -6.238807   1.000000
   55       -6.174729   1.000000
   56       -6.133096   1.000000
   57       -6.087707   1.000000
   58       -5.827977   1.000000
   59       -5.630540   1.000000
   60       -5.593014   1.000000
   61       -5.524181   1.000000
   62       -5.436658   1.000000
   63       -5.404949   1.000000
   64       -5.365979   1.000000
   65       -5.247529   1.000000
   66       -5.127796   1.000000
   67       -5.061542   1.000000
   68       -4.923786   1.000000
   69       -4.676687   1.000000
   70       -4.647357   1.000000
   71       -4.531205   1.000000
   72       -4.268284   1.000000
   73       -4.189795   1.000000
   74       -4.074612   1.000000
   75       -3.924629   1.000000
   76       -3.890582   1.000000
   77       -3.727128   1.000000
   78       -3.638304   0.999993
   79       -3.502235   0.999642
   80       -2.883424   0.160536
   81       -2.835412   0.091472
   82       -2.713013   0.014001
   83       -2.642119   0.003482
   84       -2.553133   0.000438
   85       -2.523123   0.000200
   86       -2.424046   0.000011
   87       -2.255047   0.000000
   88       -2.216962   0.000000
   89       -2.162933   0.000000
   90       -2.006030   0.000000
   91       -1.870709   0.000000
   92       -1.741543   0.000000
   93       -1.686115   0.000000
   94       -1.488644   0.000000
   95       -1.336903   0.000000
   96       -1.211595   0.000000
   97       -1.115771   0.000000
   98       -0.964299   0.000000
   99       -0.779864   0.000000
  100       -0.669329   0.000000
  101       -0.620516   0.000000
  102       -0.540865   0.000000
  103       -0.479949   0.000000
  104       -0.336707   0.000000
  105       -0.273473   0.000000
  106       -0.164605   0.000000
  107       -0.002383   0.000000
  108        0.174253   0.000000
  109        0.197741   0.000000
  110        0.447916   0.000000
  111        0.554761   0.000000
  112        0.609808   0.000000
  113        0.847986   0.000000
  114        1.040099   0.000000
  115        1.091177   0.000000
  116        1.221865   0.000000
  117        1.298144   0.000000
  118        1.844621   0.000000
  119        1.988071   0.000000
  120        2.329037   0.000000
 
  0.3750000E+00  0.0000000E+00  0.0000000E+00  0.3125000E-01
    1      -17.590503   1.000000
    2      -17.212009   1.000000
    3      -16.694957   1.000000
    4      -16.605559   1.000000
    5      -16.510256   1.000000
    6      -16.350530   1.000000
    7      -16.232654   1.000000
    8      -16.167064   1.000000
    9      -16.132911   1.000000
   10      -16.081787   1.000000
   11      -15.979708   1.000000
   12      -15.854134   1.000000
   13      -15.746957   1.000000
   14      -15.677744   1.000000
   15      -15.651333   1.000000
   16      -15.563268   1.000000
   17      -15.533011   1.000000
   18      -15.465488   1.000000
   19       -9.722382   1.000000
   20       -9.277111   1.000000
   21       -9.167867   1.000000
   22       -9.030814   1.000000
   23       -8.913272   1.000000
   24       -8.828339   1.000000
   25       -8.525505   1.000000
   26       -8.491645   1.000000
   27       -8.390496   1.000000
   28       -8.365804   1.000000
   29       -8.243000   1.000000
   30       -8.233082   1.000000
   31       -8.149650   1.000000
   32       -8.022660   1.000000
   33       -7.879078   1.000000
   34       -7.758108   1.000000
   35       -7.690646   1.000000
   36       -7.625764   1.000000
   37       -7.554904   1.000000
   38       -7.420252   1.000000
   39       -7.311899   1.000000
   40       -7.228756   1.000000
   41       -7.172827   1.000000
   42       -7.083159   1.000000
   43       -7.024711   1.000000
   44       -6.970674   1.000000
   45       -6.865016   1.000000
   46       -6.807120   1.000000
   47       -6.704189   1.000000
   48       -6.667061   1.000000
   49       -6.581994   1.000000
   50       -6.546544   1.000000
   51       -6.390843   1.000000
   52       -6.370092   1.000000
   53       -6.280824   1.000000
   54       -6.204975   1.000000
   55       -6.118100   1.000000
   56       -6.012662   1.000000
   57       -5.985357   1.000000
   58       -5.912560   1.000000
   59       -5.869318   1.000000
   60       -5.770159   1.000000
   61       -5.731926   1.000000
   62       -5.688043   1.000000
   63       -5.603931   1.000000
   64       -5.547623   1.000000
   65       -5.212309   1.000000
   66       -5.017630   1.000000
   67       -4.964913   1.000000
   68       -4.822443   1.000000
   69       -4.756208   1.000000
   70       -4.618839   1.000000
   71       -4.591892   1.000000
   72       -4.505224   1.000000
   73       -4.142406   1.000000
   74       -4.107327   1.000000
   75       -3.935982   1.000000
   76       -3.783929   1.000000
   77       -3.571625   0.999946
   78       -3.437671   0.998288
   79       -3.374611   0.993449
   80       -2.951829   0.305531
   81       -2.924797   0.242057
   82       -2.691034   0.009320
   83       -2.626820   0.002502
   84       -2.595154   0.001220
   85       -2.473247   0.000050
   86       -2.429851   0.000013
   87       -2.256058   0.000000
   88       -2.229296   0.000000
   89       -2.197039   0.000000
   90       -2.013884   0.000000
   91       -1.851361   0.000000
   92       -1.712704   0.000000
   93       -1.679134   0.000000
   94       -1.425164   0.000000
   95       -1.284543   0.000000
   96       -1.181097   0.000000
   97       -1.112156   0.000000
   98       -0.931588   0.000000
   99       -0.785427   0.000000
  100       -0.758251   0.000000
  101       -0.691999   0.000000
  102       -0.616207   0.000000
  103       -0.590381   0.000000
  104       -0.473282   0.000000
  105       -0.465236   0.000000
  106       -0.297700   0.000000
  107       -0.091052   0.000000
  108        0.070851   0.000000
  109        0.121537   0.000000
  110        0.328484   0.000000
  111        0.583371   0.000000
  112        0.658070   0.000000
  113        0.838674   0.000000
  114        1.159990   0.000000
  115        1.180062   0.000000
  116        1.359871   0.000000
  117        1.441968   0.000000
  118        2.027799   0.000000
  119        2.164251   0.000000
  120        2.499910   0.000000
 
  0.5000000E+00  0.1110223E-15  0.0000000E+00  0.1562500E-01
    1      -17.429466   1.000000
    2      -17.409419   1.000000
    3      -16.709780   1.000000
    4      -16.618569   1.000000
    5      -16.485152   1.000000
    6      -16.386518   1.000000
    7      -16.235094   1.000000
    8      -16.165176   1.000000
    9      -16.102762   1.000000
   10      -16.026043   1.000000
   11      -15.994819   1.000000
   12      -15.842850   1.000000
   13      -15.721790   1.000000
   14      -15.689809   1.000000
   15      -15.648725   1.000000
   16      -15.575515   1.000000
   17      -15.522846   1.000000
   18      -15.471019   1.000000
   19       -9.806575   1.000000
   20       -9.302039   1.000000
   21       -9.208838   1.000000
   22       -9.068892   1.000000
   23       -8.867677   1.000000
   24       -8.783393   1.000000
   25       -8.665438   1.000000
   26       -8.460528   1.000000
   27       -8.383226   1.000000
   28       -8.331638   1.000000
   29       -8.232566   1.000000
   30       -8.173857   1.000000
   31       -8.130089   1.000000
   32       -8.029639   1.000000
   33       -7.878288   1.000000
   34       -7.804202   1.000000
   35       -7.725756   1.000000
   36       -7.632673   1.000000
   37       -7.542528   1.000000
   38       -7.402203   1.000000
   39       -7.284682   1.000000
   40       -7.221086   1.000000
   41       -7.126122   1.000000
   42       -7.036990   1.000000
   43       -6.948870   1.000000
   44       -6.888342   1.000000
   45       -6.848513   1.000000
   46       -6.742351   1.000000
   47       -6.693189   1.000000
   48       -6.636432   1.000000
   49       -6.584441   1.000000
   50       -6.448814   1.000000
   51       -6.401339   1.000000
   52       -6.369779   1.000000
   53       -6.258090   1.000000
   54       -6.156340   1.000000
   55       -6.095076   1.000000
   56       -6.064016   1.000000
   57       -6.016932   1.000000
   58       -5.950825   1.000000
   59       -5.848407   1.000000
   60       -5.834924   1.000000
   61       -5.811782   1.000000
   62       -5.748864   1.000000
   63       -5.651102   1.000000
   64       -5.625101   1.000000
   65       -5.291154   1.000000
   66       -5.090551   1.000000
   67       -4.958627   1.000000
   68       -4.866009   1.000000
   69       -4.741864   1.000000
   70       -4.613915   1.000000
   71       -4.539776   1.000000
   72       -4.510746   1.000000
   73       -4.253917   1.000000
   74       -4.078262   1.000000
   75       -3.889835   1.000000
   76       -3.688472   0.999999
   77       -3.600949   0.999978
   78       -3.305293   0.976749
   79       -3.270088   0.959235
   80       -3.021427   0.493448
   81       -2.981343   0.382141
   82       -2.702358   0.011526
   83       -2.647183   0.003876
   84       -2.600461   0.001381
   85       -2.463551   0.000037
   86       -2.387075   0.000003
   87       -2.264409   0.000000
   88       -2.243599   0.000000
   89       -2.190216   0.000000
   90       -2.015026   0.000000
   91       -1.841310   0.000000
   92       -1.701610   0.000000
   93       -1.680418   0.000000
   94       -1.407735   0.000000
   95       -1.269176   0.000000
   96       -1.175432   0.000000
   97       -1.118969   0.000000
   98       -0.922008   0.000000
   99       -0.827394   0.000000
  100       -0.765063   0.000000
  101       -0.689044   0.000000
  102       -0.648447   0.000000
  103       -0.594131   0.000000
  104       -0.570273   0.000000
  105       -0.533393   0.000000
  106       -0.358707   0.000000
  107       -0.115033   0.000000
  108        0.021599   0.000000
  109        0.105798   0.000000
  110        0.276882   0.000000
  111        0.595731   0.000000
  112        0.677173   0.000000
  113        0.834238   0.000000
  114        1.206556   0.000000
  115        1.210608   0.000000
  116        1.407926   0.000000
  117        1.495284   0.000000
  118        2.257235   0.000000
  119        2.267262   0.000000
  120        2.362123   0.000000
 
  0.0000000E+00  0.1250000E+00  0.0000000E+00  0.3125000E-01
    1      -17.795338   1.000000
    2      -16.718630   1.000000
    3      -16.619396   1.000000
    4      -16.565001   1.000000
    5      -16.518494   1.000000
    6      -16.386361   1.000000
    7      -16.301252   1.000000
    8      -16.253260   1.000000
    9      -16.181547   1.000000
   10      -16.058448   1.000000
   11      -15.996140   1.000000
   12      -15.943948   1.000000
   13      -15.910952   1.000000
   14      -15.816124   1.000000
   15      -15.613746   1.000000
   16      -15.546302   1.000000
   17      -15.469614   1.000000
   18      -15.422662   1.000000
   19       -9.292344   1.000000
   20       -9.108286   1.000000
   21       -8.947585   1.000000
   22       -8.853889   1.000000
   23       -8.761743   1.000000
   24       -8.691783   1.000000
   25       -8.575298   1.000000
   26       -8.509647   1.000000
   27       -8.471542   1.000000
   28       -8.388773   1.000000
   29       -8.353051   1.000000
   30       -8.257539   1.000000
   31       -8.193897   1.000000
   32       -8.115540   1.000000
   33       -8.040620   1.000000
   34       -7.959409   1.000000
   35       -7.824512   1.000000
   36       -7.727890   1.000000
   37       -7.680704   1.000000
   38       -7.616747   1.000000
   39       -7.538706   1.000000
   40       -7.440753   1.000000
   41       -7.281732   1.000000
   42       -7.226931   1.000000
   43       -7.192498   1.000000
   44       -6.910878   1.000000
   45       -6.855249   1.000000
   46       -6.792882   1.000000
   47       -6.753062   1.000000
   48       -6.666550   1.000000
   49       -6.595850   1.000000
   50       -6.479211   1.000000
   51       -6.416065   1.000000
   52       -6.374308   1.000000
   53       -6.333921   1.000000
   54       -6.265987   1.000000
   55       -6.218488   1.000000
   56       -6.177252   1.000000
   57       -6.101721   1.000000
   58       -5.797506   1.000000
   59       -5.679782   1.000000
   60       -5.553341   1.000000
   61       -5.486723   1.000000
   62       -5.347350   1.000000
   63       -5.312355   1.000000
   64       -5.141581   1.000000
   65       -5.104766   1.000000
   66       -5.007147   1.000000
   67       -4.984515   1.000000
   68       -4.898641   1.000000
   69       -4.727656   1.000000
   70       -4.638868   1.000000
   71       -4.555305   1.000000
   72       -4.364150   1.000000
   73       -4.256222   1.000000
   74       -4.224295   1.000000
   75       -3.990450   1.000000
   76       -3.880426   1.000000
   77       -3.718347   1.000000
   78       -3.635288   0.999992
   79       -3.494531   0.999564
   80       -2.954305   0.311696
   81       -2.902482   0.195586
   82       -2.707809   0.012740
   83       -2.615196   0.001933
   84       -2.565911   0.000603
   85       -2.488991   0.000078
   86       -2.371091   0.000002
   87       -2.293935   0.000000
   88       -2.241566   0.000000
   89       -2.091355   0.000000
   90       -2.005736   0.000000
   91       -1.854339   0.000000
   92       -1.773995   0.000000
   93       -1.649763   0.000000
   94       -1.599428   0.000000
   95       -1.406744   0.000000
   96       -1.244695   0.000000
   97       -1.139616   0.000000
   98       -0.996748   0.000000
   99       -0.866705   0.000000
  100       -0.511480   0.000000
  101       -0.443448   0.000000
  102       -0.413291   0.000000
  103       -0.348362   0.000000
  104       -0.210060   0.000000
  105       -0.108171   0.000000
  106       -0.020540   0.000000
  107        0.158007   0.000000
  108        0.245220   0.000000
  109        0.289877   0.000000
  110        0.376030   0.000000
  111        0.474502   0.000000
  112        0.738364   0.000000
  113        0.887405   0.000000
  114        0.955550   0.000000
  115        0.997242   0.000000
  116        1.032066   0.000000
  117        1.079512   0.000000
  118        1.723547   0.000000
  119        1.873397   0.000000
  120        2.224501   0.000000
 
  0.1250000E+00  0.1250000E+00  0.0000000E+00  0.3125000E-01
    1      -17.743648   1.000000
    2      -16.875124   1.000000
    3      -16.739919   1.000000
    4      -16.556615   1.000000
    5      -16.461292   1.000000
    6      -16.333639   1.000000
    7      -16.270813   1.000000
    8      -16.216184   1.000000
    9      -16.196429   1.000000
   10      -16.107236   1.000000
   11      -15.981086   1.000000
   12      -15.933576   1.000000
   13      -15.782522   1.000000
   14      -15.766880   1.000000
   15      -15.643182   1.000000
   16      -15.551984   1.000000
   17      -15.504975   1.000000
   18      -15.428290   1.000000
   19       -9.362474   1.000000
   20       -9.296649   1.000000
   21       -9.099473   1.000000
   22       -8.957867   1.000000
   23       -8.756091   1.000000
   24       -8.717815   1.000000
   25       -8.580686   1.000000
   26       -8.510174   1.000000
   27       -8.417348   1.000000
   28       -8.362845   1.000000
   29       -8.290771   1.000000
   30       -8.258651   1.000000
   31       -8.158398   1.000000
   32       -8.078919   1.000000
   33       -7.990684   1.000000
   34       -7.840932   1.000000
   35       -7.740287   1.000000
   36       -7.708387   1.000000
   37       -7.652752   1.000000
   38       -7.443895   1.000000
   39       -7.402469   1.000000
   40       -7.336246   1.000000
   41       -7.252811   1.000000
   42       -7.215013   1.000000
   43       -7.161005   1.000000
   44       -6.981033   1.000000
   45       -6.950253   1.000000
   46       -6.831581   1.000000
   47       -6.752622   1.000000
   48       -6.709910   1.000000
   49       -6.598946   1.000000
   50       -6.520128   1.000000
   51       -6.437379   1.000000
   52       -6.359288   1.000000
   53       -6.284179   1.000000
   54       -6.251356   1.000000
   55       -6.205901   1.000000
   56       -6.154390   1.000000
   57       -6.119050   1.000000
   58       -5.808212   1.000000
   59       -5.676166   1.000000
   60       -5.548135   1.000000
   61       -5.465798   1.000000
   62       -5.396605   1.000000
   63       -5.331958   1.000000
   64       -5.290386   1.000000
   65       -5.182093   1.000000
   66       -5.051375   1.000000
   67       -4.997611   1.000000
   68       -4.945891   1.000000
   69       -4.891019   1.000000
   70       -4.802111   1.000000
   71       -4.350652   1.000000
   72       -4.279928   1.000000
   73       -4.170944   1.000000
   74       -4.035400   1.000000
   75       -3.983915   1.000000
   76       -3.912280   1.000000
   77       -3.793073   1.000000
   78       -3.650587   0.999995
   79       -3.506973   0.999683
   80       -2.899117   0.189080
   81       -2.783363   0.044585
   82       -2.737859   0.021611
   83       -2.661495   0.005211
   84       -2.570713   0.000679
   85       -2.508773   0.000136
   86       -2.393601   0.000004
   87       -2.288688   0.000000
   88       -2.271579   0.000000
   89       -2.073257   0.000000
   90       -2.043486   0.000000
   91       -1.882479   0.000000
   92       -1.730978   0.000000
   93       -1.603105   0.000000
   94       -1.576047   0.000000
   95       -1.360920   0.000000
   96       -1.216237   0.000000
   97       -1.123983   0.000000
   98       -0.966385   0.000000
   99       -0.786843   0.000000
  100       -0.626692   0.000000
  101       -0.564219   0.000000
  102       -0.511881   0.000000
  103       -0.394807   0.000000
  104       -0.337182   0.000000
  105       -0.216127   0.000000
  106       -0.131973   0.000000
  107        0.037230   0.000000
  108        0.165095   0.000000
  109        0.290302   0.000000
  110        0.381630   0.000000
  111        0.521653   0.000000
  112        0.640960   0.000000
  113        0.881328   0.000000
  114        1.000101   0.000000
  115        1.095695   0.000000
  116        1.167249   0.000000
  117        1.214643   0.000000
  118        1.805680   0.000000
  119        1.950374   0.000000
  120        2.294582   0.000000
 
  0.2500000E+00  0.1250000E+00  0.0000000E+00  0.3125000E-01
    1      -17.642102   1.000000
    2      -17.088975   1.000000
    3      -16.835093   1.000000
    4      -16.530324   1.000000
    5      -16.435711   1.000000
    6      -16.318446   1.000000
    7      -16.247515   1.000000
    8      -16.214794   1.000000
    9      -16.164268   1.000000
   10      -16.073919   1.000000
   11      -15.984871   1.000000
   12      -15.892247   1.000000
   13      -15.777761   1.000000
   14      -15.669079   1.000000
   15      -15.628451   1.000000
   16      -15.575304   1.000000
   17      -15.540120   1.000000
   18      -15.440042   1.000000
   19       -9.616215   1.000000
   20       -9.389181   1.000000
   21       -9.198286   1.000000
   22       -8.991563   1.000000
   23       -8.813372   1.000000
   24       -8.714388   1.000000
   25       -8.530206   1.000000
   26       -8.463275   1.000000
   27       -8.388116   1.000000
   28       -8.353397   1.000000
   29       -8.286098   1.000000
   30       -8.223161   1.000000
   31       -8.149940   1.000000
   32       -8.077709   1.000000
   33       -7.985955   1.000000
   34       -7.849964   1.000000
   35       -7.803150   1.000000
   36       -7.538022   1.000000
   37       -7.440867   1.000000
   38       -7.402839   1.000000
   39       -7.343347   1.000000
   40       -7.252034   1.000000
   41       -7.180171   1.000000
   42       -7.101630   1.000000
   43       -7.086502   1.000000
   44       -6.977775   1.000000
   45       -6.867215   1.000000
   46       -6.826372   1.000000
   47       -6.747176   1.000000