       N       E                     dE             d eps       ncg     rms          rms(c)
DAV:   1     0.112410370370E+04    0.11241E+04   -0.35863E+04  8160   0.577E+02
DAV:   2    -0.333851032770E+01   -0.11274E+04   -0.10842E+04 11280   0.173E+02
DAV:   3    -0.199962794145E+03   -0.19662E+03   -0.18877E+03 10880   0.820E+01
DAV:   4    -0.209001558342E+03   -0.90388E+01   -0.88019E+01 12360   0.261E+01
DAV:   5    -0.209289074264E+03   -0.28752E+00   -0.28672E+00 11400   0.333E+00    0.275E+01
DAV:   6    -0.236805742914E+03   -0.27517E+02   -0.11030E+02 12760   0.603E+01    0.594E+01
DAV:   7    -0.196669752254E+03    0.40136E+02   -0.17913E+02 13160   0.152E+02    0.203E+01
DAV:   8    -0.190031332537E+03    0.66384E+01   -0.20784E+01 11880   0.134E+01    0.136E+01
DAV:   9    -0.188240574762E+03    0.17908E+01   -0.30925E+00 11720   0.626E+00    0.918E+00
DAV:  10    -0.187056450730E+03    0.11841E+01   -0.18240E+00 13360   0.774E+00    0.297E+00
DAV:  11    -0.186999430387E+03    0.57020E-01   -0.60990E-01 12560   0.240E+00    0.250E+00
DAV:  12    -0.187085385937E+03   -0.85956E-01   -0.63037E-01 12400   0.426E+00    0.461E+00
DAV:  13    -0.186909089861E+03    0.17630E+00   -0.44236E-01 12960   0.368E+00    0.187E+00
DAV:  14    -0.186898136372E+03    0.10953E-01   -0.12237E-01 13080   0.213E+00    0.182E+00
DAV:  15    -0.186872336025E+03    0.25800E-01   -0.59910E-02 12640   0.151E+00    0.722E-01
DAV:  16    -0.186867850492E+03    0.44855E-02   -0.85051E-03 12720   0.366E-01    0.390E-01
DAV:  17    -0.186866089882E+03    0.17606E-02   -0.71458E-03 12680   0.350E-01    0.222E-01
DAV:  18    -0.186865427987E+03    0.66190E-03   -0.17543E-03 11520   0.126E-01    0.131E-01
DAV:  19    -0.186865304711E+03    0.12328E-03   -0.60987E-04 10120   0.101E-01    0.448E-02
DAV:  20    -0.186866147792E+03   -0.84308E-03   -0.76043E-04  9080   0.506E-02    0.380E-02
DAV:  21    -0.186866835337E+03   -0.68754E-03   -0.19336E-04  8240   0.396E-02    0.340E-02
DAV:  22    -0.186867854104E+03   -0.10188E-02   -0.15937E-04  7520   0.448E-02    0.391E-02
DAV:  23    -0.186869013977E+03   -0.11599E-02   -0.13553E-04  7440   0.476E-02    0.162E-02
DAV:  24    -0.186869588247E+03   -0.57427E-03   -0.28639E-05  6800   0.171E-02    0.445E-03
DAV:  25    -0.186869952794E+03   -0.36455E-03   -0.16842E-05  5480   0.959E-03    0.429E-03
DAV:  26    -0.186870197140E+03   -0.24435E-03   -0.93887E-06  6800   0.718E-03    0.159E-03
DAV:  27    -0.186870286741E+03   -0.89601E-04   -0.32575E-06  7240   0.416E-03
   1 F= -.18687029E+03 E0= -.18669809E+03  d E =-.186870E+03
       N       E                     dE             d eps       ncg     rms          rms(c)
DAV:   1    -0.187505768649E+03   -0.63557E+00   -0.27129E+02  8160   0.350E+01    0.465E+00
DAV:   2    -0.189497798127E+03   -0.19920E+01   -0.20355E+01 12240   0.156E+01    0.968E+00
DAV:   3    -0.189355585230E+03    0.14221E+00   -0.46642E+00 12360   0.124E+01    0.654E+00
DAV:   4    -0.188794747946E+03    0.56084E+00   -0.63702E-01 12440   0.461E+00    0.236E+00
DAV:   5    -0.188868051530E+03   -0.73304E-01   -0.43525E-01 11440   0.356E+00    0.490E+00
DAV:   6    -0.188782957928E+03    0.85094E-01   -0.71980E-01 12560   0.414E+00    0.267E+00
DAV:   7    -0.188700005072E+03    0.82953E-01   -0.24057E-01 11560   0.154E+00    0.116E+00
DAV:   8    -0.188683365288E+03    0.16640E-01   -0.63591E-02 11560   0.896E-01    0.850E-01
DAV:   9    -0.188680435300E+03    0.29300E-02   -0.22972E-02 11520   0.833E-01    0.823E-01
DAV:  10    -0.188675961960E+03    0.44733E-02   -0.88009E-03 11880   0.526E-01    0.312E-01
DAV:  11    -0.188675347121E+03    0.61484E-03   -0.29923E-03 13120   0.240E-01    0.138E-01
DAV:  12    -0.188675185050E+03    0.16207E-03   -0.12195E-03 12040   0.112E-01    0.989E-02
DAV:  13    -0.188675217840E+03   -0.32790E-04   -0.28770E-04  7680   0.668E-02
   2 F= -.18867522E+03 E0= -.18853382E+03  d E =-.180493E+01
       N       E                     dE             d eps       ncg     rms          rms(c)
DAV:   1    -0.190594596211E+03   -0.19194E+01   -0.31163E+01  9120   0.142E+01    0.444E+00
DAV:   2    -0.190559573608E+03    0.35023E-01   -0.28011E+00 11160   0.952E+00    0.733E+00
DAV:   3    -0.190079104870E+03    0.48047E+00   -0.13975E+00 12320   0.859E+00    0.422E+00
DAV:   4    -0.189875019827E+03    0.20409E+00   -0.75862E-01 12680   0.419E+00    0.264E+00
DAV:   5    -0.189913659502E+03   -0.38640E-01   -0.47194E-01 12240   0.401E+00    0.372E+00
DAV:   6    -0.189770978920E+03    0.14268E+00   -0.21282E-01 12280   0.314E+00    0.670E-01
DAV:   7    -0.189764435547E+03    0.65434E-02   -0.16452E-02 12240   0.502E-01    0.234E-01
DAV:   8    -0.189765230623E+03   -0.79508E-03   -0.42558E-03 11720   0.335E-01    0.348E-01
DAV:   9    -0.189764472444E+03    0.75818E-03   -0.23386E-03 10160   0.317E-01    0.161E-01
DAV:  10    -0.189764638319E+03   -0.16588E-03   -0.96229E-04 10040   0.143E-01    0.127E-01
DAV:  11    -0.189764459751E+03    0.17857E-03   -0.44737E-04  8800   0.784E-02    0.175E-02
DAV:  12    -0.189764479852E+03   -0.20101E-04   -0.65867E-05  7400   0.259E-02
   3 F= -.18976448E+03 E0= -.18964432E+03  d E =-.108926E+01
       N       E                     dE             d eps       ncg     rms          rms(c)
DAV:   1    -0.191333817389E+03   -0.15694E+01   -0.76223E+01  8160   0.199E+01    0.461E+00
DAV:   2    -0.191180038318E+03    0.15378E+00   -0.54197E+00 13160   0.793E+00    0.486E+00
DAV:   3    -0.191278606238E+03   -0.98568E-01   -0.16087E+00 12240   0.914E+00    0.647E+00
DAV:   4    -0.190880801895E+03    0.39780E+00   -0.12576E+00 12920   0.730E+00    0.269E+00
DAV:   5    -0.190807781706E+03    0.73020E-01   -0.34347E-01 12240   0.306E+00    0.218E+00
DAV:   6    -0.190771843586E+03    0.35938E-01   -0.17793E-01 12400   0.280E+00    0.154E+00
DAV:   7    -0.190752972381E+03    0.18871E-01   -0.59270E-02 11880   0.142E+00    0.469E-01
DAV:   8    -0.190749899248E+03    0.30731E-02   -0.81529E-03 11240   0.426E-01    0.277E-01
DAV:   9    -0.190749619736E+03    0.27951E-03   -0.24762E-03 10840   0.337E-01    0.221E-01
DAV:  10    -0.190749710360E+03   -0.90624E-04   -0.15521E-03 11320   0.219E-01    0.138E-01
DAV:  11    -0.190749479843E+03    0.23052E-03   -0.89486E-04 10040   0.114E-01    0.476E-02
DAV:  12    -0.190749474196E+03    0.56472E-05   -0.13827E-04  7320   0.440E-02
   4 F= -.19074947E+03 E0= -.19064450E+03  d E =-.984994E+00
       N       E                     dE             d eps       ncg     rms          rms(c)
DAV:   1    -0.192120643822E+03   -0.13712E+01   -0.16523E+02  8160   0.287E+01    0.570E+00
DAV:   2    -0.191853284849E+03    0.26736E+00   -0.95771E+00 11240   0.814E+00    0.380E+00
DAV:   3    -0.191984842896E+03   -0.13156E+00   -0.19959E+00 11880   0.844E+00    0.725E+00
DAV:   4    -0.191747788700E+03    0.23705E+00   -0.24284E+00 11440   0.106E+01    0.452E+00
DAV:   5    -0.191577695043E+03    0.17009E+00   -0.75552E-01 12280   0.571E+00    0.338E+00
DAV:   6    -0.191435818458E+03    0.14188E+00   -0.26994E-01 12320   0.375E+00    0.122E+00
DAV:   7    -0.191428194912E+03    0.76235E-02   -0.74421E-02 12280   0.147E+00    0.865E-01
DAV:   8    -0.191425972037E+03    0.22229E-02   -0.35630E-02 12080   0.125E+00    0.778E-01
DAV:   9    -0.191419262152E+03    0.67099E-02   -0.10639E-02 12440   0.698E-01    0.181E-01
DAV:  10    -0.191419569816E+03   -0.30766E-03   -0.23340E-03 11000   0.178E-01    0.109E-01
DAV:  11    -0.191419417205E+03    0.15261E-03   -0.64860E-04 11120   0.972E-02    0.544E-02
DAV:  12    -0.191419401297E+03    0.15908E-04   -0.10664E-04  7080   0.456E-02
   5 F= -.19141940E+03 E0= -.19131687E+03  d E =-.669927E+00
       N       E                     dE             d eps       ncg     rms          rms(c)
DAV:   1    -0.191488562839E+03   -0.69146E-01   -0.56579E+00  8160   0.501E+00    0.664E-01
DAV:   2    -0.191555991001E+03   -0.67428E-01   -0.30404E-01 13520   0.309E+00    0.232E+00
DAV:   3    -0.191501822417E+03    0.54169E-01   -0.11331E-01 12360   0.236E+00    0.478E-01
DAV:   4    -0.191503589060E+03   -0.17666E-02   -0.17314E-02 11400   0.844E-01    0.674E-01
DAV:   5    -0.191499140025E+03    0.44490E-02   -0.99639E-03 11360   0.664E-01    0.220E-01
DAV:   6    -0.191499018150E+03    0.12187E-03   -0.26461E-03 10600   0.241E-01    0.189E-01
DAV:   7    -0.191499577871E+03   -0.55972E-03   -0.35185E-03 11520   0.391E-01    0.328E-01
DAV:   8    -0.191498514698E+03    0.10632E-02   -0.19148E-03  9560   0.288E-01    0.402E-02
DAV:   9    -0.191498526640E+03   -0.11943E-04   -0.98850E-05  5720   0.408E-02
   6 F= -.19149853E+03 E0= -.19139363E+03  d E =-.791253E-01
       N       E                     dE             d eps       ncg     rms          rms(c)
DAV:   1    -0.191545326691E+03   -0.46812E-01   -0.23350E+00  8160   0.321E+00    0.369E-01
DAV:   2    -0.191561933093E+03   -0.16606E-01   -0.78301E-02 13600   0.135E+00    0.115E+00
DAV:   3    -0.191548543737E+03    0.13389E-01   -0.32210E-02 12280   0.123E+00    0.321E-01
DAV:   4    -0.191549071287E+03   -0.52755E-03   -0.63492E-03 11080   0.497E-01    0.401E-01
DAV:   5    -0.191547516411E+03    0.15549E-02   -0.36555E-03 11040   0.403E-01    0.126E-01
DAV:   6    -0.191547460674E+03    0.55737E-04   -0.80646E-04 10120   0.123E-01
   7 F= -.19154746E+03 E0= -.19144169E+03  d E =-.489340E-01
       N       E                     dE             d eps       ncg     rms          rms(c)
DAV:   1    -0.191507035847E+03    0.40481E-01   -0.14568E+00  8160   0.255E+00    0.325E-01
DAV:   2    -0.191522773107E+03   -0.15737E-01   -0.62071E-02 13560   0.141E+00    0.113E+00
DAV:   3    -0.191508854216E+03    0.13919E-01   -0.23043E-02 11440   0.112E+00    0.229E-01
DAV:   4    -0.191509341820E+03   -0.48760E-03   -0.35915E-03 10080   0.397E-01    0.315E-01
DAV:   5    -0.191508339352E+03    0.10025E-02   -0.21610E-03 10240   0.314E-01    0.989E-02
DAV:   6    -0.191508314746E+03    0.24606E-04   -0.54638E-04 10240   0.107E-01
   8 F= -.19150831E+03 E0= -.19140326E+03  d E =0.391459E-01
       N       E                     dE             d eps       ncg     rms          rms(c)
DAV:   1    -0.191407387264E+03    0.10095E+00   -0.11386E+01  8160   0.715E+00    0.775E-01
DAV:   2    -0.191465934999E+03   -0.58548E-01   -0.33568E-01 12840   0.251E+00    0.199E+00
DAV:   3    -0.191422123237E+03    0.43812E-01   -0.89352E-02 11960   0.219E+00    0.647E-01
DAV:   4    -0.191424423896E+03   -0.23007E-02   -0.23315E-02 11680   0.977E-01    0.835E-01
DAV:   5    -0.191417472776E+03    0.69511E-02   -0.15721E-02 11040   0.874E-01    0.253E-01
DAV:   6    -0.191417567708E+03   -0.94932E-04   -0.37040E-03 10760   0.287E-01    0.195E-01
DAV:   7    -0.191417159891E+03    0.40782E-03   -0.23417E-03 12720   0.291E-01    0.209E-01
DAV:   8    -0.191416758289E+03    0.40160E-03   -0.92130E-04  8680   0.206E-01    0.528E-02
DAV:   9    -0.191416748428E+03    0.98607E-05   -0.10752E-04  5960   0.535E-02
   9 F= -.19141675E+03 E0= -.19131441E+03  d E =0.915663E-01
       N       E                     dE             d eps       ncg     rms          rms(c)
DAV:   1    -0.191433057916E+03   -0.16300E-01   -0.15798E+00  8160   0.270E+00    0.345E-01
DAV:   2    -0.191436807748E+03   -0.37498E-02   -0.56915E-02 11120   0.731E-01    0.454E-01
DAV:   3    -0.191437177625E+03   -0.36988E-03   -0.17022E-02 12280   0.840E-01    0.547E-01
DAV:   4    -0.191434426195E+03    0.27514E-02   -0.69646E-03 11280   0.539E-01    0.228E-01
DAV:   5    -0.191434384254E+03    0.41940E-04   -0.27947E-03  9760   0.384E-01    0.243E-01
DAV:   6    -0.191433798682E+03    0.58557E-03   -0.17547E-03 10440   0.265E-01    0.874E-02
DAV:   7    -0.191433747234E+03    0.51448E-04   -0.49955E-04  9800   0.106E-01
  10 F= -.19143375E+03 E0= -.19133092E+03  d E =-.169988E-01
       N       E                     dE             d eps       ncg     rms          rms(c)
DAV:   1    -0.191485774348E+03   -0.51976E-01   -0.39595E+00  8160   0.423E+00    0.584E-01
DAV:   2    -0.191528464332E+03   -0.42690E-01   -0.17248E-01 13600   0.240E+00    0.201E+00
DAV:   3    -0.191489559102E+03    0.38905E-01   -0.80733E-02 12160   0.201E+00    0.451E-01
DAV:   4    -0.191491041312E+03   -0.14822E-02   -0.14125E-02 10280   0.786E-01    0.606E-01
DAV:   5    -0.191487234634E+03    0.38067E-02   -0.82701E-03 10440   0.618E-01    0.214E-01
DAV:   6    -0.191486800757E+03    0.43388E-03   -0.23067E-03 10920   0.210E-01    0.118E-01
DAV:   7    -0.191486926103E+03   -0.12535E-03   -0.15392E-03 10600   0.227E-01    0.194E-01
DAV:   8    -0.191486565591E+03    0.36051E-03   -0.87838E-04  8560   0.193E-01    0.520E-02
DAV:   9    -0.191486543534E+03    0.22057E-04   -0.82614E-05  5800   0.487E-02
  11 F= -.19148654E+03 E0= -.19138134E+03  d E =-.527963E-01
       N       E                     dE             d eps       ncg     rms          rms(c)
DAV:   1    -0.191526503191E+03   -0.39938E-01   -0.22398E+00  8160   0.315E+00    0.396E-01
DAV:   2    -0.191548162365E+03   -0.21659E-01   -0.91414E-02 13600   0.174E+00    0.133E+00
DAV:   3    -0.191529315056E+03    0.18847E-01   -0.36184E-02 12240   0.138E+00    0.256E-01
DAV:   4    -0.191530154747E+03   -0.83969E-03   -0.52600E-03 11320   0.457E-01    0.400E-01
DAV:   5    -0.191528692968E+03    0.14618E-02   -0.36038E-03 10200   0.401E-01    0.149E-01
DAV:   6    -0.191528521677E+03    0.17129E-03   -0.89291E-04  9840   0.137E-01    0.775E-02
DAV:   7    -0.191528474128E+03    0.47549E-04   -0.42728E-04  9560   0.953E-02
  12 F= -.19152847E+03 E0= -.19142190E+03  d E =-.419306E-01
       N       E                     dE             d eps       ncg     rms          rms(c)
DAV:   1    -0.191392540952E+03    0.13598E+00   -0.18919E+01  8160   0.919E+00    0.113E+00
DAV:   2    -0.191547050467E+03   -0.15451E+00   -0.72904E-01 13600   0.466E+00    0.324E+00
DAV:   3    -0.191415979687E+03    0.13107E+00   -0.20091E-01 12240   0.344E+00    0.605E-01
DAV:   4    -0.191416847787E+03   -0.86810E-03   -0.26691E-02 12240   0.902E-01    0.806E-01
DAV:   5    -0.191412485966E+03    0.43618E-02   -0.23740E-02 11200   0.104E+00    0.560E-01
DAV:   6    -0.191409927997E+03    0.25580E-02   -0.89782E-03 12200   0.551E-01    0.232E-01
DAV:   7    -0.191409082316E+03    0.84568E-03   -0.27953E-03 10760   0.207E-01    0.824E-02
DAV:   8    -0.191409056970E+03    0.25346E-04   -0.60148E-04 10960   0.135E-01
  13 F= -.19140906E+03 E0= -.19130675E+03  d E =0.119417E+00
       N       E                     dE             d eps       ncg     rms          rms(c)
DAV:   1    -0.191378975208E+03    0.30107E-01   -0.19708E+00  8160   0.296E+00    0.322E-01
DAV:   2    -0.191387536652E+03   -0.85614E-02   -0.54325E-02 13600   0.981E-01    0.766E-01
DAV:   3    -0.191381811111E+03    0.57255E-02   -0.17363E-02 12200   0.938E-01    0.362E-01
DAV:   4    -0.191381225820E+03    0.58529E-03   -0.42272E-03 11040   0.402E-01    0.273E-01
DAV:   5    -0.191380633012E+03    0.59281E-03   -0.22783E-03 10120   0.338E-01    0.161E-01
DAV:   6    -0.191380392063E+03    0.24095E-03   -0.85596E-04 10360   0.177E-01    0.774E-02
DAV:   7    -0.191380387848E+03    0.42151E-05   -0.38667E-04  8520   0.100E-01
  14 F= -.19138039E+03 E0= -.19127901E+03  d E =0.286691E-01
       N       E                     dE             d eps       ncg     rms          rms(c)
DAV:   1    -0.191414649465E+03   -0.34257E-01   -0.25576E+00  8160   0.337E+00    0.374E-01
DAV:   2    -0.191429666168E+03   -0.15017E-01   -0.89090E-02 13280   0.119E+00    0.991E-01
DAV:   3    -0.191419795463E+03    0.98707E-02   -0.29827E-02 12000   0.119E+00    0.394E-01
DAV:   4    -0.191419216063E+03    0.57940E-03   -0.60499E-03 10920   0.471E-01    0.342E-01
DAV:   5    -0.191418173839E+03    0.10422E-02   -0.31715E-03 11120   0.382E-01    0.160E-01
DAV:   6    -0.191417974467E+03    0.19937E-03   -0.10305E-03 10200   0.159E-01    0.937E-02
DAV:   7    -0.191418007891E+03   -0.33424E-04   -0.72605E-04 10760   0.140E-01
  15 F= -.19141801E+03 E0= -.19131435E+03  d E =-.376200E-01
       N       E                     dE             d eps       ncg     rms          rms(c)
DAV:   1    -0.191435064482E+03   -0.17090E-01   -0.52280E-01  8160   0.155E+00    0.225E-01
DAV:   2    -0.191441167905E+03   -0.61034E-02   -0.24635E-02 13560   0.900E-01    0.759E-01
DAV:   3    -0.191435492154E+03    0.56758E-02   -0.11386E-02 11720   0.764E-01    0.180E-01
DAV:   4    -0.191435643971E+03   -0.15182E-03   -0.18805E-03 10080   0.291E-01    0.214E-01
DAV:   5    -0.191435201940E+03    0.44203E-03   -0.11673E-03  9640   0.239E-01    0.948E-02
DAV:   6    -0.191435111782E+03    0.90158E-04   -0.33426E-04  6920   0.888E-02
  16 F= -.19143511E+03 E0= -.19133074E+03  d E =-.171039E-01
       N       E                     dE             d eps       ncg     rms          rms(c)
DAV:   1    -0.191484906269E+03   -0.49704E-01   -0.38114E+00  8160   0.414E+00    0.565E-01
DAV:   2    -0.191525518833E+03   -0.40613E-01   -0.17035E-01 13600   0.241E+00    0.188E+00
DAV:   3    -0.191488909685E+03    0.36609E-01   -0.72976E-02 12240   0.193E+00    0.376E-01
DAV:   4    -0.191490940772E+03   -0.20311E-02   -0.12942E-02 10480   0.716E-01    0.626E-01
DAV:   5    -0.191487308642E+03    0.36321E-02   -0.92292E-03 10880   0.626E-01    0.224E-01
DAV:   6    -0.191486891891E+03    0.41675E-03   -0.23324E-03 11120   0.224E-01    0.136E-01
DAV:   7    -0.191487261784E+03   -0.36989E-03   -0.21520E-03 10840   0.295E-01    0.260E-01
DAV:   8    -0.191486598367E+03    0.66342E-03   -0.12171E-03  8600   0.231E-01    0.390E-02
DAV:   9    -0.191486601847E+03   -0.34801E-05   -0.79994E-05  5680   0.390E-02
  17 F= -.19148660E+03 E0= -.19137965E+03  d E =-.514901E-01
       N       E                     dE             d eps       ncg     rms          rms(c)
DAV:   1    -0.191502665873E+03   -0.16068E-01   -0.35612E-01  8160   0.125E+00    0.135E-01
DAV:   2    -0.191504586787E+03   -0.19209E-02   -0.10480E-02 13400   0.454E-01    0.382E-01
DAV:   3    -0.191503160383E+03    0.14264E-02   -0.37068E-03 11440   0.421E-01    0.132E-01
DAV:   4    -0.191503223988E+03   -0.63605E-04   -0.84861E-04  8360   0.182E-01
  18 F= -.19150322E+03 E0= -.19139606E+03  d E =-.166221E-01
       N       E                     dE             d eps       ncg     rms          rms(c)
DAV:   1    -0.191308174251E+03    0.19499E+00   -0.44855E+01  8160   0.141E+01    0.149E+00
DAV:   2    -0.191536233063E+03   -0.22806E+00   -0.13027E+00 13560   0.494E+00    0.366E+00
DAV:   3    -0.191367571335E+03    0.16866E+00   -0.31386E-01 12160   0.422E+00    0.107E+00
DAV:   4    -0.191363216173E+03    0.43552E-02   -0.53104E-02 12240   0.131E+00    0.101E+00
DAV:   5    -0.191358084462E+03    0.51317E-02   -0.45152E-02 11280   0.142E+00    0.843E-01
DAV:   6    -0.191352331750E+03    0.57527E-02   -0.18536E-02 12160   0.842E-01    0.347E-01
DAV:   7    -0.191350926735E+03    0.14050E-02   -0.68529E-03 12200   0.381E-01    0.243E-01
DAV:   8    -0.191350664570E+03    0.26216E-03   -0.29661E-03 11920   0.367E-01    0.229E-01
DAV:   9    -0.191350156118E+03    0.50845E-03   -0.99225E-04  9480   0.208E-01    0.513E-02
DAV:  10    -0.191350131823E+03    0.24295E-04   -0.18673E-04  6880   0.522E-02
  19 F= -.19135013E+03 E0= -.19124790E+03  d E =0.153092E+00
       N       E                     dE             d eps       ncg     rms          rms(c)
DAV:   1    -0.191351244918E+03   -0.10888E-02   -0.15483E+00  8160   0.265E+00    0.325E-01
DAV:   2    -0.191355521341E+03   -0.42764E-02   -0.46334E-02 12640   0.884E-01    0.581E-01
DAV:   3    -0.191353288668E+03    0.22327E-02   -0.13177E-02 12320   0.804E-01    0.417E-01
DAV:   4    -0.191351930348E+03    0.13583E-02   -0.47131E-03 11200   0.456E-01    0.227E-01
DAV:   5    -0.191351917156E+03    0.13192E-04   -0.27840E-03 10120   0.372E-01    0.250E-01
DAV:   6    -0.191351304496E+03    0.61266E-03   -0.16244E-03 10800   0.280E-01    0.839E-02
DAV:   7    -0.191351257989E+03    0.46507E-04   -0.42454E-04  9000   0.107E-01
  20 F= -.19135126E+03 E0= -.19124876E+03  d E =-.112617E-02
       N       E                     dE             d eps       ncg     rms          rms(c)
DAV:   1    -0.191332146981E+03    0.19158E-01   -0.54131E+00  8160   0.490E+00    0.532E-01
DAV:   2    -0.191348767146E+03   -0.16620E-01   -0.13720E-01 13120   0.142E+00    0.108E+00
DAV:   3    -0.191340353097E+03    0.84140E-02   -0.42087E-02 12320   0.144E+00    0.687E-01
DAV:   4    -0.191336097280E+03    0.42558E-02   -0.10033E-02 11320   0.618E-01    0.267E-01
DAV:   5    -0.191335754810E+03    0.34247E-03   -0.43540E-03 12080   0.442E-01    0.291E-01
DAV:   6    -0.191335289436E+03    0.46537E-03   -0.36213E-03 11360   0.437E-01    0.203E-01
DAV:   7    -0.191334886228E+03    0.40321E-03   -0.13893E-03 10120   0.228E-01    0.107E-01
DAV:   8    -0.191334841978E+03    0.44250E-04   -0.52036E-04  9000   0.161E-01
  21 F= -.19133484E+03 E0= -.19123258E+03  d E =0.164160E-01
       N       E                     dE             d eps       ncg     rms          rms(c)
DAV:   1    -0.191358653561E+03   -0.23767E-01   -0.30682E+00  8160   0.370E+00    0.429E-01
DAV:   2    -0.191376592519E+03   -0.17939E-01   -0.10624E-01 13440   0.143E+00    0.108E+00
DAV:   3    -0.191364247049E+03    0.12345E-01   -0.34626E-02 12080   0.134E+00    0.426E-01
DAV:   4    -0.191363330656E+03    0.91639E-03   -0.67485E-03 11040   0.495E-01    0.340E-01
DAV:   5    -0.191362571412E+03    0.75924E-03   -0.40654E-03 10400   0.442E-01    0.244E-01
DAV:   6    -0.191361931536E+03    0.63988E-03   -0.15147E-03  9880   0.222E-01    0.786E-02
DAV:   7    -0.191362005779E+03   -0.74243E-04   -0.60324E-04 10600   0.125E-01
  22 F= -.19136201E+03 E0= -.19125788E+03  d E =-.271638E-01
       N       E                     dE             d eps       ncg     rms          rms(c)
DAV:   1    -0.191375501728E+03   -0.13570E-01   -0.80933E-01  8160   0.192E+00    0.272E-01
DAV:   2    -0.191382968850E+03   -0.74671E-02   -0.36479E-02 13480   0.105E+00    0.792E-01
DAV:   3    -0.191376484059E+03    0.64848E-02   -0.14125E-02 11920   0.867E-01    0.223E-01
DAV:   4    -0.191376602656E+03   -0.11860E-03   -0.30485E-03 10520   0.350E-01    0.269E-01
DAV:   5    -0.191376028734E+03    0.57392E-03   -0.21598E-03  9640   0.316E-01    0.141E-01
DAV:   6    -0.191375779817E+03    0.24892E-03   -0.59815E-04  8640   0.129E-01    0.452E-02
DAV:   7    -0.191375896090E+03   -0.11627E-03   -0.36988E-04  8240   0.129E-01    0.117E-01
DAV:   8    -0.191375754205E+03    0.14188E-03   -0.24179E-04  6600   0.117E-01    0.194E-02
DAV:   9    -0.191375760789E+03   -0.65834E-05   -0.27251E-05  5800   0.233E-02
  23 F= -.19137576E+03 E0= -.19127041E+03  d E =-.137550E-01
       N       E                     dE             d eps       ncg     rms          rms(c)
DAV:   1    -0.191407802710E+03   -0.32049E-01   -0.57963E+00  8160   0.509E+00    0.625E-01
DAV:   2    -0.191455068287E+03   -0.47266E-01   -0.22198E-01 13600   0.242E+00    0.200E+00
DAV:   3    -0.191417846198E+03    0.37222E-01   -0.94104E-02 12240   0.214E+00    0.611E-01
DAV:   4    -0.191416886878E+03    0.95932E-03   -0.17535E-02 11400   0.824E-01    0.566E-01
DAV:   5    -0.191414065525E+03    0.28214E-02   -0.94171E-03 11600   0.663E-01    0.285E-01
DAV:   6    -0.191413092507E+03    0.97302E-03   -0.29572E-03 11880   0.285E-01    0.143E-01
DAV:   7    -0.191414238184E+03   -0.11457E-02   -0.33251E-03 11880   0.402E-01    0.367E-01
DAV:   8    -0.191412882910E+03    0.13553E-02   -0.20756E-03  9760   0.314E-01    0.289E-02
DAV:   9    -0.191412917651E+03   -0.34741E-04   -0.79448E-05  5680   0.339E-02
  24 F= -.19141292E+03 E0= -.19130511E+03  d E =-.371569E-01
       N       E                     dE             d eps       ncg     rms          rms(c)
DAV:   1    -0.191401274180E+03    0.11609E-01   -0.55630E-01  8160   0.157E+00    0.187E-01
DAV:   2    -0.191405167318E+03   -0.38931E-02   -0.19802E-02 13520   0.692E-01    0.536E-01
DAV:   3    -0.191402112484E+03    0.30548E-02   -0.67790E-03 11360   0.597E-01    0.177E-01
DAV:   4    -0.191402046715E+03    0.65770E-04   -0.14477E-03  9520   0.235E-01    0.167E-01
DAV:   5    -0.191401829674E+03    0.21704E-03   -0.84015E-04  9200   0.199E-01    0.904E-02
DAV:   6    -0.191401722221E+03    0.10745E-03   -0.23004E-04  6080   0.864E-02    0.306E-02
DAV:   7    -0.191401793622E+03   -0.71401E-04   -0.21231E-04  7400   0.929E-02
  25 F= -.19140179E+03 E0= -.19129471E+03  d E =0.111240E-01
       N       E                     dE             d eps       ncg     rms          rms(c)
DAV:   1    -0.191409887796E+03   -0.81656E-02   -0.29654E-01  8160   0.116E+00    0.155E-01
DAV:   2    -0.191412842850E+03   -0.29551E-02   -0.11830E-02 13600   0.604E-01    0.536E-01
DAV:   3    -0.191410086920E+03    0.27559E-02   -0.56874E-03 11480   0.525E-01    0.122E-01
DAV:   4    -0.191410100873E+03   -0.13954E-04   -0.76462E-04  9040   0.184E-01
  26 F= -.19141010E+03 E0= -.19130269E+03  d E =-.830725E-02
       N       E                     dE             d eps       ncg     rms          rms(c)
DAV:   1    -0.191402104053E+03    0.79829E-02   -0.27302E-01  8160   0.112E+00    0.132E-01
DAV:   2    -0.191404765401E+03   -0.26613E-02   -0.99148E-03 13600   0.519E-01    0.455E-01
DAV:   3    -0.191402360749E+03    0.24047E-02   -0.38392E-03 11120   0.462E-01    0.836E-02
DAV:   4    -0.191402518618E+03   -0.15787E-03   -0.59224E-04  8200   0.156E-01    0.135E-01
DAV:   5    -0.191402334570E+03    0.18405E-03   -0.36127E-04  7840   0.132E-01    0.318E-02
DAV:   6    -0.191402340357E+03   -0.57868E-05   -0.50648E-05  5920   0.375E-02
  27 F= -.19140234E+03 E0= -.19129500E+03  d E =0.776052E-02
       N       E                     dE             d eps       ncg     rms          rms(c)
DAV:   1    -0.191402487172E+03   -0.15260E-03   -0.32557E-01  8160   0.124E+00    0.192E-01
DAV:   2    -0.191404678424E+03   -0.21913E-02   -0.16665E-02 11840   0.609E-01    0.458E-01
DAV:   3    -0.191402856683E+03    0.18217E-02   -0.63076E-03 11440   0.533E-01    0.201E-01
DAV:   4    -0.191402675381E+03    0.18130E-03   -0.15975E-03  9560   0.266E-01    0.170E-01
DAV:   5    -0.191402513201E+03    0.16218E-03   -0.10557E-03  9600   0.238E-01    0.129E-01
DAV:   6    -0.191402336885E+03    0.17632E-03   -0.47254E-04  8080   0.129E-01    0.370E-02
DAV:   7    -0.191402321970E+03    0.14915E-04   -0.12159E-04  6560   0.421E-02
  28 F= -.19140232E+03 E0= -.19129486E+03  d E =0.183875E-04
       N       E                     dE             d eps       ncg     rms          rms(c)
DAV:   1    -0.191421924702E+03   -0.19588E-01   -0.16707E+00  8160   0.276E+00    0.364E-01
DAV:   2    -0.191433102516E+03   -0.11178E-01   -0.60929E-02 13600   0.130E+00    0.987E-01
DAV:   3    -0.191423364997E+03    0.97375E-02   -0.22998E-02 12120   0.109E+00    0.305E-01
DAV:   4    -0.191423686348E+03   -0.32135E-03   -0.55519E-03 11040   0.481E-01    0.382E-01
DAV:   5    -0.191422502069E+03    0.11843E-02   -0.41459E-03 10160   0.443E-01    0.200E-01
DAV:   6    -0.191422016411E+03    0.48566E-03   -0.13333E-03  9600   0.191E-01    0.653E-02
DAV:   7    -0.191422152628E+03   -0.13622E-03   -0.63421E-04  9480   0.157E-01    0.140E-01
DAV:   8    -0.191421960384E+03    0.19224E-03   -0.41401E-04  7800   0.140E-01    0.329E-02
DAV:   9    -0.191421956676E+03    0.37080E-05   -0.41279E-05  5440   0.334E-02
  29 F= -.19142196E+03 E0= -.19131369E+03  d E =-.196347E-01
       N       E                     dE             d eps       ncg     rms          rms(c)
DAV:   1    -0.191439317681E+03   -0.17357E-01   -0.12080E+00  8160   0.233E+00    0.292E-01
DAV:   2    -0.191449336001E+03   -0.10018E-01   -0.46900E-02 13600   0.112E+00    0.938E-01
DAV:   3    -0.191441124228E+03    0.82118E-02   -0.19279E-02 11960   0.969E-01    0.270E-01
DAV:   4    -0.191441054525E+03    0.69702E-04   -0.34545E-03 11080   0.369E-01    0.259E-01
DAV:   5    -0.191440458761E+03    0.59576E-03   -0.20672E-03 10320   0.315E-01    0.137E-01
DAV:   6    -0.191440282622E+03    0.17614E-03   -0.74915E-04  9360   0.152E-01    0.842E-02
DAV:   7    -0.191440462346E+03   -0.17972E-03   -0.76665E-04  9280   0.192E-01    0.159E-01
DAV:   8    -0.191440204277E+03    0.25807E-03   -0.43755E-04  7880   0.142E-01    0.193E-02
DAV:   9    -0.191440215669E+03   -0.11392E-04   -0.37571E-05  5480   0.243E-02
  30 F= -.19144022E+03 E0= -.19133130E+03  d E =-.182590E-01
       N       E                     dE             d eps       ncg     rms          rms(c)
DAV:   1    -0.191380590746E+03    0.59614E-01   -0.10766E+01  8160   0.695E+00    0.830E-01
DAV:   2    -0.191458304689E+03   -0.77714E-01   -0.38075E-01 13320   0.302E+00    0.249E+00
DAV:   3    -0.191397295460E+03    0.61009E-01   -0.14213E-01 12280   0.263E+00    0.794E-01
DAV:   4    -0.191395464351E+03    0.18311E-02   -0.25927E-02 10400   0.104E+00    0.719E-01
DAV:   5    -0.191390796670E+03    0.46677E-02   -0.15247E-02 12160   0.881E-01    0.367E-01
DAV:   6    -0.191389070884E+03    0.17258E-02   -0.51227E-03 11920   0.383E-01    0.137E-01
DAV:   7    -0.191388936049E+03    0.13483E-03   -0.14922E-03 11400   0.133E-01    0.697E-02
DAV:   8    -0.191388831877E+03    0.10417E-03   -0.29571E-04  8880   0.660E-02    0.298E-02
DAV:   9    -0.191388821975E+03    0.99015E-05   -0.69066E-05  6760   0.335E-02
  31 F= -.19138882E+03 E0= -.19128193E+03  d E =0.513937E-01
       N       E                     dE             d eps       ncg     rms          rms(c)
DAV:   1    -0.191351578828E+03    0.37253E-01   -0.80015E+00  8160   0.598E+00    0.722E-01
DAV:   2    -0.191413960263E+03   -0.62381E-01   -0.28107E-01 13400   0.273E+00    0.231E+00
DAV:   3    -0.191362545004E+03    0.51415E-01   -0.11663E-01 12280   0.237E+00    0.661E-01
DAV:   4    -0.191361728977E+03    0.81603E-03   -0.18939E-02 10440   0.900E-01    0.626E-01
DAV:   5    -0.191357969052E+03    0.37599E-02   -0.11215E-02 12520   0.763E-01    0.304E-01
DAV:   6    -0.191356848321E+03    0.11207E-02   -0.33929E-03 11840   0.315E-01    0.120E-01
DAV:   7    -0.191356982478E+03   -0.13416E-03   -0.13972E-03 12440   0.204E-01    0.175E-01
DAV:   8    -0.191356700361E+03    0.28212E-03   -0.75501E-04  8640   0.198E-01    0.734E-02
DAV:   9    -0.191356654340E+03    0.46021E-04   -0.12760E-04  5720   0.707E-02
  32 F= -.19135665E+03 E0= -.19125171E+03  d E =0.321676E-01
       N       E                     dE             d eps       ncg     rms          rms(c)
DAV:   1    -0.191358520624E+03   -0.18203E-02   -0.12592E-01  8160   0.755E-01    0.111E-01
DAV:   2    -0.191359903064E+03   -0.13824E-02   -0.56138E-03 13440   0.434E-01    0.368E-01
DAV:   3    -0.191358576075E+03    0.13270E-02   -0.25791E-03 11320   0.371E-01    0.883E-02
DAV:   4    -0.191358584951E+03   -0.88754E-05   -0.40807E-04  8480   0.134E-01
  33 F= -.19135858E+03 E0= -.19125341E+03  d E =-.193061E-02
       N       E                     dE             d eps       ncg     rms          rms(c)
DAV:   1    -0.191372818226E+03   -0.14242E-01   -0.13396E+00  8160   0.248E+00    0.347E-01
DAV:   2    -0.191385732615E+03   -0.12914E-01   -0.59100E-02 13520   0.127E+00    0.111E+00
DAV:   3    -0.191374755272E+03    0.10977E-01   -0.27188E-02 11880   0.115E+00    0.341E-01
DAV:   4    -0.191374142638E+03    0.61263E-03   -0.51394E-03 11360   0.440E-01    0.274E-01
DAV:   5    -0.191373650896E+03    0.49174E-03   -0.31145E-03 10760   0.387E-01    0.205E-01
DAV:   6    -0.191373141889E+03    0.50901E-03   -0.13473E-03  9680   0.208E-01    0.826E-02
DAV:   7    -0.191373415432E+03   -0.27354E-03   -0.88732E-04  9280   0.207E-01    0.182E-01
DAV:   8    -0.191373083723E+03    0.33171E-03   -0.51064E-04  8360   0.163E-01    0.237E-02
DAV:   9    -0.191373093419E+03   -0.96963E-05   -0.37295E-05  5680   0.268E-02
  34 F= -.19137309E+03 E0= -.19126680E+03  d E =-.145085E-01
       N       E                     dE             d eps       ncg     rms          rms(c)
DAV:   1    -0.191386267666E+03   -0.13184E-01   -0.13514E+00  8160   0.246E+00    0.295E-01
DAV:   2    -0.191396950781E+03   -0.10683E-01   -0.49663E-02 13560   0.106E+00    0.986E-01
DAV:   3    -0.191388472399E+03    0.84784E-02   -0.21211E-02 11440   0.987E-01    0.276E-01
DAV:   4    -0.191388025217E+03    0.44718E-03   -0.27400E-03 11080   0.269E-01    0.179E-01
DAV:   5    -0.191387822466E+03    0.20275E-03   -0.15338E-03 10600   0.262E-01    0.166E-01
DAV:   6    -0.191387638414E+03    0.18405E-03   -0.91762E-04 10640   0.205E-01    0.102E-01
DAV:   7    -0.191387765148E+03   -0.12673E-03   -0.63863E-04  8360   0.183E-01    0.146E-01
DAV:   8    -0.191387535976E+03    0.22917E-03   -0.36290E-04  8080   0.142E-01    0.238E-02
DAV:   9    -0.191387540772E+03   -0.47965E-05   -0.32319E-05  5880   0.267E-02
  35 F= -.19138754E+03 E0= -.19128079E+03  d E =-.144474E-01
       N       E                     dE             d eps       ncg     rms          rms(c)
DAV:   1    -0.191382408564E+03    0.51274E-02   -0.45708E-01  8160   0.143E+00    0.161E-01
DAV:   2    -0.191385305317E+03   -0.28968E-02   -0.13885E-02 13440   0.564E-01    0.514E-01
DAV:   3    -0.191382930363E+03    0.23750E-02   -0.58171E-03 11440   0.520E-01    0.144E-01
DAV:   4    -0.191382814187E+03    0.11618E-03   -0.64955E-04  9600   0.128E-01    0.834E-02
DAV:   5    -0.191382784398E+03    0.29789E-04   -0.38937E-04  9080   0.130E-01
  36 F= -.19138278E+03 E0= -.19127627E+03  d E =0.475637E-02
       N       E                     dE             d eps       ncg     rms          rms(c)
DAV:   1    -0.191375376763E+03    0.74374E-02   -0.26246E+00  8160   0.342E+00    0.401E-01
DAV:   2    -0.191395568339E+03   -0.20192E-01   -0.83859E-02 13440   0.144E+00    0.139E+00
DAV:   3    -0.191378196359E+03    0.17372E-01   -0.38891E-02 12360   0.134E+00    0.316E-01
DAV:   4    -0.191378194930E+03    0.14298E-05   -0.45965E-03 11360   0.399E-01    0.332E-01
DAV:   5    -0.191377306849E+03    0.88808E-03   -0.35582E-03 12000   0.419E-01    0.200E-01
DAV:   6    -0.191377215434E+03    0.91415E-04   -0.15802E-03  9760   0.267E-01    0.176E-01
DAV:   7    -0.191377129410E+03    0.86024E-04   -0.11670E-03 10040   0.258E-01    0.142E-01
DAV:   8    -0.191376887607E+03    0.24180E-03   -0.36290E-04  8960   0.134E-01    0.212E-02
DAV:   9    -0.191376888873E+03   -0.12657E-05   -0.44680E-05  6160   0.252E-02
  37 F= -.19137689E+03 E0= -.19127099E+03  d E =0.589552E-02
       N       E                     dE             d eps       ncg     rms          rms(c)
DAV:   1    -0.191386615382E+03   -0.97278E-02   -0.17674E+00  8160   0.281E+00    0.334E-01
DAV:   2    -0.191399883328E+03   -0.13268E-01   -0.58731E-02 13520   0.124E+00    0.109E+00
DAV:   3    -0.191388734597E+03    0.11149E-01   -0.25283E-02 12200   0.112E+00    0.293E-01
DAV:   4    -0.191388605745E+03    0.12885E-03   -0.38917E-03 10960   0.368E-01    0.267E-01
DAV:   5    -0.191388003635E+03    0.60211E-03   -0.23441E-03 10520   0.347E-01    0.165E-01
DAV:   6    -0.191387743089E+03    0.26055E-03   -0.92497E-04 10640   0.184E-01    0.864E-02
DAV:   7    -0.191388001681E+03   -0.25859E-03   -0.82614E-04  9760   0.211E-01    0.181E-01
DAV:   8    -0.191387658501E+03    0.34318E-03   -0.46729E-04  8240   0.160E-01    0.164E-02
DAV:   9    -0.191387674484E+03   -0.15983E-04   -0.31256E-05  5560   0.219E-02
  38 F= -.19138767E+03 E0= -.19128112E+03  d E =-.107856E-01
       N       E                     dE             d eps       ncg     rms          rms(c)
DAV:   1    -0.191391315360E+03   -0.36569E-02   -0.12526E-01  8160   0.749E-01    0.867E-02
DAV:   2    -0.191392061955E+03   -0.74659E-03   -0.39021E-03 13600   0.293E-01    0.249E-01
DAV:   3    -0.191391467453E+03    0.59450E-03   -0.14711E-03  9920   0.270E-01    0.848E-02
DAV:   4    -0.191391472424E+03   -0.49713E-05   -0.30116E-04  7400   0.108E-01
  39 F= -.19139147E+03 E0= -.19128489E+03  d E =-.379794E-02
       N       E                     dE             d eps       ncg     rms          rms(c)
DAV:   1    -0.191390785456E+03    0.68200E-03   -0.24147E+00  8160   0.329E+00    0.400E-01
DAV:   2    -0.191410703303E+03   -0.19918E-01   -0.81554E-02 13600   0.151E+00    0.134E+00
DAV:   3    -0.191392684529E+03    0.18019E-01   -0.33480E-02 12320   0.134E+00    0.284E-01
DAV:   4    -0.191392565446E+03    0.11908E-03   -0.41100E-03 11280   0.371E-01    0.291E-01
DAV:   5    -0.191391728430E+03    0.83702E-03   -0.26762E-03 12520   0.386E-01    0.163E-01
DAV:   6    -0.191391551115E+03    0.17732E-03   -0.12130E-03  9680   0.207E-01    0.109E-01
DAV:   7    -0.191391689172E+03   -0.13806E-03   -0.10418E-03 10440   0.216E-01    0.178E-01
DAV:   8    -0.191391383461E+03    0.30571E-03   -0.50096E-04  8240   0.156E-01    0.278E-02
DAV:   9    -0.191391385987E+03   -0.25260E-05   -0.34594E-05  5640   0.254E-02
  40 F= -.19139139E+03 E0= -.19128521E+03  d E =0.864374E-04
       N       E                     dE             d eps       ncg     rms          rms(c)
DAV:   1    -0.191395337163E+03   -0.39537E-02   -0.22057E-01  8160   0.981E-01    0.119E-01
DAV:   2    -0.191397682742E+03   -0.23456E-02   -0.83327E-03 13600   0.527E-01    0.470E-01
DAV:   3    -0.191395519337E+03    0.21634E-02   -0.37580E-03 10680   0.439E-01    0.795E-02
DAV:   4    -0.191395610889E+03   -0.91552E-04   -0.38288E-04  8240   0.140E-01
  41 F= -.19139561E+03 E0= -.19128956E+03  d E =-.422490E-02
       N       E                     dE             d eps       ncg     rms          rms(c)
DAV:   1    -0.191410487626E+03   -0.14968E-01   -0.10934E+00  8160   0.223E+00    0.255E-01
DAV:   2    -0.191416528977E+03   -0.60414E-02   -0.32026E-02 13600   0.748E-01    0.720E-01
DAV:   3    -0.191411997761E+03    0.45312E-02   -0.12250E-02 11760   0.765E-01    0.266E-01
DAV:   4    -0.191411884163E+03    0.11360E-03   -0.27352E-03 11000   0.313E-01    0.228E-01
DAV:   5    -0.191411410100E+03    0.47406E-03   -0.15901E-03 10080   0.292E-01    0.125E-01
DAV:   6    -0.191411280131E+03    0.12997E-03   -0.62900E-04  9920   0.149E-01    0.622E-02
DAV:   7    -0.191411280471E+03   -0.33969E-06   -0.27625E-04  7240   0.954E-02
  42 F= -.19141128E+03 E0= -.19130565E+03  d E =-.156696E-01
       N       E                     dE             d eps       ncg     rms          rms(c)
DAV:   1    -0.191399883678E+03    0.11396E-01   -0.97584E-01  8160   0.210E+00    0.245E-01
DAV:   2    -0.191404543365E+03   -0.46597E-02   -0.27377E-02 13600   0.706E-01    0.621E-01
DAV:   3    -0.191401000532E+03    0.35428E-02   -0.10065E-02 12560   0.707E-01    0.257E-01
DAV:   4    -0.191400868914E+03    0.13162E-03   -0.25756E-03 10240   0.310E-01    0.225E-01
DAV:   5    -0.191400453719E+03    0.41519E-03   -0.16209E-03 10960   0.293E-01    0.132E-01
DAV:   6    -0.191400307916E+03    0.14580E-03   -0.63677E-04  8560   0.160E-01    0.870E-02
DAV:   7    -0.191400379386E+03   -0.71470E-04   -0.50800E-04  8560   0.169E-01
  43 F= -.19140038E+03 E0= -.19129444E+03  d E =0.109011E-01
       N       E                     dE             d eps       ncg     rms          rms(c)
DAV:   1    -0.191390546808E+03    0.97611E-02   -0.17298E+00  8160   0.279E+00    0.305E-01
DAV:   2    -0.191396096573E+03   -0.55498E-02   -0.42283E-02 13600   0.798E-01    0.627E-01
DAV:   3    -0.191392851513E+03    0.32451E-02   -0.12796E-02 12440   0.802E-01    0.355E-01
DAV:   4    -0.191392535980E+03    0.31553E-03   -0.43235E-03 10760   0.416E-01    0.296E-01
DAV:   5    -0.191391828099E+03    0.70788E-03   -0.26479E-03 10120   0.368E-01    0.170E-01
DAV:   6    -0.191391580456E+03    0.24764E-03   -0.10060E-03  9960   0.197E-01    0.893E-02
DAV:   7    -0.191391788324E+03   -0.20787E-03   -0.74211E-04  9480   0.203E-01    0.172E-01
DAV:   8    -0.191391484820E+03    0.30350E-03   -0.42509E-04  8160   0.155E-01    0.189E-02
DAV:   9    -0.191391496397E+03   -0.11577E-04   -0.30828E-05  5520   0.232E-02
  44 F= -.19139150E+03 E0= -.19128566E+03  d E =0.888299E-02
       N       E                     dE             d eps       ncg     rms          rms(c)
DAV:   1    -0.191400423283E+03   -0.89385E-02   -0.10569E+00  8160   0.216E+00    0.233E-01
DAV:   2    -0.191405447619E+03   -0.50243E-02   -0.26925E-02 13600   0.766E-01    0.668E-01
DAV:   3    -0.191401316695E+03    0.41309E-02   -0.95041E-03 11800   0.707E-01    0.190E-01
DAV:   4    -0.191401128920E+03    0.18778E-03   -0.12679E-03 10040   0.192E-01    0.143E-01
DAV:   5    -0.191401139291E+03   -0.10371E-04   -0.11367E-03 10600   0.238E-01    0.174E-01
DAV:   6    -0.191400920146E+03    0.21914E-03   -0.74279E-04  8520   0.178E-01    0.677E-02
DAV:   7    -0.191400905704E+03    0.14442E-04   -0.21375E-04  6080   0.927E-02
  45 F= -.19140091E+03 E0= -.19129530E+03  d E =-.940931E-02
       N       E                     dE             d eps       ncg     rms          rms(c)
DAV:   1    -0.191374259072E+03    0.26661E-01   -0.66845E+00  8160   0.543E+00    0.584E-01
DAV:   2    -0.191404465514E+03   -0.30206E-01   -0.16853E-01 13560   0.188E+00    0.165E+00
DAV:   3    -0.191380022424E+03    0.24443E-01   -0.58775E-02 12200   0.174E+00    0.488E-01
DAV:   4    -0.191377903535E+03    0.21189E-02   -0.71322E-03  9920   0.474E-01    0.282E-01
DAV:   5    -0.191378307764E+03   -0.40423E-03   -0.59105E-03 11520   0.535E-01    0.408E-01
DAV:   6    -0.191377269469E+03    0.10383E-02   -0.47897E-03 11440   0.474E-01    0.228E-01
DAV:   7    -0.191377095386E+03    0.17408E-03   -0.21517E-03  9840   0.309E-01    0.194E-01
DAV:   8    -0.191376676501E+03    0.41888E-03   -0.74743E-04  9400   0.190E-01    0.360E-02
DAV:   9    -0.191376675558E+03    0.94380E-06   -0.70166E-05  6080   0.409E-02
  46 F= -.19137668E+03 E0= -.19127045E+03  d E =0.242301E-01
       N       E                     dE             d eps       ncg     rms          rms(c)
DAV:   1    -0.191383714652E+03   -0.70382E-02   -0.30136E+00  8160   0.366E+00    0.411E-01
DAV:   2    -0.191399206849E+03   -0.15492E-01   -0.85548E-02 13600   0.146E+00    0.114E+00
DAV:   3    -0.191387096329E+03    0.12111E-01   -0.31698E-02 11840   0.124E+00    0.375E-01
DAV:   4    -0.191387479905E+03   -0.38358E-03   -0.67938E-03 10880   0.559E-01    0.430E-01
DAV:   5    -0.191385755770E+03    0.17241E-02   -0.42882E-03 10360   0.483E-01    0.189E-01
DAV:   6    -0.191385385955E+03    0.36982E-03   -0.13158E-03 10320   0.190E-01    0.731E-02
DAV:   7    -0.191385316779E+03    0.69176E-04   -0.34199E-04  9240   0.684E-02
  47 F= -.19138532E+03 E0= -.19127845E+03  d E =-.864122E-02
       N       E                     dE             d eps       ncg     rms          rms(c)
DAV:   1    -0.191395715697E+03   -0.10330E-01   -0.97947E-01  8160   0.208E+00    0.227E-01
DAV:   2    -0.191402456976E+03   -0.67413E-02   -0.30258E-02 13520   0.865E-01    0.783E-01
DAV:   3    -0.191396923338E+03    0.55336E-02   -0.12067E-02 11200   0.765E-01    0.183E-01
DAV:   4    -0.191396811185E+03    0.11215E-03   -0.13626E-03  9800   0.187E-01    0.145E-01
DAV:   5    -0.191396746752E+03    0.64433E-04   -0.99355E-04 10160   0.218E-01
  48 F= -.19139675E+03 E0= -.19129000E+03  d E =-.114300E-01
       N       E                     dE             d eps       ncg     rms          rms(c)
DAV:   1    -0.191396221141E+03    0.59004E-03   -0.58532E-01  8160   0.162E+00    0.176E-01
DAV:   2    -0.191397940610E+03   -0.17195E-02   -0.14029E-02 12840   0.461E-01    0.374E-01
DAV:   3    -0.191396900950E+03    0.10397E-02   -0.48168E-03 11400   0.470E-01    0.223E-01
DAV:   4    -0.191396526234E+03    0.37472E-03   -0.13626E-03  9560   0.216E-01    0.958E-02
DAV:   5    -0.191396389906E+03    0.13633E-03   -0.38632E-04  8040   0.988E-02    0.613E-02
DAV:   6    -0.191396494072E+03   -0.10417E-03   -0.42956E-04  9080   0.149E-01    0.120E-01
DAV:   7    -0.191396354367E+03    0.13971E-03   -0.24089E-04  6520   0.110E-01    0.195E-02
DAV:   8    -0.191396362746E+03   -0.83796E-05   -0.30001E-05  5560   0.262E-02
  49 F= -.19139636E+03 E0= -.19128958E+03  d E =0.384005E-03
       N       E                     dE             d eps       ncg     rms          rms(c)
DAV:   1    -0.191391424856E+03    0.49295E-02   -0.31411E+00  8160   0.371E+00    0.400E-01
DAV:   2    -0.191410450925E+03   -0.19026E-01   -0.85718E-02 13440   0.144E+00    0.132E+00
DAV:   3    -0.191394168770E+03    0.16282E-01   -0.37035E-02 12240   0.131E+00    0.302E-01
DAV:   4    -0.191393915417E+03    0.25335E-03   -0.36673E-03 11440   0.333E-01    0.246E-01
DAV:   5    -0.191393493421E+03    0.42200E-03   -0.26449E-03 10880   0.372E-01    0.219E-01
DAV:   6    -0.191393280098E+03    0.21332E-03   -0.16637E-03 10360   0.267E-01    0.144E-01
DAV:   7    -0.191393357345E+03   -0.77247E-04   -0.11551E-03 10760   0.239E-01    0.180E-01
DAV:   8    -0.191393023503E+03    0.33384E-03   -0.52063E-04  8160   0.162E-01    0.248E-02
DAV:   9    -0.191393035615E+03   -0.12112E-04   -0.36242E-05  6040   0.252E-02
  50 F= -.19139304E+03 E0= -.19128579E+03  d E =0.332713E-02
       N       E                     dE             d eps       ncg     rms          rms(c)
DAV:   1    -0.191407495300E+03   -0.14472E-01   -0.12909E+00  8160   0.241E+00    0.306E-01
DAV:   2    -0.191417427510E+03   -0.99322E-02   -0.45944E-02 13600   0.115E+00    0.968E-01
DAV:   3    -0.191408766584E+03    0.86609E-02   -0.19605E-02 12000   0.982E-01    0.272E-01
DAV:   4    -0.191408931655E+03   -0.16507E-03   -0.41137E-03 11320   0.411E-01    0.306E-01
DAV:   5    -0.191408091326E+03    0.84033E-03   -0.26490E-03 10120   0.355E-01    0.146E-01
DAV:   6    -0.191407871048E+03    0.22028E-03   -0.91022E-04  9960   0.163E-01    0.849E-02
DAV:   7    -0.191408035396E+03   -0.16435E-03   -0.72793E-04  9160   0.192E-01    0.158E-01
DAV:   8    -0.191407779279E+03    0.25612E-03   -0.40267E-04  7840   0.141E-01    0.189E-02
DAV:   9    -0.191407790390E+03   -0.11111E-04   -0.33074E-05  5480   0.231E-02
  51 F= -.19140779E+03 E0= -.19129991E+03  d E =-.147548E-01
       N       E                     dE             d eps       ncg     rms          rms(c)
DAV:   1    -0.191412831810E+03   -0.50525E-02   -0.14253E-01  8160   0.800E-01    0.915E-02
DAV:   2    -0.191413767401E+03   -0.93559E-03   -0.45962E-03 13600   0.318E-01    0.289E-01
DAV:   3    -0.191413012790E+03    0.75461E-03   -0.18611E-03  9760   0.291E-01    0.870E-02
DAV:   4    -0.191412994829E+03    0.17961E-04   -0.27378E-04  7320   0.913E-02
  52 F= -.19141299E+03 E0= -.19130518E+03  d E =-.520444E-02
       N       E                     dE             d eps       ncg     rms          rms(c)
DAV:   1    -0.191402020570E+03    0.10992E-01   -0.10724E+00  8160   0.220E+00    0.275E-01
DAV:   2    -0.191409001129E+03   -0.69806E-02   -0.36042E-02 13600   0.102E+00    0.770E-01
DAV:   3    -0.191402824879E+03    0.61763E-02   -0.11886E-02 11840   0.800E-01    0.222E-01
DAV:   4    -0.191403248221E+03   -0.42334E-03   -0.35317E-03 10920   0.382E-01    0.308E-01
DAV:   5    -0.191402405485E+03    0.84274E-03   -0.26748E-03  9880   0.347E-01    0.134E-01
DAV:   6    -0.191402235307E+03    0.17018E-03   -0.73831E-04 10000   0.136E-01    0.563E-02
DAV:   7    -0.191402239443E+03   -0.41360E-05   -0.30786E-04  8480   0.919E-02
  53 F= -.19140224E+03 E0= -.19129435E+03  d E =0.107554E-01
       N       E                     dE             d eps       ncg     rms          rms(c)
DAV:   1    -0.191379208879E+03    0.23026E-01   -0.58583E+00  8160   0.513E+00    0.542E-01
DAV:   2    -0.191401524006E+03   -0.22315E-01   -0.14910E-01 13600   0.156E+00    0.127E+00
DAV:   3    -0.191387442394E+03    0.14082E-01   -0.50262E-02 12160   0.150E+00    0.648E-01
DAV:   4    -0.191384791591E+03    0.26508E-02   -0.12096E-02 11760   0.611E-01    0.321E-01
DAV:   5    -0.191383762806E+03    0.10288E-02   -0.50847E-03 12040   0.426E-01    0.292E-01
DAV:   6    -0.191383397127E+03    0.36568E-03   -0.37445E-03 11640   0.431E-01    0.222E-01
DAV:   7    -0.191383319111E+03    0.78016E-04   -0.20038E-03 10320   0.293E-01    0.214E-01
DAV:   8    -0.191382884291E+03    0.43482E-03   -0.90106E-04  8480   0.209E-01    0.604E-02
DAV:   9    -0.191382857594E+03    0.26698E-04   -0.11017E-04  5880   0.626E-02
  54 F= -.19138286E+03 E0= -.19127515E+03  d E =0.193818E-01
       N       E                     dE             d eps       ncg     rms          rms(c)
DAV:   1    -0.191399441538E+03   -0.16557E-01   -0.20477E+00  8160   0.303E+00    0.368E-01
DAV:   2    -0.191413806969E+03   -0.14365E-01   -0.69763E-02 13600   0.132E+00    0.113E+00
DAV:   3    -0.191402148780E+03    0.11658E-01   -0.30283E-02 12040   0.118E+00    0.376E-01
DAV:   4    -0.191401837385E+03    0.31140E-03   -0.63842E-03 10920   0.487E-01    0.342E-01
DAV:   5    -0.191400924992E+03    0.91239E-03   -0.39483E-03 10680   0.424E-01    0.201E-01
DAV:   6    -0.191400408511E+03    0.51648E-03   -0.13573E-03 10280   0.199E-01    0.690E-02
DAV:   7    -0.191400651290E+03   -0.24278E-03   -0.72985E-04  9160   0.176E-01    0.168E-01
DAV:   8    -0.191400372874E+03    0.27842E-03   -0.52610E-04  8400   0.165E-01    0.408E-02
DAV:   9    -0.191400368310E+03    0.45637E-05   -0.55639E-05  5680   0.390E-02
  55 F= -.19140037E+03 E0= -.19129157E+03  d E =-.175107E-01
       N       E                     dE             d eps       ncg     rms          rms(c)
DAV:   1    -0.191402074187E+03   -0.17013E-02   -0.16779E-02  8160   0.275E-01    0.325E-02
DAV:   2    -0.191402170025E+03   -0.95838E-04   -0.53937E-04 11880   0.107E-01
  56 F= -.19140217E+03 E0= -.19129327E+03  d E =-.180171E-02
       N       E                     dE             d eps       ncg     rms          rms(c)
DAV:   1    -0.191402454628E+03   -0.38044E-03   -0.24030E-01  8160   0.103E+00    0.104E-01
DAV:   2    -0.191403254790E+03   -0.80016E-03   -0.53257E-03 12240   0.301E-01    0.252E-01
DAV:   3    -0.191402702022E+03    0.55277E-03   -0.18759E-03 10280   0.291E-01    0.118E-01
DAV:   4    -0.191402662591E+03    0.39431E-04   -0.46458E-04  8120   0.136E-01
  57 F= -.19140266E+03 E0= -.19129362E+03  d E =-.492566E-03
       N       E                     dE             d eps       ncg     rms          rms(c)
DAV:   1    -0.191416297842E+03   -0.13596E-01   -0.15328E+00  8160   0.263E+00    0.281E-01
DAV:   2    -0.191423236272E+03   -0.69384E-02   -0.45089E-02 13440   0.902E-01    0.749E-01
DAV:   3    -0.191418673578E+03    0.45627E-02   -0.15682E-02 12120   0.822E-01    0.311E-01
DAV:   4    -0.191418025066E+03    0.64851E-03   -0.28935E-03 11000   0.296E-01    0.171E-01
DAV:   5    -0.191417912629E+03    0.11244E-03   -0.16718E-03 10600   0.272E-01    0.182E-01
DAV:   6    -0.191417649527E+03    0.26310E-03   -0.10991E-03 10200   0.213E-01    0.935E-02
DAV:   7    -0.191417804862E+03   -0.15533E-03   -0.68428E-04  8280   0.183E-01    0.156E-01
DAV:   8    -0.191417549942E+03    0.25492E-03   -0.39931E-04  8080   0.143E-01    0.225E-02
DAV:   9    -0.191417560252E+03   -0.10310E-04   -0.34465E-05  5520   0.269E-02
  58 F= -.19141756E+03 E0= -.19130782E+03  d E =-.148977E-01
       N       E                     dE             d eps       ncg     rms          rms(c)
DAV:   1    -0.191399644627E+03    0.17905E-01   -0.18971E+00  8160   0.292E+00    0.326E-01
DAV:   2    -0.191409168797E+03   -0.95242E-02   -0.55009E-02 13520   0.106E+00    0.890E-01
DAV:   3    -0.191402139898E+03    0.70289E-02   -0.20957E-02 12360   0.965E-01    0.353E-01
DAV:   4    -0.191401700128E+03    0.43977E-03   -0.45469E-03 10840   0.404E-01    0.276E-01
DAV:   5    -0.191401133997E+03    0.56613E-03   -0.26935E-03 11800   0.364E-01    0.185E-01
DAV:   6    -0.191400735661E+03    0.39834E-03   -0.11507E-03 10040   0.201E-01    0.651E-02
DAV:   7    -0.191400762655E+03   -0.26994E-04   -0.33644E-04  8920   0.909E-02
  59 F= -.19140076E+03 E0= -.19129170E+03  d E =0.167976E-01
       N       E                     dE             d eps       ncg     rms          rms(c)
DAV:   1    -0.191364727810E+03    0.36008E-01   -0.86998E+00  8160   0.625E+00    0.681E-01
DAV:   2    -0.191404399641E+03   -0.39672E-01   -0.24427E-01 13480   0.213E+00    0.177E+00
DAV:   3    -0.191377428614E+03    0.26971E-01   -0.85709E-02 12320   0.197E+00    0.753E-01
DAV:   4    -0.191375603403E+03    0.18252E-02   -0.19763E-02 10920   0.864E-01    0.608E-01
DAV:   5    -0.191372479285E+03    0.31241E-02   -0.11711E-02 12200   0.771E-01    0.363E-01
DAV:   6    -0.191371035903E+03    0.14434E-02   -0.45691E-03 11800   0.400E-01    0.153E-01
DAV:   7    -0.191371574843E+03   -0.53894E-03   -0.23964E-03 12520   0.308E-01    0.285E-01
DAV:   8    -0.191370782568E+03    0.79228E-03   -0.14957E-03  9840   0.276E-01    0.692E-02
DAV:   9    -0.191370749519E+03    0.33049E-04   -0.13401E-04  5640   0.636E-02
  60 F= -.19137075E+03 E0= -.19126339E+03  d E =0.300131E-01
       N       E                     dE             d eps       ncg     rms          rms(c)
DAV:   1    -0.191383979711E+03   -0.13197E-01   -0.12319E+00  8160   0.235E+00    0.273E-01
DAV:   2    -0.191392205170E+03   -0.82255E-02   -0.45830E-02 13600   0.914E-01    0.817E-01
DAV:   3    -0.191386535073E+03    0.56701E-02   -0.17815E-02 11400   0.876E-01    0.311E-01
DAV:   4    -0.191385901875E+03    0.63320E-03   -0.29723E-03 11000   0.300E-01    0.194E-01
DAV:   5    -0.191385593234E+03    0.30864E-03   -0.13386E-03 10280   0.254E-01    0.133E-01
DAV:   6    -0.191385453816E+03    0.13942E-03   -0.72887E-04 10360   0.167E-01    0.782E-02
DAV:   7    -0.191385462884E+03   -0.90677E-05   -0.38227E-04  8440   0.110E-01
  61 F= -.19138546E+03 E0= -.19127735E+03  d E =-.147134E-01
       N       E                     dE             d eps       ncg     rms          rms(c)
DAV:   1    -0.191388031357E+03   -0.25775E-02   -0.35797E-01  8160   0.129E+00    0.172E-01
DAV:   2    -0.191390115814E+03   -0.20845E-02   -0.13031E-02 13520   0.512E-01    0.442E-01
DAV:   3    -0.191388488925E+03    0.16269E-02   -0.55799E-03 11120   0.501E-01    0.200E-01
DAV:   4    -0.191388210795E+03    0.27813E-03   -0.12927E-03  9520   0.209E-01    0.115E-01
DAV:   5    -0.191388161473E+03    0.49323E-04   -0.71787E-04  9080   0.171E-01
  62 F= -.19138816E+03 E0= -.19127947E+03  d E =-.269859E-02
       N       E                     dE             d eps       ncg     rms          rms(c)
DAV:   1    -0.191398937522E+03   -0.10727E-01   -0.23972E+00  8160   0.327E+00    0.352E-01
DAV:   2    -0.191409198533E+03   -0.10261E-01   -0.60116E-02 13000   0.992E-01    0.928E-01
DAV:   3    -0.191401809270E+03    0.73893E-02   -0.25733E-02 11400   0.106E+00    0.409E-01
DAV:   4    -0.191401004553E+03    0.80472E-03   -0.55941E-03 10920   0.462E-01    0.293E-01
DAV:   5    -0.191400434264E+03    0.57029E-03   -0.30516E-03 10840   0.408E-01    0.218E-01
DAV:   6    -0.191399907893E+03    0.52637E-03   -0.11874E-03 10320   0.213E-01    0.742E-02
DAV:   7    -0.191399894507E+03    0.13387E-04   -0.35092E-04  8880   0.687E-02
  63 F= -.19139989E+03 E0= -.19129111E+03  d E =-.117330E-01
       N       E                     dE             d eps       ncg     rms          rms(c)
DAV:   1    -0.191408873489E+03   -0.89656E-02   -0.14520E+00  8160   0.259E+00    0.366E-01
DAV:   2    -0.191420245313E+03   -0.11372E-01   -0.57836E-02 13600   0.121E+00    0.111E+00
DAV:   3    -0.191409733985E+03    0.10511E-01   -0.28107E-02 11880   0.111E+00    0.337E-01
DAV:   4    -0.191409593055E+03    0.14093E-03   -0.57969E-03 11360   0.479E-01    0.343E-01
DAV:   5    -0.191408664685E+03    0.92837E-03   -0.43640E-03 11000   0.446E-01    0.225E-01
DAV:   6    -0.191408258610E+03    0.40607E-03   -0.22100E-03  9680   0.262E-01    0.157E-01
DAV:   7    -0.191408240090E+03    0.18520E-04   -0.12519E-03  9680   0.233E-01    0.152E-01
DAV:   8    -0.191408013567E+03    0.22652E-03   -0.45610E-04  8160   0.140E-01    0.333E-02
DAV:   9    -0.191408006176E+03    0.73910E-05   -0.52914E-05  6360   0.335E-02
  64 F= -.19140801E+03 E0= -.19129819E+03  d E =-.811167E-02
       N       E                     dE             d eps       ncg     rms          rms(c)
DAV:   1    -0.191406906362E+03    0.11072E-02   -0.16277E+00  8160   0.271E+00    0.314E-01
DAV:   2    -0.191418116177E+03   -0.11210E-01   -0.48456E-02 13520   0.109E+00    0.102E+00
DAV:   3    -0.191408378682E+03    0.97375E-02   -0.21082E-02 12160   0.101E+00    0.261E-01
DAV:   4    -0.191408192037E+03    0.18665E-03   -0.29436E-03 10520   0.297E-01    0.212E-01
DAV:   5    -0.191407965576E+03    0.22646E-03   -0.21943E-03 11320   0.331E-01    0.211E-01
DAV:   6    -0.191407666911E+03    0.29866E-03   -0.13533E-03  9680   0.237E-01    0.125E-01
DAV:   7    -0.191407753741E+03   -0.86830E-04   -0.95725E-04  9040   0.203E-01
  65 F= -.19140775E+03 E0= -.19129767E+03  d E =0.252434E-03
       N       E                     dE             d eps       ncg     rms          rms(c)
DAV:   1    -0.191432514793E+03   -0.24848E-01   -0.21568E+00  8160   0.309E+00    0.320E-01
DAV:   2    -0.191440143189E+03   -0.76284E-02   -0.57031E-02 13440   0.865E-01    0.754E-01
DAV:   3    -0.191436081153E+03    0.40620E-02   -0.19975E-02 12160   0.901E-01    0.417E-01
DAV:   4    -0.191435211841E+03    0.86931E-03   -0.50864E-03 10920   0.408E-01    0.288E-01
DAV:   5    -0.191434442357E+03    0.76948E-03   -0.24450E-03 10040   0.343E-01    0.144E-01
DAV:   6    -0.191434316904E+03    0.12545E-03   -0.92742E-04 11160   0.167E-01    0.745E-02
DAV:   7    -0.191434262231E+03    0.54673E-04   -0.34702E-04  8640   0.870E-02
  66 F= -.19143426E+03 E0= -.19132387E+03  d E =-.265085E-01
       N       E                     dE             d eps       ncg     rms          rms(c)
DAV:   1    -0.191402746089E+03    0.31571E-01   -0.26768E+00  8160   0.344E+00    0.359E-01
DAV:   2    -0.191415153964E+03   -0.12408E-01   -0.71401E-02 13400   0.126E+00    0.946E-01
DAV:   3    -0.191405885094E+03    0.92689E-02   -0.19568E-02 11560   0.102E+00    0.308E-01
DAV:   4    -0.191406645397E+03   -0.76030E-03   -0.58286E-03 11120   0.496E-01    0.423E-01
DAV:   5    -0.191404923678E+03    0.17217E-02   -0.41927E-03 10800   0.444E-01    0.138E-01
DAV:   6    -0.191404917881E+03    0.57975E-05   -0.10700E-03 10240   0.155E-01    0.100E-01
DAV:   7    -0.191404954837E+03   -0.36956E-04   -0.79385E-04  9920   0.181E-01
  67 F= -.19140495E+03 E0= -.19129559E+03  d E =0.293074E-01
       N       E                     dE             d eps       ncg     rms          rms(c)
DAV:   1    -0.191389763395E+03    0.15154E-01   -0.16454E+00  8160   0.273E+00    0.333E-01
DAV:   2    -0.191396508764E+03   -0.67454E-02   -0.50802E-02 12600   0.958E-01    0.823E-01
DAV:   3    -0.191391729847E+03    0.47789E-02   -0.18605E-02 11080   0.891E-01    0.369E-01
DAV:   4    -0.191390586818E+03    0.11430E-02   -0.39713E-03 11320   0.397E-01    0.224E-01
DAV:   5    -0.191390668025E+03   -0.81207E-04   -0.28914E-03 10600   0.385E-01    0.264E-01
DAV:   6    -0.191390107130E+03    0.56090E-03   -0.20750E-03 10160   0.286E-01    0.148E-01
DAV:   7    -0.191390038869E+03    0.68261E-04   -0.10135E-03  8920   0.219E-01    0.130E-01
DAV:   8    -0.191389867166E+03    0.17170E-03   -0.34952E-04  7680   0.125E-01    0.286E-02
DAV:   9    -0.191389860633E+03    0.65329E-05   -0.42256E-05  6640   0.303E-02
  68 F= -.19138986E+03 E0= -.19128077E+03  d E =0.150942E-01
       N       E                     dE             d eps       ncg     rms          rms(c)
DAV:   1    -0.191414687475E+03   -0.24820E-01   -0.32067E+00  8160   0.378E+00    0.407E-01
DAV:   2    -0.191425132739E+03   -0.10445E-01   -0.87632E-02 12880   0.111E+00    0.894E-01
DAV:   3    -0.191419921391E+03    0.52113E-02   -0.28987E-02 12360   0.110E+00    0.544E-01
DAV:   4    -0.191417418555E+03    0.25028E-02   -0.66962E-03 10880   0.450E-01    0.225E-01
DAV:   5    -0.191417481703E+03   -0.63148E-04   -0.33203E-03 11040   0.394E-01    0.272E-01
DAV:   6    -0.191416977844E+03    0.50386E-03   -0.26852E-03 11440   0.346E-01    0.161E-01
DAV:   7    -0.191416997991E+03   -0.20148E-04   -0.13824E-03 10120   0.249E-01    0.183E-01
DAV:   8    -0.191416688196E+03    0.30980E-03   -0.62535E-04  8280   0.179E-01    0.437E-02
DAV:   9    -0.191416678845E+03    0.93513E-05   -0.59689E-05  5560   0.391E-02
  69 F= -.19141668E+03 E0= -.19130682E+03  d E =-.268182E-01
       N       E                     dE             d eps       ncg     rms          rms(c)
DAV:   1    -0.191421412492E+03   -0.47243E-02   -0.12103E-01  8160   0.740E-01    0.854E-02
DAV:   2    -0.191421951450E+03   -0.53896E-03   -0.38573E-03 13440   0.241E-01    0.207E-01
DAV:   3    -0.191421619406E+03    0.33204E-03   -0.14168E-03  9680   0.243E-01    0.110E-01
DAV:   4    -0.191421555777E+03    0.63630E-04   -0.33970E-04  7280   0.104E-01
  70 F= -.19142156E+03 E0= -.19131175E+03  d E =-.487693E-02
       N       E                     dE             d eps       ncg     rms          rms(c)
DAV:   1    -0.191423087377E+03   -0.14680E-02   -0.14953E+00  8160   0.275E+00    0.433E-01
DAV:   2    -0.191422136923E+03    0.95045E-03   -0.45797E-02 12520   0.711E-01    0.448E-01
DAV:   3    -0.191423560664E+03   -0.14237E-02   -0.16045E-02 11480   0.885E-01    0.652E-01
DAV:   4    -0.191420331570E+03    0.32291E-02   -0.12188E-02 11480   0.765E-01    0.385E-01
DAV:   5    -0.191419655304E+03    0.67627E-03   -0.61300E-03  9760   0.507E-01    0.332E-01
DAV:   6    -0.191418565729E+03    0.10896E-02   -0.32705E-03 11240   0.386E-01    0.127E-01
DAV:   7    -0.191418362516E+03    0.20321E-03   -0.57458E-04  8960   0.117E-01    0.347E-02
DAV:   8    -0.191418338172E+03    0.24344E-04   -0.86731E-05  7480   0.361E-02
  71 F= -.19141834E+03 E0= -.19130733E+03  d E =0.321760E-02
       N       E                     dE             d eps       ncg     rms          rms(c)
DAV:   1    -0.191451939429E+03   -0.33577E-01   -0.39497E+00  8160   0.426E+00    0.543E-01
DAV:   2    -0.191464830374E+03   -0.12891E-01   -0.12692E-01 13200   0.130E+00    0.108E+00
DAV:   3    -0.191458863046E+03    0.59673E-02   -0.53152E-02 12280   0.145E+00    0.830E-01
DAV:   4    -0.191453463710E+03    0.53993E-02   -0.16551E-02 11360   0.709E-01    0.352E-01
DAV:   5    -0.191452917302E+03    0.54641E-03   -0.69018E-03 11080   0.569E-01    0.360E-01
DAV:   6    -0.191451717390E+03    0.11999E-02   -0.45005E-03 12320   0.446E-01    0.161E-01
DAV:   7    -0.191451581926E+03    0.13546E-03   -0.14900E-03 11080   0.211E-01    0.139E-01
DAV:   8    -0.191451482328E+03    0.99598E-04   -0.71823E-04  8600   0.186E-01
  72 F= -.19145148E+03 E0= -.19134064E+03  d E =-.331442E-01
       N       E                     dE             d eps       ncg     rms          rms(c)
DAV:   1    -0.191478475096E+03   -0.26893E-01   -0.17189E+00  8160   0.275E+00    0.272E-01
DAV:   2    -0.191483176048E+03   -0.47010E-02   -0.38235E-02 12800   0.754E-01    0.575E-01
DAV:   3    -0.191480809758E+03    0.23663E-02   -0.12162E-02 12000   0.723E-01    0.343E-01
DAV:   4    -0.191480597129E+03    0.21263E-03   -0.44581E-03 10720   0.394E-01    0.298E-01
DAV:   5    -0.191479780007E+03    0.81712E-03   -0.25372E-03  9680   0.334E-01    0.133E-01
DAV:   6    -0.191479700954E+03    0.79054E-04   -0.87193E-04 10320   0.146E-01
  73 F= -.19147970E+03 E0= -.19136867E+03  d E =-.282186E-01
       N       E                     dE             d eps       ncg     rms          rms(c)
DAV:   1    -0.191355685460E+03    0.12409E+00   -0.40649E+01  8160   0.135E+01    0.128E+00
DAV:   2    -0.191456322294E+03   -0.10064E+00   -0.89960E-01 12360   0.326E+00    0.234E+00
DAV:   3    -0.191419408829E+03    0.36913E-01   -0.20484E-01 12320   0.317E+00    0.165E+00
DAV:   4    -0.191405414617E+03    0.13994E-01   -0.74082E-02 12160   0.174E+00    0.119E+00
DAV:   5    -0.191394508689E+03    0.10906E-01   -0.48282E-02 11320   0.152E+00    0.686E-01
DAV:   6    -0.191391569549E+03    0.29391E-02   -0.18464E-02 12440   0.777E-01    0.385E-01
DAV:   7    -0.191390953488E+03    0.61606E-03   -0.10001E-02 11680   0.609E-01    0.477E-01
DAV:   8    -0.191388895058E+03    0.20584E-02   -0.44629E-03 11080   0.474E-01    0.127E-01
DAV:   9    -0.191388720495E+03    0.17456E-03   -0.53676E-04  9520   0.111E-01    0.473E-02
DAV:  10    -0.191388683074E+03    0.37421E-04   -0.19788E-04  8600   0.468E-02
  74 F= -.19138868E+03 E0= -.19128192E+03  d E =0.910179E-01
       N       E                     dE             d eps       ncg     rms          rms(c)
DAV:   1    -0.191394465886E+03   -0.57454E-02   -0.61709E-01  8160   0.168E+00    0.164E-01
DAV:   2    -0.191395262071E+03   -0.79618E-03   -0.11774E-02 12600   0.334E-01    0.198E-01
DAV:   3    -0.191395507191E+03   -0.24512E-03   -0.27661E-03 12160   0.366E-01    0.275E-01
DAV:   4    -0.191394872910E+03    0.63428E-03   -0.14163E-03  9520   0.257E-01    0.882E-02
DAV:   5    -0.191394769381E+03    0.10353E-03   -0.37354E-04  7080   0.859E-02    0.491E-02
DAV:   6    -0.191394837362E+03   -0.67980E-04   -0.27603E-04  9000   0.114E-01
  75 F= -.19139484E+03 E0= -.19128881E+03  d E =-.615429E-02
       N       E                     dE             d eps       ncg     rms          rms(c)
DAV:   1    -0.191401589198E+03   -0.68198E-02   -0.46016E-01  8160   0.144E+00    0.151E-01
DAV:   2    -0.191403066233E+03   -0.14770E-02   -0.13363E-02 13320   0.425E-01    0.280E-01
DAV:   3    -0.191402596171E+03    0.47006E-03   -0.33560E-03 12320   0.397E-01    0.216E-01
DAV:   4    -0.191402289847E+03    0.30632E-03   -0.11457E-03  8960   0.213E-01    0.120E-01
DAV:   5    -0.191402192696E+03    0.97151E-04   -0.52896E-04  8200   0.158E-01
  76 F= -.19140219E+03 E0= -.19129578E+03  d E =-.735533E-02
       N       E                     dE             d eps       ncg     rms          rms(c)
DAV:   1    -0.191403627579E+03   -0.13377E-02   -0.44098E-02  8160   0.453E-01    0.747E-02
DAV:   2    -0.191404252528E+03   -0.62495E-03   -0.20426E-03 12640   0.271E-01    0.235E-01
DAV:   3    -0.191403632480E+03    0.62005E-03   -0.10963E-03 10000   0.245E-01    0.572E-02
DAV:   4    -0.191403661655E+03   -0.29174E-04   -0.17767E-04  6200   0.911E-02
  77 F= -.19140366E+03 E0= -.19129717E+03  d E =-.146896E-02
       N       E                     dE             d eps       ncg     rms          rms(c)
DAV:   1    -0.191418819103E+03   -0.15187E-01   -0.13128E+00  8160   0.244E+00    0.267E-01
DAV:   2    -0.191423866613E+03   -0.50475E-02   -0.36574E-02 13600   0.790E-01    0.601E-01
DAV:   3    -0.191420915183E+03    0.29514E-02   -0.11146E-02 12320   0.745E-01    0.313E-01
DAV:   4    -0.191420561086E+03    0.35410E-03   -0.32028E-03 10600   0.360E-01    0.249E-01
DAV:   5    -0.191420047933E+03    0.51315E-03   -0.19097E-03  9680   0.310E-01    0.147E-01
DAV:   6    -0.191419838003E+03    0.20993E-03   -0.72146E-04 10200   0.148E-01    0.597E-02
DAV:   7    -0.191419962016E+03   -0.12401E-03   -0.46024E-04  8800   0.142E-01    0.130E-01
DAV:   8    -0.191419788292E+03    0.17372E-03   -0.27553E-04  7200   0.118E-01    0.170E-02
DAV:   9    -0.191419797456E+03   -0.91641E-05   -0.22161E-05  5640   0.207E-02
  78 F= -.19141980E+03 E0= -.19131315E+03  d E =-.161358E-01
       N       E                     dE             d eps       ncg     rms          rms(c)
DAV:   1    -0.191380206902E+03    0.39581E-01   -0.70579E+00  8160   0.565E+00    0.609E-01
DAV:   2    -0.191409958764E+03   -0.29752E-01   -0.20219E-01 13560   0.188E+00    0.142E+00
DAV:   3    -0.191391481083E+03    0.18478E-01   -0.56035E-02 12000   0.170E+00    0.680E-01
DAV:   4    -0.191389592236E+03    0.18888E-02   -0.15073E-02 11760   0.782E-01    0.538E-01
DAV:   5    -0.191387210140E+03    0.23821E-02   -0.92764E-03 11520   0.671E-01    0.329E-01
DAV:   6    -0.191386339588E+03    0.87055E-03   -0.39845E-03 11840   0.388E-01    0.210E-01
DAV:   7    -0.191387153748E+03   -0.81416E-03   -0.38547E-03 10160   0.431E-01    0.361E-01
DAV:   8    -0.191385864916E+03    0.12888E-02   -0.20725E-03  9600   0.310E-01    0.453E-02
DAV:   9    -0.191385866140E+03   -0.12244E-05   -0.11323E-04  5640   0.459E-02
  79 F= -.19138587E+03 E0= -.19127953E+03  d E =0.339313E-01
       N       E                     dE             d eps       ncg     rms          rms(c)
DAV:   1    -0.191367080505E+03    0.18784E-01   -0.48519E+00  8160   0.468E+00    0.515E-01
DAV:   2    -0.191390810159E+03   -0.23730E-01   -0.14045E-01 13560   0.168E+00    0.133E+00
DAV:   3    -0.191374058341E+03    0.16752E-01   -0.43988E-02 12040   0.151E+00    0.539E-01
DAV:   4    -0.191373287037E+03    0.77130E-03   -0.10805E-02 10480   0.651E-01    0.474E-01
DAV:   5    -0.191371399368E+03    0.18877E-02   -0.69088E-03 11440   0.579E-01    0.274E-01
DAV:   6    -0.191370900821E+03    0.49855E-03   -0.27979E-03 11760   0.336E-01    0.205E-01
DAV:   7    -0.191371224250E+03   -0.32343E-03   -0.25760E-03 10200   0.364E-01    0.267E-01
DAV:   8    -0.191370487908E+03    0.73634E-03   -0.11501E-03  9760   0.231E-01    0.352E-02
DAV:   9    -0.191370487522E+03    0.38615E-06   -0.76441E-05  5800   0.366E-02
  80 F= -.19137049E+03 E0= -.19126449E+03  d E =0.153786E-01
       N       E                     dE             d eps       ncg     rms          rms(c)
DAV:   1    -0.191372929176E+03   -0.24413E-02   -0.10056E-01  8160   0.698E-01    0.111E-01
DAV:   2    -0.191373072790E+03   -0.14361E-03   -0.33977E-03 12640   0.249E-01    0.182E-01
DAV:   3    -0.191372910260E+03    0.16253E-03   -0.13633E-03 10120   0.261E-01    0.143E-01
DAV:   4    -0.191372778439E+03    0.13182E-03   -0.67716E-04  8160   0.170E-01    0.106E-01
DAV:   5    -0.191372726100E+03    0.52339E-04   -0.45316E-04  8080   0.150E-01
  81 F= -.19137273E+03 E0= -.19126667E+03  d E =-.223858E-02
       N       E                     dE             d eps       ncg     rms          rms(c)
DAV:   1    -0.191375164377E+03   -0.23859E-02   -0.16493E-01  8160   0.864E-01    0.983E-02
DAV:   2    -0.191376088250E+03   -0.92387E-03   -0.54907E-03 13320   0.303E-01    0.260E-01
DAV:   3    -0.191375476447E+03    0.61180E-03   -0.17367E-03 10000   0.293E-01    0.110E-01
DAV:   4    -0.191375449439E+03    0.27008E-04   -0.42594E-04  8120   0.129E-01
  82 F= -.19137545E+03 E0= -.19126931E+03  d E =-.272334E-02
       N       E                     dE             d eps       ncg     rms          rms(c)
DAV:   1    -0.191382059843E+03   -0.65834E-02   -0.47189E-01  8160   0.146E+00    0.183E-01
DAV:   2    -0.191386044679E+03   -0.39848E-02   -0.16481E-02 13600   0.619E-01    0.617E-01
DAV:   3    -0.191382625127E+03    0.34196E-02   -0.82500E-03 11400   0.617E-01    0.175E-01
DAV:   4    -0.191382425451E+03    0.19968E-03   -0.10302E-03  9720   0.156E-01    0.922E-02
DAV:   5    -0.191382388903E+03    0.36548E-04   -0.48830E-04  9880   0.150E-01
  83 F= -.19138239E+03 E0= -.19127639E+03  d E =-.693946E-02
       N       E                     dE             d eps       ncg     rms          rms(c)
DAV:   1    -0.191383591132E+03   -0.11657E-02   -0.54540E-02  8160   0.518E-01    0.116E-01
DAV:   2    -0.191384864882E+03   -0.12737E-02   -0.42738E-03 11800   0.403E-01    0.377E-01
DAV:   3    -0.191383407988E+03    0.14569E-02   -0.24520E-03 10080   0.367E-01    0.862E-02
DAV:   4    -0.191383484629E+03   -0.76640E-04   -0.40907E-04  8280   0.150E-01
  84 F= -.19138348E+03 E0= -.19127738E+03  d E =-.109573E-02
       N       E                     dE             d eps       ncg     rms          rms(c)
DAV:   1    -0.191392321456E+03   -0.89135E-02   -0.61077E-01  8160   0.167E+00    0.226E-01
DAV:   2    -0.191397770025E+03   -0.54486E-02   -0.22739E-02 13600   0.841E-01    0.722E-01
DAV:   3    -0.191392769959E+03    0.50001E-02   -0.99083E-03 11240   0.714E-01    0.191E-01
DAV:   4    -0.191393069732E+03   -0.29977E-03   -0.24115E-03 10040   0.332E-01    0.253E-01
DAV:   5    -0.191392437343E+03    0.63239E-03   -0.15938E-03  9720   0.277E-01    0.941E-02
DAV:   6    -0.191392390673E+03    0.46670E-04   -0.48172E-04  8640   0.117E-01
  85 F= -.19139239E+03 E0= -.19128664E+03  d E =-.890604E-02
       N       E                     dE             d eps       ncg     rms          rms(c)
DAV:   1    -0.191372795892E+03    0.19641E-01   -0.29388E+00  8160   0.365E+00    0.418E-01
DAV:   2    -0.191390495906E+03   -0.17700E-01   -0.86663E-02 13600   0.138E+00    0.123E+00
DAV:   3    -0.191376151089E+03    0.14345E-01   -0.31690E-02 12400   0.130E+00    0.373E-01
DAV:   4    -0.191375648659E+03    0.50243E-03   -0.54704E-03 10560   0.446E-01    0.293E-01
DAV:   5    -0.191374975711E+03    0.67295E-03   -0.36009E-03 11960   0.433E-01    0.230E-01
DAV:   6    -0.191374460167E+03    0.51554E-03   -0.17286E-03 11120   0.263E-01    0.891E-02
DAV:   7    -0.191374396320E+03    0.63847E-04   -0.50235E-04 10240   0.102E-01
  86 F= -.19137440E+03 E0= -.19126788E+03  d E =0.179944E-01
       N       E                     dE             d eps       ncg     rms          rms(c)
DAV:   1    -0.191365591153E+03    0.88690E-02   -0.14335E+00  8160   0.255E+00    0.268E-01
DAV:   2    -0.191370788351E+03   -0.51972E-02   -0.36855E-02 13480   0.752E-01    0.635E-01
DAV:   3    -0.191367575113E+03    0.32132E-02   -0.11852E-02 12080   0.729E-01    0.303E-01
DAV:   4    -0.191366973267E+03    0.60185E-03   -0.23757E-03 10920   0.261E-01    0.143E-01
DAV:   5    -0.191366836375E+03    0.13689E-03   -0.11550E-03 10480   0.201E-01    0.155E-01
DAV:   6    -0.191366817493E+03    0.18881E-04   -0.10609E-03  9600   0.233E-01    0.141E-01
DAV:   7    -0.191366692910E+03    0.12458E-03   -0.51480E-04  8280   0.156E-01    0.908E-02
DAV:   8    -0.191366610725E+03    0.82185E-04   -0.16921E-04  6600   0.957E-02
  87 F= -.19136661E+03 E0= -.19125959E+03  d E =0.778559E-02
       N       E                     dE             d eps       ncg     rms          rms(c)
DAV:   1    -0.191370844349E+03   -0.41514E-02   -0.32490E-01  8160   0.122E+00    0.162E-01
DAV:   2    -0.191374155068E+03   -0.33107E-02   -0.14724E-02 13520   0.623E-01    0.548E-01
DAV:   3    -0.191371407025E+03    0.27480E-02   -0.60350E-03 11160   0.544E-01    0.149E-01
DAV:   4    -0.191371371020E+03    0.36005E-04   -0.96597E-04  8720   0.193E-01
  88 F= -.19137137E+03 E0= -.19126400E+03  d E =-.476029E-02
       N       E                     dE             d eps       ncg     rms          rms(c)
DAV:   1    -0.191372131833E+03   -0.72481E-03   -0.11608E-02  8160   0.288E-01    0.981E-02
DAV:   2    -0.191373905134E+03   -0.17733E-02   -0.42459E-03 11720   0.429E-01    0.420E-01
DAV:   3    -0.191372071844E+03    0.18333E-02   -0.31906E-03  9960   0.388E-01    0.863E-02
DAV:   4    -0.191372049929E+03    0.21915E-04   -0.24218E-04  6320   0.991E-02
  89 F= -.19137205E+03 E0= -.19126440E+03  d E =-.678908E-03
       N       E                     dE             d eps       ncg     rms          rms(c)
DAV:   1    -0.191377519900E+03   -0.54481E-02   -0.42667E-01  8160   0.139E+00    0.216E-01
DAV:   2    -0.191383356447E+03   -0.58365E-02   -0.21820E-02 13200   0.799E-01    0.761E-01
DAV:   3    -0.191378070142E+03    0.52863E-02   -0.11834E-02 10600   0.741E-01    0.213E-01
DAV:   4    -0.191377918555E+03    0.15159E-03   -0.20042E-03  9640   0.273E-01    0.179E-01
DAV:   5    -0.191377685245E+03    0.23331E-03   -0.11752E-03 10240   0.232E-01    0.115E-01
DAV:   6    -0.191377523857E+03    0.16139E-03   -0.43368E-04  7640   0.119E-01    0.524E-02
DAV:   7    -0.191377618388E+03   -0.94530E-04   -0.31576E-04  7680   0.124E-01
  90 F= -.19137762E+03 E0= -.19126934E+03  d E =-.556846E-02
       N       E                     dE             d eps       ncg     rms          rms(c)
DAV:   1    -0.191381522361E+03   -0.39985E-02   -0.25202E-01  8160   0.107E+00    0.134E-01
DAV:   2    -0.191383965337E+03   -0.24430E-02   -0.11042E-02 13560   0.510E-01    0.477E-01
DAV:   3    -0.191381970154E+03    0.19952E-02   -0.48761E-03 11000   0.458E-01    0.121E-01
DAV:   4    -0.191381896824E+03    0.73330E-04   -0.48394E-04  8280   0.110E-01
  91 F= -.19138190E+03 E0= -.19127348E+03  d E =-.427844E-02
       N       E                     dE             d eps       ncg     rms          rms(c)
DAV:   1    -0.191371225680E+03    0.10744E-01   -0.12712E+00  8160   0.239E+00    0.285E-01
DAV:   2    -0.191382107786E+03   -0.10882E-01   -0.48363E-02 13560   0.108E+00    0.959E-01
DAV:   3    -0.191373196219E+03    0.89116E-02   -0.19465E-02 11880   0.961E-01    0.266E-01
DAV:   4    -0.191373222443E+03   -0.26224E-04   -0.33634E-03 10880   0.363E-01    0.264E-01
DAV:   5    -0.191372531756E+03    0.69069E-03   -0.17689E-03 10040   0.292E-01    0.105E-01
DAV:   6    -0.191372414861E+03    0.11689E-03   -0.47609E-04  8760   0.112E-01    0.560E-02
DAV:   7    -0.191372532101E+03   -0.11724E-03   -0.38696E-04  8960   0.133E-01    0.123E-01
DAV:   8    -0.191372379120E+03    0.15298E-03   -0.25474E-04  6840   0.124E-01    0.254E-02
DAV:   9    -0.191372385277E+03   -0.61579E-05   -0.33665E-05  5520   0.276E-02
  92 F= -.19137239E+03 E0= -.19126464E+03  d E =0.951155E-02
       N       E                     dE             d eps       ncg     rms          rms(c)
DAV:   1    -0.191362314382E+03    0.10065E-01   -0.16512E+00  8160   0.273E+00    0.324E-01
DAV:   2    -0.191374221734E+03   -0.11907E-01   -0.59105E-02 13480   0.116E+00    0.102E+00
DAV:   3    -0.191364947785E+03    0.92739E-02   -0.23701E-02 12320   0.104E+00    0.323E-01
DAV:   4    -0.191364654500E+03    0.29329E-03   -0.40610E-03 10680   0.388E-01    0.272E-01
DAV:   5    -0.191363958554E+03    0.69595E-03   -0.22454E-03 11040   0.339E-01    0.146E-01
DAV:   6    -0.191363733482E+03    0.22507E-03   -0.78741E-04 10240   0.156E-01    0.587E-02
DAV:   7    -0.191363709539E+03    0.23944E-04   -0.21462E-04  6560   0.595E-02
  93 F= -.19136371E+03 E0= -.19125674E+03  d E =0.867574E-02
       N       E                     dE             d eps       ncg     rms          rms(c)
DAV:   1    -0.191363720024E+03    0.13458E-04   -0.68476E-04  9840   0.688E-02    0.251E-02
DAV:   2    -0.191363887677E+03   -0.16765E-03   -0.29991E-04  9400   0.131E-01    0.132E-01
DAV:   3    -0.191363700348E+03    0.18733E-03   -0.20804E-04  6520   0.115E-01    0.929E-03
DAV:   4    -0.191363714961E+03   -0.14612E-04   -0.11724E-05  5480   0.147E-02
  94 F= -.19136371E+03 E0= -.19125677E+03  d E =-.542213E-05
       N       E                     dE             d eps       ncg     rms          rms(c)
DAV:   1    -0.191365014186E+03   -0.13138E-02   -0.15934E-01  8160   0.837E-01    0.106E-01
DAV:   2    -0.191366793385E+03   -0.17792E-02   -0.63762E-03 13600   0.433E-01    0.406E-01
DAV:   3    -0.191365213108E+03    0.15803E-02   -0.30198E-03 10280   0.395E-01    0.922E-02
DAV:   4    -0.191365162858E+03    0.50250E-04   -0.27102E-04  7040   0.867E-02
  95 F= -.19136516E+03 E0= -.19125841E+03  d E =-.144790E-02
       N       E                     dE             d eps       ncg     rms          rms(c)
DAV:   1    -0.191368119173E+03   -0.29061E-02   -0.33217E-01  8160   0.121E+00    0.175E-01
DAV:   2    -0.191373115948E+03   -0.49968E-02   -0.15279E-02 13560   0.679E-01    0.725E-01
DAV:   3    -0.191368371820E+03    0.47441E-02   -0.95147E-03 11120   0.657E-01    0.138E-01
DAV:   4    -0.191368258323E+03    0.11350E-03   -0.73836E-04  9800   0.129E-01    0.791E-02
DAV:   5    -0.191368284857E+03   -0.26534E-04   -0.43981E-04  9240   0.147E-01
  96 F= -.19136828E+03 E0= -.19126145E+03  d E =-.312200E-02
       N       E                     dE             d eps       ncg     rms          rms(c)
DAV:   1    -0.191367978901E+03    0.27942E-03   -0.37264E-01  8160   0.129E+00    0.137E-01
DAV:   2    -0.191369690192E+03   -0.17113E-02   -0.13346E-02 12400   0.396E-01    0.270E-01
DAV:   3    -0.191368909640E+03    0.78055E-03   -0.31216E-03 11440   0.365E-01    0.165E-01
DAV:   4    -0.191368733936E+03    0.17570E-03   -0.85805E-04  8280   0.193E-01    0.104E-01
DAV:   5    -0.191368694867E+03    0.39070E-04   -0.43353E-04  7680   0.142E-01
  97 F= -.19136869E+03 E0= -.19126157E+03  d E =-.410010E-03
       N       E                     dE             d eps       ncg     rms          rms(c)
DAV:   1    -0.191372900709E+03   -0.41668E-02   -0.50637E-01  8160   0.152E+00    0.215E-01
DAV:   2    -0.191377736441E+03   -0.48357E-02   -0.23257E-02 13560   0.774E-01    0.654E-01
DAV:   3    -0.191373688337E+03    0.40481E-02   -0.94730E-03 11280   0.673E-01    0.206E-01
DAV:   4    -0.191373779142E+03   -0.90805E-04   -0.22471E-03  9560   0.301E-01    0.225E-01
DAV:   5    -0.191373308528E+03    0.47061E-03   -0.14086E-03  9760   0.254E-01    0.101E-01
DAV:   6    -0.191373204145E+03    0.10438E-03   -0.40819E-04  7920   0.103E-01    0.417E-02
DAV:   7    -0.191373202446E+03    0.16994E-05   -0.15352E-04  6240   0.673E-02
  98 F= -.19137320E+03 E0= -.19126548E+03  d E =-.450758E-02
       N       E                     dE             d eps       ncg     rms          rms(c)
DAV:   1    -0.191375067582E+03   -0.18634E-02   -0.63376E-02  8160   0.541E-01    0.824E-02
DAV:   2    -0.191376190957E+03   -0.11234E-02   -0.35464E-03 12720   0.324E-01    0.334E-01
DAV:   3    -0.191375117950E+03    0.10730E-02   -0.19448E-03  9640   0.312E-01    0.630E-02
DAV:   4    -0.191375121847E+03   -0.38968E-05   -0.14743E-04  5600   0.624E-02
  99 F= -.19137512E+03 E0= -.19126747E+03  d E =-.191940E-02
       N       E                     dE             d eps       ncg     rms          rms(c)
DAV:   1    -0.191372391010E+03    0.27269E-02   -0.12049E-01  8160   0.740E-01    0.892E-02
DAV:   2    -0.191373767701E+03   -0.13767E-02   -0.46574E-03 13480   0.371E-01    0.355E-01
DAV:   3    -0.191372507450E+03    0.12603E-02   -0.20949E-03 10040   0.337E-01    0.607E-02
DAV:   4    -0.191372535787E+03   -0.28338E-04   -0.17715E-04  5960   0.809E-02
 100 F= -.19137254E+03 E0= -.19126480E+03  d E =0.258606E-02
