<?xml version="1.0" encoding="ISO-8859-1"?>
<modeling>
 <generator>
  <i name="program" type="string">vasp </i>
  <i name="version" type="string">5.4.1  </i>
  <i name="subversion" type="string">05Feb16 (build Jul 05 2020 17:13:04) complex                          parallel </i>
  <i name="platform" type="string">IFC91_ompi </i>
  <i name="date" type="string">2024 04 28 </i>
  <i name="time" type="string">06:58:31 </i>
 </generator>
 <incar>
  <i type="int" name="ISTART">     0</i>
  <i type="string" name="PREC">normal</i>
  <i type="string" name="ALGO"> Normal</i>
  <i type="int" name="ISPIN">     1</i>
  <i type="int" name="ICHARG">     2</i>
  <i type="int" name="IBRION">     1</i>
  <i type="int" name="NSW">   100</i>
  <i type="int" name="ISIF">     3</i>
  <i type="int" name="ISYM">     0</i>
  <i name="SYMPREC">      0.00000001</i>
  <i name="POTIM">      0.50000000</i>
  <i type="logical" name="LREAL"> F  </i>
  <i type="logical" name="LPLANE"> F  </i>
  <i type="int" name="ISMEAR">     0</i>
  <i type="logical" name="LWAVE"> F  </i>
  <i type="logical" name="LCHARG"> F  </i>
  <v type="int" name="KPOINT_BSE">    -1     0     0     0</v>
 </incar>
 <kpoints>
  <generation param="Gamma">
   <v type="int" name="divisions">       8        8        1 </v>
   <v name="usershift">      0.00000000       0.00000000       0.00000000 </v>
   <v name="genvec1">      0.12500000       0.00000000       0.00000000 </v>
   <v name="genvec2">     -0.00000000       0.12500000       0.00000000 </v>
   <v name="genvec3">      0.00000000       0.00000000       1.00000000 </v>
   <v name="shift">      0.00000000       0.00000000       0.00000000 </v>
  </generation>
  <varray name="kpointlist" >
   <v>       0.00000000       0.00000000       0.00000000 </v>
   <v>       0.12500000       0.00000000       0.00000000 </v>
   <v>       0.25000000       0.00000000       0.00000000 </v>
   <v>       0.37500000       0.00000000       0.00000000 </v>
   <v>       0.50000000       0.00000000       0.00000000 </v>
   <v>       0.00000000       0.12500000       0.00000000 </v>
   <v>       0.12500000       0.12500000       0.00000000 </v>
   <v>       0.25000000       0.12500000       0.00000000 </v>
   <v>       0.37500000       0.12500000       0.00000000 </v>
   <v>       0.50000000       0.12500000       0.00000000 </v>
   <v>      -0.37500000       0.12500000       0.00000000 </v>
   <v>      -0.25000000       0.12500000       0.00000000 </v>
   <v>      -0.12500000       0.12500000       0.00000000 </v>
   <v>       0.00000000       0.25000000       0.00000000 </v>
   <v>       0.12500000       0.25000000       0.00000000 </v>
   <v>       0.25000000       0.25000000       0.00000000 </v>
   <v>       0.37500000       0.25000000       0.00000000 </v>
   <v>       0.50000000       0.25000000       0.00000000 </v>
   <v>      -0.37500000       0.25000000       0.00000000 </v>
   <v>      -0.25000000       0.25000000       0.00000000 </v>
   <v>      -0.12500000       0.25000000       0.00000000 </v>
   <v>      -0.00000000       0.37500000       0.00000000 </v>
   <v>       0.12500000       0.37500000       0.00000000 </v>
   <v>       0.25000000       0.37500000       0.00000000 </v>
   <v>       0.37500000       0.37500000       0.00000000 </v>
   <v>       0.50000000       0.37500000       0.00000000 </v>
   <v>      -0.37500000       0.37500000       0.00000000 </v>
   <v>      -0.25000000       0.37500000       0.00000000 </v>
   <v>      -0.12500000       0.37500000       0.00000000 </v>
   <v>       0.00000000       0.50000000       0.00000000 </v>
   <v>       0.12500000       0.50000000       0.00000000 </v>
   <v>       0.25000000       0.50000000       0.00000000 </v>
   <v>       0.37500000       0.50000000       0.00000000 </v>
   <v>       0.50000000       0.50000000       0.00000000 </v>
  </varray>
  <varray name="weights" >
   <v>       0.01562500 </v>
   <v>       0.03125000 </v>
   <v>       0.03125000 </v>
   <v>       0.03125000 </v>
   <v>       0.01562500 </v>
   <v>       0.03125000 </v>
   <v>       0.03125000 </v>
   <v>       0.03125000 </v>
   <v>       0.03125000 </v>
   <v>       0.03125000 </v>
   <v>       0.03125000 </v>
   <v>       0.03125000 </v>
   <v>       0.03125000 </v>
   <v>       0.03125000 </v>
   <v>       0.03125000 </v>
   <v>       0.03125000 </v>
   <v>       0.03125000 </v>
   <v>       0.03125000 </v>
   <v>       0.03125000 </v>
   <v>       0.03125000 </v>
   <v>       0.03125000 </v>
   <v>       0.03125000 </v>
   <v>       0.03125000 </v>
   <v>       0.03125000 </v>
   <v>       0.03125000 </v>
   <v>       0.03125000 </v>
   <v>       0.03125000 </v>
   <v>       0.03125000 </v>
   <v>       0.03125000 </v>
   <v>       0.01562500 </v>
   <v>       0.03125000 </v>
   <v>       0.03125000 </v>
   <v>       0.03125000 </v>
   <v>       0.01562500 </v>
  </varray>
 </kpoints>
 <parameters>
  <separator name="general" >
   <i type="string" name="SYSTEM">unknown system</i>
   <i type="logical" name="LCOMPAT"> F  </i>
  </separator>
  <separator name="electronic" >
   <i type="string" name="PREC">normal</i>
   <i name="ENMAX">    280.00000000</i>
   <i name="ENAUG">    373.43800000</i>
   <i name="EDIFF">      0.00010000</i>
   <i type="int" name="IALGO">    38</i>
   <i type="int" name="IWAVPR">    11</i>
   <i type="int" name="NBANDS">   120</i>
   <i name="NELECT">    159.00000000</i>
   <i type="int" name="TURBO">     0</i>
   <i type="int" name="IRESTART">     0</i>
   <i type="int" name="NREBOOT">     0</i>
   <i type="int" name="NMIN">     0</i>
   <i name="EREF">      0.00000000</i>
   <separator name="electronic smearing" >
    <i type="int" name="ISMEAR">     0</i>
    <i name="SIGMA">      0.20000000</i>
    <i name="KSPACING">      0.50000000</i>
    <i type="logical" name="KGAMMA"> T  </i>
   </separator>
   <separator name="electronic projectors" >
    <i type="logical" name="LREAL"> F  </i>
    <v name="ROPT">      0.00000000      0.00000000      0.00000000      0.00000000</v>
    <i type="int" name="LMAXPAW">  -100</i>
    <i type="int" name="LMAXMIX">     2</i>
    <i type="logical" name="NLSPLINE"> F  </i>
   </separator>
   <separator name="electronic startup" >
    <i type="int" name="ISTART">     0</i>
    <i type="int" name="ICHARG">     2</i>
    <i type="int" name="INIWAV">     1</i>
   </separator>
   <separator name="electronic spin" >
    <i type="int" name="ISPIN">     1</i>
    <i type="logical" name="LNONCOLLINEAR"> F  </i>
    <v name="MAGMOM">      1.00000000      1.00000000      1.00000000      1.00000000      1.00000000      1.00000000      1.00000000      1.00000000      1.00000000      1.00000000      1.00000000      1.00000000      1.00000000      1.00000000      1.00000000      1.00000000      1.00000000      1.00000000      1.00000000      1.00000000
      1.00000000      1.00000000      1.00000000      1.00000000      1.00000000      1.00000000      1.00000000</v>
    <i name="NUPDOWN">     -1.00000000</i>
    <i type="logical" name="LSORBIT"> F  </i>
    <v name="SAXIS">      0.00000000      0.00000000      1.00000000</v>
    <i type="logical" name="LSPIRAL"> F  </i>
    <v name="QSPIRAL">      0.00000000      0.00000000      0.00000000</v>
    <i type="logical" name="LZEROZ"> F  </i>
   </separator>
   <separator name="electronic exchange-correlation" >
    <i type="logical" name="LASPH"> F  </i>
    <i type="logical" name="LMETAGGA"> F  </i>
   </separator>
   <separator name="electronic convergence" >
    <i type="int" name="NELM">    60</i>
    <i type="int" name="NELMDL">    -5</i>
    <i type="int" name="NELMIN">     2</i>
    <i name="ENINI">    280.00000000</i>
    <separator name="electronic convergence detail" >
     <i type="logical" name="LDIAG"> T  </i>
     <i type="logical" name="LSUBROT"> F  </i>
     <i name="WEIMIN">      0.00100000</i>
     <i name="EBREAK">      0.00000021</i>
     <i name="DEPER">      0.30000000</i>
     <i type="int" name="NRMM">     4</i>
     <i name="TIME">      0.40000000</i>
    </separator>
   </separator>
   <separator name="electronic mixer" >
    <i name="AMIX">      0.40000000</i>
    <i name="BMIX">      1.00000000</i>
    <i name="AMIN">      0.10000000</i>
    <i name="AMIX_MAG">      1.60000000</i>
    <i name="BMIX_MAG">      1.00000000</i>
    <separator name="electronic mixer details" >
     <i type="int" name="IMIX">     4</i>
     <i type="logical" name="MIXFIRST"> F  </i>
     <i type="int" name="MAXMIX">   -45</i>
     <i name="WC">    100.00000000</i>
     <i type="int" name="INIMIX">     1</i>
     <i type="int" name="MIXPRE">     1</i>
     <i type="int" name="MREMOVE">     5</i>
    </separator>
   </separator>
   <separator name="electronic dipolcorrection" >
    <i type="logical" name="LDIPOL"> F  </i>
    <i type="logical" name="LMONO"> F  </i>
    <i type="int" name="IDIPOL">     0</i>
    <i name="EPSILON">      1.00000000</i>
    <v name="DIPOL">   -100.00000000   -100.00000000   -100.00000000</v>
    <i name="EFIELD">      0.00000000</i>
   </separator>
  </separator>
  <separator name="grids" >
   <i type="int" name="NGX">    42</i>
   <i type="int" name="NGY">    42</i>
   <i type="int" name="NGZ">   126</i>
   <i type="int" name="NGXF">    84</i>
   <i type="int" name="NGYF">    84</i>
   <i type="int" name="NGZF">   252</i>
   <i type="logical" name="ADDGRID"> F  </i>
  </separator>
  <separator name="ionic" >
   <i type="int" name="NSW">   100</i>
   <i type="int" name="IBRION">     1</i>
   <i type="int" name="ISIF">     3</i>
   <i name="PSTRESS">      0.00000000</i>
   <i name="EDIFFG">      0.00100000</i>
   <i type="int" name="NFREE">     0</i>
   <i name="POTIM">      0.50000000</i>
   <i name="SMASS">     -3.00000000</i>
   <i name="SCALEE">      1.00000000</i>
  </separator>
  <separator name="ionic md" >
   <i name="TEBEG">      0.00010000</i>
   <i name="TEEND">      0.00010000</i>
   <i type="int" name="NBLOCK">     1</i>
   <i type="int" name="KBLOCK">   100</i>
   <i type="int" name="NPACO">   256</i>
   <i name="APACO">     16.00000000</i>
  </separator>
  <separator name="symmetry" >
   <i type="int" name="ISYM">     0</i>
   <i name="SYMPREC">      0.00000001</i>
  </separator>
  <separator name="dos" >
   <i type="logical" name="LORBIT"> F  </i>
   <v name="RWIGS">     -1.00000000     -1.00000000     -1.00000000     -1.00000000</v>
   <i type="int" name="NEDOS">   301</i>
   <i name="EMIN">     10.00000000</i>
   <i name="EMAX">    -10.00000000</i>
   <i name="EFERMI">      0.00000000</i>
  </separator>
  <separator name="writing" >
   <i type="int" name="NWRITE">     2</i>
   <i type="logical" name="LWAVE"> F  </i>
   <i type="logical" name="LCHARG"> F  </i>
   <i type="logical" name="LPARD"> F  </i>
   <i type="logical" name="LVTOT"> F  </i>
   <i type="logical" name="LVHAR"> F  </i>
   <i type="logical" name="LELF"> F  </i>
   <i type="logical" name="LOPTICS"> F  </i>
   <v name="STM">      0.00000000      0.00000000      0.00000000      0.00000000      0.00000000      0.00000000      0.00000000</v>
  </separator>
  <separator name="performance" >
   <i type="int" name="NPAR">    40</i>
   <i type="int" name="NSIM">     4</i>
   <i type="int" name="NBLK">    -1</i>
   <i type="logical" name="LPLANE"> F  </i>
   <i type="logical" name="LSCALAPACK"> T  </i>
   <i type="logical" name="LSCAAWARE"> F  </i>
   <i type="logical" name="LSCALU"> F  </i>
   <i type="logical" name="LASYNC"> F  </i>
   <i type="logical" name="LORBITALREAL"> F  </i>
  </separator>
  <separator name="miscellaneous" >
   <i type="int" name="IDIOT">     3</i>
   <i type="logical" name="LMUSIC"> F  </i>
   <v name="POMASS">     50.94100000     95.94000000    183.85000000     32.06600000</v>
   <v name="DARWINR">      0.00000000      0.00000000      0.00000000      0.00000000</v>
   <v name="DARWINV">      1.00000000      1.00000000      1.00000000      1.00000000</v>
   <i type="logical" name="LCORR"> T  </i>
  </separator>
  <i type="logical" name="GGA_COMPAT"> T  </i>
  <i type="logical" name="LBERRY"> F  </i>
  <i type="int" name="ICORELEVEL">     0</i>
  <i type="logical" name="LDAU"> F  </i>
  <i type="int" name="I_CONSTRAINED_M">     0</i>
  <separator name="electronic exchange-correlation" >
   <i type="string" name="GGA">--</i>
   <i type="int" name="VOSKOWN">     0</i>
   <i type="logical" name="LHFCALC"> F  </i>
   <i type="string" name="PRECFOCK"></i>
   <i type="logical" name="LSYMGRAD"> F  </i>
   <i type="logical" name="LHFONE"> F  </i>
   <i type="logical" name="LRHFCALC"> F  </i>
   <i type="logical" name="LTHOMAS"> F  </i>
   <i type="logical" name="LMODELHF"> F  </i>
   <i name="ENCUT4O">     -1.00000000</i>
   <i type="int" name="EXXOEP">     0</i>
   <i type="int" name="FOURORBIT">     0</i>
   <i name="AEXX">      0.00000000</i>
   <i name="HFALPHA">      0.00000000</i>
   <i name="MCALPHA">      0.00000000</i>
   <i name="ALDAX">      1.00000000</i>
   <i name="AGGAX">      1.00000000</i>
   <i name="ALDAC">      1.00000000</i>
   <i name="AGGAC">      1.00000000</i>
   <i type="int" name="NKREDX">     1</i>
   <i type="int" name="NKREDY">     1</i>
   <i type="int" name="NKREDZ">     1</i>
   <i type="logical" name="SHIFTRED"> F  </i>
   <i type="logical" name="ODDONLY"> F  </i>
   <i type="logical" name="EVENONLY"> F  </i>
   <i type="int" name="LMAXFOCK">     0</i>
   <i type="int" name="NMAXFOCKAE">     0</i>
   <i type="logical" name="LFOCKAEDFT"> F  </i>
   <i name="HFSCREEN">      0.00000000</i>
   <i name="HFSCREENC">      0.00000000</i>
   <i type="int" name="NBANDSGWLOW">     0</i>
  </separator>
  <separator name="vdW DFT" >
   <i type="logical" name="LUSE_VDW"> F  </i>
   <i name="Zab_VDW">     -0.84910000</i>
   <i name="PARAM1">      0.12340000</i>
   <i name="PARAM2">      1.00000000</i>
   <i name="PARAM3">      0.00000000</i>
  </separator>
  <separator name="model GW" >
   <i type="int" name="MODEL_GW">     0</i>
   <i name="MODEL_EPS0">     58.26239943</i>
   <i name="MODEL_ALPHA">      1.00000000</i>
  </separator>
  <separator name="linear response parameters" >
   <i type="logical" name="LEPSILON"> F  </i>
   <i type="logical" name="LRPA"> F  </i>
   <i type="logical" name="LNABLA"> F  </i>
   <i type="logical" name="LVEL"> F  </i>
   <i type="int" name="KINTER">     0</i>
   <i name="CSHIFT">      0.10000000</i>
   <i name="OMEGAMAX">     -1.00000000</i>
   <i name="DEG_THRESHOLD">      0.00200000</i>
  </separator>
  <separator name="orbital magnetization" >
   <i type="logical" name="NUCIND"> F  </i>
   <v name="MAGPOS">      0.00000000      0.00000000      0.00000000</v>
   <i type="logical" name="LNICSALL"> T  </i>
   <i type="logical" name="ORBITALMAG"> F  </i>
   <i type="logical" name="LMAGBLOCH"> F  </i>
   <i type="logical" name="LCHIMAG"> F  </i>
   <i type="logical" name="LGAUGE"> T  </i>
   <i type="int" name="MAGATOM">     0</i>
   <v name="MAGDIPOL">      0.00000000      0.00000000      0.00000000</v>
   <v name="AVECCONST">      0.00000000      0.00000000      0.00000000</v>
  </separator>
  <separator name="response functions" >
   <i type="logical" name="LADDER"> F  </i>
   <i type="logical" name="LFXC"> F  </i>
   <i type="logical" name="LHARTREE"> T  </i>
   <i type="int" name="IBSE">     0</i>
   <v type="int" name="KPOINT">    -1     0     0     0</v>
   <i type="logical" name="LTCTE"> F  </i>
   <i type="logical" name="LTETE"> F  </i>
   <i type="logical" name="LTRIPLET"> F  </i>
   <i type="logical" name="LFXCEPS"> F  </i>
   <i type="logical" name="LFXHEG"> F  </i>
   <i type="int" name="NATURALO">     0</i>
   <i type="logical" name="L2ORDER"> F  </i>
   <i type="logical" name="LUSEW"> F  </i>
   <i name="ENCUTGW">     -2.00000000</i>
   <i name="ENCUTGWSOFT">     -2.00000000</i>
   <i name="ENCUTLF">     -1.00000000</i>
   <i type="int" name="LMAXMP2">    -1</i>
   <i name="SCISSOR">      0.00000000</i>
   <i type="int" name="NOMEGA">     0</i>
   <i type="int" name="NOMEGAR">     0</i>
   <i type="int" name="NBANDSGW">    -1</i>
   <i type="int" name="NBANDSO">    -1</i>
   <i type="int" name="NBANDSV">    -1</i>
   <i type="int" name="NELM">     1</i>
   <i type="int" name="NELMHF">     1</i>
   <i type="int" name="DIM">     3</i>
   <i type="int" name="ANTIRES">     0</i>
   <i name="OMEGAMAX">    -30.00000000</i>
   <i name="OMEGAMIN">    -30.00000000</i>
   <i name="OMEGATL">   -200.00000000</i>
   <i type="int" name="OMEGAGRID">     0</i>
   <i name="CSHIFT">     -0.10000000</i>
   <i type="logical" name="SELFENERGY"> F  </i>
   <i type="logical" name="LSPECTRAL"> F  </i>
   <i type="logical" name="LSPECTRALGW"> F  </i>
   <i type="logical" name="LSINGLES"> F  </i>
   <i type="logical" name="LFERMIGW"> F  </i>
   <i type="logical" name="ODDONLYGW"> F  </i>
   <i type="logical" name="EVENONLYGW"> F  </i>
   <i type="int" name="NKREDLFX">     1</i>
   <i type="int" name="NKREDLFY">     1</i>
   <i type="int" name="NKREDLFZ">     1</i>
   <i type="int" name="MAXMEM">  1800</i>
   <i type="int" name="TELESCOPE">     0</i>
   <i type="int" name="TAUPAR">     1</i>
   <i type="int" name="OMEGAPAR">    -1</i>
   <i name="LAMBDA">      1.00000000</i>
  </separator>
  <separator name="External order field" >
   <i name="OFIELD_KAPPA">      0.00000000</i>
   <v name="OFIELD_K">      0.00000000      0.00000000      0.00000000</v>
   <i name="OFIELD_Q6_NEAR">      0.00000000</i>
   <i name="OFIELD_Q6_FAR">      0.00000000</i>
   <i name="OFIELD_A">      0.00000000</i>
  </separator>
 </parameters>
 <atominfo>
  <atoms>      27 </atoms>
  <types>       4 </types>
  <array name="atoms" >
   <dimension dim="1">ion</dimension>
   <field type="string">element</field>
   <field type="int">atomtype</field>
   <set>
    <rc><c>V </c><c>   1</c></rc>
    <rc><c>V </c><c>   1</c></rc>
    <rc><c>V </c><c>   1</c></rc>
    <rc><c>Mo</c><c>   2</c></rc>
    <rc><c>Mo</c><c>   2</c></rc>
    <rc><c>Mo</c><c>   2</c></rc>
    <rc><c>W </c><c>   3</c></rc>
    <rc><c>W </c><c>   3</c></rc>
    <rc><c>W </c><c>   3</c></rc>
    <rc><c>S </c><c>   4</c></rc>
    <rc><c>S </c><c>   4</c></rc>
    <rc><c>S </c><c>   4</c></rc>
    <rc><c>S </c><c>   4</c></rc>
    <rc><c>S </c><c>   4</c></rc>
    <rc><c>S </c><c>   4</c></rc>
    <rc><c>S </c><c>   4</c></rc>
    <rc><c>S </c><c>   4</c></rc>
    <rc><c>S </c><c>   4</c></rc>
    <rc><c>S </c><c>   4</c></rc>
    <rc><c>S </c><c>   4</c></rc>
    <rc><c>S </c><c>   4</c></rc>
    <rc><c>S </c><c>   4</c></rc>
    <rc><c>S </c><c>   4</c></rc>
    <rc><c>S </c><c>   4</c></rc>
    <rc><c>S </c><c>   4</c></rc>
    <rc><c>S </c><c>   4</c></rc>
    <rc><c>S </c><c>   4</c></rc>
   </set>
  </array>
  <array name="atomtypes" >
   <dimension dim="1">type</dimension>
   <field type="int">atomspertype</field>
   <field type="string">element</field>
   <field>mass</field>
   <field>valence</field>
   <field type="string">pseudopotential</field>
   <set>
    <rc><c>   3</c><c>V </c><c>     50.94100000</c><c>      5.00000000</c><c> PAW_PBE V 08Apr2002                    </c></rc>
    <rc><c>   3</c><c>Mo</c><c>     95.94000000</c><c>      6.00000000</c><c> PAW_PBE Mo 08Apr2002                   </c></rc>
    <rc><c>   3</c><c>W </c><c>    183.85000000</c><c>      6.00000000</c><c> PAW_PBE W 08Apr2002                    </c></rc>
    <rc><c>  18</c><c>S </c><c>     32.06600000</c><c>      6.00000000</c><c>  PAW_PBE S 17Jan2003                   </c></rc>
   </set>
  </array>
 </atominfo>
 <structure name="initialpos" >
  <crystal>
   <varray name="basis" >
    <v>       8.66999996       5.03999989       0.00000000 </v>
    <v>      -8.66999982       5.04000013       0.00000000 </v>
    <v>       0.00000000       0.00000000      30.00000000 </v>
   </varray>
   <i name="volume">   2621.80797419 </i>
   <varray name="rec_basis" >
    <v>       0.05767013       0.09920635       0.00000000 </v>
    <v>      -0.05767013       0.09920635       0.00000000 </v>
    <v>       0.00000000       0.00000000       0.03333333 </v>
   </varray>
  </crystal>
  <varray name="positions" >
   <v>       0.33333334       0.00000000       0.00000000 </v>
   <v>       1.00000000       0.33333334       0.00000000 </v>
   <v>       0.00000000       0.66666669       0.00000000 </v>
   <v>       0.66666669       0.66666669       0.00000000 </v>
   <v>       0.66666669       0.33333334       0.00000000 </v>
   <v>       0.33333334       0.66666669       0.00000000 </v>
   <v>       0.00000000       0.00000000       0.00000000 </v>
   <v>       0.33333334       0.33333334       0.00000000 </v>
   <v>       0.66666669       0.00000000       0.00000000 </v>
   <v>       0.11068511       0.22244981       0.95539999 </v>
   <v>       0.22244981       0.11068511       0.04460000 </v>
   <v>       0.11068511       0.55578315       0.95539999 </v>
   <v>       0.22244981       0.44401845       0.04460000 </v>
   <v>       0.11068511       0.88911647       0.95539999 </v>
   <v>       0.22244981       0.77735180       0.04460000 </v>
   <v>       0.44401845       0.22244981       0.95539999 </v>
   <v>       0.55578315       0.11068511       0.04460000 </v>
   <v>       0.44401845       0.55578315       0.95539999 </v>
   <v>       0.55578315       0.44401845       0.04460000 </v>
   <v>       0.44401845       0.88911647       0.95539999 </v>
   <v>       0.55578315       0.77735180       0.04460000 </v>
   <v>       0.77735180       0.22244981       0.95539999 </v>
   <v>       0.88911647       0.11068511       0.04460000 </v>
   <v>       0.77735180       0.55578315       0.95539999 </v>
   <v>       0.88911647       0.44401845       0.04460000 </v>
   <v>       0.77735180       0.88911647       0.95539999 </v>
   <v>       0.88911647       0.77735180       0.04460000 </v>
  </varray>
 </structure>
 <calculation>
  <scstep>
   <time name="dav">   21.87   21.93</time>
   <time name="total">   21.92   21.98</time>
   <energy>
    <i name="alphaZ">     81.65567618 </i>
    <i name="ewald">  41890.23010372 </i>
    <i name="hartreedc"> -47722.86569352 </i>
    <i name="XCdc">   -242.92872169 </i>
    <i name="pawpsdc">   3467.42045192 </i>
    <i name="pawaedc">  -2871.19716117 </i>
    <i name="eentropy">     -0.54328992 </i>
    <i name="bandstr">   -239.11018609 </i>
    <i name="atom">   6761.44252427 </i>
    <i name="e_fr_energy">   1124.10370370 </i>
    <i name="e_wo_entrp">   1124.64699362 </i>
    <i name="e_0_energy">   1124.37534866 </i>
   </energy>
  </scstep>
  <scstep>
   <time name="dav">   28.48   28.55</time>
   <time name="total">   28.48   28.56</time>
   <energy>
    <i name="e_fr_energy">     -3.33851033 </i>
    <i name="e_wo_entrp">     -3.13633543 </i>
    <i name="e_0_energy">     -3.23742288 </i>
   </energy>
  </scstep>
  <scstep>
   <time name="dav">   27.66   27.73</time>
   <time name="total">   27.66   27.74</time>
   <energy>
    <i name="e_fr_energy">   -199.96279415 </i>
    <i name="e_wo_entrp">   -199.67960282 </i>
    <i name="e_0_energy">   -199.82119848 </i>
   </energy>
  </scstep>
  <scstep>
   <time name="dav">   30.77   30.85</time>
   <time name="total">   30.77   30.85</time>
   <energy>
    <i name="e_fr_energy">   -209.00155834 </i>
    <i name="e_wo_entrp">   -208.68512238 </i>
    <i name="e_0_energy">   -208.84334036 </i>
   </energy>
  </scstep>
  <scstep>
   <time name="dav">   28.68   28.75</time>
   <time name="total">   29.15   29.22</time>
   <energy>
    <i name="e_fr_energy">   -209.28907426 </i>
    <i name="e_wo_entrp">   -208.97490031 </i>
    <i name="e_0_energy">   -209.13198729 </i>
   </energy>
  </scstep>
  <scstep>
   <time name="dav">   31.47   31.55</time>
   <time name="total">   31.97   32.06</time>
   <energy>
    <i name="e_fr_energy">   -236.80574291 </i>
    <i name="e_wo_entrp">   -236.51825705 </i>
    <i name="e_0_energy">   -236.66199998 </i>
   </energy>
  </scstep>
  <scstep>
   <time name="dav">   32.36   32.44</time>
   <time name="total">   32.87   32.95</time>
   <energy>
    <i name="e_fr_energy">   -196.66975225 </i>
    <i name="e_wo_entrp">   -196.34815427 </i>
    <i name="e_0_energy">   -196.50895326 </i>
   </energy>
  </scstep>
  <scstep>
   <time name="dav">   29.70   29.77</time>
   <time name="total">   30.20   30.28</time>
   <energy>
    <i name="e_fr_energy">   -190.03133254 </i>
    <i name="e_wo_entrp">   -189.75750754 </i>
    <i name="e_0_energy">   -189.89442004 </i>
   </energy>
  </scstep>
  <scstep>
   <time name="dav">   29.36   29.43</time>
   <time name="total">   29.88   29.96</time>
   <energy>
    <i name="e_fr_energy">   -188.24057476 </i>
    <i name="e_wo_entrp">   -187.90216105 </i>
    <i name="e_0_energy">   -188.07136791 </i>
   </energy>
  </scstep>
  <scstep>
   <time name="dav">   32.78   32.86</time>
   <time name="total">   33.31   33.40</time>
   <energy>
    <i name="e_fr_energy">   -187.05645073 </i>
    <i name="e_wo_entrp">   -186.71269277 </i>
    <i name="e_0_energy">   -186.88457175 </i>
   </energy>
  </scstep>
  <scstep>
   <time name="dav">   31.22   31.29</time>
   <time name="total">   31.75   31.84</time>
   <energy>
    <i name="e_fr_energy">   -186.99943039 </i>
    <i name="e_wo_entrp">   -186.64800973 </i>
    <i name="e_0_energy">   -186.82372006 </i>
   </energy>
  </scstep>
  <scstep>
   <time name="dav">   30.77   30.84</time>
   <time name="total">   31.30   31.38</time>
   <energy>
    <i name="e_fr_energy">   -187.08538594 </i>
    <i name="e_wo_entrp">   -186.75146066 </i>
    <i name="e_0_energy">   -186.91842330 </i>
   </energy>
  </scstep>
  <scstep>
   <time name="dav">   31.96   32.04</time>
   <time name="total">   32.50   32.59</time>
   <energy>
    <i name="e_fr_energy">   -186.90908986 </i>
    <i name="e_wo_entrp">   -186.57091992 </i>
    <i name="e_0_energy">   -186.74000489 </i>
   </energy>
  </scstep>
  <scstep>
   <time name="dav">   32.22   32.30</time>
   <time name="total">   32.76   32.84</time>
   <energy>
    <i name="e_fr_energy">   -186.89813637 </i>
    <i name="e_wo_entrp">   -186.55416812 </i>
    <i name="e_0_energy">   -186.72615225 </i>
   </energy>
  </scstep>
  <scstep>
   <time name="dav">   31.26   31.33</time>
   <time name="total">   31.79   31.88</time>
   <energy>
    <i name="e_fr_energy">   -186.87233602 </i>
    <i name="e_wo_entrp">   -186.52558790 </i>
    <i name="e_0_energy">   -186.69896196 </i>
   </energy>
  </scstep>
  <scstep>
   <time name="dav">   31.41   31.48</time>
   <time name="total">   31.94   32.02</time>
   <energy>
    <i name="e_fr_energy">   -186.86785049 </i>
    <i name="e_wo_entrp">   -186.52213320 </i>
    <i name="e_0_energy">   -186.69499185 </i>
   </energy>
  </scstep>
  <scstep>
   <time name="dav">   31.29   31.36</time>
   <time name="total">   31.82   31.91</time>
   <energy>
    <i name="e_fr_energy">   -186.86608988 </i>
    <i name="e_wo_entrp">   -186.52189262 </i>
    <i name="e_0_energy">   -186.69399125 </i>
   </energy>
  </scstep>
  <scstep>
   <time name="dav">   28.88   28.95</time>
   <time name="total">   29.42   29.50</time>
   <energy>
    <i name="e_fr_energy">   -186.86542799 </i>
    <i name="e_wo_entrp">   -186.52107036 </i>
    <i name="e_0_energy">   -186.69324917 </i>
   </energy>
  </scstep>
  <scstep>
   <time name="dav">   26.00   26.06</time>
   <time name="total">   26.53   26.61</time>
   <energy>
    <i name="e_fr_energy">   -186.86530471 </i>
    <i name="e_wo_entrp">   -186.52071183 </i>
    <i name="e_0_energy">   -186.69300827 </i>
   </energy>
  </scstep>
  <scstep>
   <time name="dav">   23.77   23.82</time>
   <time name="total">   24.30   24.37</time>
   <energy>
    <i name="e_fr_energy">   -186.86614779 </i>
    <i name="e_wo_entrp">   -186.52174797 </i>
    <i name="e_0_energy">   -186.69394788 </i>
   </energy>
  </scstep>
  <scstep>
   <time name="dav">   22.08   22.14</time>
   <time name="total">   22.62   22.68</time>
   <energy>
    <i name="e_fr_energy">   -186.86683534 </i>
    <i name="e_wo_entrp">   -186.52251070 </i>
    <i name="e_0_energy">   -186.69467302 </i>
   </energy>
  </scstep>
  <scstep>
   <time name="dav">   20.65   20.70</time>
   <time name="total">   21.19   21.25</time>
   <energy>
    <i name="e_fr_energy">   -186.86785410 </i>
    <i name="e_wo_entrp">   -186.52339511 </i>
    <i name="e_0_energy">   -186.69562461 </i>
   </energy>
  </scstep>
  <scstep>
   <time name="dav">   20.41   20.46</time>
   <time name="total">   20.94   21.00</time>
   <energy>
    <i name="e_fr_energy">   -186.86901398 </i>
    <i name="e_wo_entrp">   -186.52468727 </i>
    <i name="e_0_energy">   -186.69685062 </i>
   </energy>
  </scstep>
  <scstep>
   <time name="dav">   19.22   19.27</time>
   <time name="total">   19.76   19.82</time>
   <energy>
    <i name="e_fr_energy">   -186.86958825 </i>
    <i name="e_wo_entrp">   -186.52521342 </i>
    <i name="e_0_energy">   -186.69740084 </i>
   </energy>
  </scstep>
  <scstep>
   <time name="dav">   16.46   16.50</time>
   <time name="total">   17.00   17.05</time>
   <energy>
    <i name="e_fr_energy">   -186.86995279 </i>
    <i name="e_wo_entrp">   -186.52555668 </i>
    <i name="e_0_energy">   -186.69775474 </i>
   </energy>
  </scstep>
  <scstep>
   <time name="dav">   19.19   19.24</time>
   <time name="total">   19.73   19.78</time>
   <energy>
    <i name="e_fr_energy">   -186.87019714 </i>
    <i name="e_wo_entrp">   -186.52581832 </i>
    <i name="e_0_energy">   -186.69800773 </i>
   </energy>
  </scstep>
  <scstep>
   <time name="dav">   20.13   20.18</time>
   <time name="total">   20.17   20.22</time>
   <energy>
    <i name="alphaZ">     81.65567618 </i>
    <i name="ewald">  41890.23010372 </i>
    <i name="hartreedc"> -47832.99233739 </i>
    <i name="XCdc">   -231.60402314 </i>
    <i name="pawpsdc">   4192.12473262 </i>
    <i name="pawaedc">  -3610.13969884 </i>
    <i name="eentropy">     -0.34438426 </i>
    <i name="bandstr">  -1437.24287991 </i>
    <i name="atom">   6761.44252427 </i>
    <i name="e_fr_energy">   -186.87028674 </i>
    <i name="e_wo_entrp">   -186.52590248 </i>
    <i name="e_0_energy">   -186.69809461 </i>
   </energy>
  </scstep>
  <structure>
   <crystal>
    <varray name="basis" >
     <v>       8.66999996       5.03999989       0.00000000 </v>
     <v>      -8.66999982       5.04000013       0.00000000 </v>
     <v>       0.00000000       0.00000000      30.00000000 </v>
    </varray>
    <i name="volume">   2621.80797419 </i>
    <varray name="rec_basis" >
     <v>       0.05767013       0.09920635       0.00000000 </v>
     <v>      -0.05767013       0.09920635       0.00000000 </v>
     <v>       0.00000000       0.00000000       0.03333333 </v>
    </varray>
   </crystal>
   <varray name="positions" >
    <v>       0.33333334       0.00000000       0.00000000 </v>
    <v>       1.00000000       0.33333334       0.00000000 </v>
    <v>       0.00000000       0.66666669       0.00000000 </v>
    <v>       0.66666669       0.66666669       0.00000000 </v>
    <v>       0.66666669       0.33333334       0.00000000 </v>
    <v>       0.33333334       0.66666669       0.00000000 </v>
    <v>       0.00000000       0.00000000       0.00000000 </v>
    <v>       0.33333334       0.33333334       0.00000000 </v>
    <v>       0.66666669       0.00000000       0.00000000 </v>
    <v>       0.11068511       0.22244981       0.95539999 </v>
    <v>       0.22244981       0.11068511       0.04460000 </v>
    <v>       0.11068511       0.55578315       0.95539999 </v>
    <v>       0.22244981       0.44401845       0.04460000 </v>
    <v>       0.11068511       0.88911647       0.95539999 </v>
    <v>       0.22244981       0.77735180       0.04460000 </v>
    <v>       0.44401845       0.22244981       0.95539999 </v>
    <v>       0.55578315       0.11068511       0.04460000 </v>
    <v>       0.44401845       0.55578315       0.95539999 </v>
    <v>       0.55578315       0.44401845       0.04460000 </v>
    <v>       0.44401845       0.88911647       0.95539999 </v>
    <v>       0.55578315       0.77735180       0.04460000 </v>
    <v>       0.77735180       0.22244981       0.95539999 </v>
    <v>       0.88911647       0.11068511       0.04460000 </v>
    <v>       0.77735180       0.55578315       0.95539999 </v>
    <v>       0.88911647       0.44401845       0.04460000 </v>
    <v>       0.77735180       0.88911647       0.95539999 </v>
    <v>       0.88911647       0.77735180       0.04460000 </v>
   </varray>
  </structure>
  <varray name="forces" >
   <v>       0.22559522       0.02510621      -0.06511275 </v>
   <v>      -0.28621723       0.15127830       0.08038441 </v>
   <v>       0.08295302      -0.19101544       0.01418035 </v>
   <v>       0.01813787      -0.29351344      -0.02435904 </v>
   <v>      -0.25954919       0.18412896      -0.02488304 </v>
   <v>       0.16744276       0.10928834       0.05082727 </v>
   <v>       0.09085785      -0.31426156      -0.02989755 </v>
   <v>       0.00778358       0.60790176      -0.12877263 </v>
   <v>      -0.05690536      -0.29629083       0.10910621 </v>
   <v>      -0.58097990       0.00782610      -2.07049677 </v>
   <v>       0.59175619      -0.00819910       2.06505480 </v>
   <v>      -0.32106092      -0.66627022      -1.41996193 </v>
   <v>      -0.39354122      -0.72799013       2.16015414 </v>
   <v>       0.73740262       0.02209454      -1.48304358 </v>
   <v>      -0.88905632       0.00023051       1.43689289 </v>
   <v>       0.35888412      -0.73066624      -2.17328319 </v>
   <v>      -0.34682155      -0.68705319       2.14480434 </v>
   <v>       0.21981899      -0.16473273      -2.93665748 </v>
   <v>      -0.19560782      -0.12769681       2.93501495 </v>
   <v>      -0.69446309       0.14268389      -2.14858186 </v>
   <v>      -0.20265682       0.18062728       2.89561878 </v>
   <v>       0.60667945       0.55425492      -2.10710516 </v>
   <v>      -0.48020997       0.58592607       2.19882784 </v>
   <v>       0.52181155       0.69220515      -2.15158510 </v>
   <v>       0.34612277       0.67161205       1.45090336 </v>
   <v>       0.08005901       0.12224951      -2.89126465 </v>
   <v>       0.65176441       0.15027611       2.11323538 </v>
  </varray>
  <varray name="stress" >
   <v>       7.29416889       0.09675199      -1.50664080 </v>
   <v>       0.09675185       4.46895269       0.04748072 </v>
   <v>      -1.50664090       0.04748042      30.29951630 </v>
  </varray>
  <energy>
   <i name="e_fr_energy">   -186.87028674 </i>
   <i name="e_wo_entrp">   -186.69809461 </i>
   <i name="e_0_energy">     -0.34438426 </i>
  </energy>
  <time name="totalsc">  783.91  786.02</time>
 </calculation>
 <calculation>
  <scstep>
   <time name="dav">   21.84   21.90</time>
   <time name="total">   22.39   22.44</time>
   <energy>
    <i name="alphaZ">     78.91935235 </i>
    <i name="ewald">  39378.96658661 </i>
    <i name="hartreedc"> -45336.44983453 </i>
    <i name="XCdc">   -239.06233219 </i>
    <i name="pawpsdc">   4192.10648603 </i>
    <i name="pawaedc">  -3610.12158359 </i>
    <i name="eentropy">     -0.28526166 </i>
    <i name="bandstr">  -1413.02170595 </i>
    <i name="atom">   6761.44252427 </i>
    <i name="e_fr_energy">   -187.50576865 </i>
    <i name="e_wo_entrp">   -187.22050699 </i>
    <i name="e_0_energy">   -187.36313782 </i>
   </energy>
  </scstep>
  <scstep>
   <time name="dav">   30.49   30.56</time>
   <time name="total">   31.02   31.11</time>
   <energy>
    <i name="e_fr_energy">   -189.49779813 </i>
    <i name="e_wo_entrp">   -189.16412540 </i>
    <i name="e_0_energy">   -189.33096176 </i>
   </energy>
  </scstep>
  <scstep>
   <time name="dav">   30.52   30.60</time>
   <time name="total">   31.08   31.17</time>
   <energy>
    <i name="e_fr_energy">   -189.35558523 </i>
    <i name="e_wo_entrp">   -189.07648796 </i>
    <i name="e_0_energy">   -189.21603660 </i>
   </energy>
  </scstep>
  <scstep>
   <time name="dav">   30.67   30.75</time>
   <time name="total">   31.22   31.30</time>
   <energy>
    <i name="e_fr_energy">   -188.79474795 </i>
    <i name="e_wo_entrp">   -188.50968984 </i>
    <i name="e_0_energy">   -188.65221889 </i>
   </energy>
  </scstep>
  <scstep>
   <time name="dav">   28.65   28.72</time>
   <time name="total">   29.20   29.28</time>
   <energy>
    <i name="e_fr_energy">   -188.86805153 </i>
    <i name="e_wo_entrp">   -188.57785333 </i>
    <i name="e_0_energy">   -188.72295243 </i>
   </energy>
  </scstep>
  <scstep>
   <time name="dav">   30.96   31.03</time>
   <time name="total">   31.50   31.58</time>
   <energy>
    <i name="e_fr_energy">   -188.78295793 </i>
    <i name="e_wo_entrp">   -188.49536117 </i>
    <i name="e_0_energy">   -188.63915955 </i>
   </energy>
  </scstep>
  <scstep>
   <time name="dav">   28.91   28.98</time>
   <time name="total">   29.46   29.54</time>
   <energy>
    <i name="e_fr_energy">   -188.70000507 </i>
    <i name="e_wo_entrp">   -188.41490622 </i>
    <i name="e_0_energy">   -188.55745565 </i>
   </energy>
  </scstep>
  <scstep>
   <time name="dav">   28.91   28.98</time>
   <time name="total">   29.46   29.54</time>
   <energy>
    <i name="e_fr_energy">   -188.68336529 </i>
    <i name="e_wo_entrp">   -188.39967373 </i>
    <i name="e_0_energy">   -188.54151951 </i>
   </energy>
  </scstep>
  <scstep>
   <time name="dav">   28.86   28.93</time>
   <time name="total">   29.41   29.49</time>
   <energy>
    <i name="e_fr_energy">   -188.68043530 </i>
    <i name="e_wo_entrp">   -188.39673401 </i>
    <i name="e_0_energy">   -188.53858465 </i>
   </energy>
  </scstep>
  <scstep>
   <time name="dav">   29.60   29.67</time>
   <time name="total">   30.15   30.23</time>
   <energy>
    <i name="e_fr_energy">   -188.67596196 </i>
    <i name="e_wo_entrp">   -188.39234483 </i>
    <i name="e_0_energy">   -188.53415340 </i>
   </energy>
  </scstep>
  <scstep>
   <time name="dav">   32.20   32.28</time>
   <time name="total">   32.75   32.83</time>
   <energy>
    <i name="e_fr_energy">   -188.67534712 </i>
    <i name="e_wo_entrp">   -188.39236888 </i>
    <i name="e_0_energy">   -188.53385800 </i>
   </energy>
  </scstep>
  <scstep>
   <time name="dav">   29.98   30.06</time>
   <time name="total">   30.53   30.61</time>
   <energy>
    <i name="e_fr_energy">   -188.67518505 </i>
    <i name="e_wo_entrp">   -188.39258685 </i>
    <i name="e_0_energy">   -188.53388595 </i>
   </energy>
  </scstep>
  <scstep>
   <time name="dav">   21.10   21.15</time>
   <time name="total">   21.14   21.19</time>
   <energy>
    <i name="alphaZ">     78.91935235 </i>
    <i name="ewald">  39378.96658661 </i>
    <i name="hartreedc"> -45347.21088908 </i>
    <i name="XCdc">   -237.97582999 </i>
    <i name="pawpsdc">   3950.41779004 </i>
    <i name="pawaedc">  -3364.92964506 </i>
    <i name="eentropy">     -0.28279122 </i>
    <i name="bandstr">  -1408.02231578 </i>
    <i name="atom">   6761.44252427 </i>
    <i name="e_fr_energy">   -188.67521784 </i>
    <i name="e_wo_entrp">   -188.39242662 </i>
    <i name="e_0_energy">   -188.53382223 </i>
   </energy>
  </scstep>
  <structure>
   <crystal>
    <varray name="basis" >
     <v>       8.85633241       5.10830835       0.00000000 </v>
     <v>      -8.85348074       5.10340328       0.00000000 </v>
     <v>       0.00000000       0.00000000      30.00000000 </v>
    </varray>
    <i name="volume">   2712.71236456 </i>
    <varray name="rec_basis" >
     <v>       0.05643875       0.09791102       0.00000000 </v>
     <v>      -0.05649300       0.09794255       0.00000000 </v>
     <v>       0.00000000       0.00000000       0.03333333 </v>
    </varray>
   </crystal>
   <varray name="positions" >
    <v>       0.33408114      -0.00050748      -0.00010471 </v>
    <v>       0.99992771       0.33485366       0.00012927 </v>
    <v>      -0.00068341       0.66552170       0.00002280 </v>
    <v>       0.66531240       0.66521148      -0.00003917 </v>
    <v>       0.66682582       0.33493669      -0.00004001 </v>
    <v>       0.33432225       0.66672389       0.00008173 </v>
    <v>      -0.00125127      -0.00175683      -0.00004808 </v>
    <v>       0.33626440       0.33622109      -0.00020708 </v>
    <v>       0.66509033      -0.00125972       0.00017545 </v>
    <v>       0.10910619       0.22410364       0.95207045 </v>
    <v>       0.22405693       0.10899951       0.04792079 </v>
    <v>       0.10660311       0.55348764       0.95311657 </v>
    <v>       0.21787077       0.44162920       0.04807372 </v>
    <v>       0.11284243       0.88717064       0.95301512 </v>
    <v>       0.21997742       0.77982640       0.04691065 </v>
    <v>       0.44151997       0.21795438       0.95190516 </v>
    <v>       0.55153002       0.10836180       0.04804903 </v>
    <v>       0.44384162       0.55438317       0.95067759 </v>
    <v>       0.55462779       0.44395151       0.04931976 </v>
    <v>       0.44276923       0.89173146       0.95194488 </v>
    <v>       0.55608381       0.77878010       0.04925641 </v>
    <v>       0.78169233       0.22341458       0.95201158 </v>
    <v>       0.89058467       0.11482536       0.04813591 </v>
    <v>       0.78211644       0.55764427       0.95194005 </v>
    <v>       0.89329376       0.44626980       0.04693318 </v>
    <v>       0.77815962       0.88947881       0.95075058 </v>
    <v>       0.89164900       0.77625770       0.04799827 </v>
   </varray>
  </structure>
  <varray name="forces" >
   <v>       0.19409840       0.05821858       0.07243781 </v>
   <v>      -0.18741681       0.07122056      -0.05066468 </v>
   <v>       0.02550447      -0.15986249       0.00250574 </v>
   <v>      -0.11005874      -0.40074156      -0.01074429 </v>
   <v>      -0.39088618       0.07169590      -0.08571279 </v>
   <v>       0.41274869       0.24418429       0.08116814 </v>
   <v>      -0.07204011      -0.35047155       0.01304744 </v>
   <v>       0.02248828       0.72681307      -0.03333967 </v>
   <v>       0.11103655      -0.26462204       0.03953008 </v>
   <v>       0.09557726       0.00152427       0.23056140 </v>
   <v>      -0.09935787      -0.00325424      -0.27127274 </v>
   <v>      -0.01621995      -0.02717200       0.08725456 </v>
   <v>       0.11832470      -0.05786213      -0.03320036 </v>
   <v>      -0.09382277      -0.00745753       0.12546585 </v>
   <v>      -0.03126075      -0.00774166      -0.16131702 </v>
   <v>      -0.11948558      -0.05781145      -0.00470976 </v>
   <v>       0.10259607      -0.05157956      -0.05418779 </v>
   <v>       0.06325494      -0.10495305      -0.27816137 </v>
   <v>      -0.06319192      -0.10214238       0.22684929 </v>
   <v>       0.00880726       0.09703356      -0.07618725 </v>
   <v>      -0.04148062       0.12101707       0.17715218 </v>
   <v>       0.07926241      -0.05459243       0.16732774 </v>
   <v>       0.04468717      -0.06281249      -0.10800913 </v>
   <v>       0.04064665       0.07879774      -0.07195468 </v>
   <v>      -0.00569048       0.05531674       0.03076050 </v>
   <v>      -0.07038579       0.08448410      -0.00075179 </v>
   <v>      -0.01773525       0.10277066      -0.01384740 </v>
  </varray>
  <varray name="stress" >
   <v>     -19.90483074      -0.01817202       0.01133415 </v>
   <v>      -0.01817186     -19.50042189      -0.02029658 </v>
   <v>       0.01133429      -0.02029646      -1.74843020 </v>
  </varray>
  <energy>
   <i name="e_fr_energy">   -188.67521784 </i>
   <i name="e_wo_entrp">   -188.53382223 </i>
   <i name="e_0_energy">     -0.28279122 </i>
  </energy>
  <time name="totalsc">  421.65  422.79</time>
 </calculation>
 <calculation>
  <scstep>
   <time name="dav">   23.81   23.86</time>
   <time name="total">   24.34   24.40</time>
   <energy>
    <i name="alphaZ">     82.33974067 </i>
    <i name="ewald">  41300.34065580 </i>
    <i name="hartreedc"> -47299.13218486 </i>
    <i name="XCdc">   -233.85604558 </i>
    <i name="pawpsdc">   3949.96306178 </i>
    <i name="pawaedc">  -3364.47039062 </i>
    <i name="eentropy">     -0.23718970 </i>
    <i name="bandstr">  -1386.98476798 </i>
    <i name="atom">   6761.44252427 </i>
    <i name="e_fr_energy">   -190.59459621 </i>
    <i name="e_wo_entrp">   -190.35740651 </i>
    <i name="e_0_energy">   -190.47600136 </i>
   </energy>
  </scstep>
  <scstep>
   <time name="dav">   28.06   28.13</time>
   <time name="total">   28.59   28.67</time>
   <energy>
    <i name="e_fr_energy">   -190.55957361 </i>
    <i name="e_wo_entrp">   -190.31613757 </i>
    <i name="e_0_energy">   -190.43785559 </i>
   </energy>
  </scstep>
  <scstep>
   <time name="dav">   30.53   30.60</time>
   <time name="total">   31.06   31.14</time>
   <energy>
    <i name="e_fr_energy">   -190.07910487 </i>
    <i name="e_wo_entrp">   -189.82832215 </i>
    <i name="e_0_energy">   -189.95371351 </i>
   </energy>
  </scstep>
  <scstep>
   <time name="dav">   31.23   31.30</time>
   <time name="total">   31.76   31.85</time>
   <energy>
    <i name="e_fr_energy">   -189.87501983 </i>
    <i name="e_wo_entrp">   -189.63581078 </i>
    <i name="e_0_energy">   -189.75541531 </i>
   </energy>
  </scstep>
  <scstep>
   <time name="dav">   30.27   30.34</time>
   <time name="total">   30.80   30.88</time>
   <energy>
    <i name="e_fr_energy">   -189.91365950 </i>
    <i name="e_wo_entrp">   -189.66703918 </i>
    <i name="e_0_energy">   -189.79034934 </i>
   </energy>
  </scstep>
  <scstep>
   <time name="dav">   30.36   30.44</time>
   <time name="total">   30.90   30.98</time>
   <energy>
    <i name="e_fr_energy">   -189.77097892 </i>
    <i name="e_wo_entrp">   -189.53076812 </i>
    <i name="e_0_energy">   -189.65087352 </i>
   </energy>
  </scstep>
  <scstep>
   <time name="dav">   30.35   30.43</time>
   <time name="total">   30.89   30.97</time>
   <energy>
    <i name="e_fr_energy">   -189.76443555 </i>
    <i name="e_wo_entrp">   -189.52414343 </i>
    <i name="e_0_energy">   -189.64428949 </i>
   </energy>
  </scstep>
  <scstep>
   <time name="dav">   29.23   29.30</time>
   <time name="total">   29.77   29.85</time>
   <energy>
    <i name="e_fr_energy">   -189.76523062 </i>
    <i name="e_wo_entrp">   -189.52497120 </i>
    <i name="e_0_energy">   -189.64510091 </i>
   </energy>
  </scstep>
  <scstep>
   <time name="dav">   25.99   26.05</time>
   <time name="total">   26.52   26.60</time>
   <energy>
    <i name="e_fr_energy">   -189.76447244 </i>
    <i name="e_wo_entrp">   -189.52424328 </i>
    <i name="e_0_energy">   -189.64435786 </i>
   </energy>
  </scstep>
  <scstep>
   <time name="dav">   25.76   25.82</time>
   <time name="total">   26.29   26.36</time>
   <energy>
    <i name="e_fr_energy">   -189.76463832 </i>
    <i name="e_wo_entrp">   -189.52427238 </i>
    <i name="e_0_energy">   -189.64445535 </i>
   </energy>
  </scstep>
  <scstep>
   <time name="dav">   23.18   23.24</time>
   <time name="total">   23.71   23.78</time>
   <energy>
    <i name="e_fr_energy">   -189.76445975 </i>
    <i name="e_wo_entrp">   -189.52412189 </i>
    <i name="e_0_energy">   -189.64429082 </i>
   </energy>
  </scstep>
  <scstep>
   <time name="dav">   20.53   20.58</time>
   <time name="total">   20.57   20.62</time>
   <energy>
    <i name="alphaZ">     82.33974067 </i>
    <i name="ewald">  41300.34065580 </i>
    <i name="hartreedc"> -47272.60958856 </i>
    <i name="XCdc">   -235.24664195 </i>
    <i name="pawpsdc">   4038.77173758 </i>
    <i name="pawaedc">  -3454.47785206 </i>
    <i name="eentropy">     -0.24032014 </i>
    <i name="bandstr">  -1410.08473548 </i>
    <i name="atom">   6761.44252427 </i>
    <i name="e_fr_energy">   -189.76447985 </i>
    <i name="e_wo_entrp">   -189.52415971 </i>
    <i name="e_0_energy">   -189.64431978 </i>
   </energy>
  </scstep>
  <structure>
   <crystal>
    <varray name="basis" >
     <v>       8.66842911       5.00201268       0.00000000 </v>
     <v>      -8.66583561       4.99755237       0.00000000 </v>
     <v>       0.00000000       0.00000000      30.00000000 </v>
    </varray>
    <i name="volume">   2600.02644157 </i>
    <varray name="rec_basis" >
     <v>       0.05766348       0.09998939       0.00000000 </v>
     <v>      -0.05771494       0.10001932       0.00000000 </v>
     <v>       0.00000000       0.00000000       0.03333333 </v>
    </varray>
   </crystal>
   <varray name="positions" >
    <v>       0.33436409      -0.00059690      -0.00006369 </v>
    <v>       0.99986648       0.33515204       0.00010057 </v>
    <v>      -0.00092487       0.66523122       0.00002422 </v>
    <v>       0.66454028       0.66465030      -0.00004526 </v>
    <v>       0.66657028       0.33543114      -0.00008855 </v>
    <v>       0.33512418       0.66673406       0.00012770 </v>
    <v>      -0.00190331      -0.00227085      -0.00004069 </v>
    <v>       0.33749494       0.33740888      -0.00022596 </v>
    <v>       0.66475662      -0.00180660       0.00019784 </v>
    <v>       0.10920036       0.22401445       0.95220101 </v>
    <v>       0.22395625       0.10908945       0.04776717 </v>
    <v>       0.10654236       0.55345800       0.95316598 </v>
    <v>       0.21788798       0.44141936       0.04805492 </v>
    <v>       0.11274006       0.88724828       0.95308618 </v>
    <v>       0.21993456       0.77984352       0.04681930 </v>
    <v>       0.44130924       0.21797287       0.95190249 </v>
    <v>       0.55154259       0.10817751       0.04801835 </v>
    <v>       0.44372769       0.55414783       0.95052006 </v>
    <v>       0.55439729       0.44384220       0.04944823 </v>
    <v>       0.44293908       0.89188446       0.95190174 </v>
    <v>       0.55624533       0.77902127       0.04935673 </v>
    <v>       0.78167752       0.22324767       0.95210634 </v>
    <v>       0.89052304       0.11467796       0.04807474 </v>
    <v>       0.78228648       0.55773637       0.95189930 </v>
    <v>       0.89338031       0.44636731       0.04695060 </v>
    <v>       0.77823266       0.88968694       0.95075015 </v>
    <v>       0.89180294       0.77644573       0.04799043 </v>
   </varray>
  </structure>
  <varray name="forces" >
   <v>       0.19719670       0.08427572       0.08623689 </v>
   <v>      -0.14106012       0.03031489      -0.07198023 </v>
   <v>      -0.00505554      -0.15399117      -0.00113519 </v>
   <v>      -0.16466126      -0.43364427      -0.00408395 </v>
   <v>      -0.42291965       0.02999988      -0.07775328 </v>
   <v>       0.48665050       0.28976254       0.06240134 </v>
   <v>      -0.13012277      -0.35216156       0.02184383 </v>
   <v>       0.02287701       0.74355898       0.00242725 </v>
   <v>       0.16619967      -0.25772155       0.00548472 </v>
   <v>      -0.03770546       0.01453973      -0.24639652 </v>
   <v>       0.02522398       0.01347956       0.19761955 </v>
   <v>      -0.04562429      -0.06715330      -0.34792596 </v>
   <v>       0.01352919      -0.11616255       0.46262411 </v>
   <v>       0.07455061      -0.01117952      -0.33930331 </v>
   <v>      -0.09563687      -0.01341360       0.27549928 </v>
   <v>      -0.00453055      -0.12318775      -0.51415561 </v>
   <v>      -0.02180335      -0.09716383       0.43767112 </v>
   <v>       0.01027984      -0.02261611      -0.87083844 </v>
   <v>      -0.02219968      -0.02881424       0.80218522 </v>
   <v>      -0.09358321       0.02082230      -0.57991124 </v>
   <v>       0.00884312       0.05215612       0.75018238 </v>
   <v>       0.07281531       0.05983329      -0.30456839 </v>
   <v>      -0.04159945       0.06130278       0.40791792 </v>
   <v>       0.06940002       0.15386254      -0.56810132 </v>
   <v>       0.02111737       0.11178742       0.48849409 </v>
   <v>      -0.03944064       0.00206406      -0.56303979 </v>
   <v>       0.09725954       0.00944965       0.48860551 </v>
  </varray>
  <varray name="stress" >
   <v>     -10.14604524      -0.02135273      -0.01395127 </v>
   <v>      -0.02135268      -9.85425354      -0.03865178 </v>
   <v>      -0.01395113      -0.03865184       6.48675397 </v>
  </varray>
  <energy>
   <i name="e_fr_energy">   -189.76447985 </i>
   <i name="e_wo_entrp">   -189.64431978 </i>
   <i name="e_0_energy">     -0.24032014 </i>
  </energy>
  <time name="totalsc">  377.55  378.56</time>
 </calculation>
 <calculation>
  <scstep>
   <time name="dav">   21.85   21.90</time>
   <time name="total">   22.37   22.42</time>
   <energy>
    <i name="alphaZ">     85.81966902 </i>
    <i name="ewald">  42832.62386732 </i>
    <i name="hartreedc"> -48849.36738579 </i>
    <i name="XCdc">   -232.95830417 </i>
    <i name="pawpsdc">   4038.81293048 </i>
    <i name="pawaedc">  -3454.51657052 </i>
    <i name="eentropy">     -0.20362533 </i>
    <i name="bandstr">  -1372.98692268 </i>
    <i name="atom">   6761.44252427 </i>
    <i name="e_fr_energy">   -191.33381739 </i>
    <i name="e_wo_entrp">   -191.13019206 </i>
    <i name="e_0_energy">   -191.23200472 </i>
   </energy>
  </scstep>
  <scstep>
   <time name="dav">   32.27   32.35</time>
   <time name="total">   32.79   32.87</time>
   <energy>
    <i name="e_fr_energy">   -191.18003832 </i>
    <i name="e_wo_entrp">   -190.97059190 </i>
    <i name="e_0_energy">   -191.07531511 </i>
   </energy>
  </scstep>
  <scstep>
   <time name="dav">   30.25   30.33</time>
   <time name="total">   30.77   30.85</time>
   <energy>
    <i name="e_fr_energy">   -191.27860624 </i>
    <i name="e_wo_entrp">   -191.05751815 </i>
    <i name="e_0_energy">   -191.16806219 </i>
   </energy>
  </scstep>
  <scstep>
   <time name="dav">   31.77   31.85</time>
   <time name="total">   32.30   32.38</time>
   <energy>
    <i name="e_fr_energy">   -190.88080189 </i>
    <i name="e_wo_entrp">   -190.67353845 </i>
    <i name="e_0_energy">   -190.77717017 </i>
   </energy>
  </scstep>
  <scstep>
   <time name="dav">   30.24   30.31</time>
   <time name="total">   30.76   30.84</time>
   <energy>
    <i name="e_fr_energy">   -190.80778171 </i>
    <i name="e_wo_entrp">   -190.59739820 </i>
    <i name="e_0_energy">   -190.70258995 </i>
   </energy>
  </scstep>
  <scstep>
   <time name="dav">   30.60   30.68</time>
   <time name="total">   31.12   31.20</time>
   <energy>
    <i name="e_fr_energy">   -190.77184359 </i>
    <i name="e_wo_entrp">   -190.56113297 </i>
    <i name="e_0_energy">   -190.66648828 </i>
   </energy>
  </scstep>
  <scstep>
   <time name="dav">   29.54   29.61</time>
   <time name="total">   30.06   30.14</time>
   <energy>
    <i name="e_fr_energy">   -190.75297238 </i>
    <i name="e_wo_entrp">   -190.54307623 </i>
    <i name="e_0_energy">   -190.64802430 </i>
   </energy>
  </scstep>
  <scstep>
   <time name="dav">   28.23   28.30</time>
   <time name="total">   28.75   28.83</time>
   <energy>
    <i name="e_fr_energy">   -190.74989925 </i>
    <i name="e_wo_entrp">   -190.53994699 </i>
    <i name="e_0_energy">   -190.64492312 </i>
   </energy>
  </scstep>
  <scstep>
   <time name="dav">   27.39   27.46</time>
   <time name="total">   27.91   27.99</time>
   <energy>
    <i name="e_fr_energy">   -190.74961974 </i>
    <i name="e_wo_entrp">   -190.53969199 </i>
    <i name="e_0_energy">   -190.64465586 </i>
   </energy>
  </scstep>
  <scstep>
   <time name="dav">   28.41   28.48</time>
   <time name="total">   28.93   29.01</time>
   <energy>
    <i name="e_fr_energy">   -190.74971036 </i>
    <i name="e_wo_entrp">   -190.53953217 </i>
    <i name="e_0_energy">   -190.64462127 </i>
   </energy>
  </scstep>
  <scstep>
   <time name="dav">   25.80   25.86</time>
   <time name="total">   26.32   26.38</time>
   <energy>
    <i name="e_fr_energy">   -190.74947984 </i>
    <i name="e_wo_entrp">   -190.53955981 </i>
    <i name="e_0_energy">   -190.64451982 </i>
   </energy>
  </scstep>
  <scstep>
   <time name="dav">   20.31   20.36</time>
   <time name="total">   20.35   20.41</time>
   <energy>
    <i name="alphaZ">     85.81966902 </i>
    <i name="ewald">  42832.62386732 </i>
    <i name="hartreedc"> -48820.75861488 </i>
    <i name="XCdc">   -234.28794687 </i>
    <i name="pawpsdc">   4063.76737941 </i>
    <i name="pawaedc">  -3479.65550308 </i>
    <i name="eentropy">     -0.20994624 </i>
    <i name="bandstr">  -1399.49090315 </i>
    <i name="atom">   6761.44252427 </i>
    <i name="e_fr_energy">   -190.74947420 </i>
    <i name="e_wo_entrp">   -190.53952796 </i>
    <i name="e_0_energy">   -190.64450108 </i>
   </energy>
  </scstep>
  <structure>
   <crystal>
    <varray name="basis" >
     <v>       8.48671669       4.90099310       0.00000000 </v>
     <v>      -8.48499823       4.89804509       0.00000000 </v>
     <v>       0.00000000       0.00000000      30.00000000 </v>
    </varray>
    <i name="volume">   2494.59716384 </i>
    <varray name="rec_basis" >
     <v>       0.05890384       0.10204050       0.00000000 </v>
     <v>      -0.05893929       0.10206117       0.00000000 </v>
     <v>       0.00000000       0.00000000       0.03333333 </v>
    </varray>
   </crystal>
   <varray name="positions" >
    <v>       0.33567326      -0.00072132       0.00012649 </v>
    <v>       0.99951151       0.33568302      -0.00006648 </v>
    <v>      -0.00193651       0.66434372       0.00001878 </v>
    <v>       0.66107021       0.66252620      -0.00004805 </v>
    <v>       0.66508085       0.33708968      -0.00024271 </v>
    <v>       0.33891556       0.66679716       0.00024091 </v>
    <v>      -0.00466570      -0.00392663       0.00001198 </v>
    <v>       0.34227510       0.34202398      -0.00019057 </v>
    <v>       0.66383976      -0.00408345       0.00018029 </v>
    <v>       0.10899613       0.22446599       0.95128624 </v>
    <v>       0.22435250       0.10894522       0.04857415 </v>
    <v>       0.10581523       0.55314493       0.95207655 </v>
    <v>       0.21691360       0.44064834       0.04943318 </v>
    <v>       0.11317199       0.88665731       0.95198948 </v>
    <v>       0.21939856       0.78018364       0.04776022 </v>
    <v>       0.44052385       0.21688934       0.95040602 </v>
    <v>       0.55056310       0.10771309       0.04934161 </v>
    <v>       0.44375237       0.55425061       0.94821479 </v>
    <v>       0.55437847       0.44386590       0.05159670 </v>
    <v>       0.44239432       0.89231032       0.95027404 </v>
    <v>       0.55650444       0.77907180       0.05139563 </v>
    <v>       0.78259110       0.22365387       0.95107547 </v>
    <v>       0.89094206       0.11564591       0.04935686 </v>
    <v>       0.78372888       0.55859496       0.95030248 </v>
    <v>       0.89433577       0.44709334       0.04835007 </v>
    <v>       0.77794213       0.88959234       0.94910766 </v>
    <v>       0.89214592       0.77575520       0.04942809 </v>
   </varray>
  </structure>
  <varray name="forces" >
   <v>       0.22316570       0.09350214       0.08301333 </v>
   <v>      -0.09564160      -0.03177864      -0.08156383 </v>
   <v>      -0.03014361      -0.11578154      -0.00688788 </v>
   <v>      -0.22209218      -0.41642853       0.00307167 </v>
   <v>      -0.44546131       0.01939217      -0.04262879 </v>
   <v>       0.50294739       0.31924809       0.00798986 </v>
   <v>      -0.17426103      -0.40054155       0.03430168 </v>
   <v>       0.02087572       0.74052737       0.03149919 </v>
   <v>       0.23853973      -0.25627736      -0.03094126 </v>
   <v>       0.03442508       0.05661806      -0.07667418 </v>
   <v>      -0.04928406       0.04800131       0.00010185 </v>
   <v>       0.01257896       0.05672536      -0.22411687 </v>
   <v>       0.02207684       0.01802296       0.30492740 </v>
   <v>       0.04239257      -0.03002179      -0.23164955 </v>
   <v>       0.05198090      -0.02001557       0.19201104 </v>
   <v>      -0.03082991      -0.02626749      -0.38306556 </v>
   <v>      -0.01068590       0.01204201       0.26075598 </v>
   <v>      -0.00174946       0.03071497      -0.70340034 </v>
   <v>      -0.00537963       0.04448306       0.61738509 </v>
   <v>       0.00523242      -0.02507507      -0.39047751 </v>
   <v>       0.04565089       0.00901531       0.59838626 </v>
   <v>      -0.03562370      -0.02055746      -0.14666907 </v>
   <v>      -0.06868823       0.00617773       0.31255561 </v>
   <v>      -0.01562381       0.04781540      -0.40001900 </v>
   <v>      -0.04497347       0.01618069       0.36576143 </v>
   <v>       0.00599333      -0.09325841      -0.41354220 </v>
   <v>       0.02457840      -0.08246323       0.31987568 </v>
  </varray>
  <varray name="stress" >
   <v>      -5.78960598       0.07921150      -0.04017656 </v>
   <v>       0.07921165      -5.70816399       0.05372053 </v>
   <v>      -0.04017680       0.05372037       4.48949146 </v>
  </varray>
  <energy>
   <i name="e_fr_energy">   -190.74947420 </i>
   <i name="e_wo_entrp">   -190.64450108 </i>
   <i name="e_0_energy">     -0.20994624 </i>
  </energy>
  <time name="totalsc">  384.84  385.86</time>
 </calculation>
 <calculation>
  <scstep>
   <time name="dav">   21.88   21.94</time>
   <time name="total">   22.39   22.45</time>
   <energy>
    <i name="alphaZ">     90.18033729 </i>
    <i name="ewald">  44666.32020530 </i>
    <i name="hartreedc"> -50709.83939079 </i>
    <i name="XCdc">   -231.83539868 </i>
    <i name="pawpsdc">   4063.73675216 </i>
    <i name="pawaedc">  -3479.61952326 </i>
    <i name="eentropy">     -0.19664445 </i>
    <i name="bandstr">  -1352.30950567 </i>
    <i name="atom">   6761.44252427 </i>
    <i name="e_fr_energy">   -192.12064382 </i>
    <i name="e_wo_entrp">   -191.92399937 </i>
    <i name="e_0_energy">   -192.02232160 </i>
   </energy>
  </scstep>
  <scstep>
   <time name="dav">   28.27   28.34</time>
   <time name="total">   28.78   28.85</time>
   <energy>
    <i name="e_fr_energy">   -191.85328485 </i>
    <i name="e_wo_entrp">   -191.64985089 </i>
    <i name="e_0_energy">   -191.75156787 </i>
   </energy>
  </scstep>
  <scstep>
   <time name="dav">   29.54   29.61</time>
   <time name="total">   30.04   30.12</time>
   <energy>
    <i name="e_fr_energy">   -191.98484290 </i>
    <i name="e_wo_entrp">   -191.78088243 </i>
    <i name="e_0_energy">   -191.88286266 </i>
   </energy>
  </scstep>
  <scstep>
   <time name="dav">   28.65   28.72</time>
   <time name="total">   29.15   29.23</time>
   <energy>
    <i name="e_fr_energy">   -191.74778870 </i>
    <i name="e_wo_entrp">   -191.54727456 </i>
    <i name="e_0_energy">   -191.64753163 </i>
   </energy>
  </scstep>
  <scstep>
   <time name="dav">   30.31   30.39</time>
   <time name="total">   30.82   30.90</time>
   <energy>
    <i name="e_fr_energy">   -191.57769504 </i>
    <i name="e_wo_entrp">   -191.37418693 </i>
    <i name="e_0_energy">   -191.47594099 </i>
   </energy>
  </scstep>
  <scstep>
   <time name="dav">   30.44   30.52</time>
   <time name="total">   30.95   31.04</time>
   <energy>
    <i name="e_fr_energy">   -191.43581846 </i>
    <i name="e_wo_entrp">   -191.22994818 </i>
    <i name="e_0_energy">   -191.33288332 </i>
   </energy>
  </scstep>
  <scstep>
   <time name="dav">   30.31   30.38</time>
   <time name="total">   30.81   30.90</time>
   <energy>
    <i name="e_fr_energy">   -191.42819491 </i>
    <i name="e_wo_entrp">   -191.22418714 </i>
    <i name="e_0_energy">   -191.32619103 </i>
   </energy>
  </scstep>
  <scstep>
   <time name="dav">   29.97   30.04</time>
   <time name="total">   30.48   30.56</time>
   <energy>
    <i name="e_fr_energy">   -191.42597204 </i>
    <i name="e_wo_entrp">   -191.22111914 </i>
    <i name="e_0_energy">   -191.32354559 </i>
   </energy>
  </scstep>
  <scstep>
   <time name="dav">   30.72   30.79</time>
   <time name="total">   31.23   31.31</time>
   <energy>
    <i name="e_fr_energy">   -191.41926215 </i>
    <i name="e_wo_entrp">   -191.21440540 </i>
    <i name="e_0_energy">   -191.31683377 </i>
   </energy>
  </scstep>
  <scstep>
   <time name="dav">   27.71   27.78</time>
   <time name="total">   28.22   28.30</time>
   <energy>
    <i name="e_fr_energy">   -191.41956982 </i>
    <i name="e_wo_entrp">   -191.21444295 </i>
    <i name="e_0_energy">   -191.31700638 </i>
   </energy>
  </scstep>
  <scstep>
   <time name="dav">   27.99   28.05</time>
   <time name="total">   28.50   28.57</time>
   <energy>
    <i name="e_fr_energy">   -191.41941721 </i>
    <i name="e_wo_entrp">   -191.21443578 </i>
    <i name="e_0_energy">   -191.31692649 </i>
   </energy>
  </scstep>
  <scstep>
   <time name="dav">   19.81   19.85</time>
   <time name="total">   19.84   19.90</time>
   <energy>
    <i name="alphaZ">     90.18033729 </i>
    <i name="ewald">  44666.32020530 </i>
    <i name="hartreedc"> -50675.88096846 </i>
    <i name="XCdc">   -233.36281776 </i>
    <i name="pawpsdc">   4085.77713659 </i>
    <i name="pawaedc">  -3501.75568764 </i>
    <i name="eentropy">     -0.20506079 </i>
    <i name="bandstr">  -1383.93507010 </i>
    <i name="atom">   6761.44252427 </i>
    <i name="e_fr_energy">   -191.41940130 </i>
    <i name="e_wo_entrp">   -191.21434051 </i>
    <i name="e_0_energy">   -191.31687090 </i>
   </energy>
  </scstep>
  <structure>
   <crystal>
    <varray name="basis" >
     <v>       8.27909062       4.78610218       0.00000000 </v>
     <v>      -8.27297302       4.77553312       0.00000000 </v>
     <v>       0.00000000       0.00000000      30.00000000 </v>
    </varray>
    <i name="volume">   2373.97097158 </i>
    <varray name="rec_basis" >
     <v>       0.06034867       0.10454601       0.00000000 </v>
     <v>      -0.06048223       0.10462332       0.00000000 </v>
     <v>       0.00000000       0.00000000       0.03333333 </v>
    </varray>
   </crystal>
   <varray name="positions" >
    <v>       0.33845025      -0.00107690       0.00047487 </v>
    <v>       0.99845952       0.33592327      -0.00040959 </v>
    <v>      -0.00364958       0.66311259      -0.00000936 </v>
    <v>       0.65420603       0.65888989      -0.00003300 </v>
    <v>       0.66201939       0.34042450      -0.00042471 </v>
    <v>       0.34660976       0.66712683       0.00028362 </v>
    <v>      -0.01081316      -0.00748886       0.00015159 </v>
    <v>       0.35159536       0.35104425      -0.00004452 </v>
    <v>       0.66242001      -0.00893978       0.00004211 </v>
    <v>       0.10961318       0.22517803       0.95041741 </v>
    <v>       0.22486378       0.10959748       0.04914273 </v>
    <v>       0.10617517       0.55353651       0.95068199 </v>
    <v>       0.21671633       0.44050370       0.05122991 </v>
    <v>       0.11343640       0.88569457       0.95054418 </v>
    <v>       0.21926645       0.77981209       0.04900599 </v>
    <v>       0.43984756       0.21621648       0.94829664 </v>
    <v>       0.55010272       0.10784154       0.05096751 </v>
    <v>       0.44419063       0.55486764       0.94471870 </v>
    <v>       0.55503007       0.44448963       0.05473991 </v>
    <v>       0.44171260       0.89208659       0.94810929 </v>
    <v>       0.55686093       0.77868214       0.05444265 </v>
    <v>       0.78264418       0.22402599       0.94993715 </v>
    <v>       0.89086353       0.11678003       0.05117060 </v>
    <v>       0.78473077       0.55955928       0.94811837 </v>
    <v>       0.89464693       0.44782704       0.05033457 </v>
    <v>       0.77676502       0.88831395       0.94681404 </v>
    <v>       0.89145060       0.77418599       0.05129724 </v>
   </varray>
  </structure>
  <varray name="forces" >
   <v>       0.29879977       0.10742821       0.01976321 </v>
   <v>      -0.08539913      -0.07665497      -0.01710061 </v>
   <v>      -0.02930943      -0.06857921      -0.02212008 </v>
   <v>      -0.07606260       0.06233841       0.03384421 </v>
   <v>      -0.30389267       0.07541187       0.02466341 </v>
   <v>       0.14226559       0.20405346      -0.05510432 </v>
   <v>      -0.21800112      -0.49105127       0.05978702 </v>
   <v>       0.01081573       0.29017965      -0.04809836 </v>
   <v>       0.31502658      -0.21418135       0.04834372 </v>
   <v>       0.16479004       0.11525711       0.24485710 </v>
   <v>      -0.18528092       0.09269313      -0.33820901 </v>
   <v>       0.07279680       0.16083309       0.07438055 </v>
   <v>       0.08284455       0.15840534      -0.01989611 </v>
   <v>      -0.04324942      -0.02398790       0.07199718 </v>
   <v>       0.23372647      -0.01244662      -0.04488654 </v>
   <v>      -0.11498940       0.05529697      -0.05964540 </v>
   <v>       0.07075701       0.12401664      -0.07007277 </v>
   <v>      -0.00824993       0.04719276      -0.29287439 </v>
   <v>      -0.00709999       0.12204063       0.28737298 </v>
   <v>       0.10062639      -0.02484046      -0.11115831 </v>
   <v>       0.07361816       0.00406222       0.24513667 </v>
   <v>      -0.16236787      -0.16044014       0.12054277 </v>
   <v>      -0.07656897      -0.07844526       0.06350876 </v>
   <v>      -0.14554912      -0.07806779      -0.06575852 </v>
   <v>      -0.06861181      -0.07011760       0.02118557 </v>
   <v>       0.02982343      -0.17333906      -0.22994954 </v>
   <v>      -0.07125817      -0.14705786       0.05949079 </v>
  </varray>
  <varray name="stress" >
   <v>       0.10220922       0.28335544       0.18436269 </v>
   <v>       0.28335519       0.27098683       0.29745872 </v>
   <v>       0.18436251       0.29745866      -0.57833691 </v>
  </varray>
  <energy>
   <i name="e_fr_energy">   -191.41940130 </i>
   <i name="e_wo_entrp">   -191.31687090 </i>
   <i name="e_0_energy">     -0.20506079 </i>
  </energy>
  <time name="totalsc">  383.40  384.42</time>
 </calculation>
 <calculation>
  <scstep>
   <time name="dav">   21.83   21.88</time>
   <time name="total">   22.34   22.40</time>
   <energy>
    <i name="alphaZ">     90.05317788 </i>
    <i name="ewald">  44594.08025942 </i>
    <i name="hartreedc"> -50602.84543939 </i>
    <i name="XCdc">   -233.51076568 </i>
    <i name="pawpsdc">   4085.71256068 </i>
    <i name="pawaedc">  -3501.68680738 </i>
    <i name="eentropy">     -0.20880857 </i>
    <i name="bandstr">  -1384.52526408 </i>
    <i name="atom">   6761.44252427 </i>
    <i name="e_fr_energy">   -191.48856284 </i>
    <i name="e_wo_entrp">   -191.27975427 </i>
    <i name="e_0_energy">   -191.38415856 </i>
   </energy>
  </scstep>
  <scstep>
   <time name="dav">   33.11   33.19</time>
   <time name="total">   33.62   33.70</time>
   <energy>
    <i name="e_fr_energy">   -191.55599100 </i>
    <i name="e_wo_entrp">   -191.34217023 </i>
    <i name="e_0_energy">   -191.44908061 </i>
   </energy>
  </scstep>
  <scstep>
   <time name="dav">   30.55   30.62</time>
   <time name="total">   31.05   31.14</time>
   <energy>
    <i name="e_fr_energy">   -191.50182242 </i>
    <i name="e_wo_entrp">   -191.29216627 </i>
    <i name="e_0_energy">   -191.39699435 </i>
   </energy>
  </scstep>
  <scstep>
   <time name="dav">   28.53   28.60</time>
   <time name="total">   29.04   29.11</time>
   <energy>
    <i name="e_fr_energy">   -191.50358906 </i>
    <i name="e_wo_entrp">   -191.29429252 </i>
    <i name="e_0_energy">   -191.39894079 </i>
   </energy>
  </scstep>
  <scstep>
   <time name="dav">   28.55   28.62</time>
   <time name="total">   29.06   29.14</time>
   <energy>
    <i name="e_fr_energy">   -191.49914002 </i>
    <i name="e_wo_entrp">   -191.28919720 </i>
    <i name="e_0_energy">   -191.39416861 </i>
   </energy>
  </scstep>
  <scstep>
   <time name="dav">   26.89   26.95</time>
   <time name="total">   27.40   27.47</time>
   <energy>
    <i name="e_fr_energy">   -191.49901815 </i>
    <i name="e_wo_entrp">   -191.28907521 </i>
    <i name="e_0_energy">   -191.39404668 </i>
   </energy>
  </scstep>
  <scstep>
   <time name="dav">   28.81   28.88</time>
   <time name="total">   29.32   29.39</time>
   <energy>
    <i name="e_fr_energy">   -191.49957787 </i>
    <i name="e_wo_entrp">   -191.28987230 </i>
    <i name="e_0_energy">   -191.39472509 </i>
   </energy>
  </scstep>
  <scstep>
   <time name="dav">   24.73   24.79</time>
   <time name="total">   25.23   25.30</time>
   <energy>
    <i name="e_fr_energy">   -191.49851470 </i>
    <i name="e_wo_entrp">   -191.28859084 </i>
    <i name="e_0_energy">   -191.39355277 </i>
   </energy>
  </scstep>
  <scstep>
   <time name="dav">   16.88   16.93</time>
   <time name="total">   16.92   16.97</time>
   <energy>
    <i name="alphaZ">     90.05317788 </i>
    <i name="ewald">  44594.08025942 </i>
    <i name="hartreedc"> -50604.81911461 </i>
    <i name="XCdc">   -233.44850850 </i>
    <i name="pawpsdc">   4082.98866132 </i>
    <i name="pawaedc">  -3498.92355379 </i>
    <i name="eentropy">     -0.20978847 </i>
    <i name="bandstr">  -1382.66218416 </i>
    <i name="atom">   6761.44252427 </i>
    <i name="e_fr_energy">   -191.49852664 </i>
    <i name="e_wo_entrp">   -191.28873817 </i>
    <i name="e_0_energy">   -191.39363240 </i>
   </energy>
  </scstep>
  <structure>
   <crystal>
    <varray name="basis" >
     <v>       8.28663225       4.79650381       0.00000000 </v>
     <v>      -8.27358416       4.77393292       0.00000000 </v>
     <v>       0.00000000       0.00000000      30.00000000 </v>
    </varray>
    <i name="volume">   2377.32313269 </i>
    <varray name="rec_basis" >
     <v>       0.06024338       0.10440631       0.00000000 </v>
     <v>      -0.06052821       0.10457096       0.00000000 </v>
     <v>       0.00000000       0.00000000       0.03333333 </v>
    </varray>
   </crystal>
   <varray name="positions" >
    <v>       0.33978200      -0.00139331       0.00050027 </v>
    <v>       0.99785682       0.33578588      -0.00043090 </v>
    <v>      -0.00404231       0.66287801      -0.00004357 </v>
    <v>       0.65440473       0.65946992       0.00001976 </v>
    <v>       0.66157692       0.34160807      -0.00038314 </v>
    <v>       0.34789447       0.66772089       0.00019653 </v>
    <v>      -0.01374892      -0.00922971       0.00024307 </v>
    <v>       0.35290657       0.35229981      -0.00012233 </v>
    <v>       0.66228276      -0.01081291       0.00012013 </v>
    <v>       0.11064060       0.22526260       0.95082025 </v>
    <v>       0.22478300       0.11057275       0.04859822 </v>
    <v>       0.10717068       0.55411656       0.95082524 </v>
    <v>       0.21773858       0.44105148       0.05116497 </v>
    <v>       0.11318834       0.88571750       0.95068470 </v>
    <v>       0.21987286       0.77908978       0.04891145 </v>
    <v>       0.43980500       0.21683152       0.94824181 </v>
    <v>       0.55092536       0.10824918       0.05082655 </v>
    <v>       0.44439155       0.55511121       0.94432105 </v>
    <v>       0.55559797       0.44509979       0.05513449 </v>
    <v>       0.44189076       0.89168064       0.94797489 </v>
    <v>       0.55708497       0.77850073       0.05477277 </v>
    <v>       0.78138881       0.22368903       0.95014931 </v>
    <v>       0.89025873       0.11658849       0.05123620 </v>
    <v>       0.78391345       0.55957145       0.94805519 </v>
    <v>       0.89409855       0.44766370       0.05033166 </v>
    <v>       0.77601696       0.88739764       0.94649593 </v>
    <v>       0.89053527       0.77369373       0.05135541 </v>
   </varray>
  </structure>
  <varray name="forces" >
   <v>       0.36110979       0.11190498       0.03141541 </v>
   <v>      -0.09192305      -0.04360007      -0.04536997 </v>
   <v>      -0.01477987      -0.07526335      -0.04700111 </v>
   <v>      -0.07375992       0.03972949      -0.00052541 </v>
   <v>      -0.38270452       0.09082248       0.00873442 </v>
   <v>       0.13717157       0.22477360      -0.02542300 </v>
   <v>      -0.25121366      -0.55196168       0.03507999 </v>
   <v>       0.03643094       0.42490435       0.01377103 </v>
   <v>       0.35741700      -0.24944433       0.01200956 </v>
   <v>       0.11642451       0.04783359       0.24991716 </v>
   <v>      -0.13474502       0.01130544      -0.36917860 </v>
   <v>       0.04664639       0.09960558       0.09292209 </v>
   <v>       0.04413812       0.09555866      -0.05130326 </v>
   <v>      -0.05026183      -0.01150264       0.12020108 </v>
   <v>       0.14056685      -0.00635165      -0.06613627 </v>
   <v>      -0.05593316       0.03533855      -0.03351603 </v>
   <v>       0.06461354       0.09464862      -0.08210847 </v>
   <v>       0.00427250       0.05774812      -0.18600258 </v>
   <v>      -0.03765169       0.06603937       0.17967934 </v>
   <v>       0.06293876       0.01602698      -0.11818727 </v>
   <v>       0.04214581      -0.01089264       0.20975858 </v>
   <v>      -0.11057644      -0.12808328       0.16755023 </v>
   <v>      -0.05761314      -0.06515154       0.06834253 </v>
   <v>      -0.08982859      -0.03641873      -0.05257035 </v>
   <v>      -0.04383479      -0.03853722       0.01380304 </v>
   <v>       0.00274146      -0.10921700      -0.23529431 </v>
   <v>      -0.02179156      -0.08981568       0.10943218 </v>
  </varray>
  <varray name="stress" >
   <v>      -0.07348662       0.03578456       0.08373983 </v>
   <v>       0.03578476      -0.16840118       0.08515785 </v>
   <v>       0.08373981       0.08515799      -1.18817618 </v>
  </varray>
  <energy>
   <i name="e_fr_energy">   -191.49852664 </i>
   <i name="e_wo_entrp">   -191.39363240 </i>
   <i name="e_0_energy">     -0.20978847 </i>
  </energy>
  <time name="totalsc">  286.26  287.02</time>
 </calculation>
 <calculation>
  <scstep>
   <time name="dav">   21.89   21.94</time>
   <time name="total">   22.40   22.46</time>
   <energy>
    <i name="alphaZ">     90.09435072 </i>
    <i name="ewald">  44613.47694933 </i>
    <i name="hartreedc"> -50624.62095546 </i>
    <i name="XCdc">   -233.41942876 </i>
    <i name="pawpsdc">   4082.81844271 </i>
    <i name="pawaedc">  -3498.75159300 </i>
    <i name="eentropy">     -0.21081949 </i>
    <i name="bandstr">  -1382.37479701 </i>
    <i name="atom">   6761.44252427 </i>
    <i name="e_fr_energy">   -191.54532669 </i>
    <i name="e_wo_entrp">   -191.33450720 </i>
    <i name="e_0_energy">   -191.43991695 </i>
   </energy>
  </scstep>
  <scstep>
   <time name="dav">   33.24   33.32</time>
   <time name="total">   33.75   33.84</time>
   <energy>
    <i name="e_fr_energy">   -191.56193309 </i>
    <i name="e_wo_entrp">   -191.34774033 </i>
    <i name="e_0_energy">   -191.45483671 </i>
   </energy>
  </scstep>
  <scstep>
   <time name="dav">   30.37   30.44</time>
   <time name="total">   30.87   30.95</time>
   <energy>
    <i name="e_fr_energy">   -191.54854374 </i>
    <i name="e_wo_entrp">   -191.33736267 </i>
    <i name="e_0_energy">   -191.44295320 </i>
   </energy>
  </scstep>
  <scstep>
   <time name="dav">   27.85   27.92</time>
   <time name="total">   28.36   28.43</time>
   <energy>
    <i name="e_fr_energy">   -191.54907129 </i>
    <i name="e_wo_entrp">   -191.33803931 </i>
    <i name="e_0_energy">   -191.44355530 </i>
   </energy>
  </scstep>
  <scstep>
   <time name="dav">   27.81   27.88</time>
   <time name="total">   28.32   28.40</time>
   <energy>
    <i name="e_fr_energy">   -191.54751641 </i>
    <i name="e_wo_entrp">   -191.33596640 </i>
    <i name="e_0_energy">   -191.44174140 </i>
   </energy>
  </scstep>
  <scstep>
   <time name="dav">   25.90   25.97</time>
   <time name="total">   25.94   26.01</time>
   <energy>
    <i name="alphaZ">     90.09435072 </i>
    <i name="ewald">  44613.47694933 </i>
    <i name="hartreedc"> -50624.63597605 </i>
    <i name="XCdc">   -233.42321710 </i>
    <i name="pawpsdc">   4083.83567637 </i>
    <i name="pawaedc">  -3499.78118360 </i>
    <i name="eentropy">     -0.21153546 </i>
    <i name="bandstr">  -1382.34504917 </i>
    <i name="atom">   6761.44252427 </i>
    <i name="e_fr_energy">   -191.54746067 </i>
    <i name="e_wo_entrp">   -191.33592522 </i>
[...]
      <set comment="kpoint 31">
       <r>  -17.5237    1.0000 </r>
       <r>  -17.2389    1.0000 </r>
       <r>  -16.9101    1.0000 </r>
       <r>  -16.5003    1.0000 </r>
       <r>  -16.4320    1.0000 </r>
       <r>  -16.4071    1.0000 </r>
       <r>  -16.2789    1.0000 </r>
       <r>  -16.1534    1.0000 </r>
       <r>  -16.0822    1.0000 </r>
       <r>  -16.0294    1.0000 </r>
       <r>  -15.9729    1.0000 </r>
       <r>  -15.8706    1.0000 </r>
       <r>  -15.7791    1.0000 </r>
       <r>  -15.6866    1.0000 </r>
       <r>  -15.6458    1.0000 </r>
       <r>  -15.5716    1.0000 </r>
       <r>  -15.5147    1.0000 </r>
       <r>  -15.4339    1.0000 </r>
       <r>   -9.7591    1.0000 </r>
       <r>   -9.4620    1.0000 </r>
       <r>   -9.2875    1.0000 </r>
       <r>   -8.8947    1.0000 </r>
       <r>   -8.8167    1.0000 </r>
       <r>   -8.7276    1.0000 </r>
       <r>   -8.5901    1.0000 </r>
       <r>   -8.4978    1.0000 </r>
       <r>   -8.3994    1.0000 </r>
       <r>   -8.3126    1.0000 </r>
       <r>   -8.2796    1.0000 </r>
       <r>   -8.1858    1.0000 </r>
       <r>   -8.1303    1.0000 </r>
       <r>   -8.0713    1.0000 </r>
       <r>   -7.9603    1.0000 </r>
       <r>   -7.8714    1.0000 </r>
       <r>   -7.7851    1.0000 </r>
       <r>   -7.5469    1.0000 </r>
       <r>   -7.5089    1.0000 </r>
       <r>   -7.3978    1.0000 </r>
       <r>   -7.2970    1.0000 </r>
       <r>   -7.2788    1.0000 </r>
       <r>   -7.0974    1.0000 </r>
       <r>   -7.0202    1.0000 </r>
       <r>   -6.9747    1.0000 </r>
       <r>   -6.9084    1.0000 </r>
       <r>   -6.8062    1.0000 </r>
       <r>   -6.7588    1.0000 </r>
       <r>   -6.7063    1.0000 </r>
       <r>   -6.6921    1.0000 </r>
       <r>   -6.5972    1.0000 </r>
       <r>   -6.4705    1.0000 </r>
       <r>   -6.4256    1.0000 </r>
       <r>   -6.3405    1.0000 </r>
       <r>   -6.2324    1.0000 </r>
       <r>   -6.1907    1.0000 </r>
       <r>   -6.0414    1.0000 </r>
       <r>   -6.0155    1.0000 </r>
       <r>   -5.9314    1.0000 </r>
       <r>   -5.8770    1.0000 </r>
       <r>   -5.8218    1.0000 </r>
       <r>   -5.7944    1.0000 </r>
       <r>   -5.7171    1.0000 </r>
       <r>   -5.6933    1.0000 </r>
       <r>   -5.6277    1.0000 </r>
       <r>   -5.5678    1.0000 </r>
       <r>   -5.2945    1.0000 </r>
       <r>   -5.1406    1.0000 </r>
       <r>   -5.0063    1.0000 </r>
       <r>   -4.9625    1.0000 </r>
       <r>   -4.8714    1.0000 </r>
       <r>   -4.7870    1.0000 </r>
       <r>   -4.5400    1.0000 </r>
       <r>   -4.4337    1.0000 </r>
       <r>   -4.3177    1.0000 </r>
       <r>   -4.0390    1.0000 </r>
       <r>   -3.7586    1.0000 </r>
       <r>   -3.6675    1.0000 </r>
       <r>   -3.5975    1.0000 </r>
       <r>   -3.3874    0.9949 </r>
       <r>   -3.1758    0.8589 </r>
       <r>   -3.0800    0.6546 </r>
       <r>   -2.9156    0.2223 </r>
       <r>   -2.7430    0.0236 </r>
       <r>   -2.6495    0.0041 </r>
       <r>   -2.5829    0.0009 </r>
       <r>   -2.5078    0.0001 </r>
       <r>   -2.4361    0.0000 </r>
       <r>   -2.3788    0.0000 </r>
       <r>   -2.2648    0.0000 </r>
       <r>   -2.2043    0.0000 </r>
       <r>   -2.0571    0.0000 </r>
       <r>   -1.8647    0.0000 </r>
       <r>   -1.7033    0.0000 </r>
       <r>   -1.5727    0.0000 </r>
       <r>   -1.4004    0.0000 </r>
       <r>   -1.2211    0.0000 </r>
       <r>   -1.1109    0.0000 </r>
       <r>   -1.0687    0.0000 </r>
       <r>   -0.9192    0.0000 </r>
       <r>   -0.8326    0.0000 </r>
       <r>   -0.7625    0.0000 </r>
       <r>   -0.7004    0.0000 </r>
       <r>   -0.6274    0.0000 </r>
       <r>   -0.5689    0.0000 </r>
       <r>   -0.5141    0.0000 </r>
       <r>   -0.4252    0.0000 </r>
       <r>   -0.3340    0.0000 </r>
       <r>   -0.2407    0.0000 </r>
       <r>   -0.0719    0.0000 </r>
       <r>    0.0290    0.0000 </r>
       <r>    0.3251    0.0000 </r>
       <r>    0.4686    0.0000 </r>
       <r>    0.6998    0.0000 </r>
       <r>    0.9311    0.0000 </r>
       <r>    1.1726    0.0000 </r>
       <r>    1.3021    0.0000 </r>
       <r>    1.3894    0.0000 </r>
       <r>    1.4658    0.0000 </r>
       <r>    2.1715    0.0000 </r>
       <r>    2.3017    0.0000 </r>
       <r>    2.4325    0.0000 </r>
      </set>
      <set comment="kpoint 32">
       <r>  -17.5358    1.0000 </r>
       <r>  -17.1307    1.0000 </r>
       <r>  -17.0653    1.0000 </r>
       <r>  -16.4888    1.0000 </r>
       <r>  -16.4006    1.0000 </r>
       <r>  -16.3131    1.0000 </r>
       <r>  -16.2310    1.0000 </r>
       <r>  -16.1953    1.0000 </r>
       <r>  -16.1293    1.0000 </r>
       <r>  -16.0181    1.0000 </r>
       <r>  -15.9929    1.0000 </r>
       <r>  -15.9191    1.0000 </r>
       <r>  -15.7833    1.0000 </r>
       <r>  -15.7074    1.0000 </r>
       <r>  -15.6461    1.0000 </r>
       <r>  -15.5380    1.0000 </r>
       <r>  -15.5159    1.0000 </r>
       <r>  -15.4204    1.0000 </r>
       <r>   -9.6409    1.0000 </r>
       <r>   -9.6182    1.0000 </r>
       <r>   -9.3662    1.0000 </r>
       <r>   -8.8967    1.0000 </r>
       <r>   -8.7310    1.0000 </r>
       <r>   -8.5905    1.0000 </r>
       <r>   -8.4991    1.0000 </r>
       <r>   -8.3971    1.0000 </r>
       <r>   -8.3775    1.0000 </r>
       <r>   -8.3357    1.0000 </r>
       <r>   -8.2973    1.0000 </r>
       <r>   -8.2469    1.0000 </r>
       <r>   -8.1892    1.0000 </r>
       <r>   -8.1634    1.0000 </r>
       <r>   -8.0988    1.0000 </r>
       <r>   -7.9306    1.0000 </r>
       <r>   -7.7728    1.0000 </r>
       <r>   -7.5221    1.0000 </r>
       <r>   -7.4321    1.0000 </r>
       <r>   -7.3660    1.0000 </r>
       <r>   -7.2742    1.0000 </r>
       <r>   -7.2344    1.0000 </r>
       <r>   -7.1481    1.0000 </r>
       <r>   -7.0604    1.0000 </r>
       <r>   -7.0181    1.0000 </r>
       <r>   -6.9221    1.0000 </r>
       <r>   -6.8161    1.0000 </r>
       <r>   -6.7397    1.0000 </r>
       <r>   -6.7175    1.0000 </r>
       <r>   -6.6232    1.0000 </r>
       <r>   -6.5794    1.0000 </r>
       <r>   -6.5207    1.0000 </r>
       <r>   -6.4329    1.0000 </r>
       <r>   -6.3505    1.0000 </r>
       <r>   -6.2954    1.0000 </r>
       <r>   -6.1928    1.0000 </r>
       <r>   -6.0698    1.0000 </r>
       <r>   -6.0209    1.0000 </r>
       <r>   -5.9089    1.0000 </r>
       <r>   -5.8650    1.0000 </r>
       <r>   -5.8314    1.0000 </r>
       <r>   -5.7383    1.0000 </r>
       <r>   -5.6655    1.0000 </r>
       <r>   -5.5519    1.0000 </r>
       <r>   -5.4918    1.0000 </r>
       <r>   -5.4227    1.0000 </r>
       <r>   -5.3429    1.0000 </r>
       <r>   -5.3010    1.0000 </r>
       <r>   -5.1050    1.0000 </r>
       <r>   -5.0536    1.0000 </r>
       <r>   -4.9915    1.0000 </r>
       <r>   -4.7816    1.0000 </r>
       <r>   -4.5350    1.0000 </r>
       <r>   -4.4587    1.0000 </r>
       <r>   -4.2060    1.0000 </r>
       <r>   -4.0599    1.0000 </r>
       <r>   -3.7417    1.0000 </r>
       <r>   -3.6375    1.0000 </r>
       <r>   -3.5668    0.9999 </r>
       <r>   -3.4645    0.9991 </r>
       <r>   -3.1527    0.8191 </r>
       <r>   -3.0010    0.4362 </r>
       <r>   -2.9017    0.1941 </r>
       <r>   -2.7471    0.0252 </r>
       <r>   -2.6539    0.0045 </r>
       <r>   -2.5606    0.0005 </r>
       <r>   -2.5097    0.0001 </r>
       <r>   -2.4366    0.0000 </r>
       <r>   -2.4126    0.0000 </r>
       <r>   -2.2838    0.0000 </r>
       <r>   -2.2483    0.0000 </r>
       <r>   -2.1160    0.0000 </r>
       <r>   -1.8442    0.0000 </r>
       <r>   -1.6932    0.0000 </r>
       <r>   -1.5179    0.0000 </r>
       <r>   -1.4079    0.0000 </r>
       <r>   -1.2220    0.0000 </r>
       <r>   -1.1372    0.0000 </r>
       <r>   -1.0608    0.0000 </r>
       <r>   -0.9246    0.0000 </r>
       <r>   -0.8322    0.0000 </r>
       <r>   -0.7982    0.0000 </r>
       <r>   -0.7195    0.0000 </r>
       <r>   -0.6753    0.0000 </r>
       <r>   -0.5444    0.0000 </r>
       <r>   -0.4795    0.0000 </r>
       <r>   -0.3777    0.0000 </r>
       <r>   -0.2701    0.0000 </r>
       <r>   -0.1781    0.0000 </r>
       <r>   -0.1206    0.0000 </r>
       <r>   -0.0345    0.0000 </r>
       <r>    0.2983    0.0000 </r>
       <r>    0.3996    0.0000 </r>
       <r>    0.7839    0.0000 </r>
       <r>    0.8837    0.0000 </r>
       <r>    1.1928    0.0000 </r>
       <r>    1.3010    0.0000 </r>
       <r>    1.3738    0.0000 </r>
       <r>    1.4638    0.0000 </r>
       <r>    2.1387    0.0000 </r>
       <r>    2.2710    0.0000 </r>
       <r>    2.6070    0.0000 </r>
      </set>
      <set comment="kpoint 33">
       <r>  -17.5193    1.0000 </r>
       <r>  -17.2521    1.0000 </r>
       <r>  -16.9041    1.0000 </r>
       <r>  -16.5005    1.0000 </r>
       <r>  -16.4489    1.0000 </r>
       <r>  -16.3919    1.0000 </r>
       <r>  -16.2602    1.0000 </r>
       <r>  -16.1474    1.0000 </r>
       <r>  -16.0863    1.0000 </r>
       <r>  -16.0300    1.0000 </r>
       <r>  -15.9517    1.0000 </r>
       <r>  -15.8782    1.0000 </r>
       <r>  -15.8098    1.0000 </r>
       <r>  -15.7206    1.0000 </r>
       <r>  -15.6329    1.0000 </r>
       <r>  -15.5624    1.0000 </r>
       <r>  -15.4940    1.0000 </r>
       <r>  -15.4421    1.0000 </r>
       <r>   -9.7475    1.0000 </r>
       <r>   -9.4444    1.0000 </r>
       <r>   -9.3024    1.0000 </r>
       <r>   -8.9326    1.0000 </r>
       <r>   -8.8274    1.0000 </r>
       <r>   -8.7720    1.0000 </r>
       <r>   -8.5290    1.0000 </r>
       <r>   -8.4595    1.0000 </r>
       <r>   -8.3940    1.0000 </r>
       <r>   -8.2944    1.0000 </r>
       <r>   -8.2559    1.0000 </r>
       <r>   -8.2141    1.0000 </r>
       <r>   -8.1373    1.0000 </r>
       <r>   -8.0833    1.0000 </r>
       <r>   -7.9618    1.0000 </r>
       <r>   -7.9371    1.0000 </r>
       <r>   -7.7029    1.0000 </r>
       <r>   -7.5897    1.0000 </r>
       <r>   -7.5595    1.0000 </r>
       <r>   -7.3824    1.0000 </r>
       <r>   -7.3222    1.0000 </r>
       <r>   -7.1653    1.0000 </r>
       <r>   -7.1109    1.0000 </r>
       <r>   -7.0473    1.0000 </r>
       <r>   -6.9909    1.0000 </r>
       <r>   -6.9010    1.0000 </r>
       <r>   -6.8098    1.0000 </r>
       <r>   -6.7626    1.0000 </r>
       <r>   -6.6876    1.0000 </r>
       <r>   -6.6375    1.0000 </r>
       <r>   -6.5932    1.0000 </r>
       <r>   -6.4828    1.0000 </r>
       <r>   -6.4154    1.0000 </r>
       <r>   -6.3434    1.0000 </r>
       <r>   -6.2972    1.0000 </r>
       <r>   -6.1509    1.0000 </r>
       <r>   -6.0761    1.0000 </r>
       <r>   -5.9868    1.0000 </r>
       <r>   -5.9075    1.0000 </r>
       <r>   -5.8956    1.0000 </r>
       <r>   -5.8188    1.0000 </r>
       <r>   -5.8040    1.0000 </r>
       <r>   -5.7292    1.0000 </r>
       <r>   -5.6901    1.0000 </r>
       <r>   -5.6305    1.0000 </r>
       <r>   -5.5852    1.0000 </r>
       <r>   -5.3109    1.0000 </r>
       <r>   -5.1158    1.0000 </r>
       <r>   -5.0566    1.0000 </r>
       <r>   -4.9645    1.0000 </r>
       <r>   -4.8641    1.0000 </r>
       <r>   -4.7894    1.0000 </r>
       <r>   -4.5398    1.0000 </r>
       <r>   -4.4022    1.0000 </r>
       <r>   -4.3578    1.0000 </r>
       <r>   -3.9635    1.0000 </r>
       <r>   -3.7771    1.0000 </r>
       <r>   -3.6161    1.0000 </r>
       <r>   -3.5497    0.9999 </r>
       <r>   -3.4694    0.9992 </r>
       <r>   -3.1825    0.8692 </r>
       <r>   -3.0313    0.5214 </r>
       <r>   -2.9300    0.2538 </r>
       <r>   -2.7519    0.0273 </r>
       <r>   -2.6329    0.0029 </r>
       <r>   -2.5726    0.0007 </r>
       <r>   -2.4892    0.0001 </r>
       <r>   -2.4287    0.0000 </r>
       <r>   -2.3658    0.0000 </r>
       <r>   -2.3187    0.0000 </r>
       <r>   -2.2278    0.0000 </r>
       <r>   -2.1765    0.0000 </r>
       <r>   -1.7990    0.0000 </r>
       <r>   -1.7114    0.0000 </r>
       <r>   -1.4706    0.0000 </r>
       <r>   -1.4081    0.0000 </r>
       <r>   -1.2237    0.0000 </r>
       <r>   -1.1499    0.0000 </r>
       <r>   -1.0505    0.0000 </r>
       <r>   -0.9359    0.0000 </r>
       <r>   -0.8623    0.0000 </r>
       <r>   -0.7703    0.0000 </r>
       <r>   -0.7061    0.0000 </r>
       <r>   -0.6628    0.0000 </r>
       <r>   -0.5998    0.0000 </r>
       <r>   -0.5132    0.0000 </r>
       <r>   -0.4239    0.0000 </r>
       <r>   -0.2968    0.0000 </r>
       <r>   -0.2091    0.0000 </r>
       <r>   -0.1403    0.0000 </r>
       <r>    0.0080    0.0000 </r>
       <r>    0.2644    0.0000 </r>
       <r>    0.5227    0.0000 </r>
       <r>    0.7215    0.0000 </r>
       <r>    0.9614    0.0000 </r>
       <r>    1.1140    0.0000 </r>
       <r>    1.3220    0.0000 </r>
       <r>    1.4455    0.0000 </r>
       <r>    1.4866    0.0000 </r>
       <r>    2.1708    0.0000 </r>
       <r>    2.3054    0.0000 </r>
       <r>    2.4292    0.0000 </r>
      </set>
      <set comment="kpoint 34">
       <r>  -17.4983    1.0000 </r>
       <r>  -17.3164    1.0000 </r>
       <r>  -16.7279    1.0000 </r>
       <r>  -16.6474    1.0000 </r>
       <r>  -16.4688    1.0000 </r>
       <r>  -16.4189    1.0000 </r>
       <r>  -16.2392    1.0000 </r>
       <r>  -16.1618    1.0000 </r>
       <r>  -16.0689    1.0000 </r>
       <r>  -16.0348    1.0000 </r>
       <r>  -15.9098    1.0000 </r>
       <r>  -15.8540    1.0000 </r>
       <r>  -15.7842    1.0000 </r>
       <r>  -15.7226    1.0000 </r>
       <r>  -15.6754    1.0000 </r>
       <r>  -15.5338    1.0000 </r>
       <r>  -15.5103    1.0000 </r>
       <r>  -15.4603    1.0000 </r>
       <r>   -9.7898    1.0000 </r>
       <r>   -9.3067    1.0000 </r>
       <r>   -9.1600    1.0000 </r>
       <r>   -9.0589    1.0000 </r>
       <r>   -8.9770    1.0000 </r>
       <r>   -8.8580    1.0000 </r>
       <r>   -8.5535    1.0000 </r>
       <r>   -8.4672    1.0000 </r>
       <r>   -8.3955    1.0000 </r>
       <r>   -8.3073    1.0000 </r>
       <r>   -8.2517    1.0000 </r>
       <r>   -8.1914    1.0000 </r>
       <r>   -8.1428    1.0000 </r>
       <r>   -7.9786    1.0000 </r>
       <r>   -7.9013    1.0000 </r>
       <r>   -7.8050    1.0000 </r>
       <r>   -7.7409    1.0000 </r>
       <r>   -7.6363    1.0000 </r>
       <r>   -7.5365    1.0000 </r>
       <r>   -7.4014    1.0000 </r>
       <r>   -7.3519    1.0000 </r>
       <r>   -7.2928    1.0000 </r>
       <r>   -7.1021    1.0000 </r>
       <r>   -7.0172    1.0000 </r>
       <r>   -6.9538    1.0000 </r>
       <r>   -6.8563    1.0000 </r>
       <r>   -6.8378    1.0000 </r>
       <r>   -6.7182    1.0000 </r>
       <r>   -6.6828    1.0000 </r>
       <r>   -6.6297    1.0000 </r>
       <r>   -6.5113    1.0000 </r>
       <r>   -6.4463    1.0000 </r>
       <r>   -6.4149    1.0000 </r>
       <r>   -6.3586    1.0000 </r>
       <r>   -6.2897    1.0000 </r>
       <r>   -6.1614    1.0000 </r>
       <r>   -6.0857    1.0000 </r>
       <r>   -6.0696    1.0000 </r>
       <r>   -6.0227    1.0000 </r>
       <r>   -5.8598    1.0000 </r>
       <r>   -5.8238    1.0000 </r>
       <r>   -5.7656    1.0000 </r>
       <r>   -5.7535    1.0000 </r>
       <r>   -5.7224    1.0000 </r>
       <r>   -5.6718    1.0000 </r>
       <r>   -5.5962    1.0000 </r>
       <r>   -5.5218    1.0000 </r>
       <r>   -4.9992    1.0000 </r>
       <r>   -4.9706    1.0000 </r>
       <r>   -4.8725    1.0000 </r>
       <r>   -4.8057    1.0000 </r>
       <r>   -4.6664    1.0000 </r>
       <r>   -4.6032    1.0000 </r>
       <r>   -4.5143    1.0000 </r>
       <r>   -4.3326    1.0000 </r>
       <r>   -3.9393    1.0000 </r>
       <r>   -3.7934    1.0000 </r>
       <r>   -3.6315    1.0000 </r>
       <r>   -3.5386    0.9999 </r>
       <r>   -3.4501    0.9987 </r>
       <r>   -3.2095    0.9054 </r>
       <r>   -3.0420    0.5513 </r>
       <r>   -2.9836    0.3882 </r>
       <r>   -2.7270    0.0179 </r>
       <r>   -2.6933    0.0097 </r>
       <r>   -2.5408    0.0003 </r>
       <r>   -2.4587    0.0000 </r>
       <r>   -2.4150    0.0000 </r>
       <r>   -2.3391    0.0000 </r>
       <r>   -2.3036    0.0000 </r>
       <r>   -2.2505    0.0000 </r>
       <r>   -2.1948    0.0000 </r>
       <r>   -1.7667    0.0000 </r>
       <r>   -1.7296    0.0000 </r>
       <r>   -1.4501    0.0000 </r>
       <r>   -1.4120    0.0000 </r>
       <r>   -1.2275    0.0000 </r>
       <r>   -1.1474    0.0000 </r>
       <r>   -1.0429    0.0000 </r>
       <r>   -0.9407    0.0000 </r>
       <r>   -0.8947    0.0000 </r>
       <r>   -0.7165    0.0000 </r>
       <r>   -0.6791    0.0000 </r>
       <r>   -0.6441    0.0000 </r>
       <r>   -0.6047    0.0000 </r>
       <r>   -0.5659    0.0000 </r>
       <r>   -0.4921    0.0000 </r>
       <r>   -0.4008    0.0000 </r>
       <r>   -0.2237    0.0000 </r>
       <r>   -0.1023    0.0000 </r>
       <r>    0.0426    0.0000 </r>
       <r>    0.2793    0.0000 </r>
       <r>    0.6197    0.0000 </r>
       <r>    0.6460    0.0000 </r>
       <r>    1.0013    0.0000 </r>
       <r>    1.0896    0.0000 </r>
       <r>    1.3144    0.0000 </r>
       <r>    1.4882    0.0000 </r>
       <r>    1.5097    0.0000 </r>
       <r>    2.2619    0.0000 </r>
       <r>    2.2744    0.0000 </r>
       <r>    2.3900    0.0000 </r>
      </set>
     </set>
    </set>
   </array>
  </eigenvalues>
  <separator name="orbital magnetization" >
   <v name="MAGDIPOLOUT">      0.00000000      0.00000000      0.00000000</v>
  </separator>
 </calculation>
 <structure name="finalpos" >
  <crystal>
   <varray name="basis" >
    <v>       8.29937144       4.81513440       0.00000000 </v>
    <v>      -8.27707719       4.77654052       0.00000000 </v>
    <v>       0.00000000       0.00000000      30.00000000 </v>
   </varray>
   <i name="volume">   2384.92569259 </i>
   <varray name="rec_basis" >
    <v>       0.06008414       0.10411742       0.00000000 </v>
    <v>      -0.06056962       0.10439786       0.00000000 </v>
    <v>       0.00000000       0.00000000       0.03333333 </v>
   </varray>
  </crystal>
  <varray name="positions" >
   <v>       0.33837353       0.00448430      -0.00000588 </v>
   <v>       1.00125363       0.33519522      -0.00027757 </v>
   <v>       0.00170888       0.66757213       0.00025536 </v>
   <v>       0.64358434       0.65044740       0.00012736 </v>
   <v>       0.65366566       0.33057764      -0.00017393 </v>
   <v>       0.35178817       0.66217616      -0.00005184 </v>
   <v>       0.00168034      -0.00069516       0.00036575 </v>
   <v>       0.35169877       0.35389281      -0.00032042 </v>
   <v>       0.65482434      -0.00482408      -0.00002432 </v>
   <v>       0.11198519       0.22671775       0.94997876 </v>
   <v>       0.22700604       0.11363323       0.04984356 </v>
   <v>       0.10969118       0.55514757       0.95111391 </v>
   <v>       0.22055611       0.44239917       0.05190922 </v>
   <v>       0.11425424       0.88699547       0.95009082 </v>
   <v>       0.22352476       0.77815237       0.04792576 </v>
   <v>       0.43804246       0.21697056       0.94738451 </v>
   <v>       0.54695885       0.10635844       0.05244925 </v>
   <v>       0.44517252       0.55409649       0.94260181 </v>
   <v>       0.55477786       0.44334460       0.05554062 </v>
   <v>       0.43977892       0.88994147       0.94822138 </v>
   <v>       0.55883105       0.77935150       0.05471562 </v>
   <v>       0.78153313       0.22445294       0.95007031 </v>
   <v>       0.88945371       0.11735702       0.05041755 </v>
   <v>       0.78183109       0.55822352       0.94957007 </v>
   <v>       0.89287895       0.44628659       0.04917656 </v>
   <v>       0.77608629       0.88699915       0.94940191 </v>
   <v>       0.88727446       0.77296017       0.04969377 </v>
  </varray>
 </structure>
</modeling>
