unknown system                          
           1
     8.856332    5.108308    0.000000
    -8.853481    5.103403    0.000000
     0.000000    0.000000   30.000000
   V    Mo   W    S 
   3   3   3  18
Direct configuration=     1
   0.33333334  0.00000000  0.00000000
   1.00000000  0.33333334  0.00000000
   0.00000000  0.66666669  0.00000000
   0.66666669  0.66666669  0.00000000
   0.66666669  0.33333334  0.00000000
   0.33333334  0.66666669  0.00000000
   0.00000000  0.00000000  0.00000000
   0.33333334  0.33333334  0.00000000
   0.66666669  0.00000000  0.00000000
   0.11068511  0.22244981  0.95539999
   0.22244981  0.11068511  0.04460000
   0.11068511  0.55578315  0.95539999
   0.22244981  0.44401845  0.04460000
   0.11068511  0.88911647  0.95539999
   0.22244981  0.77735180  0.04460000
   0.44401845  0.22244981  0.95539999
   0.55578315  0.11068511  0.04460000
   0.44401845  0.55578315  0.95539999
   0.55578315  0.44401845  0.04460000
   0.44401845  0.88911647  0.95539999
   0.55578315  0.77735180  0.04460000
   0.77735180  0.22244981  0.95539999
   0.88911647  0.11068511  0.04460000
   0.77735180  0.55578315  0.95539999
   0.88911647  0.44401845  0.04460000
   0.77735180  0.88911647  0.95539999
   0.88911647  0.77735180  0.04460000
unknown system                          
           1
     8.668429    5.002013    0.000000
    -8.665836    4.997552    0.000000
     0.000000    0.000000   30.000000
   V    Mo   W    S 
   3   3   3  18
Direct configuration=     2
   0.33408114 -0.00050748 -0.00010471
   0.99992771  0.33485366  0.00012927
  -0.00068341  0.66552170  0.00002280
   0.66531240  0.66521148 -0.00003917
   0.66682582  0.33493669 -0.00004001
   0.33432225  0.66672389  0.00008173
  -0.00125127 -0.00175683 -0.00004808
   0.33626440  0.33622109 -0.00020708
   0.66509033 -0.00125972  0.00017545
   0.10910619  0.22410364  0.95207045
   0.22405693  0.10899951  0.04792079
   0.10660311  0.55348764  0.95311657
   0.21787077  0.44162920  0.04807372
   0.11284243  0.88717064  0.95301512
   0.21997742  0.77982640  0.04691065
   0.44151997  0.21795438  0.95190516
   0.55153002  0.10836180  0.04804903
   0.44384162  0.55438317  0.95067759
   0.55462779  0.44395151  0.04931976
   0.44276923  0.89173146  0.95194488
   0.55608381  0.77878010  0.04925641
   0.78169233  0.22341458  0.95201158
   0.89058467  0.11482536  0.04813591
   0.78211644  0.55764427  0.95194005
   0.89329376  0.44626980  0.04693318
   0.77815962  0.88947881  0.95075058
   0.89164900  0.77625770  0.04799827
unknown system                          
           1
     8.486717    4.900993    0.000000
    -8.484998    4.898045    0.000000
     0.000000    0.000000   30.000000
   V    Mo   W    S 
   3   3   3  18
Direct configuration=     3
   0.33436409 -0.00059690 -0.00006369
   0.99986648  0.33515204  0.00010057
  -0.00092487  0.66523122  0.00002422
   0.66454028  0.66465030 -0.00004526
   0.66657028  0.33543114 -0.00008855
   0.33512418  0.66673406  0.00012770
  -0.00190331 -0.00227085 -0.00004069
   0.33749494  0.33740888 -0.00022596
   0.66475662 -0.00180660  0.00019784
   0.10920036  0.22401445  0.95220101
   0.22395625  0.10908945  0.04776717
   0.10654236  0.55345800  0.95316598
   0.21788798  0.44141936  0.04805492
   0.11274006  0.88724828  0.95308618
   0.21993456  0.77984352  0.04681930
   0.44130924  0.21797287  0.95190249
   0.55154259  0.10817751  0.04801835
   0.44372769  0.55414783  0.95052006
   0.55439729  0.44384220  0.04944823
   0.44293908  0.89188446  0.95190174
   0.55624533  0.77902127  0.04935673
   0.78167752  0.22324767  0.95210634
   0.89052304  0.11467796  0.04807474
   0.78228648  0.55773637  0.95189930
   0.89338031  0.44636731  0.04695060
   0.77823266  0.88968694  0.95075015
   0.89180294  0.77644573  0.04799043
unknown system                          
           1
     8.279091    4.786102    0.000000
    -8.272973    4.775533    0.000000
     0.000000    0.000000   30.000000
   V    Mo   W    S 
   3   3   3  18
Direct configuration=     4
   0.33567326 -0.00072132  0.00012649
   0.99951151  0.33568302 -0.00006648
  -0.00193651  0.66434372  0.00001878
   0.66107021  0.66252620 -0.00004805
   0.66508085  0.33708968 -0.00024271
   0.33891556  0.66679716  0.00024091
  -0.00466570 -0.00392663  0.00001198
   0.34227510  0.34202398 -0.00019057
   0.66383976 -0.00408345  0.00018029
   0.10899613  0.22446599  0.95128624
   0.22435250  0.10894522  0.04857415
   0.10581523  0.55314493  0.95207655
   0.21691360  0.44064834  0.04943318
   0.11317199  0.88665731  0.95198948
   0.21939856  0.78018364  0.04776022
   0.44052385  0.21688934  0.95040602
   0.55056310  0.10771309  0.04934161
   0.44375237  0.55425061  0.94821479
   0.55437847  0.44386590  0.05159670
   0.44239432  0.89231032  0.95027404
   0.55650444  0.77907180  0.05139563
   0.78259110  0.22365387  0.95107547
   0.89094206  0.11564591  0.04935686
   0.78372888  0.55859496  0.95030248
   0.89433577  0.44709334  0.04835007
   0.77794213  0.88959234  0.94910766
   0.89214592  0.77575520  0.04942809
unknown system                          
           1
     8.286632    4.796504    0.000000
    -8.273584    4.773933    0.000000
     0.000000    0.000000   30.000000
   V    Mo   W    S 
   3   3   3  18
Direct configuration=     5
   0.33845025 -0.00107690  0.00047487
   0.99845952  0.33592327 -0.00040959
  -0.00364958  0.66311259 -0.00000936
   0.65420603  0.65888989 -0.00003300
   0.66201939  0.34042450 -0.00042471
   0.34660976  0.66712683  0.00028362
  -0.01081316 -0.00748886  0.00015159
   0.35159536  0.35104425 -0.00004452
   0.66242001 -0.00893978  0.00004211
   0.10961318  0.22517803  0.95041741
   0.22486378  0.10959748  0.04914273
   0.10617517  0.55353651  0.95068199
   0.21671633  0.44050370  0.05122991
   0.11343640  0.88569457  0.95054418
   0.21926645  0.77981209  0.04900599
   0.43984756  0.21621648  0.94829664
   0.55010272  0.10784154  0.05096751
   0.44419063  0.55486764  0.94471870
   0.55503007  0.44448963  0.05473991
   0.44171260  0.89208659  0.94810929
   0.55686093  0.77868214  0.05444265
   0.78264418  0.22402599  0.94993715
   0.89086353  0.11678003  0.05117060
   0.78473077  0.55955928  0.94811837
   0.89464693  0.44782704  0.05033457
   0.77676502  0.88831395  0.94681404
   0.89145060  0.77418599  0.05129724
unknown system                          
           1
     8.285571    4.795572    0.000000
    -8.271966    4.772041    0.000000
     0.000000    0.000000   30.000000
   V    Mo   W    S 
   3   3   3  18
Direct configuration=     6
   0.33978200 -0.00139331  0.00050027
   0.99785682  0.33578588 -0.00043090
  -0.00404231  0.66287801 -0.00004357
   0.65440473  0.65946992  0.00001976
   0.66157692  0.34160807 -0.00038314
   0.34789447  0.66772089  0.00019653
  -0.01374892 -0.00922971  0.00024307
   0.35290657  0.35229981 -0.00012233
   0.66228276 -0.01081291  0.00012013
   0.11064060  0.22526260  0.95082025
   0.22478300  0.11057275  0.04859822
   0.10717068  0.55411656  0.95082524
   0.21773858  0.44105148  0.05116497
   0.11318834  0.88571750  0.95068470
   0.21987286  0.77908978  0.04891145
   0.43980500  0.21683152  0.94824181
   0.55092536  0.10824918  0.05082655
   0.44439155  0.55511121  0.94432105
   0.55559797  0.44509979  0.05513449
   0.44189076  0.89168064  0.94797489
   0.55708497  0.77850073  0.05477277
   0.78138881  0.22368903  0.95014931
   0.89025873  0.11658849  0.05123620
   0.78391345  0.55957145  0.94805519
   0.89409855  0.44766370  0.05033166
   0.77601696  0.88739764  0.94649593
   0.89053527  0.77369373  0.05135541
unknown system                          
           1
     8.282088    4.792757    0.000000
    -8.269871    4.771629    0.000000
     0.000000    0.000000   30.000000
   V    Mo   W    S 
   3   3   3  18
Direct configuration=     7
   0.34068622 -0.00166517  0.00052956
   0.99758188  0.33581237 -0.00047243
  -0.00428325  0.66268705 -0.00008534
   0.65437060  0.65968705  0.00001971
   0.66120255  0.34249269 -0.00037591
   0.34877312  0.66812809  0.00017374
  -0.01571690 -0.01037931  0.00027516
   0.35418359  0.35346074 -0.00011008
   0.66215702 -0.01210652  0.00013065
   0.11096654  0.22521259  0.95103830
   0.22460174  0.11082797  0.04827294
   0.10752689  0.55432216  0.95090127
   0.21807720  0.44124759  0.05112795
   0.11307679  0.88576171  0.95078450
   0.22008208  0.77884161  0.04885871
   0.43981014  0.21701868  0.94820203
   0.55129185  0.10841045  0.05076121
   0.44456106  0.55526873  0.94413883
   0.55572703  0.44534930  0.05530970
   0.44203267  0.89162097  0.94785967
   0.55712472  0.77839993  0.05497363
   0.78085238  0.22351205  0.95029246
   0.88998362  0.11650527  0.05130554
   0.78366974  0.55961912  0.94799825
   0.89392105  0.44762969  0.05035303
   0.77570997  0.88707987  0.94627565
   0.89024414  0.77346976  0.05146121
unknown system                          
           1
     8.278151    4.788445    0.000000
    -8.268238    4.771305    0.000000
     0.000000    0.000000   30.000000
   V    Mo   W    S 
   3   3   3  18
Direct configuration=     8
   0.33987093 -0.00139576  0.00050205
   0.99776389  0.33571972 -0.00043291
  -0.00406477  0.66288552 -0.00005895
   0.65416622  0.65944824  0.00000894
   0.66142814  0.34172600 -0.00037342
   0.34825469  0.66777037  0.00019134
  -0.01409409 -0.00944910  0.00022582
   0.35331649  0.35268837 -0.00009778
   0.66222975 -0.01110052  0.00011694
   0.11076777  0.22529487  0.95084355
   0.22479751  0.11070716  0.04856316
   0.10731282  0.55419453  0.95083480
   0.21786935  0.44112775  0.05117106
   0.11317445  0.88569871  0.95068261
   0.21995648  0.77899624  0.04890899
   0.43979774  0.21687072  0.94820735
   0.55094942  0.10825862  0.05083233
   0.44444719  0.55514143  0.94425238
   0.55558930  0.44512360  0.05517334
   0.44191408  0.89164306  0.94795708
   0.55709813  0.77847274  0.05483240
   0.78128619  0.22366209  0.95014558
   0.89019528  0.11660205  0.05126674
   0.78381486  0.55958680  0.94804181
   0.89403289  0.44764023  0.05035403
   0.77596069  0.88729369  0.94647258
   0.89037907  0.77360733  0.05137806
unknown system                          
           1
     8.268970    4.785640    0.000000
    -8.256725    4.764459    0.000000
     0.000000    0.000000   30.000000
   V    Mo   W    S 
   3   3   3  18
Direct configuration=     9
   0.33705611 -0.00036064  0.00042452
   0.99774682  0.33474834 -0.00029701
  -0.00310021  0.66407079  0.00002460
   0.65297900  0.65911967 -0.00000390
   0.66165580  0.33913413 -0.00035405
   0.34793108  0.66692912  0.00019017
  -0.00945192 -0.00703386  0.00009333
   0.35120025  0.35084659 -0.00008804
   0.66241435 -0.00854260  0.00010451
   0.11064224  0.22564783  0.95026550
   0.22548881  0.11086064  0.04942402
   0.10716155  0.55408845  0.95067266
   0.21769181  0.44106107  0.05139481
   0.11350245  0.88541836  0.95027136
   0.21987541  0.77914507  0.04903787
   0.43957607  0.21640514  0.94808046
   0.54979397  0.10757567  0.05108089
   0.44426218  0.55477250  0.94431633
   0.55540025  0.44476362  0.05497399
   0.44156556  0.89163128  0.94821487
   0.55726300  0.77868974  0.05463556
   0.78226323  0.22390362  0.94961096
   0.89069099  0.11693907  0.05123978
   0.78384739  0.55962170  0.94815791
   0.89423060  0.44761096  0.05043844
   0.77639618  0.88743408  0.94696185
   0.89013146  0.77373413  0.05112852
unknown system                          
           1
     8.279970    4.792659    0.000000
    -8.266245    4.768919    0.000000
     0.000000    0.000000   30.000000
   V    Mo   W    S 
   3   3   3  18
Direct configuration=    10
   0.33664000  0.00022832  0.00045076
   0.99649466  0.33410618 -0.00036398
  -0.00309933  0.66408514 -0.00000992
   0.65190587  0.65871221  0.00002383
   0.66141535  0.33895319 -0.00035508
   0.34904817  0.66663984  0.00015263
  -0.00923377 -0.00706363  0.00010586
   0.35215750  0.35159750 -0.00007784
   0.66259767 -0.00867988  0.00008864
   0.11104751  0.22568678  0.95042834
   0.22535959  0.11137158  0.04935272
   0.10768582  0.55431350  0.95090458
   0.21835361  0.44147833  0.05131196
   0.11333701  0.88538629  0.95021377
   0.22029157  0.77871864  0.04889909
   0.43961004  0.21667237  0.94801426
   0.54980740  0.10756253  0.05104818
   0.44435955  0.55475873  0.94404056
   0.55566301  0.44496431  0.05502396
   0.44167507  0.89150641  0.94824269
   0.55747662  0.77885320  0.05488200
   0.78187088  0.22383734  0.94965874
   0.89055440  0.11680399  0.05126648
   0.78334389  0.55946689  0.94829971
   0.89398859  0.44746894  0.05036763
   0.77624033  0.88717636  0.94693837
   0.88962344  0.77360938  0.05109196
unknown system                          
           1
     8.284285    4.796100    0.000000
    -8.268993    4.769648    0.000000
     0.000000    0.000000   30.000000
   V    Mo   W    S 
   3   3   3  18
Direct configuration=    11
   0.33805197 -0.00022762  0.00048482
   0.99610459  0.33430481 -0.00041068
  -0.00352321  0.66363859 -0.00004384
   0.65235446  0.65913176  0.00003727
   0.66114668  0.34028286 -0.00034427
   0.34981562  0.66728304  0.00014720
  -0.01198692 -0.00861991  0.00016390
   0.35355305  0.35279506 -0.00011330
   0.66249908 -0.01033937  0.00011893
   0.11126850  0.22555695  0.95074591
   0.22504284  0.11147645  0.04890566
   0.10793500  0.55445744  0.95098480
   0.21853970  0.44156393  0.05121962
   0.11319437  0.88550527  0.95039180
   0.22042892  0.77855284  0.04881514
   0.43966412  0.21687889  0.94800637
   0.55036425  0.10785513  0.05093557
   0.44453034  0.55495463  0.94389094
   0.55586936  0.44526360  0.05524810
   0.44185093  0.89151046  0.94808658
   0.55746827  0.77873576  0.05506529
   0.78122627  0.22362783  0.94987407
   0.89026063  0.11668985  0.05133596
   0.78322458  0.55953649  0.94819640
   0.89385267  0.44745629  0.05038115
   0.77592099  0.88693108  0.94662506
   0.88955738  0.77341234  0.05125146
unknown system                          
           1
     8.269755    4.784899    0.000000
    -8.259414    4.767012    0.000000
     0.000000    0.000000   30.000000
   V    Mo   W    S 
   3   3   3  18
Direct configuration=    12
   0.33873273 -0.00025072  0.00051289
   0.99511867  0.33402517 -0.00044261
  -0.00372970  0.66344259 -0.00007167
   0.65226206  0.65940997  0.00005866
   0.66088182  0.34106167 -0.00032716
   0.35091696  0.66773619  0.00012766
  -0.01382310 -0.00979556  0.00019332
   0.35486695  0.35380626 -0.00014692
   0.66256253 -0.01151201  0.00014939
   0.11155408  0.22550826  0.95101953
   0.22482795  0.11176154  0.04860979
   0.10827908  0.55462136  0.95112202
   0.21886751  0.44172938  0.05110536
   0.11305492  0.88554741  0.95048140
   0.22064660  0.77831750  0.04869167
   0.43969551  0.21706408  0.94796358
   0.55066319  0.10798136  0.05084177
   0.44469194  0.55505819  0.94370692
   0.55609645  0.44553691  0.05542124
   0.44200323  0.89149791  0.94801835
   0.55756539  0.77873823  0.05525611
   0.78067469  0.22342613  0.94998687
   0.89005183  0.11659378  0.05139591
   0.78299824  0.55957741  0.94817504
   0.89371385  0.44740728  0.05038911
   0.77568356  0.88669012  0.94642113
   0.88935751  0.77323405  0.05134055
unknown system                          
           1
     8.270724    4.785411    0.000000
    -8.260998    4.768588    0.000000
     0.000000    0.000000   30.000000
   V    Mo   W    S 
   3   3   3  18
Direct configuration=    13
   0.33669822 -0.00022768  0.00040948
   0.99858602  0.33509688 -0.00035196
  -0.00341612  0.66370198  0.00003547
   0.65208932  0.65836542 -0.00000170
   0.66159200  0.33878649 -0.00034865
   0.34787794  0.66607268  0.00022742
  -0.00847786 -0.00618253  0.00007729
   0.35116842  0.35136864 -0.00006021
   0.66229086 -0.00824167  0.00007175
   0.11081329  0.22574081  0.95013209
   0.22556535  0.11111678  0.04956127
   0.10735687  0.55421184  0.95067637
   0.21796637  0.44131988  0.05154903
   0.11345612  0.88538232  0.95017458
   0.22005064  0.77882364  0.04908510
   0.43954545  0.21660107  0.94806635
   0.54980256  0.10767431  0.05119449
   0.44420396  0.55469819  0.94414654
   0.55546396  0.44466067  0.05495616
   0.44150996  0.89141925  0.94817255
   0.55725529  0.77872568  0.05468848
   0.78238930  0.22414883  0.94967347
   0.89063162  0.11701051  0.05120904
   0.78356767  0.55942860  0.94822740
   0.89406412  0.44748685  0.05031954
   0.77640762  0.88736045  0.94706627
   0.88975552  0.77366455  0.05104229
unknown system                          
           1
     8.268641    4.785022    0.000000
    -8.256741    4.764438    0.000000
     0.000000    0.000000   30.000000
   V    Mo   W    S 
   3   3   3  18
Direct configuration=    14
   0.33620144 -0.00017391  0.00040349
   1.00010434  0.33559115 -0.00036379
  -0.00341633  0.66379008  0.00007111
   0.65172006  0.65779765 -0.00001576
   0.66147644  0.33793608 -0.00037227
   0.34713318  0.66535009  0.00021740
  -0.00656710 -0.00487024  0.00007988
   0.34996194  0.35078754 -0.00003730
   0.66187155 -0.00739054  0.00002616
   0.11080553  0.22587499  0.94985097
   0.22579348  0.11109082  0.04979090
   0.10730531  0.55424066  0.95055314
   0.21790350  0.44131981  0.05178812
   0.11354852  0.88534125  0.95009092
   0.21999936  0.77882698  0.04914538
   0.43944821  0.21655202  0.94810218
   0.54951304  0.10756133  0.05130591
   0.44407906  0.55462941  0.94412970
   0.55534776  0.44443712  0.05490281
   0.44131781  0.89128246  0.94822833
   0.55722354  0.77873120  0.05461779
   0.78280983  0.22436703  0.94963880
   0.89077164  0.11719983  0.05115003
   0.78355371  0.55932889  0.94823773
   0.89408522  0.44741759  0.05029266
   0.77654894  0.88742916  0.94724961
   0.88967447  0.77376600  0.05091599
unknown system                          
           1
     8.272726    4.787725    0.000000
    -8.260337    4.766296    0.000000
     0.000000    0.000000   30.000000
   V    Mo   W    S 
   3   3   3  18
Direct configuration=    15
   0.33714124 -0.00026970  0.00044269
   0.99998178  0.33571359 -0.00041738
  -0.00387975  0.66347122  0.00005165
   0.65125946  0.65768093  0.00000311
   0.66098263  0.33876431 -0.00035846
   0.34838302  0.66545066  0.00018877
  -0.00804665 -0.00565897  0.00014266
   0.35103530  0.35209250 -0.00006267
   0.66145431 -0.00881847  0.00003823
   0.11125970  0.22588343  0.95012593
   0.22554572  0.11148005  0.04941316
   0.10782664  0.55453112  0.95072810
   0.21844042  0.44162104  0.05174721
   0.11334426  0.88543484  0.95024939
   0.22026310  0.77840152  0.04892578
   0.43939638  0.21683415  0.94810200
   0.54984264  0.10767663  0.05120433
   0.44425268  0.55473796  0.94388282
   0.55552378  0.44468383  0.05507644
   0.44141076  0.89113885  0.94817740
   0.55735084  0.77872079  0.05481145
   0.78221990  0.22414088  0.94988374
   0.89052700  0.11716314  0.05111769
   0.78315667  0.55928576  0.94825031
   0.89390064  0.44726912  0.05022591
   0.77629662  0.88716062  0.94713410
   0.88934536  0.77362466  0.05091553
unknown system                          
           1
     8.283312    4.794655    0.000000
    -8.269356    4.770512    0.000000
     0.000000    0.000000   30.000000
   V    Mo   W    S 
   3   3   3  18
Direct configuration=    16
   0.33747812 -0.00030388  0.00045713
   0.99937607  0.33552363 -0.00042702
  -0.00388194  0.66345807  0.00003133
   0.65147070  0.65796144  0.00001043
   0.66091054  0.33914835 -0.00035696
   0.34873575  0.66581693  0.00017356
  -0.00903037 -0.00633804  0.00015667
   0.35162929  0.35237480 -0.00007249
   0.66157431 -0.00929994  0.00005345
   0.11131197  0.22582379  0.95025801
   0.22544237  0.11152156  0.04927169
   0.10790398  0.55455826  0.95077866
   0.21850546  0.44163912  0.05166659
   0.11330425  0.88545650  0.95029208
   0.22032452  0.77839094  0.04889281
   0.43943326  0.21687015  0.94808422
   0.54997966  0.10773112  0.05114934
   0.44432748  0.55480298  0.94384515
   0.55560479  0.44481823  0.05514285
   0.44149612  0.89118635  0.94814120
   0.55738077  0.77870719  0.05489352
   0.78197138  0.22403050  0.94991392
   0.89043949  0.11708125  0.05116518
   0.78313008  0.55933341  0.94822582
   0.89386576  0.44728819  0.05025549
   0.77618785  0.88707731  0.94700674
   0.88934280  0.77355623  0.05099053
unknown system                          
           1
     8.283110    4.794787    0.000000
    -8.268642    4.769760    0.000000
     0.000000    0.000000   30.000000
   V    Mo   W    S 
   3   3   3  18
Direct configuration=    17
   0.33871042 -0.00045983  0.00049880
   0.99896544  0.33556698 -0.00047813
  -0.00429509  0.66319124 -0.00000796
   0.65163600  0.65831901  0.00002594
   0.66036370  0.34025949 -0.00034413
   0.34987779  0.66636948  0.00013276
  -0.01152080 -0.00785426  0.00021524
   0.35310527  0.35363617 -0.00008769
   0.66134607 -0.01101734  0.00008475
   0.11164421  0.22575632  0.95056300
   0.22522117  0.11182777  0.04884017
   0.10832795  0.55480657  0.95092266
   0.21890240  0.44185654  0.05158681
   0.11314738  0.88553468  0.95045309
   0.22055555  0.77811600  0.04872097
   0.43940775  0.21705862  0.94805754
   0.55036538  0.10788585  0.05103261
   0.44457137  0.55497788  0.94362147
   0.55576453  0.44512758  0.05535768
   0.44163227  0.89114558  0.94801695
   0.55749170  0.77863298  0.05514731
   0.78128930  0.22375040  0.95013896
   0.89012833  0.11698166  0.05121755
   0.78285957  0.55938338  0.94816649
   0.89369786  0.44721541  0.05025793
   0.77588297  0.88680989  0.94673336
   0.88913595  0.77333638  0.05112578
unknown system                          
           1
     8.275172    4.790061    0.000000
    -8.267527    4.776820    0.000000
     0.000000    0.000000   30.000000
   V    Mo   W    S 
   3   3   3  18
Direct configuration=    18
   0.33905318 -0.00053246  0.00051062
   0.99873329  0.33555756 -0.00049277
  -0.00438776  0.66310130 -0.00002158
   0.65178215  0.65848905  0.00003066
   0.66028475  0.34064457 -0.00034317
   0.35014947  0.66658233  0.00012562
  -0.01236960 -0.00838934  0.00023114
   0.35356827  0.35396933 -0.00009436
   0.66137634 -0.01148264  0.00009665
   0.11169974  0.22570619  0.95067233
   0.22512861  0.11187533  0.04870636
   0.10839667  0.55484530  0.95097027
   0.21898248  0.44189257  0.05153144
   0.11309212  0.88555142  0.95050660
   0.22059264  0.77807215  0.04868078
   0.43942707  0.21711233  0.94805838
   0.55050560  0.10794287  0.05098420
   0.44463299  0.55502626  0.94360056
   0.55581286  0.44522642  0.05539834
   0.44170288  0.89116258  0.94798891
   0.55750563  0.77861265  0.05519428
   0.78109336  0.22366300  0.95020412
   0.89004074  0.11691897  0.05123011
   0.78282290  0.55940209  0.94815824
   0.89366117  0.44722202  0.05025480
   0.77579496  0.88675368  0.94664949
   0.88913195  0.77328893  0.05116786
unknown system                          
           1
     8.269291    4.786944    0.000000
    -8.258661    4.768545    0.000000
     0.000000    0.000000   30.000000
   V    Mo   W    S 
   3   3   3  18
Direct configuration=    19
   0.33456612  0.00021355  0.00039127
   1.00091757  0.33604918 -0.00031728
  -0.00358497  0.66413266  0.00013756
   0.64978654  0.65601686 -0.00001981
   0.66146456  0.33679795 -0.00035848
   0.34741968  0.66426426  0.00021277
  -0.00240891 -0.00310533  0.00002322
   0.34893686  0.35047689 -0.00002822
   0.66058018 -0.00640095  0.00000630
   0.11114403  0.22633023  0.94954306
   0.22640570  0.11158062  0.05018647
   0.10756803  0.55467369  0.95065841
   0.21840214  0.44164780  0.05201214
   0.11357012  0.88500774  0.95004648
   0.21995806  0.77841757  0.04887618
   0.43922964  0.21655828  0.94813781
   0.54872466  0.10717055  0.05140966
   0.44391813  0.55433073  0.94392475
   0.55521702  0.44406852  0.05482179
   0.44093083  0.89092458  0.94840088
   0.55743506  0.77899724  0.05457680
   0.78316215  0.22456751  0.94950716
   0.89097968  0.11747777  0.05097683
   0.78346084  0.55928743  0.94850680
   0.89418285  0.44748813  0.05013762
   0.77690359  0.88748187  0.94775517
   0.88934429  0.77375913  0.05047457
unknown system                          
           1
     8.276473    4.791829    0.000000
    -8.266758    4.775007    0.000000
     0.000000    0.000000   30.000000
   V    Mo   W    S 
   3   3   3  18
Direct configuration=    20
   0.33422787  0.00054170  0.00037603
   1.00077324  0.33605606 -0.00034175
  -0.00384838  0.66408031  0.00017307
   0.64865943  0.65518730 -0.00001699
   0.66136255  0.33645797 -0.00037480
   0.34819491  0.66390521  0.00020572
  -0.00064804 -0.00207097  0.00002786
   0.34882168  0.35068702 -0.00009862
   0.65988392 -0.00632727 -0.00001651
   0.11125784  0.22639194  0.94961483
   0.22648357  0.11181163  0.05024404
   0.10783518  0.55481572  0.95075617
   0.21868533  0.44180044  0.05200093
   0.11361842  0.88504771  0.94998253
   0.22014237  0.77821480  0.04872210
   0.43922738  0.21665332  0.94817411
   0.54858069  0.10712737  0.05140454
   0.44391168  0.55417475  0.94383771
   0.55523456  0.44401266  0.05485134
   0.44080310  0.89080972  0.94847259
   0.55762019  0.77905521  0.05456102
   0.78309010  0.22448338  0.94959524
   0.89102917  0.11745294  0.05078703
   0.78315336  0.55916973  0.94854354
   0.89407654  0.44737550  0.05010973
   0.77698605  0.88746062  0.94804482
   0.88905175  0.77383969  0.05036363
unknown system                          
           1
     8.278644    4.793530    0.000000
    -8.264152    4.768456    0.000000
     0.000000    0.000000   30.000000
   V    Mo   W    S 
   3   3   3  18
Direct configuration=    21
   0.33284202  0.00097120  0.00032607
   1.00113270  0.33622610 -0.00028889
  -0.00394581  0.66431222  0.00023724
   0.64748257  0.65401176 -0.00000994
   0.66166057  0.33535893 -0.00035819
   0.34806248  0.66319222  0.00021513
   0.00326466 -0.00006872 -0.00002038
   0.34755550  0.34981878 -0.00006874
   0.65902668 -0.00512880 -0.00005145
   0.11119734  0.22667465  0.94928294
   0.22697941  0.11190899  0.05073265
   0.10781926  0.55491924  0.95071495
   0.21869636  0.44182740  0.05215511
   0.11381430  0.88491610  0.94979643
   0.22009864  0.77813081  0.04867257
   0.43915258  0.21650942  0.94814814
   0.54798240  0.10688598  0.05156818
   0.44375060  0.55394217  0.94375747
   0.55505634  0.44362258  0.05475783
   0.44044596  0.89064382  0.94856880
   0.55777045  0.77917566  0.05446725
   0.78355866  0.22467635  0.94940828
   0.89129023  0.11763022  0.05064910
   0.78315618  0.55912507  0.94862107
   0.89413815  0.44736606  0.05009890
   0.77733682  0.88760811  0.94849926
   0.88888939  0.77395813  0.05012012
unknown system                          
           1
     8.283539    4.797794    0.000000
    -8.267746    4.770465    0.000000
     0.000000    0.000000   30.000000
   V    Mo   W    S 
   3   3   3  18
Direct configuration=    22
   0.33412984  0.00110028  0.00034331
   0.99996945  0.33599014 -0.00034609
  -0.00453348  0.66388698  0.00020973
   0.64716914  0.65398449  0.00001404
   0.66129956  0.33641798 -0.00035913
   0.34967515  0.66377633  0.00017748
   0.00196452 -0.00069776  0.00004474
   0.34894953  0.35095881 -0.00011751
   0.65843793 -0.00678668 -0.00004699
   0.11141223  0.22653834  0.94965199
   0.22667886  0.11212463  0.05037640
   0.10828781  0.55507654  0.95088625
   0.21902797  0.44199252  0.05197758
   0.11374244  0.88518498  0.94987345
   0.22048096  0.77786660  0.04848110
   0.43927078  0.21674285  0.94810765
   0.54847245  0.10711344  0.05147123
   0.44397671  0.55404902  0.94354519
   0.55522671  0.44389833  0.05498364
   0.44054348  0.89062656  0.94845620
   0.55797246  0.77909210  0.05468930
   0.78277307  0.22430485  0.94965371
   0.89101949  0.11741440  0.05060677
   0.78271664  0.55908485  0.94851075
   0.89385286  0.44716730  0.05015155
   0.77710265  0.88736313  0.94841684
   0.88859525  0.77394344  0.05024074
unknown system                          
           1
     8.289075    4.804231    0.000000
    -8.269628    4.770577    0.000000
     0.000000    0.000000   30.000000
   V    Mo   W    S 
   3   3   3  18
Direct configuration=    23
   0.33457386  0.00131029  0.00034075
   0.99920417  0.33588455 -0.00035985
  -0.00507072  0.66362766  0.00020737
   0.64679828  0.65372946  0.00003519
   0.66119965  0.33695995 -0.00033486
   0.35066167  0.66414192  0.00014421
   0.00218745 -0.00067649  0.00006204
   0.34957763  0.35133635 -0.00012368
   0.65778627 -0.00769475 -0.00002707
   0.11152545  0.22661991  0.94977337
   0.22677073  0.11231540  0.05029840
   0.10855304  0.55523025  0.95100014
   0.21924393  0.44210129  0.05188434
   0.11376139  0.88527932  0.94990920
   0.22067849  0.77767007  0.04831861
   0.43932469  0.21685553  0.94806316
   0.54859898  0.10717939  0.05144798
   0.44410482  0.55405710  0.94339279
   0.55525153  0.44394430  0.05509586
   0.44049771  0.89055204  0.94837677
   0.55817149  0.77903998  0.05483097
   0.78235737  0.22410172  0.94973635
   0.89085340  0.11731817  0.05056124
   0.78247758  0.55911095  0.94845635
   0.89368835  0.44708473  0.05019193
   0.77703983  0.88723497  0.94847002
   0.88839742  0.77390040  0.05024832
unknown system                          
           1
     8.287586    4.802375    0.000000
    -8.269375    4.770860    0.000000
     0.000000    0.000000   30.000000
   V    Mo   W    S 
   3   3   3  18
Direct configuration=    24
   0.33589538  0.00167900  0.00033816
   0.99706175  0.33560661 -0.00041178
  -0.00665496  0.66264031  0.00019450
   0.64629535  0.65347558  0.00008233
   0.66120015  0.33885292 -0.00029165
   0.35306303  0.66533764  0.00005601
   0.00172430 -0.00111383  0.00010542
   0.35142690  0.35241339 -0.00017683
   0.65648785 -0.01036543  0.00004252
   0.11175915  0.22682612  0.95016314
   0.22698087  0.11278090  0.05002927
   0.10909914  0.55555791  0.95133267
   0.21976087  0.44237679  0.05155699
   0.11372478  0.88541767  0.95006817
   0.22104980  0.77715875  0.04790113
   0.43952881  0.21720331  0.94797157
   0.54909441  0.10741837  0.05132266
   0.44443630  0.55408241  0.94312628
   0.55534450  0.44415770  0.05536980
   0.44054800  0.89039605  0.94815677