   27   27  100    1
  0.9710400E+02  0.1002848E-08  0.1002848E-08  0.3000000E-08  0.5000000E-15
  1.000000000000000E-004
  CAR 
 unknown system                          
    159     34    120
 
  0.0000000E+00  0.0000000E+00  0.0000000E+00  0.1562500E-01
    1      -17.852417   1.000000
    2      -16.777414   1.000000
    3      -16.670834   1.000000
    4      -16.585777   1.000000
    5      -16.536113   1.000000
    6      -16.521485   1.000000
    7      -16.348171   1.000000
    8      -16.320786   1.000000
    9      -16.215056   1.000000
   10      -16.107190   1.000000
   11      -16.088092   1.000000
   12      -15.966547   1.000000
   13      -15.880529   1.000000
   14      -15.630122   1.000000
   15      -15.586509   1.000000
   16      -15.458137   1.000000
   17      -15.252024   1.000000
   18      -15.176648   1.000000
   19       -9.511375   1.000000
   20       -9.007244   1.000000
   21       -8.986578   1.000000
   22       -8.893260   1.000000
   23       -8.698114   1.000000
   24       -8.685972   1.000000
   25       -8.643983   1.000000
   26       -8.559269   1.000000
   27       -8.524408   1.000000
   28       -8.464847   1.000000
   29       -8.447076   1.000000
   30       -8.433809   1.000000
   31       -8.329311   1.000000
   32       -8.130333   1.000000
   33       -8.107075   1.000000
   34       -8.014099   1.000000
   35       -7.814235   1.000000
   36       -7.741488   1.000000
   37       -7.641157   1.000000
   38       -7.601938   1.000000
   39       -7.552547   1.000000
   40       -7.363311   1.000000
   41       -7.342357   1.000000
   42       -7.191879   1.000000
   43       -7.046649   1.000000
   44       -6.905735   1.000000
   45       -6.831974   1.000000
   46       -6.806531   1.000000
   47       -6.773191   1.000000
   48       -6.731288   1.000000
   49       -6.667921   1.000000
   50       -6.517940   1.000000
   51       -6.384637   1.000000
   52       -6.230652   1.000000
   53       -6.224260   1.000000
   54       -6.186790   1.000000
   55       -6.140813   1.000000
   56       -6.030307   1.000000
   57       -5.950886   1.000000
   58       -5.888272   1.000000
   59       -5.824354   1.000000
   60       -5.792929   1.000000
   61       -5.617163   1.000000
   62       -5.335507   1.000000
   63       -5.274693   1.000000
   64       -5.017706   1.000000
   65       -4.994436   1.000000
   66       -4.879925   1.000000
   67       -4.810425   1.000000
   68       -4.749876   1.000000
   69       -4.711399   1.000000
   70       -4.694029   1.000000
   71       -4.639211   1.000000
   72       -4.601408   1.000000
   73       -4.462179   1.000000
   74       -4.373864   1.000000
   75       -4.301529   1.000000
   76       -4.010058   1.000000
   77       -3.776247   0.999840
   78       -3.638328   0.995656
   79       -3.517944   0.961873
   80       -3.170354   0.246676
   81       -3.120351   0.149504
   82       -2.792639   0.000396
   83       -2.741636   0.000101
   84       -2.611410   0.000002
   85       -2.531043   0.000000
   86       -2.446900   0.000000
   87       -2.267998   0.000000
   88       -2.250234   0.000000
   89       -2.186900   0.000000
   90       -2.090335   0.000000
   91       -1.819425   0.000000
   92       -1.647254   0.000000
   93       -1.453533   0.000000
   94       -1.160710   0.000000
   95       -1.118518   0.000000
   96       -1.017395   0.000000
   97       -1.000150   0.000000
   98       -0.880051   0.000000
   99       -0.807946   0.000000
  100       -0.601934   0.000000
  101       -0.564487   0.000000
  102       -0.460611   0.000000
  103       -0.317705   0.000000
  104       -0.280982   0.000000
  105       -0.118171   0.000000
  106       -0.031621   0.000000
  107        0.005556   0.000000
  108        0.083283   0.000000
  109        0.149652   0.000000
  110        0.241318   0.000000
  111        0.400165   0.000000
  112        0.444023   0.000000
  113        0.559808   0.000000
  114        0.935229   0.000000
  115        0.989212   0.000000
  116        1.084827   0.000000
  117        1.149929   0.000000
  118        1.655002   0.000000
  119        1.850378   0.000000
  120        2.183789   0.000000
 
  0.1250000E+00  0.2775558E-16  0.0000000E+00  0.3125000E-01
    1      -17.827706   1.000000
    2      -16.794858   1.000000
    3      -16.765410   1.000000
    4      -16.638634   1.000000
    5      -16.551020   1.000000
    6      -16.423217   1.000000
    7      -16.356332   1.000000
    8      -16.323320   1.000000
    9      -16.270533   1.000000
   10      -16.060912   1.000000
   11      -16.003304   1.000000
   12      -15.961350   1.000000
   13      -15.857780   1.000000
   14      -15.624829   1.000000
   15      -15.581023   1.000000
   16      -15.468430   1.000000
   17      -15.269432   1.000000
   18      -15.183680   1.000000
   19       -9.510157   1.000000
   20       -9.147902   1.000000
   21       -9.066072   1.000000
   22       -9.015827   1.000000
   23       -8.739943   1.000000
   24       -8.680203   1.000000
   25       -8.641821   1.000000
   26       -8.604038   1.000000
   27       -8.511284   1.000000
   28       -8.448604   1.000000
   29       -8.411500   1.000000
   30       -8.327053   1.000000
   31       -8.260126   1.000000
   32       -8.058505   1.000000
   33       -7.980906   1.000000
   34       -7.920381   1.000000
   35       -7.798046   1.000000
   36       -7.777855   1.000000
   37       -7.706949   1.000000
   38       -7.526109   1.000000
   39       -7.449273   1.000000
   40       -7.389001   1.000000
   41       -7.311291   1.000000
   42       -7.228611   1.000000
   43       -7.084549   1.000000
   44       -6.958208   1.000000
   45       -6.919316   1.000000
   46       -6.843735   1.000000
   47       -6.776474   1.000000
   48       -6.656852   1.000000
   49       -6.614163   1.000000
   50       -6.526270   1.000000
   51       -6.388918   1.000000
   52       -6.267819   1.000000
   53       -6.249784   1.000000
   54       -6.173453   1.000000
   55       -6.117831   1.000000
   56       -6.051623   1.000000
   57       -5.941969   1.000000
   58       -5.883718   1.000000
   59       -5.812388   1.000000
   60       -5.665039   1.000000
   61       -5.571593   1.000000
   62       -5.355890   1.000000
   63       -5.300511   1.000000
   64       -5.174168   1.000000
   65       -5.055357   1.000000
   66       -5.013064   1.000000
   67       -4.910016   1.000000
   68       -4.828596   1.000000
   69       -4.727595   1.000000
   70       -4.632143   1.000000
   71       -4.506196   1.000000
   72       -4.482501   1.000000
   73       -4.411911   1.000000
   74       -4.307591   1.000000
   75       -4.278114   1.000000
   76       -3.930394   0.999999
   77       -3.809295   0.999937
   78       -3.740559   0.999592
   79       -3.504026   0.952977
   80       -3.381257   0.789971
   81       -2.951039   0.012683
   82       -2.823446   0.000851
   83       -2.700239   0.000030
   84       -2.637183   0.000004
   85       -2.562177   0.000000
   86       -2.468665   0.000000
   87       -2.287671   0.000000
   88       -2.189496   0.000000
   89       -2.123012   0.000000
   90       -2.077872   0.000000
   91       -1.761645   0.000000
   92       -1.652812   0.000000
   93       -1.444326   0.000000
   94       -1.173405   0.000000
   95       -1.116172   0.000000
   96       -1.036176   0.000000
   97       -0.987109   0.000000
   98       -0.891576   0.000000
   99       -0.818206   0.000000
  100       -0.638856   0.000000
  101       -0.606405   0.000000
  102       -0.489119   0.000000
  103       -0.387582   0.000000
  104       -0.352594   0.000000
  105       -0.174522   0.000000
  106       -0.101525   0.000000
  107       -0.047458   0.000000
  108        0.038382   0.000000
  109        0.126268   0.000000
  110        0.263147   0.000000
  111        0.410363   0.000000
  112        0.483636   0.000000
  113        0.670335   0.000000
  114        0.912831   0.000000
  115        1.003003   0.000000
  116        1.096484   0.000000
  117        1.212812   0.000000
  118        1.699681   0.000000
  119        1.888527   0.000000
  120        2.219241   0.000000
 
  0.2500000E+00  0.5551115E-16  0.0000000E+00  0.3125000E-01
    1      -17.755715   1.000000
    2      -16.994895   1.000000
    3      -16.762043   1.000000
    4      -16.693085   1.000000
    5      -16.580959   1.000000
    6      -16.440777   1.000000
    7      -16.352015   1.000000
    8      -16.275283   1.000000
    9      -16.231808   1.000000
   10      -16.035665   1.000000
   11      -15.971153   1.000000
   12      -15.841886   1.000000
   13      -15.825415   1.000000
   14      -15.599972   1.000000
   15      -15.567444   1.000000
   16      -15.488065   1.000000
   17      -15.308695   1.000000
   18      -15.207308   1.000000
   19       -9.606198   1.000000
   20       -9.312355   1.000000
   21       -9.192648   1.000000
   22       -9.148366   1.000000
   23       -8.814356   1.000000
   24       -8.740574   1.000000
   25       -8.610332   1.000000
   26       -8.585639   1.000000
   27       -8.517255   1.000000
   28       -8.430249   1.000000
   29       -8.291320   1.000000
   30       -8.225785   1.000000
   31       -8.125366   1.000000
   32       -8.044824   1.000000
   33       -7.972334   1.000000
   34       -7.797271   1.000000
   35       -7.777799   1.000000
   36       -7.655577   1.000000
   37       -7.545863   1.000000
   38       -7.524349   1.000000
   39       -7.411446   1.000000
   40       -7.382473   1.000000
   41       -7.302810   1.000000
   42       -7.217651   1.000000
   43       -7.107053   1.000000
   44       -7.032594   1.000000
   45       -6.939790   1.000000
   46       -6.813858   1.000000
   47       -6.755040   1.000000
   48       -6.677565   1.000000
   49       -6.550595   1.000000
   50       -6.463762   1.000000
   51       -6.380180   1.000000
   52       -6.327270   1.000000
   53       -6.296858   1.000000
   54       -6.165560   1.000000
   55       -6.113514   1.000000
   56       -6.050758   1.000000
   57       -5.896283   1.000000
   58       -5.829021   1.000000
   59       -5.774051   1.000000
   60       -5.637749   1.000000
   61       -5.552494   1.000000
   62       -5.530640   1.000000
   63       -5.444951   1.000000
   64       -5.268926   1.000000
   65       -5.139193   1.000000
   66       -5.121280   1.000000
   67       -4.999258   1.000000
   68       -4.848164   1.000000
   69       -4.732664   1.000000
   70       -4.599196   1.000000
   71       -4.464484   1.000000
   72       -4.342421   1.000000
   73       -4.280124   1.000000
   74       -4.228409   1.000000
   75       -4.156418   1.000000
   76       -4.029310   1.000000
   77       -3.914696   0.999998
   78       -3.790686   0.999893
   79       -3.501303   0.951056
   80       -3.426406   0.869827
   81       -2.982233   0.021942
   82       -2.812648   0.000654
   83       -2.719006   0.000053
   84       -2.609142   0.000002
   85       -2.563956   0.000000
   86       -2.453510   0.000000
   87       -2.293873   0.000000
   88       -2.119702   0.000000
   89       -2.094469   0.000000
   90       -1.980715   0.000000
   91       -1.689145   0.000000
   92       -1.581870   0.000000
   93       -1.429854   0.000000
   94       -1.219194   0.000000
   95       -1.115183   0.000000
   96       -1.064874   0.000000
   97       -1.000038   0.000000
   98       -0.955975   0.000000
   99       -0.825951   0.000000
  100       -0.739035   0.000000
  101       -0.673500   0.000000
  102       -0.571889   0.000000
  103       -0.502312   0.000000
  104       -0.477457   0.000000
  105       -0.294995   0.000000
  106       -0.213389   0.000000
  107       -0.175908   0.000000
  108       -0.010915   0.000000
  109        0.090767   0.000000
  110        0.212944   0.000000
  111        0.385363   0.000000
  112        0.566065   0.000000
  113        0.801390   0.000000
  114        0.937576   0.000000
  115        1.070811   0.000000
  116        1.186931   0.000000
  117        1.296596   0.000000
  118        1.824121   0.000000
  119        1.999342   0.000000
  120        2.324262   0.000000
 
  0.3750000E+00  0.0000000E+00  0.0000000E+00  0.3125000E-01
    1      -17.646961   1.000000
    2      -17.198606   1.000000
    3      -16.767685   1.000000
    4      -16.710462   1.000000
    5      -16.615605   1.000000
    6      -16.495424   1.000000
    7      -16.326285   1.000000
    8      -16.233018   1.000000
    9      -16.188266   1.000000
   10      -16.034035   1.000000
   11      -15.874748   1.000000
   12      -15.819848   1.000000
   13      -15.780645   1.000000
   14      -15.609261   1.000000
   15      -15.568910   1.000000
   16      -15.447027   1.000000
   17      -15.337192   1.000000
   18      -15.247689   1.000000
   19       -9.788640   1.000000
   20       -9.378300   1.000000
   21       -9.276223   1.000000
   22       -9.151280   1.000000
   23       -8.893481   1.000000
   24       -8.787134   1.000000
   25       -8.595483   1.000000
   26       -8.563976   1.000000
   27       -8.487955   1.000000
   28       -8.330249   1.000000
   29       -8.284927   1.000000
   30       -8.183117   1.000000
   31       -8.093061   1.000000
   32       -8.019642   1.000000
   33       -7.909562   1.000000
   34       -7.835686   1.000000
   35       -7.761415   1.000000
   36       -7.662699   1.000000
   37       -7.567493   1.000000
   38       -7.513624   1.000000
   39       -7.475976   1.000000
   40       -7.299308   1.000000
   41       -7.147340   1.000000
   42       -7.123545   1.000000
   43       -7.032681   1.000000
   44       -6.986036   1.000000
   45       -6.871768   1.000000
   46       -6.796050   1.000000
   47       -6.737222   1.000000
   48       -6.631502   1.000000
   49       -6.475826   1.000000
   50       -6.458363   1.000000
   51       -6.333719   1.000000
   52       -6.299469   1.000000
   53       -6.222309   1.000000
   54       -6.182966   1.000000
   55       -6.133535   1.000000
   56       -6.038092   1.000000
   57       -6.015775   1.000000
   58       -5.963047   1.000000
   59       -5.846895   1.000000
   60       -5.716694   1.000000
   61       -5.657946   1.000000
   62       -5.546872   1.000000
   63       -5.470344   1.000000
   64       -5.344200   1.000000
   65       -5.161551   1.000000
   66       -5.090612   1.000000
   67       -4.990852   1.000000
   68       -4.809224   1.000000
   69       -4.751649   1.000000
   70       -4.673016   1.000000
   71       -4.524806   1.000000
   72       -4.407165   1.000000
   73       -4.262884   1.000000
   74       -4.166153   1.000000
   75       -4.078391   1.000000
   76       -4.034855   1.000000
   77       -3.886563   0.999994
   78       -3.771105   0.999817
   79       -3.539759   0.973016
   80       -3.331644   0.675628
   81       -3.070490   0.082093
   82       -2.828169   0.000953
   83       -2.706667   0.000037
   84       -2.625801   0.000003
   85       -2.550494   0.000000
   86       -2.404405   0.000000
   87       -2.256515   0.000000
   88       -2.120499   0.000000
   89       -2.041095   0.000000
   90       -1.878987   0.000000
   91       -1.674476   0.000000
   92       -1.490292   0.000000
   93       -1.387680   0.000000
   94       -1.248268   0.000000
   95       -1.155161   0.000000
   96       -1.139249   0.000000
   97       -1.062950   0.000000
   98       -0.992645   0.000000
   99       -0.840159   0.000000
  100       -0.802344   0.000000
  101       -0.710797   0.000000
  102       -0.652180   0.000000
  103       -0.616590   0.000000
  104       -0.555449   0.000000
  105       -0.417213   0.000000
  106       -0.296432   0.000000
  107       -0.246662   0.000000
  108       -0.102351   0.000000
  109        0.053610   0.000000
  110        0.149602   0.000000
  111        0.387259   0.000000
  112        0.624564   0.000000
  113        0.813006   0.000000
  114        0.982379   0.000000
  115        1.198487   0.000000
  116        1.279846   0.000000
  117        1.364949   0.000000
  118        2.010325   0.000000
  119        2.176107   0.000000
  120        2.485755   0.000000
 
  0.5000000E+00  0.1110223E-15  0.0000000E+00  0.1562500E-01
    1      -17.565448   1.000000
    2      -17.313894   1.000000
    3      -16.776636   1.000000
    4      -16.705553   1.000000
    5      -16.631359   1.000000
    6      -16.514735   1.000000
    7      -16.316352   1.000000
    8      -16.225337   1.000000
    9      -16.173317   1.000000
   10      -16.019779   1.000000
   11      -15.849657   1.000000
   12      -15.793091   1.000000
   13      -15.744929   1.000000
   14      -15.672262   1.000000
   15      -15.560673   1.000000
   16      -15.416936   1.000000
   17      -15.320179   1.000000
   18      -15.288620   1.000000
   19       -9.863303   1.000000
   20       -9.411081   1.000000
   21       -9.313243   1.000000
   22       -9.097867   1.000000
   23       -8.931589   1.000000
   24       -8.801359   1.000000
   25       -8.622369   1.000000
   26       -8.579239   1.000000
   27       -8.439659   1.000000
   28       -8.323837   1.000000
   29       -8.233676   1.000000
   30       -8.132560   1.000000
   31       -8.082476   1.000000
   32       -8.036636   1.000000
   33       -7.901993   1.000000
   34       -7.821428   1.000000
   35       -7.804125   1.000000
   36       -7.674568   1.000000
   37       -7.646556   1.000000
   38       -7.561008   1.000000
   39       -7.466973   1.000000
   40       -7.312605   1.000000
   41       -7.086632   1.000000
   42       -7.041104   1.000000
   43       -6.935956   1.000000
   44       -6.877243   1.000000
   45       -6.841377   1.000000
   46       -6.683464   1.000000
   47       -6.641707   1.000000
   48       -6.552254   1.000000
   49       -6.539378   1.000000
   50       -6.489459   1.000000
   51       -6.436468   1.000000
   52       -6.407072   1.000000
   53       -6.261266   1.000000
   54       -6.241128   1.000000
   55       -6.186912   1.000000
   56       -6.021124   1.000000
   57       -5.995758   1.000000
   58       -5.824221   1.000000
   59       -5.813365   1.000000
   60       -5.760979   1.000000
   61       -5.664870   1.000000
   62       -5.569050   1.000000
   63       -5.536575   1.000000
   64       -5.397393   1.000000
   65       -5.181758   1.000000
   66       -5.033689   1.000000
   67       -5.016811   1.000000
   68       -4.927273   1.000000
   69       -4.796552   1.000000
   70       -4.576912   1.000000
   71       -4.547500   1.000000
   72       -4.465429   1.000000
   73       -4.301620   1.000000
   74       -4.160057   1.000000
   75       -4.027831   1.000000
   76       -3.978845   1.000000
   77       -3.854524   0.999984
   78       -3.763179   0.999773
   79       -3.521878   0.964122
   80       -3.370119   0.766559
   81       -2.996905   0.027973
   82       -2.911265   0.005918
   83       -2.700598   0.000031
   84       -2.630945   0.000003
   85       -2.542415   0.000000
   86       -2.379606   0.000000
   87       -2.230264   0.000000
   88       -2.123290   0.000000
   89       -2.021404   0.000000
   90       -1.841886   0.000000
   91       -1.665176   0.000000
   92       -1.479596   0.000000
   93       -1.356158   0.000000
   94       -1.223290   0.000000
   95       -1.203944   0.000000
   96       -1.174491   0.000000
   97       -1.113376   0.000000
   98       -0.992962   0.000000
   99       -0.865688   0.000000
  100       -0.790266   0.000000
  101       -0.728090   0.000000
  102       -0.681681   0.000000
  103       -0.669516   0.000000
  104       -0.570670   0.000000
  105       -0.496406   0.000000
  106       -0.314406   0.000000
  107       -0.272176   0.000000
  108       -0.136478   0.000000
  109        0.028941   0.000000
  110        0.137706   0.000000
  111        0.386286   0.000000
  112        0.645011   0.000000
  113        0.812185   0.000000
  114        0.999110   0.000000
  115        1.247895   0.000000
  116        1.310511   0.000000
  117        1.398786   0.000000
  118        2.225997   0.000000
  119        2.267861   0.000000
  120        2.404371   0.000000
 
  0.0000000E+00  0.1250000E+00  0.0000000E+00  0.3125000E-01
    1      -17.828132   1.000000
    2      -16.806993   1.000000
    3      -16.748422   1.000000
    4      -16.636979   1.000000
    5      -16.544639   1.000000
    6      -16.438521   1.000000
    7      -16.379649   1.000000
    8      -16.318979   1.000000
    9      -16.235116   1.000000
   10      -16.075245   1.000000
   11      -15.999667   1.000000
   12      -15.972371   1.000000
   13      -15.848813   1.000000
   14      -15.627781   1.000000
   15      -15.582254   1.000000
   16      -15.463717   1.000000
   17      -15.270366   1.000000
   18      -15.184539   1.000000
   19       -9.515632   1.000000
   20       -9.137272   1.000000
   21       -9.035959   1.000000
   22       -9.018279   1.000000
   23       -8.755938   1.000000
   24       -8.704084   1.000000
   25       -8.619321   1.000000
   26       -8.568110   1.000000
   27       -8.544640   1.000000
   28       -8.499316   1.000000
   29       -8.446099   1.000000
   30       -8.301372   1.000000
   31       -8.221117   1.000000
   32       -8.056520   1.000000
   33       -7.993150   1.000000
   34       -7.877510   1.000000
   35       -7.844134   1.000000
   36       -7.752316   1.000000
   37       -7.703446   1.000000
   38       -7.506215   1.000000
   39       -7.468184   1.000000
   40       -7.392731   1.000000
   41       -7.327522   1.000000
   42       -7.194398   1.000000
   43       -7.098978   1.000000
   44       -6.964324   1.000000
   45       -6.911391   1.000000
   46       -6.860687   1.000000
   47       -6.767665   1.000000
   48       -6.677317   1.000000
   49       -6.622060   1.000000
   50       -6.521852   1.000000
   51       -6.394310   1.000000
   52       -6.276899   1.000000
   53       -6.243059   1.000000
   54       -6.161827   1.000000
   55       -6.139433   1.000000
   56       -6.026946   1.000000
   57       -5.960488   1.000000
   58       -5.858137   1.000000
   59       -5.806776   1.000000
   60       -5.668872   1.000000
   61       -5.564180   1.000000
   62       -5.359250   1.000000
   63       -5.299035   1.000000
   64       -5.166963   1.000000
   65       -5.055683   1.000000
   66       -5.003692   1.000000
   67       -4.895543   1.000000
   68       -4.849410   1.000000
   69       -4.750224   1.000000
   70       -4.665574   1.000000
   71       -4.496002   1.000000
   72       -4.429111   1.000000
   73       -4.400256   1.000000
   74       -4.330702   1.000000
   75       -4.282951   1.000000
   76       -3.931741   0.999999
   77       -3.831318   0.999967
   78       -3.710909   0.999147
   79       -3.504967   0.953626
   80       -3.384150   0.795818
   81       -2.950154   0.012479
   82       -2.822813   0.000838
   83       -2.691403   0.000023
   84       -2.645429   0.000005
   85       -2.564153   0.000000
   86       -2.477448   0.000000
   87       -2.280408   0.000000
   88       -2.189558   0.000000
   89       -2.137552   0.000000
   90       -2.066208   0.000000
   91       -1.777792   0.000000
   92       -1.641610   0.000000
   93       -1.452413   0.000000
   94       -1.162236   0.000000
   95       -1.107289   0.000000
   96       -1.037189   0.000000
   97       -0.995937   0.000000
   98       -0.876656   0.000000
   99       -0.816897   0.000000
  100       -0.639269   0.000000
  101       -0.607697   0.000000
  102       -0.531846   0.000000
  103       -0.416832   0.000000
  104       -0.332094   0.000000
  105       -0.157382   0.000000
  106       -0.078380   0.000000
  107       -0.027166   0.000000
  108        0.050870   0.000000
  109        0.118269   0.000000
  110        0.230892   0.000000
  111        0.349927   0.000000
  112        0.519599   0.000000
  113        0.637436   0.000000
  114        0.908611   0.000000
  115        1.037830   0.000000
  116        1.120762   0.000000
  117        1.212267   0.000000
  118        1.699848   0.000000
  119        1.889364   0.000000
  120        2.219201   0.000000
 
  0.1250000E+00  0.1250000E+00  0.0000000E+00  0.3125000E-01
    1      -17.779311   1.000000
    2      -16.929631   1.000000
    3      -16.747060   1.000000
    4      -16.735621   1.000000
    5      -16.520433   1.000000
    6      -16.433425   1.000000
    7      -16.376285   1.000000
    8      -16.288914   1.000000
    9      -16.220088   1.000000
   10      -16.081976   1.000000
   11      -16.005443   1.000000
   12      -15.857336   1.000000
   13      -15.812999   1.000000
   14      -15.603380   1.000000
   15      -15.562117   1.000000
   16      -15.468624   1.000000
   17      -15.308398   1.000000
   18      -15.209966   1.000000
   19       -9.569203   1.000000
   20       -9.258984   1.000000
   21       -9.220703   1.000000
   22       -9.066725   1.000000
   23       -8.811186   1.000000
   24       -8.687324   1.000000
   25       -8.606240   1.000000
   26       -8.555530   1.000000
   27       -8.499972   1.000000
   28       -8.441032   1.000000
   29       -8.420005   1.000000
   30       -8.308919   1.000000
   31       -8.171594   1.000000
   32       -8.057754   1.000000
   33       -7.980780   1.000000
   34       -7.843265   1.000000
   35       -7.701753   1.000000
   36       -7.639132   1.000000
   37       -7.572774   1.000000
   38       -7.483840   1.000000
   39       -7.396529   1.000000
   40       -7.357874   1.000000
   41       -7.300083   1.000000
   42       -7.209364   1.000000
   43       -7.142702   1.000000
   44       -7.081927   1.000000
   45       -6.973998   1.000000
   46       -6.887447   1.000000
   47       -6.732318   1.000000
   48       -6.693316   1.000000
   49       -6.571492   1.000000
   50       -6.509393   1.000000
   51       -6.395262   1.000000
   52       -6.322050   1.000000
   53       -6.297584   1.000000
   54       -6.185108   1.000000
   55       -6.109974   1.000000
   56       -5.991516   1.000000
   57       -5.910849   1.000000
   58       -5.760097   1.000000
   59       -5.744296   1.000000
   60       -5.651138   1.000000
   61       -5.531790   1.000000
   62       -5.487493   1.000000
   63       -5.302896   1.000000
   64       -5.242755   1.000000
   65       -5.203655   1.000000
   66       -5.141835   1.000000
   67       -5.034461   1.000000
   68       -4.836270   1.000000
   69       -4.745376   1.000000
   70       -4.652054   1.000000
   71       -4.464729   1.000000
   72       -4.304997   1.000000
   73       -4.277610   1.000000
   74       -4.241570   1.000000
   75       -4.169949   1.000000
   76       -3.981261   1.000000
   77       -3.907612   0.999997
   78       -3.707185   0.999068
   79       -3.575700   0.985417
   80       -3.437514   0.885728
   81       -2.984547   0.022813
   82       -2.845507   0.001432
   83       -2.723397   0.000060
   84       -2.603782   0.000001
   85       -2.560750   0.000000
   86       -2.482502   0.000000
   87       -2.334898   0.000000
   88       -2.139518   0.000000
   89       -2.112389   0.000000
   90       -2.004319   0.000000
   91       -1.684001   0.000000
   92       -1.585439   0.000000
   93       -1.452963   0.000000
   94       -1.190420   0.000000
   95       -1.085807   0.000000
   96       -1.051497   0.000000
   97       -1.008884   0.000000
   98       -0.873325   0.000000
   99       -0.837826   0.000000
  100       -0.680203   0.000000
  101       -0.646420   0.000000
  102       -0.594102   0.000000
  103       -0.500157   0.000000
  104       -0.442079   0.000000
  105       -0.273553   0.000000
  106       -0.157171   0.000000
  107       -0.130914   0.000000
  108       -0.007960   0.000000
  109        0.055817   0.000000
  110        0.178620   0.000000
  111        0.333190   0.000000
  112        0.542888   0.000000
  113        0.789784   0.000000
  114        0.950207   0.000000
  115        1.053910   0.000000
  116        1.205507   0.000000
  117        1.336709   0.000000
  118        1.786256   0.000000
  119        1.961019   0.000000
  120        2.290108   0.000000
 
  0.2500000E+00  0.1250000E+00  0.0000000E+00  0.3125000E-01
    1      -17.687502   1.000000
    2      -17.103985   1.000000
    3      -16.853470   1.000000
    4      -16.720481   1.000000
    5      -16.520740   1.000000
    6      -16.460193   1.000000
    7      -16.326612   1.000000
    8      -16.250184   1.000000
    9      -16.194170   1.000000
   10      -16.078884   1.000000
   11      -15.950723   1.000000
   12      -15.818578   1.000000
   13      -15.782090   1.000000
   14      -15.574141   1.000000
   15      -15.540271   1.000000
   16      -15.455628   1.000000
   17      -15.340898   1.000000
   18      -15.252081   1.000000
   19       -9.711751   1.000000
   20       -9.440213   1.000000
   21       -9.237682   1.000000
   22       -9.177132   1.000000
   23       -8.812043   1.000000
   24       -8.701847   1.000000
   25       -8.569074   1.000000
   26       -8.520296   1.000000
   27       -8.483816   1.000000
   28       -8.384006   1.000000
   29       -8.309902   1.000000
   30       -8.248103   1.000000
   31       -8.150276   1.000000
   32       -8.092731   1.000000
   33       -7.970618   1.000000
   34       -7.905168   1.000000
   35       -7.798720   1.000000
   36       -7.549905   1.000000
   37       -7.458337   1.000000
   38       -7.412834   1.000000
   39       -7.384921   1.000000
   40       -7.334790   1.000000
   41       -7.242055   1.000000
   42       -7.186962   1.000000
   43       -7.110898   1.000000
   44       -6.976707   1.000000
   45       -6.890314   1.000000
   46       -6.853867   1.000000
   47       -6.757716   1.000000