       N       E                     dE             d eps       ncg     rms          rms(c)
DAV:   1     0.112449179877E+04    0.11245E+04   -0.35863E+04  8160   0.577E+02
DAV:   2    -0.269317624038E+01   -0.11272E+04   -0.10827E+04 11440   0.174E+02
DAV:   3    -0.200155426445E+03   -0.19746E+03   -0.18981E+03 10920   0.821E+01
DAV:   4    -0.209010634410E+03   -0.88552E+01   -0.86352E+01 12160   0.260E+01
DAV:   5    -0.209311770488E+03   -0.30114E+00   -0.30041E+00 11000   0.355E+00    0.275E+01
DAV:   6    -0.237210795333E+03   -0.27899E+02   -0.10629E+02 12720   0.605E+01    0.595E+01
DAV:   7    -0.196469707100E+03    0.40741E+02   -0.17618E+02 13240   0.152E+02    0.200E+01
DAV:   8    -0.189424862151E+03    0.70448E+01   -0.17594E+01 11800   0.127E+01    0.125E+01
DAV:   9    -0.188228946905E+03    0.11959E+01   -0.35863E+00 12560   0.614E+00    0.929E+00
DAV:  10    -0.187079502094E+03    0.11494E+01   -0.20079E+00 13360   0.732E+00    0.319E+00
DAV:  11    -0.187029598808E+03    0.49903E-01   -0.72140E-01 13440   0.321E+00    0.343E+00
DAV:  12    -0.187172627003E+03   -0.14303E+00   -0.11463E+00 12520   0.555E+00    0.486E+00
DAV:  13    -0.186927258230E+03    0.24537E+00   -0.49453E-01 13080   0.359E+00    0.216E+00
DAV:  14    -0.186879560319E+03    0.47698E-01   -0.11154E-01 13400   0.163E+00    0.762E-01
DAV:  15    -0.186881349260E+03   -0.17889E-02   -0.40898E-02 12280   0.117E+00    0.116E+00
DAV:  16    -0.186872642734E+03    0.87065E-02   -0.20289E-02 13120   0.803E-01    0.567E-01
DAV:  17    -0.186869285113E+03    0.33576E-02   -0.98385E-03 12680   0.519E-01    0.220E-01
DAV:  18    -0.186869103480E+03    0.18163E-03   -0.20678E-03 11760   0.149E-01    0.156E-01
DAV:  19    -0.186868743057E+03    0.36042E-03   -0.91136E-04 11160   0.105E-01    0.506E-02
DAV:  20    -0.186869510434E+03   -0.76738E-03   -0.74567E-04  9080   0.625E-02    0.539E-02
DAV:  21    -0.186870116747E+03   -0.60631E-03   -0.20906E-04  8120   0.455E-02    0.323E-02
DAV:  22    -0.186871226342E+03   -0.11096E-02   -0.17905E-04  7480   0.418E-02    0.331E-02
DAV:  23    -0.186872452794E+03   -0.12265E-02   -0.13088E-04  7520   0.407E-02    0.118E-02
DAV:  24    -0.186873038913E+03   -0.58612E-03   -0.25061E-05  6800   0.133E-02    0.752E-03
DAV:  25    -0.186873418097E+03   -0.37918E-03   -0.15700E-05  5480   0.117E-02    0.484E-03
DAV:  26    -0.186873636826E+03   -0.21873E-03   -0.82933E-06  6840   0.711E-03    0.206E-03
DAV:  27    -0.186873740319E+03   -0.10349E-03   -0.38167E-06  6920   0.408E-03    0.126E-03
DAV:  28    -0.186873790559E+03   -0.50240E-04   -0.20954E-06  7160   0.299E-03
   1 F= -.18687379E+03 E0= -.18670212E+03  d E =-.186874E+03
       N       E                     dE             d eps       ncg     rms          rms(c)
DAV:   1    -0.187499210490E+03   -0.62547E+00   -0.27028E+02  8160   0.349E+01    0.465E+00
DAV:   2    -0.189500799418E+03   -0.20016E+01   -0.20288E+01 12240   0.156E+01    0.985E+00
DAV:   3    -0.189340462921E+03    0.16034E+00   -0.49436E+00 12440   0.126E+01    0.628E+00
DAV:   4    -0.188767325851E+03    0.57314E+00   -0.55953E-01 11880   0.439E+00    0.201E+00
DAV:   5    -0.188899909082E+03   -0.13258E+00   -0.48378E-01 12160   0.390E+00    0.550E+00
DAV:   6    -0.188742322494E+03    0.15759E+00   -0.78689E-01 12720   0.436E+00    0.229E+00
DAV:   7    -0.188712340489E+03    0.29982E-01   -0.21104E-01 11720   0.214E+00    0.203E+00
DAV:   8    -0.188695389048E+03    0.16951E-01   -0.11973E-01 12880   0.209E+00    0.173E+00
DAV:   9    -0.188670363863E+03    0.25025E-01   -0.47787E-02 12000   0.113E+00    0.507E-01
DAV:  10    -0.188668691185E+03    0.16727E-02   -0.58695E-03 11120   0.273E-01    0.259E-01
DAV:  11    -0.188668137487E+03    0.55370E-03   -0.28855E-03 13120   0.223E-01    0.139E-01
DAV:  12    -0.188668075253E+03    0.62234E-04   -0.10812E-03 11800   0.103E-01    0.104E-01
DAV:  13    -0.188668054757E+03    0.20496E-04   -0.27040E-04  7520   0.678E-02
   2 F= -.18866805E+03 E0= -.18852820E+03  d E =-.179426E+01
       N       E                     dE             d eps       ncg     rms          rms(c)
DAV:   1    -0.190590449395E+03   -0.19224E+01   -0.31014E+01  9200   0.142E+01    0.446E+00
DAV:   2    -0.190573112375E+03    0.17337E-01   -0.28209E+00 11120   0.969E+00    0.741E+00
DAV:   3    -0.190062370972E+03    0.51074E+00   -0.13084E+00 12280   0.868E+00    0.416E+00
DAV:   4    -0.189856137818E+03    0.20623E+00   -0.68884E-01 12720   0.413E+00    0.248E+00
DAV:   5    -0.189791469355E+03    0.64668E-01   -0.31239E-01 11080   0.236E+00    0.199E+00
DAV:   6    -0.189759745862E+03    0.31723E-01   -0.10522E-01 12720   0.193E+00    0.844E-01
DAV:   7    -0.189752285336E+03    0.74605E-02   -0.14997E-02 12560   0.589E-01    0.195E-01
DAV:   8    -0.189752304194E+03   -0.18858E-04   -0.26901E-03 10440   0.158E-01    0.139E-01
DAV:   9    -0.189752528368E+03   -0.22417E-03   -0.10606E-03 10480   0.120E-01    0.138E-01
DAV:  10    -0.189752692954E+03   -0.16459E-03   -0.97485E-04 10400   0.197E-01    0.188E-01
DAV:  11    -0.189752394637E+03    0.29832E-03   -0.53032E-04  9520   0.160E-01    0.357E-02
DAV:  12    -0.189752401143E+03   -0.65062E-05   -0.58123E-05  5920   0.354E-02
   3 F= -.18975240E+03 E0= -.18963509E+03  d E =-.108435E+01
       N       E                     dE             d eps       ncg     rms          rms(c)
DAV:   1    -0.191295784326E+03   -0.15434E+01   -0.71079E+01  8160   0.193E+01    0.461E+00
DAV:   2    -0.191186673988E+03    0.10911E+00   -0.54046E+00 13400   0.839E+00    0.520E+00
DAV:   3    -0.191235166161E+03   -0.48492E-01   -0.15751E+00 11680   0.922E+00    0.685E+00
DAV:   4    -0.190908093639E+03    0.32707E+00   -0.15644E+00 12520   0.785E+00    0.410E+00
DAV:   5    -0.190895876430E+03    0.12217E-01   -0.86755E-01 11200   0.587E+00    0.360E+00
DAV:   6    -0.190712762013E+03    0.18311E+00   -0.20615E-01 11240   0.297E+00    0.601E-01
DAV:   7    -0.190711291655E+03    0.14704E-02   -0.36861E-02 11360   0.692E-01    0.450E-01
DAV:   8    -0.190707811810E+03    0.34798E-02   -0.70888E-03 10200   0.335E-01    0.147E-01
DAV:   9    -0.190708509555E+03   -0.69774E-03   -0.17887E-03 12360   0.254E-01    0.247E-01
DAV:  10    -0.190708267824E+03    0.24173E-03   -0.16364E-03 10480   0.292E-01    0.145E-01
DAV:  11    -0.190708076096E+03    0.19173E-03   -0.60290E-04  9880   0.132E-01    0.434E-02
DAV:  12    -0.190708088461E+03   -0.12366E-04   -0.13214E-04  6600   0.446E-02
   4 F= -.19070809E+03 E0= -.19060968E+03  d E =-.955687E+00
       N       E                     dE             d eps       ncg     rms          rms(c)
DAV:   1    -0.192099846254E+03   -0.13918E+01   -0.14506E+02  8160   0.271E+01    0.575E+00
DAV:   2    -0.191940664170E+03    0.15918E+00   -0.95004E+00 12240   0.938E+00    0.546E+00
DAV:   3    -0.192384621715E+03   -0.44396E+00   -0.32445E+00 12240   0.125E+01    0.932E+00
DAV:   4    -0.191533066467E+03    0.85156E+00   -0.21311E+00 12280   0.105E+01    0.299E+00
DAV:   5    -0.191506063774E+03    0.27003E-01   -0.53417E-01 11840   0.484E+00    0.411E+00
DAV:   6    -0.191370394737E+03    0.13567E+00   -0.57386E-01 12200   0.509E+00    0.157E+00
DAV:   7    -0.191346587433E+03    0.23807E-01   -0.69274E-02 11920   0.144E+00    0.687E-01
DAV:   8    -0.191345210683E+03    0.13768E-02   -0.24595E-02 12080   0.111E+00    0.749E-01
DAV:   9    -0.191339645527E+03    0.55652E-02   -0.97883E-03 11440   0.743E-01    0.225E-01
DAV:  10    -0.191339785165E+03   -0.13964E-03   -0.26937E-03 11640   0.219E-01    0.113E-01
DAV:  11    -0.191339663177E+03    0.12199E-03   -0.82800E-04 10720   0.106E-01    0.636E-02
DAV:  12    -0.191339627215E+03    0.35962E-04   -0.13758E-04  7200   0.471E-02
   5 F= -.19133963E+03 E0= -.19124641E+03  d E =-.631539E+00
       N       E                     dE             d eps       ncg     rms          rms(c)
DAV:   1    -0.191389971862E+03   -0.50309E-01   -0.41555E+00  8160   0.432E+00    0.604E-01
DAV:   2    -0.191446821472E+03   -0.56850E-01   -0.22754E-01 12560   0.262E+00    0.224E+00
DAV:   3    -0.191399738124E+03    0.47083E-01   -0.10935E-01 12040   0.224E+00    0.515E-01
DAV:   4    -0.191400026062E+03   -0.28794E-03   -0.14156E-02 11440   0.807E-01    0.561E-01
DAV:   5    -0.191396809132E+03    0.32169E-02   -0.63751E-03 11440   0.583E-01    0.179E-01
DAV:   6    -0.191396869071E+03   -0.59939E-04   -0.20096E-03 11360   0.279E-01    0.215E-01
DAV:   7    -0.191396852658E+03    0.16413E-04   -0.22287E-03 11040   0.356E-01    0.199E-01
DAV:   8    -0.191396391736E+03    0.46092E-03   -0.77412E-04  9520   0.187E-01    0.282E-02
DAV:   9    -0.191396407319E+03   -0.15582E-04   -0.86235E-05  6280   0.361E-02
   6 F= -.19139641E+03 E0= -.19130088E+03  d E =-.567801E-01
       N       E                     dE             d eps       ncg     rms          rms(c)
DAV:   1    -0.191467540039E+03   -0.71148E-01   -0.10949E+01  8160   0.699E+00    0.928E-01
DAV:   2    -0.191591499299E+03   -0.12396E+00   -0.46555E-01 13040   0.359E+00    0.358E+00
DAV:   3    -0.191485062873E+03    0.10644E+00   -0.31478E-01 12000   0.350E+00    0.899E-01
DAV:   4    -0.191484125473E+03    0.93740E-03   -0.37347E-02 11640   0.131E+00    0.894E-01
DAV:   5    -0.191475919256E+03    0.82062E-02   -0.17155E-02 11680   0.942E-01    0.314E-01
DAV:   6    -0.191476026711E+03   -0.10745E-03   -0.61304E-03 11320   0.512E-01    0.387E-01
DAV:   7    -0.191475243022E+03    0.78369E-03   -0.55551E-03 11240   0.564E-01    0.255E-01
DAV:   8    -0.191474458879E+03    0.78414E-03   -0.15043E-03 10600   0.251E-01    0.468E-02
DAV:   9    -0.191474442766E+03    0.16113E-04   -0.17072E-04  6720   0.544E-02
   7 F= -.19147444E+03 E0= -.19137683E+03  d E =-.780354E-01
       N       E                     dE             d eps       ncg     rms          rms(c)
DAV:   1    -0.191514197404E+03   -0.39739E-01   -0.31427E+00  8160   0.378E+00    0.533E-01
DAV:   2    -0.191556477525E+03   -0.42280E-01   -0.15823E-01 12560   0.229E+00    0.205E+00
DAV:   3    -0.191518982914E+03    0.37495E-01   -0.88878E-02 12120   0.196E+00    0.454E-01
DAV:   4    -0.191519550808E+03   -0.56789E-03   -0.11811E-02 11440   0.745E-01    0.528E-01
DAV:   5    -0.191516741279E+03    0.28095E-02   -0.61177E-03 11440   0.546E-01    0.185E-01
DAV:   6    -0.191516931194E+03   -0.18992E-03   -0.23860E-03 11120   0.336E-01    0.248E-01
DAV:   7    -0.191516490630E+03    0.44056E-03   -0.19422E-03 10440   0.330E-01    0.124E-01
DAV:   8    -0.191516277822E+03    0.21281E-03   -0.41188E-04  8480   0.122E-01    0.262E-02
DAV:   9    -0.191516274480E+03    0.33420E-05   -0.66670E-05  7040   0.337E-02
   8 F= -.19151627E+03 E0= -.19141845E+03  d E =-.418317E-01
       N       E                     dE             d eps       ncg     rms          rms(c)
DAV:   1    -0.191592962433E+03   -0.76685E-01   -0.14658E+01  8160   0.819E+00    0.102E+00
DAV:   2    -0.191728109758E+03   -0.13515E+00   -0.59307E-01 12600   0.394E+00    0.375E+00
DAV:   3    -0.191619563321E+03    0.10855E+00   -0.35216E-01 12280   0.360E+00    0.968E-01
DAV:   4    -0.191620809188E+03   -0.12459E-02   -0.47628E-02 11360   0.153E+00    0.108E+00
DAV:   5    -0.191607927963E+03    0.12881E-01   -0.24109E-02 11720   0.114E+00    0.369E-01
DAV:   6    -0.191608415226E+03   -0.48726E-03   -0.86406E-03 11560   0.627E-01    0.459E-01
DAV:   7    -0.191607272413E+03    0.11428E-02   -0.76976E-03 11560   0.692E-01    0.299E-01
DAV:   8    -0.191605965703E+03    0.13067E-02   -0.20891E-03 11000   0.310E-01    0.520E-02
DAV:   9    -0.191605953412E+03    0.12291E-04   -0.28397E-04  8200   0.622E-02
   9 F= -.19160595E+03 E0= -.19151144E+03  d E =-.896789E-01
       N       E                     dE             d eps       ncg     rms          rms(c)
DAV:   1    -0.191609627431E+03   -0.36617E-02   -0.23334E-02  8160   0.329E-01    0.450E-02
DAV:   2    -0.191609818869E+03   -0.19144E-03   -0.11249E-03 12360   0.156E-01    0.122E-01
DAV:   3    -0.191609681143E+03    0.13773E-03   -0.39266E-04  7720   0.137E-01    0.477E-02
DAV:   4    -0.191609677450E+03    0.36930E-05   -0.82318E-05  5680   0.628E-02
  10 F= -.19160968E+03 E0= -.19151539E+03  d E =-.372404E-02
       N       E                     dE             d eps       ncg     rms          rms(c)
DAV:   1    -0.191610256091E+03   -0.57495E-03   -0.14107E-01  8160   0.878E-01    0.244E-01
DAV:   2    -0.191612845716E+03   -0.25896E-02   -0.14568E-02 11320   0.776E-01    0.596E-01
DAV:   3    -0.191608926032E+03    0.39197E-02   -0.73238E-03 10720   0.671E-01    0.168E-01
DAV:   4    -0.191609315228E+03   -0.38920E-03   -0.27486E-03 10440   0.359E-01    0.291E-01
DAV:   5    -0.191608685248E+03    0.62998E-03   -0.26236E-03  9800   0.349E-01    0.161E-01
DAV:   6    -0.191608482100E+03    0.20315E-03   -0.91527E-04  9720   0.189E-01    0.109E-01
DAV:   7    -0.191608363922E+03    0.11818E-03   -0.27038E-04  7480   0.125E-01    0.280E-02
DAV:   8    -0.191608364595E+03   -0.67298E-06   -0.35052E-05  6480   0.339E-02
  11 F= -.19160836E+03 E0= -.19151445E+03  d E =0.131285E-02
       N       E                     dE             d eps       ncg     rms          rms(c)
DAV:   1    -0.191655087008E+03   -0.46723E-01   -0.31449E+00  8160   0.386E+00    0.556E-01
DAV:   2    -0.191670131505E+03   -0.15044E-01   -0.12809E-01 13320   0.165E+00    0.118E+00
DAV:   3    -0.191657391014E+03    0.12740E-01   -0.41201E-02 12160   0.149E+00    0.483E-01
DAV:   4    -0.191656937756E+03    0.45326E-03   -0.11866E-02 12240   0.753E-01    0.552E-01
DAV:   5    -0.191654399041E+03    0.25387E-02   -0.86327E-03 11920   0.711E-01    0.320E-01
DAV:   6    -0.191654127096E+03    0.27194E-03   -0.47041E-03 11040   0.440E-01    0.293E-01
DAV:   7    -0.191653431407E+03    0.69569E-03   -0.26185E-03 10960   0.380E-01    0.142E-01
DAV:   8    -0.191653192805E+03    0.23860E-03   -0.52358E-04  8600   0.150E-01    0.356E-02
DAV:   9    -0.191653168813E+03    0.23992E-04   -0.74147E-05  7440   0.370E-02
  12 F= -.19165317E+03 E0= -.19156192E+03  d E =-.448042E-01
       N       E                     dE             d eps       ncg     rms          rms(c)
DAV:   1    -0.191702688581E+03   -0.49496E-01   -0.40007E+00  8160   0.429E+00    0.439E-01
DAV:   2    -0.191710864291E+03   -0.81757E-02   -0.11689E-01 12120   0.101E+00    0.477E-01
DAV:   3    -0.191712864239E+03   -0.19999E-02   -0.20721E-02 11480   0.965E-01    0.686E-01
DAV:   4    -0.191708365318E+03    0.44989E-02   -0.93542E-03 11440   0.699E-01    0.288E-01
DAV:   5    -0.191707866745E+03    0.49857E-03   -0.31040E-03 11240   0.422E-01    0.245E-01
DAV:   6    -0.191707637932E+03    0.22881E-03   -0.25662E-03 11640   0.378E-01    0.169E-01
DAV:   7    -0.191707249311E+03    0.38862E-03   -0.96067E-04  9800   0.194E-01    0.800E-02
DAV:   8    -0.191707205975E+03    0.43336E-04   -0.25355E-04  8080   0.124E-01
  13 F= -.19170721E+03 E0= -.19162067E+03  d E =-.540372E-01
       N       E                     dE             d eps       ncg     rms          rms(c)
DAV:   1    -0.191644639745E+03    0.62610E-01   -0.44712E+00  8160   0.451E+00    0.442E-01
DAV:   2    -0.191652671593E+03   -0.80318E-02   -0.12648E-01 12280   0.960E-01    0.305E-01
DAV:   3    -0.191653664689E+03   -0.99310E-03   -0.12623E-02 11320   0.615E-01    0.508E-01
DAV:   4    -0.191651835479E+03    0.18292E-02   -0.86777E-03 11080   0.644E-01    0.371E-01
DAV:   5    -0.191650531697E+03    0.13038E-02   -0.36026E-03 11200   0.362E-01    0.150E-01
DAV:   6    -0.191650983881E+03   -0.45218E-03   -0.20525E-03 12400   0.334E-01    0.237E-01
DAV:   7    -0.191650255602E+03    0.72828E-03   -0.92893E-04 10080   0.254E-01    0.322E-02
DAV:   8    -0.191650265851E+03   -0.10249E-04   -0.82663E-05  6120   0.496E-02
  14 F= -.19165027E+03 E0= -.19155873E+03  d E =0.569401E-01
       N       E                     dE             d eps       ncg     rms          rms(c)
DAV:   1    -0.191600727758E+03    0.49528E-01   -0.49330E+00  8160   0.478E+00    0.535E-01
DAV:   2    -0.191612743875E+03   -0.12016E-01   -0.15250E-01 13360   0.132E+00    0.753E-01
DAV:   3    -0.191612488124E+03    0.25575E-03   -0.35006E-02 12480   0.129E+00    0.822E-01
DAV:   4    -0.191607238990E+03    0.52491E-02   -0.15855E-02 12440   0.834E-01    0.416E-01
DAV:   5    -0.191606031293E+03    0.12077E-02   -0.60902E-03 10960   0.564E-01    0.313E-01
DAV:   6    -0.191605349091E+03    0.68220E-03   -0.37396E-03 11880   0.427E-01    0.166E-01
DAV:   7    -0.191605006463E+03    0.34263E-03   -0.12699E-03 10920   0.209E-01    0.108E-01
DAV:   8    -0.191604918866E+03    0.87596E-04   -0.44910E-04  9480   0.159E-01
  15 F= -.19160492E+03 E0= -.19151132E+03  d E =0.453470E-01
       N       E                     dE             d eps       ncg     rms          rms(c)
DAV:   1    -0.191582242430E+03    0.22764E-01   -0.23464E+00  8160   0.330E+00    0.353E-01
DAV:   2    -0.191586942727E+03   -0.47003E-02   -0.68042E-02 12680   0.757E-01    0.386E-01
DAV:   3    -0.191588135411E+03   -0.11927E-02   -0.12671E-02 12280   0.757E-01    0.578E-01
DAV:   4    -0.191585402226E+03    0.27332E-02   -0.69334E-03 11840   0.590E-01    0.243E-01
DAV:   5    -0.191584843441E+03    0.55878E-03   -0.22185E-03 11200   0.281E-01    0.188E-01
DAV:   6    -0.191584967824E+03   -0.12438E-03   -0.20474E-03 10280   0.346E-01    0.203E-01
DAV:   7    -0.191584492506E+03    0.47532E-03   -0.82917E-04  9200   0.206E-01    0.479E-02
DAV:   8    -0.191584490003E+03    0.25031E-05   -0.99912E-05  6400   0.810E-02
  16 F= -.19158449E+03 E0= -.19149098E+03  d E =0.204289E-01
       N       E                     dE             d eps       ncg     rms          rms(c)
DAV:   1    -0.191603171024E+03   -0.18679E-01   -0.13837E+00  8160   0.254E+00    0.317E-01
DAV:   2    -0.191614913834E+03   -0.11743E-01   -0.54460E-02 13560   0.114E+00    0.104E+00
DAV:   3    -0.191605559360E+03    0.93545E-02   -0.20837E-02 12040   0.102E+00    0.273E-01
DAV:   4    -0.191606058010E+03   -0.49865E-03   -0.36033E-03 11160   0.435E-01    0.352E-01
DAV:   5    -0.191604772272E+03    0.12857E-02   -0.25774E-03 10040   0.405E-01    0.119E-01
DAV:   6    -0.191604894928E+03   -0.12266E-03   -0.88692E-04 10280   0.195E-01    0.139E-01
DAV:   7    -0.191604725486E+03    0.16944E-03   -0.57007E-04  9080   0.200E-01    0.782E-02
DAV:   8    -0.191604637809E+03    0.87677E-04   -0.11478E-04  5840   0.792E-02
  17 F= -.19160464E+03 E0= -.19151351E+03  d E =-.201478E-01
       N       E                     dE             d eps       ncg     rms          rms(c)
DAV:   1    -0.191613732974E+03   -0.90075E-02   -0.62208E-01  8160   0.171E+00    0.205E-01
DAV:   2    -0.191615819354E+03   -0.20864E-02   -0.20578E-02 13360   0.570E-01    0.356E-01
DAV:   3    -0.191614780221E+03    0.10391E-02   -0.44646E-03 12320   0.507E-01    0.222E-01
DAV:   4    -0.191614608154E+03    0.17207E-03   -0.18988E-03 10680   0.290E-01    0.216E-01
DAV:   5    -0.191614238376E+03    0.36978E-03   -0.11951E-03  9640   0.252E-01    0.116E-01
DAV:   6    -0.191614153145E+03    0.85231E-04   -0.51982E-04  8440   0.139E-01
  18 F= -.19161415E+03 E0= -.19152248E+03  d E =-.951534E-02
       N       E                     dE             d eps       ncg     rms          rms(c)
DAV:   1    -0.191642541980E+03   -0.28304E-01   -0.25919E+00  8160   0.344E+00    0.403E-01
DAV:   2    -0.191658067717E+03   -0.15526E-01   -0.95061E-02 13000   0.135E+00    0.116E+00
DAV:   3    -0.191647414860E+03    0.10653E-01   -0.32565E-02 11360   0.118E+00    0.406E-01
DAV:   4    -0.191647435804E+03   -0.20944E-04   -0.66027E-03 11360   0.589E-01    0.411E-01
DAV:   5    -0.191645464710E+03    0.19711E-02   -0.33218E-03 11040   0.471E-01    0.133E-01
DAV:   6    -0.191645620902E+03   -0.15619E-03   -0.14924E-03 10480   0.220E-01    0.156E-01
DAV:   7    -0.191645472673E+03    0.14823E-03   -0.10487E-03 10520   0.254E-01    0.132E-01
DAV:   8    -0.191645265006E+03    0.20767E-03   -0.33738E-04  8520   0.144E-01    0.239E-02
DAV:   9    -0.191645262453E+03    0.25534E-05   -0.39928E-05  6440   0.274E-02
  19 F= -.19164526E+03 E0= -.19155540E+03  d E =-.311093E-01
       N       E                     dE             d eps       ncg     rms          rms(c)
DAV:   1    -0.191669153824E+03   -0.23889E-01   -0.17548E+00  8160   0.282E+00    0.307E-01
DAV:   2    -0.191677869073E+03   -0.87152E-02   -0.57516E-02 12600   0.975E-01    0.840E-01
DAV:   3    -0.191672469487E+03    0.53996E-02   -0.17697E-02 11880   0.887E-01    0.315E-01
DAV:   4    -0.191671839490E+03    0.63000E-03   -0.28769E-03 11160   0.328E-01    0.215E-01
DAV:   5    -0.191671464516E+03    0.37497E-03   -0.16013E-03 10680   0.309E-01    0.155E-01
DAV:   6    -0.191671381959E+03    0.82557E-04   -0.10528E-03 10000   0.218E-01    0.109E-01
DAV:   7    -0.191671320749E+03    0.61210E-04   -0.49373E-04  9000   0.169E-01
  20 F= -.19167132E+03 E0= -.19158362E+03  d E =-.260583E-01
       N       E                     dE             d eps       ncg     rms          rms(c)
DAV:   1    -0.191674816210E+03   -0.34343E-02   -0.34543E-02  8160   0.417E-01    0.483E-02
DAV:   2    -0.191674964527E+03   -0.14832E-03   -0.12763E-03 13600   0.131E-01    0.991E-02
DAV:   3    -0.191674898847E+03    0.65680E-04   -0.31278E-04  7840   0.130E-01
  21 F= -.19167490E+03 E0= -.19158774E+03  d E =-.357810E-02
       N       E                     dE             d eps       ncg     rms          rms(c)
DAV:   1    -0.191653382092E+03    0.21582E-01   -0.11738E+00  8160   0.233E+00    0.301E-01
DAV:   2    -0.191661689561E+03   -0.83075E-02   -0.46029E-02 12360   0.104E+00    0.860E-01
DAV:   3    -0.191654505879E+03    0.71837E-02   -0.14149E-02 11640   0.877E-01    0.243E-01
DAV:   4    -0.191654360700E+03    0.14518E-03   -0.28716E-03 11000   0.353E-01    0.245E-01
DAV:   5    -0.191653849838E+03    0.51086E-03   -0.18332E-03 10080   0.335E-01    0.141E-01
DAV:   6    -0.191653733087E+03    0.11675E-03   -0.91621E-04 10360   0.200E-01    0.109E-01
DAV:   7    -0.191653658874E+03    0.74213E-04   -0.43079E-04  8520   0.172E-01
  22 F= -.19165366E+03 E0= -.19156453E+03  d E =0.212400E-01
       N       E                     dE             d eps       ncg     rms          rms(c)
DAV:   1    -0.191701937642E+03   -0.48205E-01   -0.72497E+00  8160   0.576E+00    0.656E-01
DAV:   2    -0.191738987677E+03   -0.37050E-01   -0.23810E-01 12720   0.209E+00    0.188E+00
DAV:   3    -0.191713658597E+03    0.25329E-01   -0.85342E-02 11760   0.190E+00    0.634E-01
DAV:   4    -0.191711830711E+03    0.18279E-02   -0.13763E-02 11480   0.828E-01    0.560E-01
DAV:   5    -0.191708522496E+03    0.33082E-02   -0.81258E-03 11120   0.741E-01    0.288E-01
DAV:   6    -0.191708441134E+03    0.81361E-04   -0.48594E-03 11560   0.443E-01    0.264E-01
DAV:   7    -0.191707950277E+03    0.49086E-03   -0.27028E-03 11480   0.420E-01    0.197E-01
DAV:   8    -0.191707451366E+03    0.49891E-03   -0.80897E-04 10080   0.226E-01    0.400E-02
DAV:   9    -0.191707426987E+03    0.24378E-04   -0.97999E-05  6480   0.446E-02
  23 F= -.19170743E+03 E0= -.19162260E+03  d E =-.537681E-01
       N       E                     dE             d eps       ncg     rms          rms(c)
DAV:   1    -0.191728260287E+03   -0.20809E-01   -0.11451E+00  8160   0.228E+00    0.229E-01
DAV:   2    -0.191730843267E+03   -0.25830E-02   -0.33183E-02 12360   0.561E-01    0.301E-01
DAV:   3    -0.191731216614E+03   -0.37335E-03   -0.58928E-03 11840   0.540E-01    0.369E-01
DAV:   4    -0.191729941795E+03    0.12748E-02   -0.22638E-03 10400   0.347E-01    0.132E-01
DAV:   5    -0.191729890926E+03    0.50868E-04   -0.70856E-04  9720   0.219E-01
  24 F= -.19172989E+03 E0= -.19164661E+03  d E =-.224639E-01
       N       E                     dE             d eps       ncg     rms          rms(c)
DAV:   1    -0.191697924137E+03    0.32018E-01   -0.22293E+00  8160   0.326E+00    0.407E-01
DAV:   2    -0.191702529035E+03   -0.46049E-02   -0.75389E-02 12000   0.869E-01    0.541E-01
DAV:   3    -0.191703203989E+03   -0.67495E-03   -0.17929E-02 12200   0.945E-01    0.696E-01
DAV:   4    -0.191699165401E+03    0.40386E-02   -0.10568E-02 11920   0.678E-01    0.239E-01
DAV:   5    -0.191698378812E+03    0.78659E-03   -0.22862E-03 11120   0.245E-01    0.131E-01
DAV:   6    -0.191698543710E+03   -0.16490E-03   -0.15112E-03 12480   0.302E-01    0.183E-01
DAV:   7    -0.191698125709E+03    0.41800E-03   -0.68513E-04  9360   0.215E-01    0.350E-02
DAV:   8    -0.191698123958E+03    0.17504E-05   -0.80052E-05  6440   0.542E-02
  25 F= -.19169812E+03 E0= -.19161322E+03  d E =0.317670E-01
       N       E                     dE             d eps       ncg     rms          rms(c)
DAV:   1    -0.191628468060E+03    0.69658E-01   -0.10848E+01  8160   0.704E+00    0.737E-01
DAV:   2    -0.191652296091E+03   -0.23828E-01   -0.31187E-01 12280   0.169E+00    0.941E-01
DAV:   3    -0.191656017109E+03   -0.37210E-02   -0.54303E-02 11160   0.167E+00    0.130E+00
DAV:   4    -0.191643486037E+03    0.12531E-01   -0.34540E-02 11960   0.121E+00    0.516E-01
DAV:   5    -0.191641581420E+03    0.19046E-02   -0.87756E-03 11240   0.727E-01    0.378E-01
DAV:   6    -0.191640879176E+03    0.70224E-03   -0.62158E-03 12160   0.592E-01    0.247E-01
DAV:   7    -0.191639834443E+03    0.10447E-02   -0.21563E-03 12320   0.266E-01    0.673E-02
DAV:   8    -0.191639881908E+03   -0.47465E-04   -0.42287E-04  9560   0.146E-01
  26 F= -.19163988E+03 E0= -.19155186E+03  d E =0.582421E-01
       N       E                     dE             d eps       ncg     rms          rms(c)
DAV:   1    -0.191714707555E+03   -0.74873E-01   -0.21251E+01  8160   0.998E+00    0.120E+00
DAV:   2    -0.191791926594E+03   -0.77219E-01   -0.71612E-01 12600   0.329E+00    0.256E+00
DAV:   3    -0.191754119918E+03    0.37807E-01   -0.23227E-01 11680   0.314E+00    0.136E+00
DAV:   4    -0.191742947498E+03    0.11172E-01   -0.51470E-02 12320   0.177E+00    0.111E+00
DAV:   5    -0.191729543207E+03    0.13404E-01   -0.30207E-02 11600   0.147E+00    0.563E-01
DAV:   6    -0.191728094312E+03    0.14489E-02   -0.17847E-02 11360   0.806E-01    0.437E-01
DAV:   7    -0.191726961001E+03    0.11333E-02   -0.89543E-03 12080   0.739E-01    0.387E-01
DAV:   8    -0.191725210162E+03    0.17508E-02   -0.30961E-03 11960   0.455E-01    0.911E-02
DAV:   9    -0.191725072140E+03    0.13802E-03   -0.39616E-04  9360   0.915E-02    0.385E-02
DAV:  10    -0.191725040401E+03    0.31739E-04   -0.18595E-04  7680   0.399E-02
  27 F= -.19172504E+03 E0= -.19164154E+03  d E =-.851585E-01
       N       E                     dE             d eps       ncg     rms          rms(c)
DAV:   1    -0.191713310575E+03    0.11762E-01   -0.64710E-01  8160   0.178E+00    0.275E-01
DAV:   2    -0.191714444602E+03   -0.11340E-02   -0.25285E-02 11600   0.643E-01    0.364E-01
DAV:   3    -0.191713570872E+03    0.87373E-03   -0.53250E-03 11720   0.618E-01    0.268E-01
DAV:   4    -0.191712680065E+03    0.89081E-03   -0.21564E-03 10760   0.355E-01    0.145E-01
DAV:   5    -0.191712762888E+03   -0.82823E-04   -0.15087E-03 10160   0.271E-01    0.196E-01
DAV:   6    -0.191712446385E+03    0.31650E-03   -0.11107E-03  9600   0.249E-01    0.101E-01
DAV:   7    -0.191712383244E+03    0.63141E-04   -0.28590E-04  6720   0.116E-01
  28 F= -.19171238E+03 E0= -.19162819E+03  d E =0.126572E-01
       N       E                     dE             d eps       ncg     rms          rms(c)
DAV:   1    -0.191741142911E+03   -0.28697E-01   -0.24288E+00  8160   0.332E+00    0.334E-01
DAV:   2    -0.191746992503E+03   -0.58496E-02   -0.67470E-02 12280   0.848E-01    0.534E-01
DAV:   3    -0.191746299530E+03    0.69297E-03   -0.12975E-02 11160   0.809E-01    0.462E-01
DAV:   4    -0.191744320819E+03    0.19787E-02   -0.38343E-03 11240   0.454E-01    0.212E-01
DAV:   5    -0.191744078812E+03    0.24201E-03   -0.16918E-03 10120   0.349E-01    0.176E-01
DAV:   6    -0.191743887717E+03    0.19109E-03   -0.12814E-03  9880   0.246E-01    0.988E-02
DAV:   7    -0.191743775090E+03    0.11263E-03   -0.41601E-04  9320   0.146E-01    0.763E-02
DAV:   8    -0.191743711936E+03    0.63154E-04   -0.13475E-04  6320   0.103E-01
  29 F= -.19174371E+03 E0= -.19166220E+03  d E =-.313287E-01
       N       E                     dE             d eps       ncg     rms          rms(c)
DAV:   1    -0.191737226036E+03    0.65491E-02   -0.11592E-01  8160   0.736E-01    0.876E-02
DAV:   2    -0.191737484081E+03   -0.25805E-03   -0.37793E-03 12200   0.250E-01    0.126E-01
DAV:   3    -0.191737356177E+03    0.12790E-03   -0.62140E-04  9120   0.199E-01    0.821E-02
DAV:   4    -0.191737298215E+03    0.57962E-04   -0.25348E-04  6760   0.118E-01
  30 F= -.19173730E+03 E0= -.19165478E+03  d E =0.641372E-02
       N       E                     dE             d eps       ncg     rms          rms(c)
DAV:   1    -0.191742778991E+03   -0.54228E-02   -0.49503E-01  8160   0.156E+00    0.273E-01
DAV:   2    -0.191746276678E+03   -0.34977E-02   -0.23642E-02 12280   0.743E-01    0.686E-01
DAV:   3    -0.191742456432E+03    0.38202E-02   -0.10293E-02 11800   0.734E-01    0.254E-01
DAV:   4    -0.191742147875E+03    0.30856E-03   -0.24486E-03 11400   0.345E-01    0.202E-01
DAV:   5    -0.191741772084E+03    0.37579E-03   -0.15698E-03 10440   0.335E-01    0.152E-01
DAV:   6    -0.191741502739E+03    0.26934E-03   -0.67353E-04  9960   0.184E-01    0.537E-02
DAV:   7    -0.191741468507E+03    0.34232E-04   -0.12069E-04  5640   0.678E-02
  31 F= -.19174147E+03 E0= -.19165990E+03  d E =-.417029E-02
       N       E                     dE             d eps       ncg     rms          rms(c)
DAV:   1    -0.191743483479E+03   -0.19807E-02   -0.15217E-02  8160   0.276E-01    0.499E-02
DAV:   2    -0.191743793387E+03   -0.30991E-03   -0.92734E-04 12400   0.203E-01    0.165E-01
DAV:   3    -0.191743468984E+03    0.32440E-03   -0.42623E-04  8480   0.183E-01    0.300E-02
DAV:   4    -0.191743485643E+03   -0.16659E-04   -0.47053E-05  5600   0.485E-02
  32 F= -.19174349E+03 E0= -.19166204E+03  d E =-.201714E-02
       N       E                     dE             d eps       ncg     rms          rms(c)
DAV:   1    -0.191772296202E+03   -0.28827E-01   -0.26109E+00  8160   0.344E+00    0.348E-01
DAV:   2    -0.191778457531E+03   -0.61613E-02   -0.72971E-02 12240   0.898E-01    0.499E-01
DAV:   3    -0.191778288435E+03    0.16910E-03   -0.12217E-02 12360   0.860E-01    0.498E-01
DAV:   4    -0.191775912709E+03    0.23757E-02   -0.39723E-03 11240   0.484E-01    0.192E-01
DAV:   5    -0.191776020148E+03   -0.10744E-03   -0.23182E-03 10680   0.390E-01    0.239E-01
DAV:   6    -0.191775576795E+03    0.44335E-03   -0.15590E-03 11440   0.309E-01    0.117E-01
DAV:   7    -0.191775485701E+03    0.91094E-04   -0.57208E-04  9760   0.179E-01
  33 F= -.19177549E+03 E0= -.19169652E+03  d E =-.320001E-01
       N       E                     dE             d eps       ncg     rms          rms(c)
DAV:   1    -0.191785699306E+03   -0.10123E-01   -0.29344E-01  8160   0.116E+00    0.130E-01
DAV:   2    -0.191786889909E+03   -0.11906E-02   -0.97109E-03 12880   0.391E-01    0.271E-01
DAV:   3    -0.191786271343E+03    0.61857E-03   -0.21149E-03 11560   0.358E-01    0.133E-01
DAV:   4    -0.191786209358E+03    0.61985E-04   -0.48722E-04  8480   0.164E-01
  34 F= -.19178621E+03 E0= -.19170774E+03  d E =-.107237E-01
       N       E                     dE             d eps       ncg     rms          rms(c)
DAV:   1    -0.191802614231E+03   -0.16343E-01   -0.73713E-01  8160   0.185E+00    0.228E-01
DAV:   2    -0.191805049258E+03   -0.24350E-02   -0.23241E-02 12040   0.598E-01    0.437E-01
DAV:   3    -0.191803732236E+03    0.13170E-02   -0.53318E-03 11880   0.565E-01    0.243E-01
DAV:   4    -0.191803270645E+03    0.46159E-03   -0.15178E-03 10160   0.281E-01    0.157E-01
DAV:   5    -0.191803159503E+03    0.11114E-03   -0.10490E-03 10600   0.267E-01    0.139E-01
DAV:   6    -0.191803013072E+03    0.14643E-03   -0.61013E-04  9720   0.183E-01    0.744E-02
DAV:   7    -0.191802977791E+03    0.35281E-04   -0.21801E-04  7640   0.123E-01
  35 F= -.19180298E+03 E0= -.19172577E+03  d E =-.167684E-01
       N       E                     dE             d eps       ncg     rms          rms(c)
DAV:   1    -0.191821514834E+03   -0.18502E-01   -0.98018E-01  8160   0.211E+00    0.231E-01
DAV:   2    -0.191823458214E+03   -0.19434E-02   -0.29332E-02 11640   0.583E-01    0.263E-01
DAV:   3    -0.191823536760E+03   -0.78547E-04   -0.41713E-03 12280   0.522E-01    0.285E-01
DAV:   4    -0.191822639438E+03    0.89732E-03   -0.18437E-03 10880   0.354E-01    0.119E-01
DAV:   5    -0.191822708944E+03   -0.69505E-04   -0.81463E-04 10040   0.228E-01
  36 F= -.19182271E+03 E0= -.19174646E+03  d E =-.197312E-01
       N       E                     dE             d eps       ncg     rms          rms(c)
DAV:   1    -0.191845334240E+03   -0.22695E-01   -0.15793E+00  8160   0.268E+00    0.283E-01
DAV:   2    -0.191849511132E+03   -0.41769E-02   -0.45717E-02 12040   0.721E-01    0.436E-01
DAV:   3    -0.191848662263E+03    0.84887E-03   -0.79076E-03 12440   0.704E-01    0.342E-01
DAV:   4    -0.191847563144E+03    0.10991E-02   -0.21162E-03 10560   0.357E-01    0.161E-01
DAV:   5    -0.191847630142E+03   -0.66998E-04   -0.12566E-03 10920   0.305E-01    0.187E-01
DAV:   6    -0.191847399029E+03    0.23111E-03   -0.88372E-04  9920   0.226E-01    0.876E-02
DAV:   7    -0.191847296705E+03    0.10232E-03   -0.24274E-04  8440   0.118E-01    0.511E-02
DAV:   8    -0.191847266301E+03    0.30405E-04   -0.57643E-05  7200   0.683E-02
  37 F= -.19184727E+03 E0= -.19177245E+03  d E =-.245574E-01
       N       E                     dE             d eps       ncg     rms          rms(c)
DAV:   1    -0.191866057158E+03   -0.18760E-01   -0.10435E+00  8160   0.219E+00    0.239E-01
DAV:   2    -0.191868367591E+03   -0.23104E-02   -0.33168E-02 12200   0.581E-01    0.263E-01
DAV:   3    -0.191868582715E+03   -0.21512E-03   -0.46158E-03 12200   0.554E-01    0.309E-01
DAV:   4    -0.191867490888E+03    0.10918E-02   -0.19999E-03 10200   0.374E-01    0.116E-01
DAV:   5    -0.191867525865E+03   -0.34977E-04   -0.83873E-04  9720   0.219E-01
  38 F= -.19186753E+03 E0= -.19179343E+03  d E =-.202596E-01
       N       E                     dE             d eps       ncg     rms          rms(c)
DAV:   1    -0.191895414244E+03   -0.27923E-01   -0.27561E+00  8160   0.355E+00    0.401E-01
DAV:   2    -0.191903602725E+03   -0.81885E-02   -0.86726E-02 11560   0.108E+00    0.632E-01
DAV:   3    -0.191901068493E+03    0.25342E-02   -0.14349E-02 12320   0.103E+00    0.432E-01
DAV:   4    -0.191898853133E+03    0.22154E-02   -0.32097E-03 12280   0.448E-01    0.174E-01
DAV:   5    -0.191899596180E+03   -0.74305E-03   -0.26080E-03 11080   0.432E-01    0.321E-01
DAV:   6    -0.191898612518E+03    0.98366E-03   -0.20520E-03 11720   0.345E-01    0.965E-02
DAV:   7    -0.191898537845E+03    0.74674E-04   -0.30964E-04  8880   0.148E-01
  39 F= -.19189854E+03 E0= -.19182534E+03  d E =-.310120E-01
       N       E                     dE             d eps       ncg     rms          rms(c)
DAV:   1    -0.191910400659E+03   -0.11788E-01   -0.49648E-01  8160   0.151E+00    0.206E-01
DAV:   2    -0.191912451596E+03   -0.20509E-02   -0.20770E-02 11120   0.633E-01    0.369E-01
DAV:   3    -0.191911314315E+03    0.11373E-02   -0.40681E-03 12000   0.525E-01    0.201E-01
DAV:   4    -0.191911029892E+03    0.28442E-03   -0.12397E-03 10080   0.279E-01    0.153E-01
DAV:   5    -0.191910893744E+03    0.13615E-03   -0.69708E-04  9760   0.241E-01    0.113E-01
DAV:   6    -0.191910779604E+03    0.11414E-03   -0.38618E-04  9080   0.140E-01    0.517E-02
DAV:   7    -0.191910781840E+03   -0.22368E-05   -0.16389E-04  6520   0.104E-01
  40 F= -.19191078E+03 E0= -.19183835E+03  d E =-.122440E-01
       N       E                     dE             d eps       ncg     rms          rms(c)
DAV:   1    -0.191926777275E+03   -0.15998E-01   -0.10058E+00  8160   0.214E+00    0.243E-01
DAV:   2    -0.191929779984E+03   -0.30027E-02   -0.34528E-02 12080   0.636E-01    0.340E-01
DAV:   3    -0.191929372291E+03    0.40769E-03   -0.51793E-03 12280   0.616E-01    0.307E-01
DAV:   4    -0.191928400445E+03    0.97185E-03   -0.16901E-03 11280   0.336E-01    0.117E-01
DAV:   5    -0.191928404304E+03   -0.38586E-05   -0.75517E-04 10080   0.209E-01
  41 F= -.19192840E+03 E0= -.19185618E+03  d E =-.176225E-01
       N       E                     dE             d eps       ncg     rms          rms(c)
DAV:   1    -0.191959588903E+03   -0.31188E-01   -0.66434E+00  8160   0.550E+00    0.626E-01
DAV:   2    -0.191979314848E+03   -0.19726E-01   -0.21457E-01 11560   0.165E+00    0.932E-01
DAV:   3    -0.191974534093E+03    0.47808E-02   -0.33408E-02 12280   0.159E+00    0.702E-01
DAV:   4    -0.191968553219E+03    0.59809E-02   -0.86359E-03 12440   0.743E-01    0.228E-01
DAV:   5    -0.191969747932E+03   -0.11947E-02   -0.48897E-03 11880   0.547E-01    0.414E-01
DAV:   6    -0.191968449917E+03    0.12980E-02   -0.45715E-03 12520   0.579E-01    0.210E-01
DAV:   7    -0.191967754929E+03    0.69499E-03   -0.12652E-03 10360   0.223E-01    0.461E-02
DAV:   8    -0.191967766110E+03   -0.11181E-04   -0.17490E-04  9360   0.947E-02
  42 F= -.19196777E+03 E0= -.19189714E+03  d E =-.393618E-01
       N       E                     dE             d eps       ncg     rms          rms(c)
DAV:   1    -0.191963426940E+03    0.43280E-02   -0.38281E-01  8160   0.138E+00    0.256E-01
DAV:   2    -0.191965078899E+03   -0.16520E-02   -0.16427E-02 12000   0.698E-01    0.490E-01
DAV:   3    -0.191962774806E+03    0.23041E-02   -0.58166E-03 12360   0.676E-01    0.231E-01
DAV:   4    -0.191962387984E+03    0.38682E-03   -0.19165E-03 11280   0.342E-01    0.189E-01
DAV:   5    -0.191962142385E+03    0.24560E-03   -0.14025E-03 10440   0.320E-01    0.145E-01
DAV:   6    -0.191961874666E+03    0.26772E-03   -0.65716E-04 10560   0.177E-01    0.443E-02
DAV:   7    -0.191961877101E+03   -0.24347E-05   -0.98793E-05  6440   0.845E-02
  43 F= -.19196188E+03 E0= -.19189180E+03  d E =0.588901E-02
       N       E                     dE             d eps       ncg     rms          rms(c)
DAV:   1    -0.191977449437E+03   -0.15575E-01   -0.14258E+00  8160   0.255E+00    0.294E-01
DAV:   2    -0.191982454877E+03   -0.50054E-02   -0.48763E-02 12120   0.839E-01    0.495E-01
DAV:   3    -0.191980582066E+03    0.18728E-02   -0.80574E-03 12320   0.782E-01    0.313E-01
DAV:   4    -0.191979486874E+03    0.10952E-02   -0.19589E-03 11440   0.337E-01    0.120E-01
DAV:   5    -0.191979513928E+03   -0.27054E-04   -0.98312E-04 10720   0.228E-01
  44 F= -.19197951E+03 E0= -.19190983E+03  d E =-.176368E-01
       N       E                     dE             d eps       ncg     rms          rms(c)
DAV:   1    -0.191997911186E+03   -0.18424E-01   -0.29034E+00  8160   0.365E+00    0.440E-01
DAV:   2    -0.192008584595E+03   -0.10673E-01   -0.10047E-01 11640   0.121E+00    0.742E-01
DAV:   3    -0.192004144623E+03    0.44400E-02   -0.17729E-02 12360   0.117E+00    0.429E-01
DAV:   4    -0.192001834899E+03    0.23097E-02   -0.32406E-03 12520   0.446E-01    0.144E-01
DAV:   5    -0.192002502696E+03   -0.66780E-03   -0.20965E-03 12200   0.378E-01    0.272E-01
DAV:   6    -0.192001801481E+03    0.70122E-03   -0.16164E-03 11040   0.369E-01    0.123E-01
DAV:   7    -0.192001603558E+03    0.19792E-03   -0.46856E-04  9080   0.158E-01    0.589E-02
DAV:   8    -0.192001571598E+03    0.31960E-04   -0.10528E-04  8440   0.837E-02
  45 F= -.19200157E+03 E0= -.19193303E+03  d E =-.220577E-01
       N       E                     dE             d eps       ncg     rms          rms(c)
DAV:   1    -0.192006588176E+03   -0.49846E-02   -0.16792E-01  8160   0.891E-01    0.145E-01
DAV:   2    -0.192007823519E+03   -0.12353E-02   -0.82557E-03 11200   0.501E-01    0.319E-01
DAV:   3    -0.192006666958E+03    0.11566E-02   -0.21954E-03 12120   0.417E-01    0.988E-02
DAV:   4    -0.192006608656E+03    0.58302E-04   -0.43429E-04  8520   0.163E-01
  46 F= -.19200661E+03 E0= -.19193863E+03  d E =-.503706E-02
       N       E                     dE             d eps       ncg     rms          rms(c)
DAV:   1    -0.192020174755E+03   -0.13508E-01   -0.14911E+00  8160   0.262E+00    0.320E-01
DAV:   2    -0.192025127956E+03   -0.49532E-02   -0.52413E-02 11280   0.817E-01    0.481E-01
DAV:   3    -0.192023576550E+03    0.15514E-02   -0.91112E-03 12480   0.823E-01    0.350E-01
DAV:   4    -0.192022323564E+03    0.12530E-02   -0.27033E-03 12280   0.418E-01    0.142E-01
DAV:   5    -0.192022086092E+03    0.23747E-03   -0.10299E-03 11000   0.185E-01    0.105E-01
DAV:   6    -0.192022336215E+03   -0.25012E-03   -0.92601E-04 11520   0.267E-01    0.175E-01
DAV:   7    -0.192021973861E+03    0.36235E-03   -0.49335E-04  8840   0.195E-01    0.274E-02
DAV:   8    -0.192021976501E+03   -0.26405E-05   -0.51263E-05  6240   0.505E-02
  47 F= -.19202198E+03 E0= -.19195531E+03  d E =-.153678E-01
       N       E                     dE             d eps       ncg     rms          rms(c)
DAV:   1    -0.192028796522E+03   -0.68227E-02   -0.32125E-01  8160   0.123E+00    0.160E-01
DAV:   2    -0.192030190915E+03   -0.13944E-02   -0.12790E-02 12640   0.475E-01    0.285E-01
DAV:   3    -0.192029461264E+03    0.72965E-03   -0.23566E-03 12520   0.436E-01    0.152E-01
DAV:   4    -0.192029212359E+03    0.24890E-03   -0.49930E-04  9040   0.179E-01    0.660E-02
DAV:   5    -0.192029191797E+03    0.20562E-04   -0.26803E-04  8240   0.112E-01
  48 F= -.19202919E+03 E0= -.19196258E+03  d E =-.721530E-02
       N       E                     dE             d eps       ncg     rms          rms(c)
DAV:   1    -0.192033945830E+03   -0.47335E-02   -0.14816E-01  8160   0.836E-01    0.113E-01
DAV:   2    -0.192034764501E+03   -0.81867E-03   -0.55597E-03 11920   0.331E-01    0.233E-01
DAV:   3    -0.192034173669E+03    0.59083E-03   -0.13498E-03 11040   0.325E-01    0.870E-02
DAV:   4    -0.192034118917E+03    0.54751E-04   -0.15083E-04  6560   0.105E-01
  49 F= -.19203412E+03 E0= -.19196792E+03  d E =-.492712E-02
       N       E                     dE             d eps       ncg     rms          rms(c)
DAV:   1    -0.192039655428E+03   -0.54818E-02   -0.19265E-01  8160   0.952E-01    0.136E-01
DAV:   2    -0.192040790050E+03   -0.11346E-02   -0.72818E-03 12440   0.418E-01    0.277E-01
DAV:   3    -0.192039884871E+03    0.90518E-03   -0.18172E-03 12400   0.377E-01    0.960E-02
DAV:   4    -0.192039887079E+03   -0.22076E-05   -0.35805E-04  8760   0.148E-01
  50 F= -.19203989E+03 E0= -.19197403E+03  d E =-.576816E-02
       N       E                     dE             d eps       ncg     rms          rms(c)
DAV:   1    -0.192053417112E+03   -0.13532E-01   -0.12677E+00  8160   0.244E+00    0.322E-01
DAV:   2    -0.192059058665E+03   -0.56416E-02   -0.45322E-02 12200   0.891E-01    0.589E-01
DAV:   3    -0.192055579465E+03    0.34792E-02   -0.96169E-03 12320   0.864E-01    0.294E-01
DAV:   4    -0.192054879655E+03    0.69981E-03   -0.24032E-03 11560   0.362E-01    0.156E-01
DAV:   5    -0.192054612333E+03    0.26732E-03   -0.11444E-03 11640   0.237E-01    0.126E-01
DAV:   6    -0.192054689126E+03   -0.76792E-04   -0.81844E-04 10960   0.259E-01
  51 F= -.19205469E+03 E0= -.19198952E+03  d E =-.148020E-01
       N       E                     dE             d eps       ncg     rms          rms(c)
DAV:   1    -0.192059542209E+03   -0.49299E-02   -0.16211E-01  8160   0.883E-01    0.120E-01
DAV:   2    -0.192060641406E+03   -0.10992E-02   -0.67677E-03 12320   0.414E-01    0.274E-01
DAV:   3    -0.192059811490E+03    0.82992E-03   -0.15757E-03 11720   0.355E-01    0.840E-02
DAV:   4    -0.192059779900E+03    0.31590E-04   -0.16710E-04  7200   0.110E-01
  52 F= -.19205978E+03 E0= -.19199495E+03  d E =-.509077E-02
       N       E                     dE             d eps       ncg     rms          rms(c)
DAV:   1    -0.192066214438E+03   -0.64029E-02   -0.24548E-01  8160   0.108E+00    0.152E-01
DAV:   2    -0.192067595784E+03   -0.13813E-02   -0.88782E-03 12840   0.438E-01    0.315E-01
DAV:   3    -0.192066540977E+03    0.10548E-02   -0.21255E-03 12400   0.428E-01    0.119E-01
DAV:   4    -0.192066457197E+03    0.83781E-04   -0.40073E-04  9200   0.139E-01
  53 F= -.19206646E+03 E0= -.19200199E+03  d E =-.667730E-02
       N       E                     dE             d eps       ncg     rms          rms(c)
DAV:   1    -0.192066706539E+03   -0.16556E-03   -0.40308E-03  8880   0.197E-01    0.821E-02
DAV:   2    -0.192067913340E+03   -0.12068E-02   -0.21482E-03 11720   0.425E-01    0.314E-01
DAV:   3    -0.192066625746E+03    0.12876E-02   -0.12632E-03 10240   0.344E-01    0.302E-02
DAV:   4    -0.192066649231E+03   -0.23485E-04   -0.45210E-05  6000   0.634E-02
  54 F= -.19206665E+03 E0= -.19200204E+03  d E =-.192034E-03
       N       E                     dE             d eps       ncg     rms          rms(c)
DAV:   1    -0.192076234581E+03   -0.96088E-02   -0.58094E-01  8160   0.165E+00    0.227E-01
DAV:   2    -0.192079599305E+03   -0.33647E-02   -0.22591E-02 12120   0.732E-01    0.481E-01
DAV:   3    -0.192077121232E+03    0.24781E-02   -0.50033E-03 12080   0.649E-01    0.174E-01
DAV:   4    -0.192076827250E+03    0.29398E-03   -0.79017E-04 10400   0.190E-01    0.868E-02
DAV:   5    -0.192076800072E+03    0.27178E-04   -0.48029E-04 10840   0.148E-01
  55 F= -.19207680E+03 E0= -.19201230E+03  d E =-.101508E-01
       N       E                     dE             d eps       ncg     rms          rms(c)
DAV:   1    -0.192071255581E+03    0.55717E-02   -0.25367E-01  8160   0.111E+00    0.211E-01
DAV:   2    -0.192075702188E+03   -0.44466E-02   -0.16097E-02 11880   0.837E-01    0.616E-01
DAV:   3    -0.192071171726E+03    0.45305E-02   -0.66160E-03 12080   0.741E-01    0.127E-01
DAV:   4    -0.192071113439E+03    0.58287E-04   -0.79884E-04  9880   0.189E-01
  56 F= -.19207111E+03 E0= -.19200663E+03  d E =0.568663E-02
       N       E                     dE             d eps       ncg     rms          rms(c)
DAV:   1    -0.192073783358E+03   -0.26116E-02   -0.16717E-01  8160   0.952E-01    0.179E-01
DAV:   2    -0.192073318223E+03    0.46513E-03   -0.70570E-03 10520   0.218E-01    0.109E-01
DAV:   3    -0.192073413048E+03   -0.94824E-04   -0.16846E-03 10440   0.245E-01    0.180E-01
DAV:   4    -0.192073102208E+03    0.31084E-03   -0.94569E-04 10800   0.278E-01    0.106E-01
DAV:   5    -0.192072978379E+03    0.12383E-03   -0.38017E-04  9600   0.141E-01    0.559E-02
DAV:   6    -0.192072949505E+03    0.28874E-04   -0.10903E-04  6960   0.921E-02
  57 F= -.19207295E+03 E0= -.19200927E+03  d E =-.183607E-02
       N       E                     dE             d eps       ncg     rms          rms(c)
DAV:   1    -0.192082337039E+03   -0.93587E-02   -0.48842E-01  8160   0.152E+00    0.202E-01
DAV:   2    -0.192084731294E+03   -0.23943E-02   -0.18031E-02 12120   0.626E-01    0.402E-01
DAV:   3    -0.192083084542E+03    0.16468E-02   -0.39620E-03 12320   0.561E-01    0.168E-01
DAV:   4    -0.192082809000E+03    0.27554E-03   -0.73025E-04 10360   0.189E-01    0.807E-02
DAV:   5    -0.192082752152E+03    0.56848E-04   -0.37504E-04  9400   0.121E-01
  58 F= -.19208275E+03 E0= -.19201911E+03  d E =-.980265E-02
       N       E                     dE             d eps       ncg     rms          rms(c)
DAV:   1    -0.192080925984E+03    0.18830E-02   -0.18288E-02  8160   0.335E-01    0.881E-02
DAV:   2    -0.192082170611E+03   -0.12446E-02   -0.26921E-03 12520   0.427E-01    0.308E-01
DAV:   3    -0.192080855307E+03    0.13153E-02   -0.14529E-03 10200   0.359E-01    0.396E-02
DAV:   4    -0.192080857532E+03   -0.22248E-05   -0.68486E-05  5840   0.617E-02
  59 F= -.19208086E+03 E0= -.19201728E+03  d E =0.189462E-02
       N       E                     dE             d eps       ncg     rms          rms(c)
DAV:   1    -0.192083087634E+03   -0.22323E-02   -0.67380E-02  8160   0.576E-01    0.104E-01
DAV:   2    -0.192083159181E+03   -0.71548E-04   -0.28300E-03 11800   0.241E-01    0.147E-01
DAV:   3    -0.192082997513E+03    0.16167E-03   -0.80718E-04 10320   0.250E-01    0.987E-02
DAV:   4    -0.192082891561E+03    0.10595E-03   -0.31066E-04  8600   0.143E-01    0.616E-02
DAV:   5    -0.192082878766E+03    0.12796E-04   -0.14496E-04  6480   0.119E-01
  60 F= -.19208288E+03 E0= -.19201964E+03  d E =-.202123E-02
       N       E                     dE             d eps       ncg     rms          rms(c)
DAV:   1    -0.192089081531E+03   -0.61900E-02   -0.27092E-01  8160   0.117E+00    0.192E-01
DAV:   2    -0.192089223729E+03   -0.14220E-03   -0.10812E-02 10840   0.329E-01    0.186E-01
DAV:   3    -0.192089531302E+03   -0.30757E-03   -0.28229E-03 12080   0.440E-01    0.275E-01
DAV:   4    -0.192088698647E+03    0.83265E-03   -0.13465E-03 10440   0.324E-01    0.825E-02
DAV:   5    -0.192088595422E+03    0.10323E-03   -0.39766E-04 10480   0.994E-02    0.479E-02
DAV:   6    -0.192088571863E+03    0.23559E-04   -0.11742E-04  7040   0.849E-02
  61 F= -.19208857E+03 E0= -.19202498E+03  d E =-.569310E-02
       N       E                     dE             d eps       ncg     rms          rms(c)
DAV:   1    -0.192098274170E+03   -0.96787E-02   -0.55407E-01  8160   0.161E+00    0.216E-01
DAV:   2    -0.192101106143E+03   -0.28320E-02   -0.19315E-02 12720   0.644E-01    0.444E-01
DAV:   3    -0.192099013321E+03    0.20928E-02   -0.43258E-03 12040   0.612E-01    0.171E-01
DAV:   4    -0.192098765784E+03    0.24754E-03   -0.78668E-04 10400   0.191E-01    0.878E-02
DAV:   5    -0.192098680855E+03    0.84929E-04   -0.39908E-04  9960   0.120E-01
  62 F= -.19209868E+03 E0= -.19203550E+03  d E =-.101090E-01
       N       E                     dE             d eps       ncg     rms          rms(c)
DAV:   1    -0.192097996192E+03    0.76959E-03   -0.49790E-03  9760   0.231E-01    0.108E-01
DAV:   2    -0.192100473094E+03   -0.24769E-02   -0.42087E-03 11720   0.607E-01    0.455E-01
DAV:   3    -0.192097837893E+03    0.26352E-02   -0.25778E-03 10160   0.500E-01    0.298E-02
DAV:   4    -0.192097851764E+03   -0.13872E-04   -0.58189E-05  5960   0.390E-02
  63 F= -.19209785E+03 E0= -.19203455E+03  d E =0.829091E-03
       N       E                     dE             d eps       ncg     rms          rms(c)
DAV:   1    -0.192104405538E+03   -0.65676E-02   -0.32876E-01  8160   0.124E+00    0.169E-01
DAV:   2    -0.192105757569E+03   -0.13520E-02   -0.11489E-02 11480   0.497E-01    0.312E-01
DAV:   3    -0.192104802148E+03    0.95542E-03   -0.25413E-03 12520   0.461E-01    0.144E-01
DAV:   4    -0.192104569895E+03    0.23225E-03   -0.48989E-04  9280   0.164E-01    0.655E-02
DAV:   5    -0.192104527970E+03    0.41925E-04   -0.26944E-04  8200   0.877E-02
  64 F= -.19210453E+03 E0= -.19204107E+03  d E =-.667621E-02
       N       E                     dE             d eps       ncg     rms          rms(c)
DAV:   1    -0.192106746165E+03   -0.21763E-02   -0.61888E-02  8160   0.616E-01    0.135E-01
DAV:   2    -0.192106440327E+03    0.30584E-03   -0.28798E-03 11440   0.190E-01    0.120E-01
DAV:   3    -0.192106572622E+03   -0.13230E-03   -0.12127E-03 11120   0.296E-01    0.183E-01
DAV:   4    -0.192106192971E+03    0.37965E-03   -0.63401E-04  9840   0.235E-01    0.626E-02
DAV:   5    -0.192106153962E+03    0.39010E-04   -0.18010E-04  6360   0.101E-01
  65 F= -.19210615E+03 E0= -.19204330E+03  d E =-.162599E-02
       N       E                     dE             d eps       ncg     rms          rms(c)
DAV:   1    -0.192116210363E+03   -0.10017E-01   -0.64421E-01  8160   0.175E+00    0.246E-01
DAV:   2    -0.192119408179E+03   -0.31978E-02   -0.23943E-02 12240   0.709E-01    0.484E-01
DAV:   3    -0.192116904112E+03    0.25041E-02   -0.55138E-03 11760   0.672E-01    0.200E-01
DAV:   4    -0.192116589284E+03    0.31483E-03   -0.12189E-03 10760   0.253E-01    0.118E-01
DAV:   5    -0.192116450503E+03    0.13878E-03   -0.66967E-04 10840   0.196E-01    0.980E-02
DAV:   6    -0.192116441279E+03    0.92239E-05   -0.40108E-04  9480   0.183E-01
  66 F= -.19211644E+03 E0= -.19205420E+03  d E =-.102873E-01
       N       E                     dE             d eps       ncg     rms          rms(c)
DAV:   1    -0.192123040730E+03   -0.65902E-02   -0.31560E-01  8160   0.122E+00    0.168E-01
DAV:   2    -0.192124799528E+03   -0.17588E-02   -0.11750E-02 12320   0.534E-01    0.353E-01
DAV:   3    -0.192123464811E+03    0.13347E-02   -0.26784E-03 11840   0.479E-01    0.129E-01
DAV:   4    -0.192123317398E+03    0.14741E-03   -0.38631E-04  9080   0.142E-01    0.665E-02
DAV:   5    -0.192123299414E+03    0.17983E-04   -0.25718E-04  8520   0.117E-01
  67 F= -.19212330E+03 E0= -.19206127E+03  d E =-.685813E-02
       N       E                     dE             d eps       ncg     rms          rms(c)
DAV:   1    -0.192128628013E+03   -0.53106E-02   -0.20058E-01  8160   0.975E-01    0.152E-01
DAV:   2    -0.192130248148E+03   -0.16201E-02   -0.81696E-03 12040   0.509E-01    0.358E-01
DAV:   3    -0.192128738154E+03    0.15100E-02   -0.23851E-03 12440   0.460E-01    0.950E-02
DAV:   4    -0.192128746077E+03   -0.79235E-05   -0.33316E-04  8760   0.159E-01
  68 F= -.19212875E+03 E0= -.19206695E+03  d E =-.544666E-02
       N       E                     dE             d eps       ncg     rms          rms(c)
DAV:   1    -0.192145330451E+03   -0.16592E-01   -0.33534E+00  8160   0.396E+00    0.520E-01
DAV:   2    -0.192159114379E+03   -0.13784E-01   -0.11312E-01 12680   0.143E+00    0.925E-01
DAV:   3    -0.192150319239E+03    0.87951E-02   -0.22211E-02 11760   0.136E+00    0.451E-01
DAV:   4    -0.192148567683E+03    0.17516E-02   -0.55036E-03 11960   0.569E-01    0.252E-01
DAV:   5    -0.192147981669E+03    0.58601E-03   -0.30260E-03 12040   0.434E-01    0.216E-01
DAV:   6    -0.192147878059E+03    0.10361E-03   -0.18446E-03 12160   0.387E-01    0.170E-01
DAV:   7    -0.192147442964E+03    0.43510E-03   -0.68916E-04 10840   0.189E-01    0.481E-02
DAV:   8    -0.192147434899E+03    0.80649E-05   -0.98430E-05  7360   0.901E-02
  69 F= -.19214743E+03 E0= -.19208659E+03  d E =-.186888E-01
       N       E                     dE             d eps       ncg     rms          rms(c)
DAV:   1    -0.192155092796E+03   -0.76498E-02   -0.12021E+00  8160   0.236E+00    0.316E-01
DAV:   2    -0.192163663430E+03   -0.85706E-02   -0.48612E-02 12560   0.115E+00    0.757E-01
DAV:   3    -0.192157197639E+03    0.64658E-02   -0.10343E-02 12080   0.981E-01    0.204E-01
DAV:   4    -0.192156713201E+03    0.48444E-03   -0.10694E-03 11160   0.213E-01    0.946E-02
DAV:   5    -0.192156699781E+03    0.13420E-04   -0.69486E-04 11000   0.132E-01
  70 F= -.19215670E+03 E0= -.19209614E+03  d E =-.926488E-02
       N       E                     dE             d eps       ncg     rms          rms(c)
DAV:   1    -0.192157850248E+03   -0.11370E-02   -0.33765E-02  8240   0.417E-01    0.129E-01
DAV:   2    -0.192159868154E+03   -0.20179E-02   -0.49870E-03 11920   0.612E-01    0.404E-01
DAV:   3    -0.192157633970E+03    0.22342E-02   -0.22065E-03 10720   0.468E-01    0.430E-02
DAV:   4    -0.192157662547E+03   -0.28577E-04   -0.11610E-04  6200   0.819E-02
  71 F= -.19215766E+03 E0= -.19209731E+03  d E =-.962766E-03
       N       E                     dE             d eps       ncg     rms          rms(c)
DAV:   1    -0.192160577273E+03   -0.29433E-02   -0.21461E-01  8160   0.998E-01    0.126E-01
DAV:   2    -0.192161545193E+03   -0.96792E-03   -0.77912E-03 12240   0.362E-01    0.235E-01
DAV:   3    -0.192160992076E+03    0.55312E-03   -0.14209E-03 11960   0.353E-01    0.113E-01
DAV:   4    -0.192160867708E+03    0.12437E-03   -0.29941E-04  8520   0.130E-01    0.512E-02
DAV:   5    -0.192160834485E+03    0.33224E-04   -0.12664E-04  6840   0.653E-02
  72 F= -.19216083E+03 E0= -.19210064E+03  d E =-.317194E-02
       N       E                     dE             d eps       ncg     rms          rms(c)
DAV:   1    -0.192163868415E+03   -0.30007E-02   -0.28442E-01  8160   0.115E+00    0.155E-01
DAV:   2    -0.192165901188E+03   -0.20328E-02   -0.11829E-02 11840   0.540E-01    0.362E-01
DAV:   3    -0.192164389273E+03    0.15119E-02   -0.26284E-03 12200   0.487E-01    0.103E-01
DAV:   4    -0.192164267321E+03    0.12195E-03   -0.23835E-04  8280   0.107E-01    0.463E-02
DAV:   5    -0.192164281199E+03   -0.13877E-04   -0.16059E-04  7480   0.928E-02
  73 F= -.19216428E+03 E0= -.19210406E+03  d E =-.344671E-02
       N       E                     dE             d eps       ncg     rms          rms(c)
DAV:   1    -0.192168166485E+03   -0.38992E-02   -0.22877E+00  8160   0.324E+00    0.373E-01
DAV:   2    -0.192176331502E+03   -0.81650E-02   -0.78656E-02 12320   0.107E+00    0.602E-01
DAV:   3    -0.192173425516E+03    0.29060E-02   -0.11653E-02 12440   0.997E-01    0.370E-01
DAV:   4    -0.192171827746E+03    0.15978E-02   -0.26152E-03 11960   0.421E-01    0.138E-01
DAV:   5    -0.192171674465E+03    0.15328E-03   -0.12889E-03 11360   0.197E-01    0.119E-01
DAV:   6    -0.192171851570E+03   -0.17711E-03   -0.95465E-04 10520   0.278E-01    0.169E-01
DAV:   7    -0.192171479414E+03    0.37216E-03   -0.46429E-04  9440   0.195E-01    0.287E-02
DAV:   8    -0.192171481970E+03   -0.25558E-05   -0.53234E-05  6600   0.557E-02
  74 F= -.19217148E+03 E0= -.19211141E+03  d E =-.720077E-02
       N       E                     dE             d eps       ncg     rms          rms(c)
DAV:   1    -0.192172430949E+03   -0.95154E-03   -0.48940E-02  8160   0.476E-01    0.732E-02
DAV:   2    -0.192172678338E+03   -0.24739E-03   -0.23210E-03 12080   0.231E-01    0.132E-01
DAV:   3    -0.192172484481E+03    0.19386E-03   -0.47274E-04  9360   0.193E-01    0.544E-02
DAV:   4    -0.192172460327E+03    0.24154E-04   -0.10493E-04  6320   0.843E-02
  75 F= -.19217246E+03 E0= -.19211255E+03  d E =-.978357E-03
       N       E                     dE             d eps       ncg     rms          rms(c)
DAV:   1    -0.192174159837E+03   -0.16754E-02   -0.29721E-01  8160   0.116E+00    0.137E-01
DAV:   2    -0.192175029726E+03   -0.86989E-03   -0.98349E-03 11840   0.343E-01    0.194E-01
DAV:   3    -0.192174767129E+03    0.26260E-03   -0.16114E-03 11840   0.341E-01    0.153E-01
DAV:   4    -0.192174536079E+03    0.23105E-03   -0.50183E-04  9120   0.193E-01    0.661E-02
DAV:   5    -0.192174475373E+03    0.60707E-04   -0.16958E-04  6400   0.905E-02
  76 F= -.19217448E+03 E0= -.19211482E+03  d E =-.201505E-02
       N       E                     dE             d eps       ncg     rms          rms(c)
DAV:   1    -0.192176063421E+03   -0.15273E-02   -0.42699E-01  8160   0.139E+00    0.161E-01
DAV:   2    -0.192177799708E+03   -0.17363E-02   -0.15276E-02 12560   0.500E-01    0.275E-01
DAV:   3    -0.192176942837E+03    0.85687E-03   -0.22880E-03 12640   0.422E-01    0.126E-01
DAV:   4    -0.192176779792E+03    0.16304E-03   -0.42472E-04  8720   0.161E-01    0.713E-02
DAV:   5    -0.192176773480E+03    0.63118E-05   -0.26838E-04  8840   0.143E-01
  77 F= -.19217677E+03 E0= -.19211730E+03  d E =-.229811E-02
       N       E                     dE             d eps       ncg     rms          rms(c)
DAV:   1    -0.192177243724E+03   -0.46393E-03   -0.26788E-02  8160   0.367E-01    0.577E-02
DAV:   2    -0.192177618433E+03   -0.37471E-03   -0.99885E-04 12000   0.239E-01    0.173E-01
DAV:   3    -0.192177235401E+03    0.38303E-03   -0.40570E-04  9080   0.208E-01    0.329E-02
DAV:   4    -0.192177241860E+03   -0.64593E-05   -0.55506E-05  6080   0.554E-02
  78 F= -.19217724E+03 E0= -.19211779E+03  d E =-.468380E-03
       N       E                     dE             d eps       ncg     rms          rms(c)
DAV:   1    -0.192177851830E+03   -0.61643E-03   -0.37961E-02  8160   0.411E-01    0.501E-02
DAV:   2    -0.192178041108E+03   -0.18928E-03   -0.99849E-04 11880   0.173E-01    0.118E-01
DAV:   3    -0.192177871673E+03    0.16943E-03   -0.26527E-04  8920   0.148E-01    0.313E-02
DAV:   4    -0.192177875308E+03   -0.36348E-05   -0.43585E-05  6240   0.544E-02
  79 F= -.19217788E+03 E0= -.19211846E+03  d E =-.633448E-03
       N       E                     dE             d eps       ncg     rms          rms(c)
DAV:   1    -0.192178908199E+03   -0.10365E-02   -0.11254E-01  8160   0.705E-01    0.775E-02
DAV:   2    -0.192179322728E+03   -0.41453E-03   -0.28829E-03 13200   0.238E-01    0.152E-01
DAV:   3    -0.192179052242E+03    0.27049E-03   -0.59349E-04 10640   0.227E-01    0.707E-02
DAV:   4    -0.192179012759E+03    0.39484E-04   -0.12883E-04  6200   0.902E-02
  80 F= -.19217901E+03 E0= -.19211951E+03  d E =-.113745E-02
       N       E                     dE             d eps       ncg     rms          rms(c)
DAV:   1    -0.192178117819E+03    0.93442E-03   -0.58314E-02  8160   0.510E-01    0.495E-02
DAV:   2    -0.192178394117E+03   -0.27630E-03   -0.14837E-03 12680   0.184E-01    0.120E-01
DAV:   3    -0.192178188816E+03    0.20530E-03   -0.32129E-04  9080   0.162E-01    0.297E-02
DAV:   4    -0.192178185991E+03    0.28252E-05   -0.43546E-05  6080   0.411E-02
  81 F= -.19217819E+03 E0= -.19211876E+03  d E =0.826768E-03
