<?xml version="1.0" encoding="ISO-8859-1"?>
<modeling>
 <generator>
  <i name="program" type="string">vasp </i>
  <i name="version" type="string">5.4.1  </i>
  <i name="subversion" type="string">05Feb16 (build Jul 05 2020 17:13:04) complex                          parallel </i>
  <i name="platform" type="string">IFC91_ompi </i>
  <i name="date" type="string">2024 04 30 </i>
  <i name="time" type="string">15:40:15 </i>
 </generator>
 <incar>
  <i type="int" name="ISTART">     0</i>
  <i type="string" name="PREC">normal</i>
  <i type="string" name="ALGO"> Normal</i>
  <i type="int" name="ISPIN">     1</i>
  <i type="int" name="ICHARG">     2</i>
  <i type="int" name="IBRION">     1</i>
  <i type="int" name="NSW">   100</i>
  <i type="int" name="ISIF">     3</i>
  <i type="int" name="ISYM">     0</i>
  <i name="SYMPREC">      0.00000001</i>
  <i name="POTIM">      0.50000000</i>
  <i type="logical" name="LREAL"> F  </i>
  <i type="logical" name="LPLANE"> F  </i>
  <i type="int" name="ISMEAR">     0</i>
  <i type="logical" name="LWAVE"> F  </i>
  <i type="logical" name="LCHARG"> F  </i>
  <v type="int" name="KPOINT_BSE">    -1     0     0     0</v>
 </incar>
 <kpoints>
  <generation param="Gamma">
   <v type="int" name="divisions">       8        8        1 </v>
   <v name="usershift">      0.00000000       0.00000000       0.00000000 </v>
   <v name="genvec1">      0.12500000       0.00000000       0.00000000 </v>
   <v name="genvec2">     -0.00000000       0.12500000       0.00000000 </v>
   <v name="genvec3">      0.00000000       0.00000000       1.00000000 </v>
   <v name="shift">      0.00000000       0.00000000       0.00000000 </v>
  </generation>
  <varray name="kpointlist" >
   <v>       0.00000000       0.00000000       0.00000000 </v>
   <v>       0.12500000       0.00000000       0.00000000 </v>
   <v>       0.25000000       0.00000000       0.00000000 </v>
   <v>       0.37500000       0.00000000       0.00000000 </v>
   <v>       0.50000000       0.00000000       0.00000000 </v>
   <v>       0.00000000       0.12500000       0.00000000 </v>
   <v>       0.12500000       0.12500000       0.00000000 </v>
   <v>       0.25000000       0.12500000       0.00000000 </v>
   <v>       0.37500000       0.12500000       0.00000000 </v>
   <v>       0.50000000       0.12500000       0.00000000 </v>
   <v>      -0.37500000       0.12500000       0.00000000 </v>
   <v>      -0.25000000       0.12500000       0.00000000 </v>
   <v>      -0.12500000       0.12500000       0.00000000 </v>
   <v>       0.00000000       0.25000000       0.00000000 </v>
   <v>       0.12500000       0.25000000       0.00000000 </v>
   <v>       0.25000000       0.25000000       0.00000000 </v>
   <v>       0.37500000       0.25000000       0.00000000 </v>
   <v>       0.50000000       0.25000000       0.00000000 </v>
   <v>      -0.37500000       0.25000000       0.00000000 </v>
   <v>      -0.25000000       0.25000000       0.00000000 </v>
   <v>      -0.12500000       0.25000000       0.00000000 </v>
   <v>      -0.00000000       0.37500000       0.00000000 </v>
   <v>       0.12500000       0.37500000       0.00000000 </v>
   <v>       0.25000000       0.37500000       0.00000000 </v>
   <v>       0.37500000       0.37500000       0.00000000 </v>
   <v>       0.50000000       0.37500000       0.00000000 </v>
   <v>      -0.37500000       0.37500000       0.00000000 </v>
   <v>      -0.25000000       0.37500000       0.00000000 </v>
   <v>      -0.12500000       0.37500000       0.00000000 </v>
   <v>       0.00000000       0.50000000       0.00000000 </v>
   <v>       0.12500000       0.50000000       0.00000000 </v>
   <v>       0.25000000       0.50000000       0.00000000 </v>
   <v>       0.37500000       0.50000000       0.00000000 </v>
   <v>       0.50000000       0.50000000       0.00000000 </v>
  </varray>
  <varray name="weights" >
   <v>       0.01562500 </v>
   <v>       0.03125000 </v>
   <v>       0.03125000 </v>
   <v>       0.03125000 </v>
   <v>       0.01562500 </v>
   <v>       0.03125000 </v>
   <v>       0.03125000 </v>
   <v>       0.03125000 </v>
   <v>       0.03125000 </v>
   <v>       0.03125000 </v>
   <v>       0.03125000 </v>
   <v>       0.03125000 </v>
   <v>       0.03125000 </v>
   <v>       0.03125000 </v>
   <v>       0.03125000 </v>
   <v>       0.03125000 </v>
   <v>       0.03125000 </v>
   <v>       0.03125000 </v>
   <v>       0.03125000 </v>
   <v>       0.03125000 </v>
   <v>       0.03125000 </v>
   <v>       0.03125000 </v>
   <v>       0.03125000 </v>
   <v>       0.03125000 </v>
   <v>       0.03125000 </v>
   <v>       0.03125000 </v>
   <v>       0.03125000 </v>
   <v>       0.03125000 </v>
   <v>       0.03125000 </v>
   <v>       0.01562500 </v>
   <v>       0.03125000 </v>
   <v>       0.03125000 </v>
   <v>       0.03125000 </v>
   <v>       0.01562500 </v>
  </varray>
 </kpoints>
 <parameters>
  <separator name="general" >
   <i type="string" name="SYSTEM">unknown system</i>
   <i type="logical" name="LCOMPAT"> F  </i>
  </separator>
  <separator name="electronic" >
   <i type="string" name="PREC">normal</i>
   <i name="ENMAX">    280.00000000</i>
   <i name="ENAUG">    373.43800000</i>
   <i name="EDIFF">      0.00010000</i>
   <i type="int" name="IALGO">    38</i>
   <i type="int" name="IWAVPR">    11</i>
   <i type="int" name="NBANDS">   120</i>
   <i name="NELECT">    159.00000000</i>
   <i type="int" name="TURBO">     0</i>
   <i type="int" name="IRESTART">     0</i>
   <i type="int" name="NREBOOT">     0</i>
   <i type="int" name="NMIN">     0</i>
   <i name="EREF">      0.00000000</i>
   <separator name="electronic smearing" >
    <i type="int" name="ISMEAR">     0</i>
    <i name="SIGMA">      0.20000000</i>
    <i name="KSPACING">      0.50000000</i>
    <i type="logical" name="KGAMMA"> T  </i>
   </separator>
   <separator name="electronic projectors" >
    <i type="logical" name="LREAL"> F  </i>
    <v name="ROPT">      0.00000000      0.00000000      0.00000000      0.00000000</v>
    <i type="int" name="LMAXPAW">  -100</i>
    <i type="int" name="LMAXMIX">     2</i>
    <i type="logical" name="NLSPLINE"> F  </i>
   </separator>
   <separator name="electronic startup" >
    <i type="int" name="ISTART">     0</i>
    <i type="int" name="ICHARG">     2</i>
    <i type="int" name="INIWAV">     1</i>
   </separator>
   <separator name="electronic spin" >
    <i type="int" name="ISPIN">     1</i>
    <i type="logical" name="LNONCOLLINEAR"> F  </i>
    <v name="MAGMOM">      1.00000000      1.00000000      1.00000000      1.00000000      1.00000000      1.00000000      1.00000000      1.00000000      1.00000000      1.00000000      1.00000000      1.00000000      1.00000000      1.00000000      1.00000000      1.00000000      1.00000000      1.00000000      1.00000000      1.00000000
      1.00000000      1.00000000      1.00000000      1.00000000      1.00000000      1.00000000      1.00000000</v>
    <i name="NUPDOWN">     -1.00000000</i>
    <i type="logical" name="LSORBIT"> F  </i>
    <v name="SAXIS">      0.00000000      0.00000000      1.00000000</v>
    <i type="logical" name="LSPIRAL"> F  </i>
    <v name="QSPIRAL">      0.00000000      0.00000000      0.00000000</v>
    <i type="logical" name="LZEROZ"> F  </i>
   </separator>
   <separator name="electronic exchange-correlation" >
    <i type="logical" name="LASPH"> F  </i>
    <i type="logical" name="LMETAGGA"> F  </i>
   </separator>
   <separator name="electronic convergence" >
    <i type="int" name="NELM">    60</i>
    <i type="int" name="NELMDL">    -5</i>
    <i type="int" name="NELMIN">     2</i>
    <i name="ENINI">    280.00000000</i>
    <separator name="electronic convergence detail" >
     <i type="logical" name="LDIAG"> T  </i>
     <i type="logical" name="LSUBROT"> F  </i>
     <i name="WEIMIN">      0.00100000</i>
     <i name="EBREAK">      0.00000021</i>
     <i name="DEPER">      0.30000000</i>
     <i type="int" name="NRMM">     4</i>
     <i name="TIME">      0.40000000</i>
    </separator>
   </separator>
   <separator name="electronic mixer" >
    <i name="AMIX">      0.40000000</i>
    <i name="BMIX">      1.00000000</i>
    <i name="AMIN">      0.10000000</i>
    <i name="AMIX_MAG">      1.60000000</i>
    <i name="BMIX_MAG">      1.00000000</i>
    <separator name="electronic mixer details" >
     <i type="int" name="IMIX">     4</i>
     <i type="logical" name="MIXFIRST"> F  </i>
     <i type="int" name="MAXMIX">   -45</i>
     <i name="WC">    100.00000000</i>
     <i type="int" name="INIMIX">     1</i>
     <i type="int" name="MIXPRE">     1</i>
     <i type="int" name="MREMOVE">     5</i>
    </separator>
   </separator>
   <separator name="electronic dipolcorrection" >
    <i type="logical" name="LDIPOL"> F  </i>
    <i type="logical" name="LMONO"> F  </i>
    <i type="int" name="IDIPOL">     0</i>
    <i name="EPSILON">      1.00000000</i>
    <v name="DIPOL">   -100.00000000   -100.00000000   -100.00000000</v>
    <i name="EFIELD">      0.00000000</i>
   </separator>
  </separator>
  <separator name="grids" >
   <i type="int" name="NGX">    42</i>
   <i type="int" name="NGY">    42</i>
   <i type="int" name="NGZ">   126</i>
   <i type="int" name="NGXF">    84</i>
   <i type="int" name="NGYF">    84</i>
   <i type="int" name="NGZF">   252</i>
   <i type="logical" name="ADDGRID"> F  </i>
  </separator>
  <separator name="ionic" >
   <i type="int" name="NSW">   100</i>
   <i type="int" name="IBRION">     1</i>
   <i type="int" name="ISIF">     3</i>
   <i name="PSTRESS">      0.00000000</i>
   <i name="EDIFFG">      0.00100000</i>
   <i type="int" name="NFREE">     0</i>
   <i name="POTIM">      0.50000000</i>
   <i name="SMASS">     -3.00000000</i>
   <i name="SCALEE">      1.00000000</i>
  </separator>
  <separator name="ionic md" >
   <i name="TEBEG">      0.00010000</i>
   <i name="TEEND">      0.00010000</i>
   <i type="int" name="NBLOCK">     1</i>
   <i type="int" name="KBLOCK">   100</i>
   <i type="int" name="NPACO">   256</i>
   <i name="APACO">     16.00000000</i>
  </separator>
  <separator name="symmetry" >
   <i type="int" name="ISYM">     0</i>
   <i name="SYMPREC">      0.00000001</i>
  </separator>
  <separator name="dos" >
   <i type="logical" name="LORBIT"> F  </i>
   <v name="RWIGS">     -1.00000000     -1.00000000     -1.00000000     -1.00000000</v>
   <i type="int" name="NEDOS">   301</i>
   <i name="EMIN">     10.00000000</i>
   <i name="EMAX">    -10.00000000</i>
   <i name="EFERMI">      0.00000000</i>
  </separator>
  <separator name="writing" >
   <i type="int" name="NWRITE">     2</i>
   <i type="logical" name="LWAVE"> F  </i>
   <i type="logical" name="LCHARG"> F  </i>
   <i type="logical" name="LPARD"> F  </i>
   <i type="logical" name="LVTOT"> F  </i>
   <i type="logical" name="LVHAR"> F  </i>
   <i type="logical" name="LELF"> F  </i>
   <i type="logical" name="LOPTICS"> F  </i>
   <v name="STM">      0.00000000      0.00000000      0.00000000      0.00000000      0.00000000      0.00000000      0.00000000</v>
  </separator>
  <separator name="performance" >
   <i type="int" name="NPAR">    40</i>
   <i type="int" name="NSIM">     4</i>
   <i type="int" name="NBLK">    -1</i>
   <i type="logical" name="LPLANE"> F  </i>
   <i type="logical" name="LSCALAPACK"> T  </i>
   <i type="logical" name="LSCAAWARE"> F  </i>
   <i type="logical" name="LSCALU"> F  </i>
   <i type="logical" name="LASYNC"> F  </i>
   <i type="logical" name="LORBITALREAL"> F  </i>
  </separator>
  <separator name="miscellaneous" >
   <i type="int" name="IDIOT">     3</i>
   <i type="logical" name="LMUSIC"> F  </i>
   <v name="POMASS">     50.94100000     95.94000000    183.85000000     32.06600000</v>
   <v name="DARWINR">      0.00000000      0.00000000      0.00000000      0.00000000</v>
   <v name="DARWINV">      1.00000000      1.00000000      1.00000000      1.00000000</v>
   <i type="logical" name="LCORR"> T  </i>
  </separator>
  <i type="logical" name="GGA_COMPAT"> T  </i>
  <i type="logical" name="LBERRY"> F  </i>
  <i type="int" name="ICORELEVEL">     0</i>
  <i type="logical" name="LDAU"> F  </i>
  <i type="int" name="I_CONSTRAINED_M">     0</i>
  <separator name="electronic exchange-correlation" >
   <i type="string" name="GGA">--</i>
   <i type="int" name="VOSKOWN">     0</i>
   <i type="logical" name="LHFCALC"> F  </i>
   <i type="string" name="PRECFOCK"></i>
   <i type="logical" name="LSYMGRAD"> F  </i>
   <i type="logical" name="LHFONE"> F  </i>
   <i type="logical" name="LRHFCALC"> F  </i>
   <i type="logical" name="LTHOMAS"> F  </i>
   <i type="logical" name="LMODELHF"> F  </i>
   <i name="ENCUT4O">     -1.00000000</i>
   <i type="int" name="EXXOEP">     0</i>
   <i type="int" name="FOURORBIT">     0</i>
   <i name="AEXX">      0.00000000</i>
   <i name="HFALPHA">      0.00000000</i>
   <i name="MCALPHA">      0.00000000</i>
   <i name="ALDAX">      1.00000000</i>
   <i name="AGGAX">      1.00000000</i>
   <i name="ALDAC">      1.00000000</i>
   <i name="AGGAC">      1.00000000</i>
   <i type="int" name="NKREDX">     1</i>
   <i type="int" name="NKREDY">     1</i>
   <i type="int" name="NKREDZ">     1</i>
   <i type="logical" name="SHIFTRED"> F  </i>
   <i type="logical" name="ODDONLY"> F  </i>
   <i type="logical" name="EVENONLY"> F  </i>
   <i type="int" name="LMAXFOCK">     0</i>
   <i type="int" name="NMAXFOCKAE">     0</i>
   <i type="logical" name="LFOCKAEDFT"> F  </i>
   <i name="HFSCREEN">      0.00000000</i>
   <i name="HFSCREENC">      0.00000000</i>
   <i type="int" name="NBANDSGWLOW">     0</i>
  </separator>
  <separator name="vdW DFT" >
   <i type="logical" name="LUSE_VDW"> F  </i>
   <i name="Zab_VDW">     -0.84910000</i>
   <i name="PARAM1">      0.12340000</i>
   <i name="PARAM2">      1.00000000</i>
   <i name="PARAM3">      0.00000000</i>
  </separator>
  <separator name="model GW" >
   <i type="int" name="MODEL_GW">     0</i>
   <i name="MODEL_EPS0">     58.26239943</i>
   <i name="MODEL_ALPHA">      1.00000000</i>
  </separator>
  <separator name="linear response parameters" >
   <i type="logical" name="LEPSILON"> F  </i>
   <i type="logical" name="LRPA"> F  </i>
   <i type="logical" name="LNABLA"> F  </i>
   <i type="logical" name="LVEL"> F  </i>
   <i type="int" name="KINTER">     0</i>
   <i name="CSHIFT">      0.10000000</i>
   <i name="OMEGAMAX">     -1.00000000</i>
   <i name="DEG_THRESHOLD">      0.00200000</i>
  </separator>
  <separator name="orbital magnetization" >
   <i type="logical" name="NUCIND"> F  </i>
   <v name="MAGPOS">      0.00000000      0.00000000      0.00000000</v>
   <i type="logical" name="LNICSALL"> T  </i>
   <i type="logical" name="ORBITALMAG"> F  </i>
   <i type="logical" name="LMAGBLOCH"> F  </i>
   <i type="logical" name="LCHIMAG"> F  </i>
   <i type="logical" name="LGAUGE"> T  </i>
   <i type="int" name="MAGATOM">     0</i>
   <v name="MAGDIPOL">      0.00000000      0.00000000      0.00000000</v>
   <v name="AVECCONST">      0.00000000      0.00000000      0.00000000</v>
  </separator>
  <separator name="response functions" >
   <i type="logical" name="LADDER"> F  </i>
   <i type="logical" name="LFXC"> F  </i>
   <i type="logical" name="LHARTREE"> T  </i>
   <i type="int" name="IBSE">     0</i>
   <v type="int" name="KPOINT">    -1     0     0     0</v>
   <i type="logical" name="LTCTE"> F  </i>
   <i type="logical" name="LTETE"> F  </i>
   <i type="logical" name="LTRIPLET"> F  </i>
   <i type="logical" name="LFXCEPS"> F  </i>
   <i type="logical" name="LFXHEG"> F  </i>
   <i type="int" name="NATURALO">     0</i>
   <i type="logical" name="L2ORDER"> F  </i>
   <i type="logical" name="LUSEW"> F  </i>
   <i name="ENCUTGW">     -2.00000000</i>
   <i name="ENCUTGWSOFT">     -2.00000000</i>
   <i name="ENCUTLF">     -1.00000000</i>
   <i type="int" name="LMAXMP2">    -1</i>
   <i name="SCISSOR">      0.00000000</i>
   <i type="int" name="NOMEGA">     0</i>
   <i type="int" name="NOMEGAR">     0</i>
   <i type="int" name="NBANDSGW">    -1</i>
   <i type="int" name="NBANDSO">    -1</i>
   <i type="int" name="NBANDSV">    -1</i>
   <i type="int" name="NELM">     1</i>
   <i type="int" name="NELMHF">     1</i>
   <i type="int" name="DIM">     3</i>
   <i type="int" name="ANTIRES">     0</i>
   <i name="OMEGAMAX">    -30.00000000</i>
   <i name="OMEGAMIN">    -30.00000000</i>
   <i name="OMEGATL">   -200.00000000</i>
   <i type="int" name="OMEGAGRID">     0</i>
   <i name="CSHIFT">     -0.10000000</i>
   <i type="logical" name="SELFENERGY"> F  </i>
   <i type="logical" name="LSPECTRAL"> F  </i>
   <i type="logical" name="LSPECTRALGW"> F  </i>
   <i type="logical" name="LSINGLES"> F  </i>
   <i type="logical" name="LFERMIGW"> F  </i>
   <i type="logical" name="ODDONLYGW"> F  </i>
   <i type="logical" name="EVENONLYGW"> F  </i>
   <i type="int" name="NKREDLFX">     1</i>
   <i type="int" name="NKREDLFY">     1</i>
   <i type="int" name="NKREDLFZ">     1</i>
   <i type="int" name="MAXMEM">  1800</i>
   <i type="int" name="TELESCOPE">     0</i>
   <i type="int" name="TAUPAR">     1</i>
   <i type="int" name="OMEGAPAR">    -1</i>
   <i name="LAMBDA">      1.00000000</i>
  </separator>
  <separator name="External order field" >
   <i name="OFIELD_KAPPA">      0.00000000</i>
   <v name="OFIELD_K">      0.00000000      0.00000000      0.00000000</v>
   <i name="OFIELD_Q6_NEAR">      0.00000000</i>
   <i name="OFIELD_Q6_FAR">      0.00000000</i>
   <i name="OFIELD_A">      0.00000000</i>
  </separator>
 </parameters>
 <atominfo>
  <atoms>      27 </atoms>
  <types>       4 </types>
  <array name="atoms" >
   <dimension dim="1">ion</dimension>
   <field type="string">element</field>
   <field type="int">atomtype</field>
   <set>
    <rc><c>V </c><c>   1</c></rc>
    <rc><c>V </c><c>   1</c></rc>
    <rc><c>V </c><c>   1</c></rc>
    <rc><c>Mo</c><c>   2</c></rc>
    <rc><c>Mo</c><c>   2</c></rc>
    <rc><c>Mo</c><c>   2</c></rc>
    <rc><c>W </c><c>   3</c></rc>
    <rc><c>W </c><c>   3</c></rc>
    <rc><c>W </c><c>   3</c></rc>
    <rc><c>S </c><c>   4</c></rc>
    <rc><c>S </c><c>   4</c></rc>
    <rc><c>S </c><c>   4</c></rc>
    <rc><c>S </c><c>   4</c></rc>
    <rc><c>S </c><c>   4</c></rc>
    <rc><c>S </c><c>   4</c></rc>
    <rc><c>S </c><c>   4</c></rc>
    <rc><c>S </c><c>   4</c></rc>
    <rc><c>S </c><c>   4</c></rc>
    <rc><c>S </c><c>   4</c></rc>
    <rc><c>S </c><c>   4</c></rc>
    <rc><c>S </c><c>   4</c></rc>
    <rc><c>S </c><c>   4</c></rc>
    <rc><c>S </c><c>   4</c></rc>
    <rc><c>S </c><c>   4</c></rc>
    <rc><c>S </c><c>   4</c></rc>
    <rc><c>S </c><c>   4</c></rc>
    <rc><c>S </c><c>   4</c></rc>
   </set>
  </array>
  <array name="atomtypes" >
   <dimension dim="1">type</dimension>
   <field type="int">atomspertype</field>
   <field type="string">element</field>
   <field>mass</field>
   <field>valence</field>
   <field type="string">pseudopotential</field>
   <set>
    <rc><c>   3</c><c>V </c><c>     50.94100000</c><c>      5.00000000</c><c> PAW_PBE V 08Apr2002                    </c></rc>
    <rc><c>   3</c><c>Mo</c><c>     95.94000000</c><c>      6.00000000</c><c> PAW_PBE Mo 08Apr2002                   </c></rc>
    <rc><c>   3</c><c>W </c><c>    183.85000000</c><c>      6.00000000</c><c> PAW_PBE W 08Apr2002                    </c></rc>
    <rc><c>  18</c><c>S </c><c>     32.06600000</c><c>      6.00000000</c><c>  PAW_PBE S 17Jan2003                   </c></rc>
   </set>
  </array>
 </atominfo>
 <structure name="initialpos" >
  <crystal>
   <varray name="basis" >
    <v>       8.66999996       5.03999989       0.00000000 </v>
    <v>      -8.66999982       5.04000013       0.00000000 </v>
    <v>       0.00000000       0.00000000      30.00000000 </v>
   </varray>
   <i name="volume">   2621.80797419 </i>
   <varray name="rec_basis" >
    <v>       0.05767013       0.09920635       0.00000000 </v>
    <v>      -0.05767013       0.09920635       0.00000000 </v>
    <v>       0.00000000       0.00000000       0.03333333 </v>
   </varray>
  </crystal>
  <varray name="positions" >
   <v>       0.33333334       0.00000000       0.00000000 </v>
   <v>       0.66666669       0.00000000       0.00000000 </v>
   <v>       1.00000000       0.33333334       0.00000000 </v>
   <v>       0.33333334       0.33333334       0.00000000 </v>
   <v>       0.00000000       0.00000000       0.00000000 </v>
   <v>       0.00000000       0.66666669       0.00000000 </v>
   <v>       0.33333334       0.66666669       0.00000000 </v>
   <v>       0.66666669       0.33333334       0.00000000 </v>
   <v>       0.66666669       0.66666669       0.00000000 </v>
   <v>       0.11068511       0.22244981       0.95539999 </v>
   <v>       0.22244981       0.11068511       0.04460000 </v>
   <v>       0.11068511       0.55578315       0.95539999 </v>
   <v>       0.22244981       0.44401845       0.04460000 </v>
   <v>       0.11068511       0.88911647       0.95539999 </v>
   <v>       0.22244981       0.77735180       0.04460000 </v>
   <v>       0.44401845       0.22244981       0.95539999 </v>
   <v>       0.55578315       0.11068511       0.04460000 </v>
   <v>       0.44401845       0.55578315       0.95539999 </v>
   <v>       0.55578315       0.44401845       0.04460000 </v>
   <v>       0.44401845       0.88911647       0.95539999 </v>
   <v>       0.55578315       0.77735180       0.04460000 </v>
   <v>       0.77735180       0.22244981       0.95539999 </v>
   <v>       0.88911647       0.11068511       0.04460000 </v>
   <v>       0.77735180       0.55578315       0.95539999 </v>
   <v>       0.88911647       0.44401845       0.04460000 </v>
   <v>       0.77735180       0.88911647       0.95539999 </v>
   <v>       0.88911647       0.77735180       0.04460000 </v>
  </varray>
 </structure>
 <calculation>
  <scstep>
   <time name="dav">   22.03   22.09</time>
   <time name="total">   22.08   22.14</time>
   <energy>
    <i name="alphaZ">     81.65567618 </i>
    <i name="ewald">  41890.23010373 </i>
    <i name="hartreedc"> -47722.86556760 </i>
    <i name="XCdc">   -242.92862451 </i>
    <i name="pawpsdc">   3467.42045192 </i>
    <i name="pawaedc">  -2871.19716117 </i>
    <i name="eentropy">     -0.53137116 </i>
    <i name="bandstr">   -238.73423289 </i>
    <i name="atom">   6761.44252427 </i>
    <i name="e_fr_energy">   1124.49179877 </i>
    <i name="e_wo_entrp">   1125.02316992 </i>
    <i name="e_0_energy">   1124.75748434 </i>
   </energy>
  </scstep>
  <scstep>
   <time name="dav">   29.08   29.15</time>
   <time name="total">   29.08   29.16</time>
   <energy>
    <i name="e_fr_energy">     -2.69317624 </i>
    <i name="e_wo_entrp">     -2.47970363 </i>
    <i name="e_0_energy">     -2.58643993 </i>
   </energy>
  </scstep>
  <scstep>
   <time name="dav">   28.00   28.07</time>
   <time name="total">   28.01   28.08</time>
   <energy>
    <i name="e_fr_energy">   -200.15542644 </i>
    <i name="e_wo_entrp">   -199.89376918 </i>
    <i name="e_0_energy">   -200.02459781 </i>
   </energy>
  </scstep>
  <scstep>
   <time name="dav">   30.61   30.68</time>
   <time name="total">   30.61   30.69</time>
   <energy>
    <i name="e_fr_energy">   -209.01063441 </i>
    <i name="e_wo_entrp">   -208.72719197 </i>
    <i name="e_0_energy">   -208.86891319 </i>
   </energy>
  </scstep>
  <scstep>
   <time name="dav">   28.09   28.16</time>
   <time name="total">   28.56   28.64</time>
   <energy>
    <i name="e_fr_energy">   -209.31177049 </i>
    <i name="e_wo_entrp">   -209.03107840 </i>
    <i name="e_0_energy">   -209.17142444 </i>
   </energy>
  </scstep>
  <scstep>
   <time name="dav">   31.68   31.75</time>
   <time name="total">   32.18   32.26</time>
   <energy>
    <i name="e_fr_energy">   -237.21079533 </i>
    <i name="e_wo_entrp">   -236.93502354 </i>
    <i name="e_0_energy">   -237.07290944 </i>
   </energy>
  </scstep>
  <scstep>
   <time name="dav">   32.87   32.95</time>
   <time name="total">   33.39   33.47</time>
   <energy>
    <i name="e_fr_energy">   -196.46970710 </i>
    <i name="e_wo_entrp">   -196.13938046 </i>
    <i name="e_0_energy">   -196.30454378 </i>
   </energy>
  </scstep>
  <scstep>
   <time name="dav">   29.82   29.89</time>
   <time name="total">   30.33   30.41</time>
   <energy>
    <i name="e_fr_energy">   -189.42486215 </i>
    <i name="e_wo_entrp">   -189.13328003 </i>
    <i name="e_0_energy">   -189.27907109 </i>
   </energy>
  </scstep>
  <scstep>
   <time name="dav">   31.42   31.50</time>
   <time name="total">   31.94   32.03</time>
   <energy>
    <i name="e_fr_energy">   -188.22894690 </i>
    <i name="e_wo_entrp">   -187.90891265 </i>
    <i name="e_0_energy">   -188.06892978 </i>
   </energy>
  </scstep>
  <scstep>
   <time name="dav">   33.11   33.20</time>
   <time name="total">   33.64   33.74</time>
   <energy>
    <i name="e_fr_energy">   -187.07950209 </i>
    <i name="e_wo_entrp">   -186.73251917 </i>
    <i name="e_0_energy">   -186.90601063 </i>
   </energy>
  </scstep>
  <scstep>
   <time name="dav">   33.28   33.36</time>
   <time name="total">   33.82   33.91</time>
   <energy>
    <i name="e_fr_energy">   -187.02959881 </i>
    <i name="e_wo_entrp">   -186.68157927 </i>
    <i name="e_0_energy">   -186.85558904 </i>
   </energy>
  </scstep>
  <scstep>
   <time name="dav">   31.30   31.37</time>
   <time name="total">   31.83   31.92</time>
   <energy>
    <i name="e_fr_energy">   -187.17262700 </i>
    <i name="e_wo_entrp">   -186.83421589 </i>
    <i name="e_0_energy">   -187.00342145 </i>
   </energy>
  </scstep>
  <scstep>
   <time name="dav">   32.51   32.59</time>
   <time name="total">   33.05   33.13</time>
   <energy>
    <i name="e_fr_energy">   -186.92725823 </i>
    <i name="e_wo_entrp">   -186.59270562 </i>
    <i name="e_0_energy">   -186.75998192 </i>
   </energy>
  </scstep>
  <scstep>
   <time name="dav">   33.20   33.28</time>
   <time name="total">   33.73   33.82</time>
   <energy>
    <i name="e_fr_energy">   -186.87956032 </i>
    <i name="e_wo_entrp">   -186.53582207 </i>
    <i name="e_0_energy">   -186.70769120 </i>
   </energy>
  </scstep>
  <scstep>
   <time name="dav">   30.81   30.89</time>
   <time name="total">   31.35   31.44</time>
   <energy>
    <i name="e_fr_energy">   -186.88134926 </i>
    <i name="e_wo_entrp">   -186.53634968 </i>
    <i name="e_0_energy">   -186.70884947 </i>
   </energy>
  </scstep>
  <scstep>
   <time name="dav">   32.58   32.66</time>
   <time name="total">   33.12   33.20</time>
   <energy>
    <i name="e_fr_energy">   -186.87264273 </i>
    <i name="e_wo_entrp">   -186.52715757 </i>
    <i name="e_0_energy">   -186.69990015 </i>
   </energy>
  </scstep>
  <scstep>
   <time name="dav">   31.60   31.67</time>
   <time name="total">   32.13   32.22</time>
   <energy>
    <i name="e_fr_energy">   -186.86928511 </i>
    <i name="e_wo_entrp">   -186.52623310 </i>
    <i name="e_0_energy">   -186.69775911 </i>
   </energy>
  </scstep>
  <scstep>
   <time name="dav">   29.69   29.76</time>
   <time name="total">   30.23   30.31</time>
   <energy>
    <i name="e_fr_energy">   -186.86910348 </i>
    <i name="e_wo_entrp">   -186.52565177 </i>
    <i name="e_0_energy">   -186.69737762 </i>
   </energy>
  </scstep>
  <scstep>
   <time name="dav">   28.46   28.54</time>
   <time name="total">   29.00   29.08</time>
   <energy>
    <i name="e_fr_energy">   -186.86874306 </i>
    <i name="e_wo_entrp">   -186.52514721 </i>
    <i name="e_0_energy">   -186.69694513 </i>
   </energy>
  </scstep>
  <scstep>
   <time name="dav">   23.98   24.04</time>
   <time name="total">   24.52   24.58</time>
   <energy>
    <i name="e_fr_energy">   -186.86951043 </i>
    <i name="e_wo_entrp">   -186.52618418 </i>
    <i name="e_0_energy">   -186.69784731 </i>
   </energy>
  </scstep>
  <scstep>
   <time name="dav">   22.06   22.12</time>
   <time name="total">   22.61   22.68</time>
   <energy>
    <i name="e_fr_energy">   -186.87011675 </i>
    <i name="e_wo_entrp">   -186.52676183 </i>
    <i name="e_0_energy">   -186.69843929 </i>
   </energy>
  </scstep>
  <scstep>
   <time name="dav">   20.73   20.78</time>
   <time name="total">   21.27   21.33</time>
   <energy>
    <i name="e_fr_energy">   -186.87122634 </i>
    <i name="e_wo_entrp">   -186.52784245 </i>
    <i name="e_0_energy">   -186.69953439 </i>
   </energy>
  </scstep>
  <scstep>
   <time name="dav">   20.80   20.85</time>
   <time name="total">   21.34   21.40</time>
   <energy>
    <i name="e_fr_energy">   -186.87245279 </i>
    <i name="e_wo_entrp">   -186.52915120 </i>
    <i name="e_0_energy">   -186.70080200 </i>
   </energy>
  </scstep>
  <scstep>
   <time name="dav">   19.39   19.44</time>
   <time name="total">   19.93   19.98</time>
   <energy>
    <i name="e_fr_energy">   -186.87303891 </i>
    <i name="e_wo_entrp">   -186.52970879 </i>
    <i name="e_0_energy">   -186.70137385 </i>
   </energy>
  </scstep>
  <scstep>
   <time name="dav">   16.64   16.68</time>
   <time name="total">   17.17   17.22</time>
   <energy>
    <i name="e_fr_energy">   -186.87341810 </i>
    <i name="e_wo_entrp">   -186.53005156 </i>
    <i name="e_0_energy">   -186.70173483 </i>
   </energy>
  </scstep>
  <scstep>
   <time name="dav">   19.44   19.49</time>
   <time name="total">   19.98   20.03</time>
   <energy>
    <i name="e_fr_energy">   -186.87363683 </i>
    <i name="e_wo_entrp">   -186.53028451 </i>
    <i name="e_0_energy">   -186.70196067 </i>
   </energy>
  </scstep>
  <scstep>
   <time name="dav">   19.61   19.65</time>
   <time name="total">   20.14   20.20</time>
   <energy>
    <i name="e_fr_energy">   -186.87374032 </i>
    <i name="e_wo_entrp">   -186.53039229 </i>
    <i name="e_0_energy">   -186.70206630 </i>
   </energy>
  </scstep>
  <scstep>
   <time name="dav">   20.17   20.22</time>
   <time name="total">   20.21   20.26</time>
   <energy>
    <i name="alphaZ">     81.65567618 </i>
    <i name="ewald">  41890.23010373 </i>
    <i name="hartreedc"> -47833.03455736 </i>
    <i name="XCdc">   -231.60127041 </i>
    <i name="pawpsdc">   4192.08581159 </i>
    <i name="pawaedc">  -3610.10365755 </i>
    <i name="eentropy">     -0.34334846 </i>
    <i name="bandstr">  -1437.20507254 </i>
    <i name="atom">   6761.44252427 </i>
    <i name="e_fr_energy">   -186.87379056 </i>
    <i name="e_wo_entrp">   -186.53044210 </i>
    <i name="e_0_energy">   -186.70211633 </i>
   </energy>
  </scstep>
  <structure>
   <crystal>
    <varray name="basis" >
     <v>       8.66999996       5.03999989       0.00000000 </v>
     <v>      -8.66999982       5.04000013       0.00000000 </v>
     <v>       0.00000000       0.00000000      30.00000000 </v>
    </varray>
    <i name="volume">   2621.80797419 </i>
    <varray name="rec_basis" >
     <v>       0.05767013       0.09920635       0.00000000 </v>
     <v>      -0.05767013       0.09920635       0.00000000 </v>
     <v>       0.00000000       0.00000000       0.03333333 </v>
    </varray>
   </crystal>
   <varray name="positions" >
    <v>       0.33333334       0.00000000       0.00000000 </v>
    <v>       0.66666669       0.00000000       0.00000000 </v>
    <v>       1.00000000       0.33333334       0.00000000 </v>
    <v>       0.33333334       0.33333334       0.00000000 </v>
    <v>       0.00000000       0.00000000       0.00000000 </v>
    <v>       0.00000000       0.66666669       0.00000000 </v>
    <v>       0.33333334       0.66666669       0.00000000 </v>
    <v>       0.66666669       0.33333334       0.00000000 </v>
    <v>       0.66666669       0.66666669       0.00000000 </v>
    <v>       0.11068511       0.22244981       0.95539999 </v>
    <v>       0.22244981       0.11068511       0.04460000 </v>
    <v>       0.11068511       0.55578315       0.95539999 </v>
    <v>       0.22244981       0.44401845       0.04460000 </v>
    <v>       0.11068511       0.88911647       0.95539999 </v>
    <v>       0.22244981       0.77735180       0.04460000 </v>
    <v>       0.44401845       0.22244981       0.95539999 </v>
    <v>       0.55578315       0.11068511       0.04460000 </v>
    <v>       0.44401845       0.55578315       0.95539999 </v>
    <v>       0.55578315       0.44401845       0.04460000 </v>
    <v>       0.44401845       0.88911647       0.95539999 </v>
    <v>       0.55578315       0.77735180       0.04460000 </v>
    <v>       0.77735180       0.22244981       0.95539999 </v>
    <v>       0.88911647       0.11068511       0.04460000 </v>
    <v>       0.77735180       0.55578315       0.95539999 </v>
    <v>       0.88911647       0.44401845       0.04460000 </v>
    <v>       0.77735180       0.88911647       0.95539999 </v>
    <v>       0.88911647       0.77735180       0.04460000 </v>
   </varray>
  </structure>
  <varray name="forces" >
   <v>      -0.36505600      -0.19809405      -0.10250398 </v>
   <v>       0.14015888       0.14777729       0.01699075 </v>
   <v>       0.23380527       0.05700206       0.11785969 </v>
   <v>       0.00473056      -0.27879171       0.07662183 </v>
   <v>       0.21648939       0.16242657       0.02288458 </v>
   <v>      -0.26460421       0.11442856      -0.10372128 </v>
   <v>      -0.10641278      -0.27868207      -0.05082286 </v>
   <v>      -0.12935532       0.06604162       0.02465525 </v>
   <v>       0.27073403       0.19355589      -0.01980032 </v>
   <v>      -0.74375891      -0.01015143      -2.11273111 </v>
   <v>       0.73189380       0.01077493       2.13645247 </v>
   <v>       0.60343366      -0.53676145      -2.14397747 </v>
   <v>      -0.61625542      -0.57530599       2.20473877 </v>
   <v>       0.54646671       0.71226448      -2.20100178 </v>
   <v>      -0.35590312       0.70871792       2.14510076 </v>
   <v>       0.64173660      -0.57450851      -2.15512979 </v>
   <v>       0.23562604      -0.51464325       1.38839381 </v>
   <v>       0.05948414       0.15953139      -2.85124957 </v>
   <v>      -0.07989848       0.12461446       2.92839017 </v>
   <v>      -0.25294248       0.51613853      -1.41318326 </v>
   <v>      -0.45173007       0.56238345       2.15786364 </v>
   <v>       0.74272604       0.00003371      -1.45584270 </v>
   <v>      -0.91479462       0.01821079       1.46251398 </v>
   <v>       0.05127563      -0.10959813      -2.95842740 </v>
   <v>       0.69011637      -0.15789077       2.09162832 </v>
   <v>      -0.65779261      -0.16096746      -2.10104312 </v>
   <v>      -0.23017307      -0.15850683       2.89534063 </v>
  </varray>
  <varray name="stress" >
   <v>       7.43255475       0.00222301      -1.61731772 </v>
   <v>       0.00222283       4.30855864       0.01836081 </v>
   <v>      -1.61731775       0.01836098      30.31167303 </v>
  </varray>
  <energy>
   <i name="e_fr_energy">   -186.87379056 </i>
   <i name="e_wo_entrp">   -186.70211633 </i>
   <i name="e_0_energy">     -0.34334846 </i>
  </energy>
  <time name="totalsc">  818.11  820.32</time>
 </calculation>
 <calculation>
  <scstep>
   <time name="dav">   22.05   22.10</time>
   <time name="total">   22.59   22.65</time>
   <energy>
    <i name="alphaZ">     78.92462889 </i>
    <i name="ewald">  39381.34520501 </i>
    <i name="hartreedc"> -45338.90859169 </i>
    <i name="XCdc">   -239.05452786 </i>
    <i name="pawpsdc">   4192.08581735 </i>
    <i name="pawaedc">  -3610.10367895 </i>
    <i name="eentropy">     -0.27939452 </i>
    <i name="bandstr">  -1412.95119300 </i>
    <i name="atom">   6761.44252427 </i>
    <i name="e_fr_energy">   -187.49921049 </i>
    <i name="e_wo_entrp">   -187.21981597 </i>
    <i name="e_0_energy">   -187.35951323 </i>
   </energy>
  </scstep>
  <scstep>
   <time name="dav">   30.75   30.83</time>
   <time name="total">   31.29   31.37</time>
   <energy>
    <i name="e_fr_energy">   -189.50079942 </i>
    <i name="e_wo_entrp">   -189.16701270 </i>
    <i name="e_0_energy">   -189.33390606 </i>
   </energy>
  </scstep>
  <scstep>
   <time name="dav">   31.03   31.11</time>
   <time name="total">   31.58   31.66</time>
   <energy>
    <i name="e_fr_energy">   -189.34046292 </i>
    <i name="e_wo_entrp">   -189.07695446 </i>
    <i name="e_0_energy">   -189.20870869 </i>
   </energy>
  </scstep>
  <scstep>
   <time name="dav">   29.78   29.85</time>
   <time name="total">   30.33   30.41</time>
   <energy>
    <i name="e_fr_energy">   -188.76732585 </i>
    <i name="e_wo_entrp">   -188.48480133 </i>
    <i name="e_0_energy">   -188.62606359 </i>
   </energy>
  </scstep>
  <scstep>
   <time name="dav">   30.46   30.53</time>
   <time name="total">   31.00   31.09</time>
   <energy>
    <i name="e_fr_energy">   -188.89990908 </i>
    <i name="e_wo_entrp">   -188.61325927 </i>
    <i name="e_0_energy">   -188.75658417 </i>
   </energy>
  </scstep>
  <scstep>
   <time name="dav">   31.59   31.67</time>
   <time name="total">   32.14   32.22</time>
   <energy>
    <i name="e_fr_energy">   -188.74232249 </i>
    <i name="e_wo_entrp">   -188.45852179 </i>
    <i name="e_0_energy">   -188.60042214 </i>
   </energy>
  </scstep>
  <scstep>
   <time name="dav">   29.58   29.65</time>
   <time name="total">   30.13   30.21</time>
   <energy>
    <i name="e_fr_energy">   -188.71234049 </i>
    <i name="e_wo_entrp">   -188.42743960 </i>
    <i name="e_0_energy">   -188.56989004 </i>
   </energy>
  </scstep>
  <scstep>
   <time name="dav">   32.00   32.08</time>
   <time name="total">   32.55   32.64</time>
   <energy>
    <i name="e_fr_energy">   -188.69538905 </i>
    <i name="e_wo_entrp">   -188.41484099 </i>
    <i name="e_0_energy">   -188.55511502 </i>
   </energy>
  </scstep>
  <scstep>
   <time name="dav">   30.14   30.21</time>
   <time name="total">   30.69   30.77</time>
   <energy>
    <i name="e_fr_energy">   -188.67036386 </i>
    <i name="e_wo_entrp">   -188.38866828 </i>
    <i name="e_0_energy">   -188.52951607 </i>
   </energy>
  </scstep>
  <scstep>
   <time name="dav">   28.23   28.31</time>
   <time name="total">   28.78   28.86</time>
   <energy>
    <i name="e_fr_energy">   -188.66869118 </i>
    <i name="e_wo_entrp">   -188.38840751 </i>
    <i name="e_0_energy">   -188.52854935 </i>
   </energy>
  </scstep>
  <scstep>
   <time name="dav">   32.55   32.63</time>
   <time name="total">   33.10   33.19</time>
   <energy>
    <i name="e_fr_energy">   -188.66813749 </i>
    <i name="e_wo_entrp">   -188.38859701 </i>
    <i name="e_0_energy">   -188.52836725 </i>
   </energy>
  </scstep>
  <scstep>
   <time name="dav">   29.79   29.86</time>
   <time name="total">   30.34   30.42</time>
   <energy>
    <i name="e_fr_energy">   -188.66807525 </i>
    <i name="e_wo_entrp">   -188.38870025 </i>
    <i name="e_0_energy">   -188.52838775 </i>
   </energy>
  </scstep>
  <scstep>
   <time name="dav">   20.96   21.01</time>
   <time name="total">   21.00   21.06</time>
   <energy>
    <i name="alphaZ">     78.92462889 </i>
    <i name="ewald">  39381.34520501 </i>
    <i name="hartreedc"> -45349.61808088 </i>
    <i name="XCdc">   -237.97300355 </i>
    <i name="pawpsdc">   3950.53245149 </i>
    <i name="pawaedc">  -3365.04541090 </i>
    <i name="eentropy">     -0.27970996 </i>
    <i name="bandstr">  -1407.99665912 </i>
    <i name="atom">   6761.44252427 </i>
    <i name="e_fr_energy">   -188.66805476 </i>
    <i name="e_wo_entrp">   -188.38834480 </i>
    <i name="e_0_energy">   -188.52819978 </i>
   </energy>
  </scstep>
  <structure>
   <crystal>
    <varray name="basis" >
     <v>       8.85844748       5.10354843       0.00000000 </v>
     <v>      -8.85838183       5.10343597       0.00000000 </v>
     <v>       0.00000000       0.00000000      30.00000000 </v>
    </varray>
    <i name="volume">   2712.53100530 </i>
    <varray name="rec_basis" >
     <v>       0.05644289       0.09797177       0.00000000 </v>
     <v>      -0.05644413       0.09797249       0.00000000 </v>
     <v>       0.00000000       0.00000000       0.03333333 </v>
    </varray>
   </crystal>
   <varray name="positions" >
    <v>       0.33136963       0.00006757      -0.00016484 </v>
    <v>       0.66776389       0.00031731       0.00002732 </v>
    <v>       1.00092329       0.33295567       0.00018953 </v>
    <v>       0.33201221       0.33198589       0.00012321 </v>
    <v>       0.00137968       0.00017506       0.00003680 </v>
    <v>      -0.00018852       0.66795051      -0.00016679 </v>
    <v>       0.33170352       0.66562898      -0.00008173 </v>
    <v>       0.66662287       0.33400930       0.00003965 </v>
    <v>       0.66834627       0.66683982      -0.00003184 </v>
    <v>       0.10856727       0.22447048       0.95200253 </v>
    <v>       0.22453762       0.10870043       0.04803560 </v>
    <v>       0.10979503       0.55153538       0.95195228 </v>
    <v>       0.21798189       0.44297957       0.04814541 </v>
    <v>       0.11561435       0.89100499       0.95186058 </v>
    <v>       0.22485154       0.78173388       0.04804951 </v>
    <v>       0.44305428       0.21791481       0.95193435 </v>
    <v>       0.55397563       0.10756649       0.04683266 </v>
    <v>       0.44494746       0.55638117       0.95081493 </v>
    <v>       0.55615726       0.44483715       0.04930911 </v>
    <v>       0.44578495       0.89229042       0.95312747 </v>
    <v>       0.55721792       0.78130014       0.04807003 </v>
    <v>       0.77941834       0.22038359       0.95305887 </v>
    <v>       0.88665852       0.11331737       0.04695185 </v>
    <v>       0.77696992       0.55511596       0.95064258 </v>
    <v>       0.89028082       0.44134278       0.04796352 </v>
    <v>       0.77475133       0.89017616       0.95202133 </v>
    <v>       0.88771748       0.77723356       0.04925596 </v>
   </varray>
  </structure>
  <varray name="forces" >
   <v>      -0.32186589      -0.21173211      -0.03135710 </v>
   <v>       0.13332455       0.08534829       0.01653323 </v>
   <v>       0.24590770       0.11434393       0.04091642 </v>
   <v>      -0.03467863      -0.12806756      -0.04196845 </v>
   <v>       0.31135411       0.06360586      -0.00555279 </v>
   <v>      -0.40877440       0.00335866       0.03758298 </v>
   <v>       0.02599842      -0.27566213      -0.08441547 </v>
   <v>      -0.37358505       0.22938721       0.09910484 </v>
   <v>       0.43031155       0.11494713      -0.00468908 </v>
   <v>      -0.06125671      -0.01434934      -0.05459389 </v>
   <v>       0.07164197       0.00069222       0.16613482 </v>
   <v>       0.07659014       0.04383048       0.03076899 </v>
   <v>      -0.08881103       0.02588001       0.09719869 </v>
   <v>       0.02856197       0.09337128      -0.19638395 </v>
   <v>       0.10812796       0.06582704      -0.07500873 </v>
   <v>       0.09393339       0.03897672       0.02120130 </v>
   <v>      -0.06613769       0.06979895      -0.22725965 </v>
   <v>      -0.07411029       0.10403475       0.11032790 </v>
   <v>       0.06617883       0.09790960       0.02597877 </v>
   <v>       0.05115442      -0.07877953       0.19183350 </v>
   <v>       0.05393494      -0.07134054      -0.16990371 </v>
   <v>      -0.10219353       0.00449752       0.17996230 </v>
   <v>      -0.02976435       0.01280092      -0.06061759 </v>
   <v>      -0.07353680      -0.09210983      -0.14297992 </v>
   <v>      -0.02727909      -0.11031811      -0.09305701 </v>
   <v>       0.01958354      -0.08976872       0.02621997 </v>
   <v>      -0.05461003      -0.09648271       0.14402363 </v>
  </varray>
  <varray name="stress" >
   <v>     -19.94152392       0.01052667       0.06881244 </v>
   <v>       0.01052649     -19.46702706      -0.01179597 </v>
   <v>       0.06881236      -0.01179590      -1.73877907 </v>
  </varray>
  <energy>
   <i name="e_fr_energy">   -188.66805476 </i>
   <i name="e_wo_entrp">   -188.52819978 </i>
   <i name="e_0_energy">     -0.27970996 </i>
  </energy>
  <time name="totalsc">  428.18  429.32</time>
 </calculation>
 <calculation>
  <scstep>
   <time name="dav">   24.18   24.24</time>
   <time name="total">   24.71   24.77</time>
   <energy>
    <i name="alphaZ">     82.35845390 </i>
    <i name="ewald">  41309.99769378 </i>
    <i name="hartreedc"> -47308.94836741 </i>
    <i name="XCdc">   -233.83842589 </i>
    <i name="pawpsdc">   3950.04134400 </i>
    <i name="pawaedc">  -3364.54947773 </i>
    <i name="eentropy">     -0.23295353 </i>
    <i name="bandstr">  -1386.86124078 </i>
    <i name="atom">   6761.44252427 </i>
    <i name="e_fr_energy">   -190.59044940 </i>
    <i name="e_wo_entrp">   -190.35749587 </i>
    <i name="e_0_energy">   -190.47397263 </i>
   </energy>
  </scstep>
  <scstep>
   <time name="dav">   28.22   28.29</time>
   <time name="total">   28.75   28.82</time>
   <energy>
    <i name="e_fr_energy">   -190.57311237 </i>
    <i name="e_wo_entrp">   -190.34520407 </i>
    <i name="e_0_energy">   -190.45915822 </i>
   </energy>
  </scstep>
  <scstep>
   <time name="dav">   30.67   30.75</time>
   <time name="total">   31.20   31.29</time>
   <energy>
    <i name="e_fr_energy">   -190.06237097 </i>
    <i name="e_wo_entrp">   -189.81379747 </i>
    <i name="e_0_energy">   -189.93808422 </i>
   </energy>
  </scstep>
  <scstep>
   <time name="dav">   31.66   31.73</time>
   <time name="total">   32.19   32.28</time>
   <energy>
    <i name="e_fr_energy">   -189.85613782 </i>
    <i name="e_wo_entrp">   -189.62776760 </i>
    <i name="e_0_energy">   -189.74195271 </i>
   </energy>
  </scstep>
  <scstep>
   <time name="dav">   28.10   28.16</time>
   <time name="total">   28.63   28.71</time>
   <energy>
    <i name="e_fr_energy">   -189.79146936 </i>
    <i name="e_wo_entrp">   -189.54904035 </i>
    <i name="e_0_energy">   -189.67025485 </i>
   </energy>
  </scstep>
  <scstep>
   <time name="dav">   31.64   31.72</time>
   <time name="total">   32.18   32.26</time>
   <energy>
    <i name="e_fr_energy">   -189.75974586 </i>
    <i name="e_wo_entrp">   -189.52726206 </i>
    <i name="e_0_energy">   -189.64350396 </i>
   </energy>
  </scstep>
  <scstep>
   <time name="dav">   31.23   31.31</time>
   <time name="total">   31.76   31.85</time>
   <energy>
    <i name="e_fr_energy">   -189.75228534 </i>
    <i name="e_wo_entrp">   -189.51764454 </i>
    <i name="e_0_energy">   -189.63496494 </i>
   </energy>
  </scstep>
  <scstep>
   <time name="dav">   26.85   26.92</time>
   <time name="total">   27.38   27.46</time>
   <energy>
    <i name="e_fr_energy">   -189.75230419 </i>
    <i name="e_wo_entrp">   -189.51788323 </i>
    <i name="e_0_energy">   -189.63509371 </i>
   </energy>
  </scstep>
  <scstep>
   <time name="dav">   26.87   26.94</time>
   <time name="total">   27.41   27.48</time>
   <energy>
    <i name="e_fr_energy">   -189.75252837 </i>
    <i name="e_wo_entrp">   -189.51801265 </i>
    <i name="e_0_energy">   -189.63527051 </i>
   </energy>
  </scstep>
  <scstep>
   <time name="dav">   26.71   26.77</time>
   <time name="total">   27.24   27.32</time>
   <energy>
    <i name="e_fr_energy">   -189.75269295 </i>
    <i name="e_wo_entrp">   -189.51802492 </i>
    <i name="e_0_energy">   -189.63535894 </i>
   </energy>
  </scstep>
  <scstep>
   <time name="dav">   25.05   25.11</time>
   <time name="total">   25.58   25.65</time>
   <energy>
    <i name="e_fr_energy">   -189.75239464 </i>
    <i name="e_wo_entrp">   -189.51771346 </i>
    <i name="e_0_energy">   -189.63505405 </i>
   </energy>
  </scstep>
  <scstep>
   <time name="dav">   17.49   17.53</time>
   <time name="total">   17.52   17.57</time>
   <energy>
    <i name="alphaZ">     82.35845390 </i>
    <i name="ewald">  41309.99769378 </i>
    <i name="hartreedc"> -47282.24745093 </i>
    <i name="XCdc">   -235.23592623 </i>
    <i name="pawpsdc">   4038.83848004 </i>
    <i name="pawaedc">  -3454.54619065 </i>
    <i name="eentropy">     -0.23462639 </i>
    <i name="bandstr">  -1410.12535894 </i>
    <i name="atom">   6761.44252427 </i>
    <i name="e_fr_energy">   -189.75240114 </i>
    <i name="e_wo_entrp">   -189.51777475 </i>
    <i name="e_0_energy">   -189.63508795 </i>
   </energy>
  </scstep>
  <structure>
   <crystal>
    <varray name="basis" >
     <v>       8.66962140       4.99741745       0.00000000 </v>
     <v>      -8.66944226       4.99710791       0.00000000 </v>
     <v>       0.00000000       0.00000000      30.00000000 </v>
    </varray>
    <i name="volume">   2599.43567176 </i>
    <varray name="rec_basis" >
     <v>       0.05767146       0.10005374       0.00000000 </v>
     <v>      -0.05767503       0.10005581       0.00000000 </v>
     <v>       0.00000000       0.00000000       0.03333333 </v>
    </varray>
   </crystal>
   <varray name="positions" >
    <v>       0.33070611       0.00002364      -0.00018266 </v>
    <v>       0.66803480       0.00033158       0.00003672 </v>
    <v>       1.00135100       0.33291001       0.00021279 </v>
    <v>       0.33176488       0.33180531       0.00009936 </v>
    <v>       0.00178561      -0.00001835       0.00003364 </v>
    <v>      -0.00057634       0.66834956      -0.00014543 </v>
    <v>       0.33126801       0.66514342      -0.00012971 </v>
    <v>       0.66664653       0.33475210       0.00009598 </v>
    <v>       0.66895246       0.66661768      -0.00003451 </v>
    <v>       0.10848434       0.22450547       0.95197150 </v>
    <v>       0.22460773       0.10863263       0.04813003 </v>
    <v>       0.10994197       0.55153488       0.95196977 </v>
    <v>       0.21793964       0.44310829       0.04820066 </v>
    <v>       0.11579783       0.89113349       0.95174896 </v>
    <v>       0.22506558       0.78173978       0.04800688 </v>
    <v>       0.44320981       0.21788952       0.95194640 </v>
    <v>       0.55402858       0.10774676       0.04670348 </v>
    <v>       0.44504994       0.55662631       0.95087764 </v>
    <v>       0.55638453       0.44493702       0.04932388 </v>
    <v>       0.44570258       0.89210957       0.95323651 </v>
    <v>       0.55715065       0.78112904       0.04797346 </v>
    <v>       0.77932750       0.22048946       0.95316116 </v>
    <v>       0.88665126       0.11336741       0.04691740 </v>
    <v>       0.77674526       0.55503286       0.95056131 </v>
    <v>       0.89007026       0.44118473       0.04791063 </v>
    <v>       0.77462020       0.89000734       0.95203623 </v>
    <v>       0.88750373       0.77712494       0.04933783 </v>
   </varray>
  </structure>
  <varray name="forces" >
   <v>      -0.32611077      -0.21717768      -0.00616297 </v>
   <v>       0.14590722       0.05250153       0.01147212 </v>
   <v>       0.25975483       0.15782463       0.01285360 </v>
   <v>      -0.05135646      -0.07255549      -0.05257121 </v>
   <v>       0.33835681       0.02239705      -0.01201107 </v>
   <v>      -0.46290555      -0.04674214       0.05269459 </v>
   <v>       0.08168191      -0.27533372      -0.06651990 </v>
   <v>      -0.45476129       0.28110947       0.08508084 </v>
   <v>       0.48188002       0.08040411      -0.00243184 </v>
   <v>      -0.13296462      -0.02547742      -0.54155903 </v>
   <v>       0.14665370       0.00111973       0.66524695 </v>
   <v>       0.05638945      -0.10506519      -0.46486529 </v>
   <v>      -0.08120932      -0.10409127       0.61787023 </v>
   <v>       0.06180871       0.15486181      -0.71265006 </v>
   <v>      -0.00663441       0.12544880       0.41507782 </v>
   <v>       0.09417739      -0.08313062      -0.47844010 </v>
   <v>       0.00624560      -0.06581999       0.21670679 </v>
   <v>      -0.02852953       0.04959050      -0.43055610 </v>
   <v>       0.00977453       0.03023470       0.59551566 </v>
   <v>      -0.02856668       0.05745363      -0.25998929 </v>
   <v>      -0.01465851       0.04269864       0.32094759 </v>
   <v>       0.04239829       0.01020228      -0.26637946 </v>
   <v>      -0.08775643       0.01419492       0.39111086 </v>
   <v>      -0.02499224      -0.02785601      -0.73593585 </v>
   <v>       0.08418214      -0.03170702       0.39996021 </v>
   <v>      -0.08279160      -0.01100868      -0.46599621 </v>
   <v>      -0.02597320      -0.01407658       0.71153110 </v>
  </varray>
  <varray name="stress" >
   <v>     -10.17521013       0.00109764       0.07150518 </v>
   <v>       0.00109778      -9.79006515      -0.01319227 </v>
   <v>       0.07150520      -0.01319222       6.54201285 </v>
  </varray>
  <energy>
   <i name="e_fr_energy">   -189.75240114 </i>
   <i name="e_wo_entrp">   -189.63508795 </i>
   <i name="e_0_energy">     -0.23462639 </i>
  </energy>
  <time name="totalsc">  376.93  377.93</time>
 </calculation>
 <calculation>
  <scstep>
   <time name="dav">   21.99   22.04</time>
   <time name="total">   22.51   22.56</time>
   <energy>
    <i name="alphaZ">     85.83394697 </i>
    <i name="ewald">  42838.23546050 </i>
    <i name="hartreedc"> -48855.05091356 </i>
    <i name="XCdc">   -232.95814987 </i>
    <i name="pawpsdc">   4038.95628252 </i>
    <i name="pawaedc">  -3454.66154422 </i>
    <i name="eentropy">     -0.19129108 </i>
    <i name="bandstr">  -1372.90209987 </i>
    <i name="atom">   6761.44252427 </i>
    <i name="e_fr_energy">   -191.29578433 </i>
    <i name="e_wo_entrp">   -191.10449325 </i>
    <i name="e_0_energy">   -191.20013879 </i>
   </energy>
  </scstep>
  <scstep>
   <time name="dav">   33.14   33.22</time>
   <time name="total">   33.66   33.75</time>
   <energy>
    <i name="e_fr_energy">   -191.18667399 </i>
    <i name="e_wo_entrp">   -190.98847631 </i>
    <i name="e_0_energy">   -191.08757515 </i>
   </energy>
  </scstep>
  <scstep>
   <time name="dav">   29.35   29.43</time>
   <time name="total">   29.86   29.95</time>
   <energy>
    <i name="e_fr_energy">   -191.23516616 </i>
    <i name="e_wo_entrp">   -191.02358826 </i>
    <i name="e_0_energy">   -191.12937721 </i>
   </energy>
  </scstep>
  <scstep>
   <time name="dav">   31.22   31.30</time>
   <time name="total">   31.74   31.83</time>
   <energy>
    <i name="e_fr_energy">   -190.90809364 </i>
    <i name="e_wo_entrp">   -190.69895139 </i>
    <i name="e_0_energy">   -190.80352252 </i>
   </energy>
  </scstep>
  <scstep>
   <time name="dav">   28.39   28.45</time>
   <time name="total">   28.91   28.98</time>
   <energy>
    <i name="e_fr_energy">   -190.89587643 </i>
    <i name="e_wo_entrp">   -190.71046209 </i>
    <i name="e_0_energy">   -190.80316926 </i>
   </energy>
  </scstep>
  <scstep>
   <time name="dav">   28.48   28.55</time>
   <time name="total">   29.00   29.08</time>
   <energy>
    <i name="e_fr_energy">   -190.71276201 </i>
    <i name="e_wo_entrp">   -190.51541644 </i>
    <i name="e_0_energy">   -190.61408922 </i>
   </energy>
  </scstep>
  <scstep>
   <time name="dav">   28.72   28.78</time>
   <time name="total">   29.23   29.31</time>
   <energy>
    <i name="e_fr_energy">   -190.71129166 </i>
    <i name="e_wo_entrp">   -190.51507015 </i>
    <i name="e_0_energy">   -190.61318090 </i>
   </energy>
  </scstep>
  <scstep>
   <time name="dav">   26.30   26.37</time>
   <time name="total">   26.83   27.12</time>
   <energy>
    <i name="e_fr_energy">   -190.70781181 </i>
    <i name="e_wo_entrp">   -190.51103123 </i>
    <i name="e_0_energy">   -190.60942152 </i>
   </energy>
  </scstep>
  <scstep>
   <time name="dav">   30.79   30.87</time>
   <time name="total">   31.31   31.40</time>
   <energy>
    <i name="e_fr_energy">   -190.70850956 </i>
    <i name="e_wo_entrp">   -190.51173168 </i>
    <i name="e_0_energy">   -190.61012062 </i>
   </energy>
  </scstep>
  <scstep>
   <time name="dav">   26.91   26.97</time>
   <time name="total">   27.43   27.50</time>
   <energy>
    <i name="e_fr_energy">   -190.70826782 </i>
    <i name="e_wo_entrp">   -190.51154614 </i>
    <i name="e_0_energy">   -190.60990698 </i>
   </energy>
  </scstep>
  <scstep>
   <time name="dav">   25.61   25.68</time>
   <time name="total">   26.13   26.20</time>
   <energy>
    <i name="e_fr_energy">   -190.70807610 </i>
    <i name="e_wo_entrp">   -190.51133392 </i>
    <i name="e_0_energy">   -190.60970501 </i>
   </energy>
  </scstep>
  <scstep>
   <time name="dav">   18.95   19.00</time>
   <time name="total">   18.99   19.04</time>
   <energy>
    <i name="alphaZ">     85.83394697 </i>
    <i name="ewald">  42838.23546050 </i>
    <i name="hartreedc"> -48826.47473004 </i>
    <i name="XCdc">   -234.29466860 </i>
    <i name="pawpsdc">   4063.15590937 </i>
    <i name="pawaedc">  -3479.02600907 </i>
    <i name="eentropy">     -0.19682583 </i>
    <i name="bandstr">  -1399.38369604 </i>
    <i name="atom">   6761.44252427 </i>
    <i name="e_fr_energy">   -190.70808846 </i>
    <i name="e_wo_entrp">   -190.51126263 </i>
    <i name="e_0_energy">   -190.60967555 </i>
   </energy>
  </scstep>
  <structure>
   <crystal>
    <varray name="basis" >
     <v>       8.48686840       4.89818745       0.00000000 </v>
     <v>      -8.48681005       4.89808706       0.00000000 </v>
     <v>       0.00000000       0.00000000      30.00000000 </v>
    </varray>
    <i name="volume">   2494.18220292 </i>
    <varray name="rec_basis" >
     <v>       0.05891414       0.10207927       0.00000000 </v>
     <v>      -0.05891535       0.10207997       0.00000000 </v>
     <v>       0.00000000       0.00000000       0.03333333 </v>
    </varray>
   </crystal>
   <varray name="positions" >
    <v>       0.32814687      -0.00016659      -0.00017411 </v>
    <v>       0.66882746       0.00003369       0.00005619 </v>
    <v>       1.00340677       0.33304882       0.00021566 </v>
    <v>       0.33123867       0.33169803      -0.00001846 </v>
    <v>       0.00308487      -0.00124185       0.00000331 </v>
    <v>      -0.00274412       0.66968240      -0.00002354 </v>
    <v>       0.32991801       0.66304352      -0.00025230 </v>
    <v>       0.66677750       0.33840236       0.00026028 </v>
    <v>       0.67118568       0.66522049      -0.00003763 </v>
    <v>       0.10771381       0.22490133       0.95043826 </v>
    <v>       0.22525319       0.10800330       0.04992965 </v>
    <v>       0.10908809       0.55033131       0.95058800 </v>
    <v>       0.21668153       0.44241530       0.04992042 </v>
    <v>       0.11719231       0.89198605       0.94983669 </v>
    <v>       0.22581175       0.78286268       0.04928087 </v>
    <v>       0.44272584       0.21672419       0.95053313 </v>
    <v>       0.55340511       0.10687077       0.04752773 </v>
    <v>       0.44518759       0.55683959       0.94952863 </v>
    <v>       0.55636031       0.44500374       0.05103868 </v>
    <v>       0.44618397       0.89302582       0.95231600 </v>
    <v>       0.55755058       0.78183142       0.04905320 </v>
    <v>       0.77976593       0.22020727       0.95223205 </v>
    <v>       0.88634352       0.11386004       0.04810932 </v>
    <v>       0.77670964       0.55503879       0.94853595 </v>
    <v>       0.89053081       0.44071757       0.04915580 </v>
    <v>       0.77430121       0.89057999       0.95065501 </v>
    <v>       0.88756754       0.77729443       0.05129113 </v>
   </varray>
  </structure>
  <varray name="forces" >
   <v>      -0.27349456      -0.19855984       0.04798276 </v>
   <v>       0.12662861       0.02713565       0.00432551 </v>
   <v>       0.31301886       0.17134652      -0.04307055 </v>
   <v>      -0.08582657      -0.04024325      -0.03100638 </v>
   <v>       0.32738525      -0.02611345      -0.01235879 </v>
   <v>      -0.53703489      -0.10891316       0.02331824 </v>
   <v>       0.10936258      -0.25828294      -0.02018271 </v>
   <v>      -0.45973456       0.31412985       0.02206435 </v>
   <v>       0.52970655       0.09403803       0.01006307 </v>
   <v>      -0.00792691      -0.04281548      -0.37378248 </v>
   <v>       0.03760829      -0.00026954       0.44741090 </v>
   <v>      -0.04348751      -0.07279813      -0.25886130 </v>
   <v>      -0.00293529      -0.06948737       0.46791383 </v>
   <v>       0.02231584       0.03649580      -0.54919904 </v>
   <v>      -0.02826509       0.00696438       0.22033847 </v>
   <v>       0.02641286      -0.01865682      -0.30685101 </v>
   <v>      -0.05578959      -0.00231853       0.09698366 </v>
   <v>       0.03180236       0.03117397      -0.26941481 </v>
   <v>      -0.06892892      -0.01275379       0.46199444 </v>
   <v>      -0.02438015      -0.00001778      -0.18015096 </v>
   <v>       0.03636148      -0.00983507       0.16928871 </v>
   <v>      -0.02317176       0.03155386      -0.13598600 </v>
   <v>       0.03305925       0.02918217       0.31877900 </v>
   <v>       0.02018837       0.03195765      -0.60083087 </v>
   <v>      -0.00175798       0.02260238       0.24525259 </v>
   <v>       0.03560974       0.02047008      -0.30162035 </v>
   <v>      -0.03672624       0.04401483       0.54759971 </v>
  </varray>
  <varray name="stress" >
   <v>      -5.70159535       0.01947387      -0.12523233 </v>
   <v>       0.01947390      -5.90712372      -0.00804564 </v>
   <v>      -0.12523228      -0.00804568       4.52072497 </v>
  </varray>
  <energy>
   <i name="e_fr_energy">   -190.70808846 </i>
   <i name="e_wo_entrp">   -190.60967555 </i>
   <i name="e_0_energy">     -0.19682583 </i>
  </energy>
  <time name="totalsc">  378.28  379.51</time>
 </calculation>
 <calculation>
  <scstep>
   <time name="dav">   22.07   22.12</time>
   <time name="total">   22.58   22.64</time>
   <energy>
    <i name="alphaZ">     90.25216750 </i>
    <i name="ewald">  44705.21250606 </i>
    <i name="hartreedc"> -50749.30491258 </i>
    <i name="XCdc">   -231.76724242 </i>
    <i name="pawpsdc">   4063.12266606 </i>
    <i name="pawaedc">  -3478.98894804 </i>
    <i name="eentropy">     -0.17770047 </i>
    <i name="bandstr">  -1351.89090663 </i>
    <i name="atom">   6761.44252427 </i>
    <i name="e_fr_energy">   -192.09984625 </i>
    <i name="e_wo_entrp">   -191.92214578 </i>
    <i name="e_0_energy">   -192.01099602 </i>
   </energy>
  </scstep>
  <scstep>
   <time name="dav">   30.58   30.66</time>
   <time name="total">   31.09   31.18</time>
   <energy>
    <i name="e_fr_energy">   -191.94066417 </i>
    <i name="e_wo_entrp">   -191.74184936 </i>
    <i name="e_0_energy">   -191.84125677 </i>
   </energy>
  </scstep>
  <scstep>
   <time name="dav">   30.58   30.65</time>
   <time name="total">   31.08   31.17</time>
   <energy>
    <i name="e_fr_energy">   -192.38462172 </i>
    <i name="e_wo_entrp">   -192.19338490 </i>
    <i name="e_0_energy">   -192.28900331 </i>
   </energy>
  </scstep>
  <scstep>
   <time name="dav">   30.62   30.69</time>
   <time name="total">   31.13   31.21</time>
   <energy>
    <i name="e_fr_energy">   -191.53306647 </i>
    <i name="e_wo_entrp">   -191.35269042 </i>
    <i name="e_0_energy">   -191.44287844 </i>
   </energy>
  </scstep>
  <scstep>
   <time name="dav">   29.70   29.77</time>
   <time name="total">   30.21   30.29</time>
   <energy>
    <i name="e_fr_energy">   -191.50606377 </i>
    <i name="e_wo_entrp">   -191.30933847 </i>
    <i name="e_0_energy">   -191.40770112 </i>
   </energy>
  </scstep>
  <scstep>
   <time name="dav">   30.48   30.56</time>
   <time name="total">   31.00   31.08</time>
   <energy>
    <i name="e_fr_energy">   -191.37039474 </i>
    <i name="e_wo_entrp">   -191.18773665 </i>
    <i name="e_0_energy">   -191.27906569 </i>
   </energy>
  </scstep>
  <scstep>
   <time name="dav">   29.95   30.02</time>
   <time name="total">   30.46   30.54</time>
   <energy>
    <i name="e_fr_energy">   -191.34658743 </i>
    <i name="e_wo_entrp">   -191.16140985 </i>
    <i name="e_0_energy">   -191.25399864 </i>
   </energy>
  </scstep>
  <scstep>
   <time name="dav">   30.28   30.35</time>
   <time name="total">   30.79   30.87</time>
   <energy>
    <i name="e_fr_energy">   -191.34521068 </i>
    <i name="e_wo_entrp">   -191.15836191 </i>
    <i name="e_0_energy">   -191.25178630 </i>
   </energy>
  </scstep>
  <scstep>
   <time name="dav">   28.94   29.01</time>
   <time name="total">   29.45   29.53</time>
   <energy>
    <i name="e_fr_energy">   -191.33964553 </i>
    <i name="e_wo_entrp">   -191.15367858 </i>
    <i name="e_0_energy">   -191.24666206 </i>
   </energy>
  </scstep>
  <scstep>
   <time name="dav">   29.32   29.39</time>
   <time name="total">   29.83   29.90</time>
   <energy>
    <i name="e_fr_energy">   -191.33978516 </i>
    <i name="e_wo_entrp">   -191.15353769 </i>
    <i name="e_0_energy">   -191.24666143 </i>
   </energy>
  </scstep>
  <scstep>
   <time name="dav">   27.44   27.50</time>
   <time name="total">   27.94   28.02</time>
   <energy>
    <i name="e_fr_energy">   -191.33966318 </i>
    <i name="e_wo_entrp">   -191.15310745 </i>
    <i name="e_0_energy">   -191.24638532 </i>
   </energy>
  </scstep>
  <scstep>
   <time name="dav">   20.19   20.24</time>
   <time name="total">   20.23   20.28</time>
   <energy>
    <i name="alphaZ">     90.25216750 </i>
    <i name="ewald">  44705.21250606 </i>
    <i name="hartreedc"> -50714.76054966 </i>
    <i name="XCdc">   -233.33155621 </i>
    <i name="pawpsdc">   4085.43236045 </i>
    <i name="pawaedc">  -3501.38459354 </i>
    <i name="eentropy">     -0.18643561 </i>
    <i name="bandstr">  -1384.01605048 </i>
    <i name="atom">   6761.44252427 </i>
    <i name="e_fr_energy">   -191.33962722 </i>
    <i name="e_wo_entrp">   -191.15319160 </i>
    <i name="e_0_energy">   -191.24640941 </i>
   </energy>
  </scstep>
  <structure>
   <crystal>
    <varray name="basis" >
     <v>       8.28169303       4.77493336       0.00000000 </v>
     <v>      -8.28066351       4.77315073       0.00000000 </v>
     <v>       0.00000000       0.00000000      30.00000000 </v>
    </varray>
    <i name="volume">   2372.08156730 </i>
    <varray name="rec_basis" >
     <v>       0.06036661       0.10472654       0.00000000 </v>
     <v>      -0.06038915       0.10473956       0.00000000 </v>
     <v>       0.00000000       0.00000000       0.03333333 </v>
    </varray>
   </crystal>
   <varray name="positions" >
    <v>       0.32366872      -0.00065543       0.00001344 </v>
    <v>       0.67004461      -0.00062158       0.00007236 </v>
    <v>       1.00780084       0.33306516       0.00004590 </v>
    <v>       0.33024795       0.33191211      -0.00016430 </v>
    <v>       0.00510079      -0.00397400      -0.00005222 </v>
    <v>      -0.00794328       0.67212755       0.00010013 </v>
    <v>       0.32756080       0.65900603      -0.00034026 </v>
    <v>       0.66734065       0.34573702       0.00036845 </v>
    <v>       0.67600918       0.66246148      -0.00000186 </v>
    <v>       0.10689053       0.22466748       0.94837867 </v>
    <v>       0.22574847       0.10750845       0.05232222 </v>
    <v>       0.10746806       0.54920240       0.94895903 </v>
    <v>       0.21531479       0.44121523       0.05237978 </v>
    <v>       0.11826453       0.89255641       0.94704941 </v>
    <v>       0.22589623       0.78368558       0.05074439 </v>
    <v>       0.44229167       0.21578497       0.94872674 </v>
    <v>       0.55266585       0.10656338       0.04841295 </v>
    <v>       0.44568729       0.55685384       0.94783722 </v>
    <v>       0.55557511       0.44523045       0.05351332 </v>
    <v>       0.44636184       0.89382073       0.95111187 </v>
    <v>       0.55793973       0.78203025       0.05029035 </v>
    <v>       0.78027193       0.22043749       0.95118287 </v>
    <v>       0.88670307       0.11417495       0.04986363 </v>
    <v>       0.77736667       0.55533602       0.94548248 </v>
    <v>       0.89119781       0.44087591       0.05070042 </v>
    <v>       0.77469545       0.89103559       0.94888063 </v>
    <v>       0.88804516       0.77817697       0.05412230 </v>
   </varray>
  </structure>
  <varray name="forces" >
   <v>      -0.16229081      -0.11810375      -0.00090824 </v>
   <v>       0.08147181       0.02531394       0.00106866 </v>
   <v>       0.41249669       0.06685341      -0.01299540 </v>
   <v>      -0.11953326      -0.00358889       0.02975880 </v>
   <v>       0.09272228      -0.04722709       0.01995921 </v>
   <v>      -0.32962641      -0.09007244      -0.05684652 </v>
   <v>       0.16640882      -0.13979048      -0.01297715 </v>
   <v>      -0.27693905       0.19675804      -0.01967773 </v>
   <v>       0.24563258       0.07480430       0.07972250 </v>
   <v>       0.13608503      -0.05027988      -0.11482136 </v>
   <v>      -0.05547213       0.00284072       0.09260953 </v>
   <v>      -0.14768171      -0.02475583       0.07715448 </v>
   <v>       0.07025232      -0.02431469       0.16748610 </v>
   <v>      -0.01396766      -0.08220753      -0.16876638 </v>
   <v>      -0.03253213      -0.15939176      -0.06538913 </v>
   <v>      -0.04749376       0.06252982      -0.00775564 </v>
   <v>      -0.14256244       0.09703490      -0.12289426 </v>
   <v>       0.08861791       0.07549445      -0.00444017 </v>
   <v>      -0.12813368      -0.01303979       0.18613488 </v>
   <v>      -0.01545763      -0.08329488       0.06115196 </v>
   <v>       0.15039024      -0.07996192      -0.06822632 </v>
   <v>      -0.10456198       0.07005143       0.10452014 </v>
   <v>       0.13074894       0.05449765       0.04527789 </v>
   <v>       0.02017399       0.07880792      -0.34926226 </v>
   <v>      -0.11117022       0.06366313      -0.08472894 </v>
   <v>       0.17098200      -0.00957806      -0.02692368 </v>
   <v>      -0.07855973       0.05695726       0.25176904 </v>
  </varray>
  <varray name="stress" >
   <v>       0.19594107      -0.03267301      -0.31659171 </v>
   <v>      -0.03267294      -0.30407025      -0.04216364 </v>
   <v>      -0.31659186      -0.04216366      -0.26739957 </v>
  </varray>
  <energy>
   <i name="e_fr_energy">   -191.33962722 </i>
   <i name="e_wo_entrp">   -191.24640941 </i>
   <i name="e_0_energy">     -0.18643561 </i>
  </energy>
  <time name="totalsc">  388.67  389.69</time>
 </calculation>
 <calculation>
  <scstep>
   <time name="dav">   22.00   22.06</time>
   <time name="total">   22.51   22.57</time>
   <energy>
    <i name="alphaZ">     90.27598078 </i>
    <i name="ewald">  44694.98979361 </i>
    <i name="hartreedc"> -50705.54677258 </i>
    <i name="XCdc">   -233.40080788 </i>
    <i name="pawpsdc">   4085.31587233 </i>
    <i name="pawaedc">  -3501.26366670 </i>
    <i name="eentropy">     -0.18927941 </i>
    <i name="bandstr">  -1383.01361630 </i>
    <i name="atom">   6761.44252427 </i>
    <i name="e_fr_energy">   -191.38997186 </i>
    <i name="e_wo_entrp">   -191.20069245 </i>
    <i name="e_0_energy">   -191.29533216 </i>
   </energy>
  </scstep>
  <scstep>
   <time name="dav">   31.31   31.38</time>
   <time name="total">   31.82   31.90</time>
   <energy>
    <i name="e_fr_energy">   -191.44682147 </i>
    <i name="e_wo_entrp">   -191.24595103 </i>
    <i name="e_0_energy">   -191.34638625 </i>
   </energy>
  </scstep>
  <scstep>
   <time name="dav">   30.12   30.20</time>
   <time name="total">   30.63   30.71</time>
   <energy>
    <i name="e_fr_energy">   -191.39973812 </i>
    <i name="e_wo_entrp">   -191.21000243 </i>
    <i name="e_0_energy">   -191.30487028 </i>
   </energy>
  </scstep>
  <scstep>
   <time name="dav">   28.94   29.01</time>
   <time name="total">   29.45   29.53</time>
   <energy>
    <i name="e_fr_energy">   -191.40002606 </i>
    <i name="e_wo_entrp">   -191.20887195 </i>
    <i name="e_0_energy">   -191.30444901 </i>
   </energy>
  </scstep>
  <scstep>
   <time name="dav">   28.92   28.99</time>
   <time name="total">   29.43   29.50</time>
   <energy>
    <i name="e_fr_energy">   -191.39680913 </i>
    <i name="e_wo_entrp">   -191.20585168 </i>
    <i name="e_0_energy">   -191.30133041 </i>
   </energy>
  </scstep>
  <scstep>
   <time name="dav">   28.74   28.81</time>
   <time name="total">   29.25   29.32</time>
   <energy>
    <i name="e_fr_energy">   -191.39686907 </i>
    <i name="e_wo_entrp">   -191.20563633 </i>
    <i name="e_0_energy">   -191.30125270 </i>
   </energy>
  </scstep>
  <scstep>
   <time name="dav">   28.05   28.12</time>
   <time name="total">   28.56   28.64</time>
   <energy>
    <i name="e_fr_energy">   -191.39685266 </i>
    <i name="e_wo_entrp">   -191.20585669 </i>
    <i name="e_0_energy">   -191.30135468 </i>
   </energy>
  </scstep>
  <scstep>
   <time name="dav">   24.93   24.99</time>
   <time name="total">   25.44   25.51</time>
   <energy>
    <i name="e_fr_energy">   -191.39639174 </i>
    <i name="e_wo_entrp">   -191.20534943 </i>
    <i name="e_0_energy">   -191.30087058 </i>
   </energy>
  </scstep>
  <scstep>
   <time name="dav">   18.32   18.36</time>
   <time name="total">   18.35   18.41</time>
   <energy>
    <i name="alphaZ">     90.27598078 </i>
    <i name="ewald">  44694.98979361 </i>
    <i name="hartreedc"> -50706.29896470 </i>
    <i name="XCdc">   -233.38813883 </i>
    <i name="pawpsdc">   4082.79683499 </i>
    <i name="pawaedc">  -3498.70401677 </i>
    <i name="eentropy">     -0.19104830 </i>
    <i name="bandstr">  -1382.31937237 </i>
    <i name="atom">   6761.44252427 </i>
    <i name="e_fr_energy">   -191.39640732 </i>
    <i name="e_wo_entrp">   -191.20535902 </i>
    <i name="e_0_energy">   -191.30088317 </i>
   </energy>
  </scstep>
  <structure>
   <crystal>
    <varray name="basis" >
     <v>       8.28565740       4.77043692       0.00000000 </v>
     <v>      -8.28545213       4.77008640       0.00000000 </v>
     <v>       0.00000000       0.00000000      30.00000000 </v>
    </varray>
    <i name="volume">   2371.45585230 </i>
    <varray name="rec_basis" >
     <v>       0.06034377       0.10481475       0.00000000 </v>
     <v>      -0.06034821       0.10481735       0.00000000 </v>
     <v>       0.00000000       0.00000000       0.03333333 </v>
    </varray>
   </crystal>
   <varray name="positions" >
    <v>       0.32260418      -0.00077887       0.00001184 </v>
    <v>       0.67040840      -0.00073035       0.00007407 </v>
    <v>       1.00933461       0.33220223       0.00002516 </v>
    <v>       0.32988286       0.33224159      -0.00011638 </v>
    <v>       0.00513065      -0.00448001      -0.00002012 </v>
    <v>      -0.00935257       0.67263027       0.00000872 </v>
    <v>       0.32734120       0.65781948      -0.00036104 </v>
    <v>       0.66752757       0.34753012       0.00033675 </v>
    <v>       0.67709748       0.66212644       0.00012615 </v>
    <v>       0.10703338       0.22401783       0.94819610 </v>
    <v>       0.22560097       0.10768468       0.05246885 </v>
    <v>       0.10691503       0.54950830       0.94908447 </v>
    <v>       0.21539771       0.44088920       0.05264662 </v>
    <v>       0.11780805       0.89218161       0.94678076 </v>
    <v>       0.22499717       0.78297497       0.05063797 </v>
    <v>       0.44246958       0.21623970       0.94871594 </v>
    <v>       0.55274155       0.10746845       0.04821465 </v>
    <v>       0.44632566       0.55697704       0.94783168 </v>
    <v>       0.55513729       0.44553735       0.05381008 </v>
    <v>       0.44589627       0.89344444       0.95121123 </v>
    <v>       0.55797324       0.78118869       0.05017956 </v>
    <v>       0.78032076       0.22109524       0.95135179 </v>
    <v>       0.88735820       0.11406921       0.04993478 </v>
    <v>       0.77782245       0.55567478       0.94492417 </v>
    <v>       0.89119500       0.44152061       0.05056289 </v>
    <v>       0.77514419       0.89048918       0.94883901 </v>
    <v>       0.88810360       0.77869228       0.05452420 </v>
   </varray>
  </structure>
  <varray name="forces" >
   <v>      -0.15765375      -0.12640708       0.00390341 </v>
   <v>       0.07674238       0.03482618      -0.02268831 </v>
   <v>       0.42503655       0.04024324      -0.01960048 </v>
   <v>      -0.12622736      -0.00443992       0.01614702 </v>
   <v>       0.09022804      -0.04393511       0.01454261 </v>
   <v>      -0.36970157      -0.06951798      -0.01590918 </v>
   <v>       0.18770956      -0.14179635      -0.03020827 </v>
   <v>      -0.31344882       0.20131998      -0.00941725 </v>
   <v>       0.27242734       0.07726970       0.02933824 </v>
   <v>       0.09933646      -0.02863727      -0.09661701 </v>
   <v>      -0.02626410       0.00669899       0.05746076 </v>
   <v>      -0.08570858      -0.03511669       0.11250896 </v>
   <v>       0.05170347      -0.02343070       0.14778964 </v>
   <v>      -0.02447856      -0.04459518      -0.12419518 </v>
   <v>      -0.01151843      -0.11468811      -0.10450467 </v>
   <v>      -0.04328575       0.03649643       0.01184356 </v>
   <v>      -0.10141587       0.06878618      -0.14535129 </v>
   <v>       0.06197655       0.06010362       0.01641938 </v>
   <v>      -0.08296567      -0.00809169       0.11997965 </v>
   <v>      -0.00867682      -0.06140303       0.09825490 </v>
   <v>       0.09508234      -0.05095442      -0.04669391 </v>
   <v>      -0.06429714       0.05652427       0.12922843 </v>
   <v>       0.08287445       0.03969167       0.03988664 </v>
   <v>      -0.02549314       0.04805418      -0.23018369 </v>
   <v>      -0.05771497       0.05110360      -0.12695806 </v>
   <v>       0.10638663      -0.01382195      -0.00328324 </v>
   <v>      -0.05065325       0.04571745       0.17830734 </v>
  </varray>
  <varray name="stress" >
   <v>      -0.05526854       0.01698477      -0.12443511 </v>
   <v>       0.01698475      -0.13952406      -0.00344346 </v>
   <v>      -0.12443488      -0.00344353      -0.99058681 </v>
  </varray>
  <energy>
   <i name="e_fr_energy">   -191.39640732 </i>
   <i name="e_wo_entrp">   -191.30088317 </i>
   <i name="e_0_energy">     -0.19104830 </i>
  </energy>
  <time name="totalsc">  287.71  288.47</time>
 </calculation>
 <calculation>
  <scstep>
   <time name="dav">   22.02   22.08</time>
   <time name="total">   22.54   22.59</time>
   <energy>
    <i name="alphaZ">     90.39510752 </i>
    <i name="ewald">  44738.34840868 </i>
    <i name="hartreedc"> -50751.21473506 </i>
    <i name="XCdc">   -233.35148795 </i>
    <i name="pawpsdc">   4082.73638469 </i>
    <i name="pawaedc">  -3498.64248943 </i>
    <i name="eentropy">     -0.19072594 </i>
    <i name="bandstr">  -1380.99052683 </i>
    <i name="atom">   6761.44252427 </i>
    <i name="e_fr_energy">   -191.46754004 </i>
    <i name="e_wo_entrp">   -191.27681410 </i>
    <i name="e_0_energy">   -191.37217707 </i>
   </energy>
  </scstep>
  <scstep>
   <time name="dav">   32.36   32.43</time>
   <time name="total">   32.86   32.95</time>
   <energy>
    <i name="e_fr_energy">   -191.59149930 </i>
    <i name="e_wo_entrp">   -191.37164789 </i>
    <i name="e_0_energy">   -191.48157359 </i>
   </energy>
  </scstep>
  <scstep>
   <time name="dav">   30.08   30.15</time>
   <time name="total">   30.59   30.67</time>
   <energy>
    <i name="e_fr_energy">   -191.48506287 </i>
    <i name="e_wo_entrp">   -191.29300563 </i>
    <i name="e_0_energy">   -191.38903425 </i>
   </energy>
  </scstep>
  <scstep>
   <time name="dav">   29.31   29.38</time>
   <time name="total">   29.81   29.89</time>
   <energy>
    <i name="e_fr_energy">   -191.48412547 </i>
    <i name="e_wo_entrp">   -191.29012047 </i>
    <i name="e_0_energy">   -191.38712297 </i>
   </energy>
  </scstep>
  <scstep>
   <time name="dav">   29.46   29.53</time>
   <time name="total">   29.97   30.05</time>
   <energy>
    <i name="e_fr_energy">   -191.47591926 </i>
    <i name="e_wo_entrp">   -191.28145383 </i>
    <i name="e_0_energy">   -191.37868654 </i>
   </energy>
  </scstep>
  <scstep>
   <time name="dav">   28.64   28.71</time>
   <time name="total">   29.14   29.22</time>
   <energy>
    <i name="e_fr_energy">   -191.47602671 </i>
    <i name="e_wo_entrp">   -191.28078374 </i>
    <i name="e_0_energy">   -191.37840523 </i>
   </energy>
  </scstep>
  <scstep>
[...]
      <set comment="kpoint 31">
       <r>  -17.5902    1.0000 </r>
       <r>  -17.2452    1.0000 </r>
       <r>  -16.9229    1.0000 </r>
       <r>  -16.7072    1.0000 </r>
       <r>  -16.5091    1.0000 </r>
       <r>  -16.4664    1.0000 </r>
       <r>  -16.3511    1.0000 </r>
       <r>  -16.2252    1.0000 </r>
       <r>  -16.1459    1.0000 </r>
       <r>  -16.0059    1.0000 </r>
       <r>  -15.9181    1.0000 </r>
       <r>  -15.8615    1.0000 </r>
       <r>  -15.7348    1.0000 </r>
       <r>  -15.6325    1.0000 </r>
       <r>  -15.5548    1.0000 </r>
       <r>  -15.4190    1.0000 </r>
       <r>  -15.3541    1.0000 </r>
       <r>  -15.2479    1.0000 </r>
       <r>   -9.8075    1.0000 </r>
       <r>   -9.4922    1.0000 </r>
       <r>   -9.3931    1.0000 </r>
       <r>   -9.0987    1.0000 </r>
       <r>   -8.8456    1.0000 </r>
       <r>   -8.6952    1.0000 </r>
       <r>   -8.5805    1.0000 </r>
       <r>   -8.4942    1.0000 </r>
       <r>   -8.3969    1.0000 </r>
       <r>   -8.3268    1.0000 </r>
       <r>   -8.2694    1.0000 </r>
       <r>   -8.2095    1.0000 </r>
       <r>   -8.1199    1.0000 </r>
       <r>   -8.0844    1.0000 </r>
       <r>   -7.9680    1.0000 </r>
       <r>   -7.8876    1.0000 </r>
       <r>   -7.8141    1.0000 </r>
       <r>   -7.6998    1.0000 </r>
       <r>   -7.5767    1.0000 </r>
       <r>   -7.5210    1.0000 </r>
       <r>   -7.4056    1.0000 </r>
       <r>   -7.2061    1.0000 </r>
       <r>   -7.1553    1.0000 </r>
       <r>   -7.0708    1.0000 </r>
       <r>   -7.0189    1.0000 </r>
       <r>   -6.9608    1.0000 </r>
       <r>   -6.9082    1.0000 </r>
       <r>   -6.7785    1.0000 </r>
       <r>   -6.6535    1.0000 </r>
       <r>   -6.5812    1.0000 </r>
       <r>   -6.5360    1.0000 </r>
       <r>   -6.4230    1.0000 </r>
       <r>   -6.3682    1.0000 </r>
       <r>   -6.3296    1.0000 </r>
       <r>   -6.2501    1.0000 </r>
       <r>   -6.1559    1.0000 </r>
       <r>   -6.0910    1.0000 </r>
       <r>   -6.0254    1.0000 </r>
       <r>   -5.9628    1.0000 </r>
       <r>   -5.9141    1.0000 </r>
       <r>   -5.8812    1.0000 </r>
       <r>   -5.6862    1.0000 </r>
       <r>   -5.6439    1.0000 </r>
       <r>   -5.5304    1.0000 </r>
       <r>   -5.4990    1.0000 </r>
       <r>   -5.3779    1.0000 </r>
       <r>   -5.2587    1.0000 </r>
       <r>   -5.2234    1.0000 </r>
       <r>   -4.9370    1.0000 </r>
       <r>   -4.8506    1.0000 </r>
       <r>   -4.7712    1.0000 </r>
       <r>   -4.7513    1.0000 </r>
       <r>   -4.4979    1.0000 </r>
       <r>   -4.4403    1.0000 </r>
       <r>   -4.3001    1.0000 </r>
       <r>   -4.1433    1.0000 </r>
       <r>   -4.0558    1.0000 </r>
       <r>   -3.9842    1.0000 </r>
       <r>   -3.8899    1.0000 </r>
       <r>   -3.7285    0.9994 </r>
       <r>   -3.5723    0.9845 </r>
       <r>   -3.2554    0.4667 </r>
       <r>   -3.0187    0.0394 </r>
       <r>   -2.8606    0.0020 </r>
       <r>   -2.7067    0.0000 </r>
       <r>   -2.5658    0.0000 </r>
       <r>   -2.5255    0.0000 </r>
       <r>   -2.4321    0.0000 </r>
       <r>   -2.1891    0.0000 </r>
       <r>   -2.1148    0.0000 </r>
       <r>   -2.0480    0.0000 </r>
       <r>   -1.8808    0.0000 </r>
       <r>   -1.6887    0.0000 </r>
       <r>   -1.5112    0.0000 </r>
       <r>   -1.3466    0.0000 </r>
       <r>   -1.2699    0.0000 </r>
       <r>   -1.1987    0.0000 </r>
       <r>   -1.1695    0.0000 </r>
       <r>   -1.0664    0.0000 </r>
       <r>   -0.9539    0.0000 </r>
       <r>   -0.9084    0.0000 </r>
       <r>   -0.8776    0.0000 </r>
       <r>   -0.7665    0.0000 </r>
       <r>   -0.7167    0.0000 </r>
       <r>   -0.6661    0.0000 </r>
       <r>   -0.5959    0.0000 </r>
       <r>   -0.4672    0.0000 </r>
       <r>   -0.2418    0.0000 </r>
       <r>   -0.1355    0.0000 </r>
       <r>   -0.1280    0.0000 </r>
       <r>   -0.0143    0.0000 </r>
       <r>    0.0943    0.0000 </r>
       <r>    0.3028    0.0000 </r>
       <r>    0.6486    0.0000 </r>
       <r>    0.7207    0.0000 </r>
       <r>    1.1074    0.0000 </r>
       <r>    1.1659    0.0000 </r>
       <r>    1.3120    0.0000 </r>
       <r>    1.4339    0.0000 </r>
       <r>    2.1424    0.0000 </r>
       <r>    2.3179    0.0000 </r>
       <r>    2.4002    0.0000 </r>
      </set>
      <set comment="kpoint 32">
       <r>  -17.6016    1.0000 </r>
       <r>  -17.1592    1.0000 </r>
       <r>  -17.0505    1.0000 </r>
       <r>  -16.7169    1.0000 </r>
       <r>  -16.4686    1.0000 </r>
       <r>  -16.3983    1.0000 </r>
       <r>  -16.2959    1.0000 </r>
       <r>  -16.2326    1.0000 </r>
       <r>  -16.1922    1.0000 </r>
       <r>  -16.0252    1.0000 </r>
       <r>  -15.9322    1.0000 </r>
       <r>  -15.8632    1.0000 </r>
       <r>  -15.7398    1.0000 </r>
       <r>  -15.6321    1.0000 </r>
       <r>  -15.5880    1.0000 </r>
       <r>  -15.4573    1.0000 </r>
       <r>  -15.3353    1.0000 </r>
       <r>  -15.2040    1.0000 </r>
       <r>   -9.7076    1.0000 </r>
       <r>   -9.5807    1.0000 </r>
       <r>   -9.4964    1.0000 </r>
       <r>   -9.1296    1.0000 </r>
       <r>   -8.7653    1.0000 </r>
       <r>   -8.5473    1.0000 </r>
       <r>   -8.4814    1.0000 </r>
       <r>   -8.4260    1.0000 </r>
       <r>   -8.3807    1.0000 </r>
       <r>   -8.3555    1.0000 </r>
       <r>   -8.2933    1.0000 </r>
       <r>   -8.2702    1.0000 </r>
       <r>   -8.2101    1.0000 </r>
       <r>   -8.1268    1.0000 </r>
       <r>   -8.0046    1.0000 </r>
       <r>   -7.9145    1.0000 </r>
       <r>   -7.8564    1.0000 </r>
       <r>   -7.7169    1.0000 </r>
       <r>   -7.5743    1.0000 </r>
       <r>   -7.4703    1.0000 </r>
       <r>   -7.3733    1.0000 </r>
       <r>   -7.2255    1.0000 </r>
       <r>   -7.1482    1.0000 </r>
       <r>   -7.0772    1.0000 </r>
       <r>   -7.0569    1.0000 </r>
       <r>   -6.9423    1.0000 </r>
       <r>   -6.9080    1.0000 </r>
       <r>   -6.8026    1.0000 </r>
       <r>   -6.6653    1.0000 </r>
       <r>   -6.5474    1.0000 </r>
       <r>   -6.4593    1.0000 </r>
       <r>   -6.3937    1.0000 </r>
       <r>   -6.3503    1.0000 </r>
       <r>   -6.3094    1.0000 </r>
       <r>   -6.3011    1.0000 </r>
       <r>   -6.1911    1.0000 </r>
       <r>   -6.1072    1.0000 </r>
       <r>   -6.0254    1.0000 </r>
       <r>   -5.9795    1.0000 </r>
       <r>   -5.8418    1.0000 </r>
       <r>   -5.8185    1.0000 </r>
       <r>   -5.6849    1.0000 </r>
       <r>   -5.6258    1.0000 </r>
       <r>   -5.5676    1.0000 </r>
       <r>   -5.4959    1.0000 </r>
       <r>   -5.3984    1.0000 </r>
       <r>   -5.3674    1.0000 </r>
       <r>   -5.1887    1.0000 </r>
       <r>   -5.1391    1.0000 </r>
       <r>   -4.8166    1.0000 </r>
       <r>   -4.7204    1.0000 </r>
       <r>   -4.6841    1.0000 </r>
       <r>   -4.4788    1.0000 </r>
       <r>   -4.3650    1.0000 </r>
       <r>   -4.3221    1.0000 </r>
       <r>   -4.1775    1.0000 </r>
       <r>   -4.1427    1.0000 </r>
       <r>   -4.0648    1.0000 </r>
       <r>   -3.9647    1.0000 </r>
       <r>   -3.7025    0.9990 </r>
       <r>   -3.5639    0.9820 </r>
       <r>   -3.1470    0.1976 </r>
       <r>   -2.9446    0.0113 </r>
       <r>   -2.7836    0.0003 </r>
       <r>   -2.7397    0.0001 </r>
       <r>   -2.5409    0.0000 </r>
       <r>   -2.4720    0.0000 </r>
       <r>   -2.4317    0.0000 </r>
       <r>   -2.1184    0.0000 </r>
       <r>   -2.0737    0.0000 </r>
       <r>   -1.9909    0.0000 </r>
       <r>   -1.9367    0.0000 </r>
       <r>   -1.6872    0.0000 </r>
       <r>   -1.5905    0.0000 </r>
       <r>   -1.3889    0.0000 </r>
       <r>   -1.3434    0.0000 </r>
       <r>   -1.2562    0.0000 </r>
       <r>   -1.1984    0.0000 </r>
       <r>   -1.0290    0.0000 </r>
       <r>   -0.9822    0.0000 </r>
       <r>   -0.9569    0.0000 </r>
       <r>   -0.8919    0.0000 </r>
       <r>   -0.7795    0.0000 </r>
       <r>   -0.7256    0.0000 </r>
       <r>   -0.6143    0.0000 </r>
       <r>   -0.5671    0.0000 </r>
       <r>   -0.3797    0.0000 </r>
       <r>   -0.2352    0.0000 </r>
       <r>   -0.1282    0.0000 </r>
       <r>   -0.0530    0.0000 </r>
       <r>    0.0571    0.0000 </r>
       <r>    0.1329    0.0000 </r>
       <r>    0.3528    0.0000 </r>
       <r>    0.5865    0.0000 </r>
       <r>    0.6864    0.0000 </r>
       <r>    1.0795    0.0000 </r>
       <r>    1.1010    0.0000 </r>
       <r>    1.2579    0.0000 </r>
       <r>    1.3145    0.0000 </r>
       <r>    2.1027    0.0000 </r>
       <r>    2.2904    0.0000 </r>
       <r>    2.5477    0.0000 </r>
      </set>
      <set comment="kpoint 33">
       <r>  -17.5948    1.0000 </r>
       <r>  -17.2496    1.0000 </r>
       <r>  -16.9098    1.0000 </r>
       <r>  -16.7243    1.0000 </r>
       <r>  -16.4973    1.0000 </r>
       <r>  -16.4319    1.0000 </r>
       <r>  -16.3633    1.0000 </r>
       <r>  -16.2512    1.0000 </r>
       <r>  -16.0977    1.0000 </r>
       <r>  -16.0024    1.0000 </r>
       <r>  -15.9063    1.0000 </r>
       <r>  -15.8580    1.0000 </r>
       <r>  -15.7456    1.0000 </r>
       <r>  -15.6289    1.0000 </r>
       <r>  -15.6192    1.0000 </r>
       <r>  -15.5223    1.0000 </r>
       <r>  -15.2957    1.0000 </r>
       <r>  -15.1969    1.0000 </r>
       <r>   -9.7547    1.0000 </r>
       <r>   -9.4826    1.0000 </r>
       <r>   -9.4334    1.0000 </r>
       <r>   -9.1368    1.0000 </r>
       <r>   -8.9225    1.0000 </r>
       <r>   -8.7132    1.0000 </r>
       <r>   -8.4689    1.0000 </r>
       <r>   -8.4021    1.0000 </r>
       <r>   -8.3515    1.0000 </r>
       <r>   -8.3246    1.0000 </r>
       <r>   -8.2743    1.0000 </r>
       <r>   -8.2414    1.0000 </r>
       <r>   -8.1983    1.0000 </r>
       <r>   -8.1113    1.0000 </r>
       <r>   -8.0269    1.0000 </r>
       <r>   -7.9045    1.0000 </r>
       <r>   -7.7571    1.0000 </r>
       <r>   -7.6794    1.0000 </r>
       <r>   -7.6613    1.0000 </r>
       <r>   -7.4062    1.0000 </r>
       <r>   -7.2954    1.0000 </r>
       <r>   -7.2651    1.0000 </r>
       <r>   -7.1762    1.0000 </r>
       <r>   -7.0950    1.0000 </r>
       <r>   -7.0536    1.0000 </r>
       <r>   -6.9029    1.0000 </r>
       <r>   -6.8548    1.0000 </r>
       <r>   -6.7331    1.0000 </r>
       <r>   -6.6586    1.0000 </r>
       <r>   -6.5770    1.0000 </r>
       <r>   -6.4806    1.0000 </r>
       <r>   -6.4136    1.0000 </r>
       <r>   -6.3946    1.0000 </r>
       <r>   -6.3589    1.0000 </r>
       <r>   -6.2754    1.0000 </r>
       <r>   -6.1812    1.0000 </r>
       <r>   -6.1102    1.0000 </r>
       <r>   -6.0712    1.0000 </r>
       <r>   -6.0015    1.0000 </r>
       <r>   -5.9196    1.0000 </r>
       <r>   -5.8282    1.0000 </r>
       <r>   -5.7461    1.0000 </r>
       <r>   -5.6779    1.0000 </r>
       <r>   -5.5791    1.0000 </r>
       <r>   -5.4935    1.0000 </r>
       <r>   -5.4034    1.0000 </r>
       <r>   -5.3122    1.0000 </r>
       <r>   -5.1989    1.0000 </r>
       <r>   -5.0647    1.0000 </r>
       <r>   -4.7802    1.0000 </r>
       <r>   -4.7563    1.0000 </r>
       <r>   -4.5672    1.0000 </r>
       <r>   -4.4718    1.0000 </r>
       <r>   -4.3770    1.0000 </r>
       <r>   -4.3094    1.0000 </r>
       <r>   -4.2127    1.0000 </r>
       <r>   -4.1569    1.0000 </r>
       <r>   -4.1076    1.0000 </r>
       <r>   -4.0363    1.0000 </r>
       <r>   -3.7416    0.9996 </r>
       <r>   -3.5724    0.9845 </r>
       <r>   -3.0708    0.0824 </r>
       <r>   -2.9481    0.0120 </r>
       <r>   -2.7235    0.0001 </r>
       <r>   -2.6827    0.0000 </r>
       <r>   -2.5549    0.0000 </r>
       <r>   -2.4354    0.0000 </r>
       <r>   -2.3539    0.0000 </r>
       <r>   -2.0674    0.0000 </r>
       <r>   -2.0351    0.0000 </r>
       <r>   -1.9636    0.0000 </r>
       <r>   -1.9059    0.0000 </r>
       <r>   -1.6814    0.0000 </r>
       <r>   -1.6335    0.0000 </r>
       <r>   -1.4871    0.0000 </r>
       <r>   -1.4195    0.0000 </r>
       <r>   -1.3020    0.0000 </r>
       <r>   -1.2192    0.0000 </r>
       <r>   -1.0798    0.0000 </r>
       <r>   -0.9938    0.0000 </r>
       <r>   -0.9461    0.0000 </r>
       <r>   -0.9097    0.0000 </r>
       <r>   -0.8049    0.0000 </r>
       <r>   -0.7465    0.0000 </r>
       <r>   -0.5911    0.0000 </r>
       <r>   -0.4905    0.0000 </r>
       <r>   -0.3502    0.0000 </r>
       <r>   -0.2572    0.0000 </r>
       <r>   -0.1058    0.0000 </r>
       <r>   -0.0006    0.0000 </r>
       <r>    0.0822    0.0000 </r>
       <r>    0.2237    0.0000 </r>
       <r>    0.4078    0.0000 </r>
       <r>    0.5434    0.0000 </r>
       <r>    0.6645    0.0000 </r>
       <r>    1.0292    0.0000 </r>
       <r>    1.0923    0.0000 </r>
       <r>    1.1617    0.0000 </r>
       <r>    1.3019    0.0000 </r>
       <r>    2.1195    0.0000 </r>
       <r>    2.3227    0.0000 </r>
       <r>    2.3846    0.0000 </r>
      </set>
      <set comment="kpoint 34">
       <r>  -17.5855    1.0000 </r>
       <r>  -17.2988    1.0000 </r>
       <r>  -16.7508    1.0000 </r>
       <r>  -16.7098    1.0000 </r>
       <r>  -16.6675    1.0000 </r>
       <r>  -16.4396    1.0000 </r>
       <r>  -16.3442    1.0000 </r>
       <r>  -16.2813    1.0000 </r>
       <r>  -16.0488    1.0000 </r>
       <r>  -16.0103    1.0000 </r>
       <r>  -15.8693    1.0000 </r>
       <r>  -15.8439    1.0000 </r>
       <r>  -15.7163    1.0000 </r>
       <r>  -15.6796    1.0000 </r>
       <r>  -15.6142    1.0000 </r>
       <r>  -15.5584    1.0000 </r>
       <r>  -15.2718    1.0000 </r>
       <r>  -15.2064    1.0000 </r>
       <r>   -9.7924    1.0000 </r>
       <r>   -9.4070    1.0000 </r>
       <r>   -9.3261    1.0000 </r>
       <r>   -9.0983    1.0000 </r>
       <r>   -9.0667    1.0000 </r>
       <r>   -8.8809    1.0000 </r>
       <r>   -8.4612    1.0000 </r>
       <r>   -8.4212    1.0000 </r>
       <r>   -8.3572    1.0000 </r>
       <r>   -8.3257    1.0000 </r>
       <r>   -8.2630    1.0000 </r>
       <r>   -8.2235    1.0000 </r>
       <r>   -8.1641    1.0000 </r>
       <r>   -8.0720    1.0000 </r>
       <r>   -7.9800    1.0000 </r>
       <r>   -7.8904    1.0000 </r>
       <r>   -7.8372    1.0000 </r>
       <r>   -7.7391    1.0000 </r>
       <r>   -7.4916    1.0000 </r>
       <r>   -7.3653    1.0000 </r>
       <r>   -7.2775    1.0000 </r>
       <r>   -7.2414    1.0000 </r>
       <r>   -7.1204    1.0000 </r>
       <r>   -7.0898    1.0000 </r>
       <r>   -7.0624    1.0000 </r>
       <r>   -7.0275    1.0000 </r>
       <r>   -6.8594    1.0000 </r>
       <r>   -6.6954    1.0000 </r>
       <r>   -6.5978    1.0000 </r>
       <r>   -6.5576    1.0000 </r>
       <r>   -6.5385    1.0000 </r>
       <r>   -6.4664    1.0000 </r>
       <r>   -6.4169    1.0000 </r>
       <r>   -6.3296    1.0000 </r>
       <r>   -6.2444    1.0000 </r>
       <r>   -6.2262    1.0000 </r>
       <r>   -6.1474    1.0000 </r>
       <r>   -6.1018    1.0000 </r>
       <r>   -6.0545    1.0000 </r>
       <r>   -5.8636    1.0000 </r>
       <r>   -5.8434    1.0000 </r>
       <r>   -5.7783    1.0000 </r>
       <r>   -5.6848    1.0000 </r>
       <r>   -5.6434    1.0000 </r>
       <r>   -5.5008    1.0000 </r>
       <r>   -5.4070    1.0000 </r>
       <r>   -5.2803    1.0000 </r>
       <r>   -5.2227    1.0000 </r>
       <r>   -4.9142    1.0000 </r>
       <r>   -4.8001    1.0000 </r>
       <r>   -4.7162    1.0000 </r>
       <r>   -4.5584    1.0000 </r>
       <r>   -4.4993    1.0000 </r>
       <r>   -4.3993    1.0000 </r>
       <r>   -4.3146    1.0000 </r>
       <r>   -4.2342    1.0000 </r>
       <r>   -4.1519    1.0000 </r>
       <r>   -4.0698    1.0000 </r>
       <r>   -4.0471    1.0000 </r>
       <r>   -3.7809    0.9999 </r>
       <r>   -3.5900    0.9888 </r>
       <r>   -3.0640    0.0754 </r>
       <r>   -2.9572    0.0142 </r>
       <r>   -2.7006    0.0000 </r>
       <r>   -2.6384    0.0000 </r>
       <r>   -2.5595    0.0000 </r>
       <r>   -2.4374    0.0000 </r>
       <r>   -2.2795    0.0000 </r>
       <r>   -2.0644    0.0000 </r>
       <r>   -2.0375    0.0000 </r>
       <r>   -1.9470    0.0000 </r>
       <r>   -1.8816    0.0000 </r>
       <r>   -1.6571    0.0000 </r>
       <r>   -1.6217    0.0000 </r>
       <r>   -1.5496    0.0000 </r>
       <r>   -1.4686    0.0000 </r>
       <r>   -1.3208    0.0000 </r>
       <r>   -1.2375    0.0000 </r>
       <r>   -1.0999    0.0000 </r>
       <r>   -0.9986    0.0000 </r>
       <r>   -0.9384    0.0000 </r>
       <r>   -0.9164    0.0000 </r>
       <r>   -0.8139    0.0000 </r>
       <r>   -0.7587    0.0000 </r>
       <r>   -0.5836    0.0000 </r>
       <r>   -0.4709    0.0000 </r>
       <r>   -0.3447    0.0000 </r>
       <r>   -0.2468    0.0000 </r>
       <r>   -0.1135    0.0000 </r>
       <r>    0.0015    0.0000 </r>
       <r>    0.0925    0.0000 </r>
       <r>    0.2755    0.0000 </r>
       <r>    0.4217    0.0000 </r>
       <r>    0.5403    0.0000 </r>
       <r>    0.6600    0.0000 </r>
       <r>    1.0061    0.0000 </r>
       <r>    1.0671    0.0000 </r>
       <r>    1.1674    0.0000 </r>
       <r>    1.3053    0.0000 </r>
       <r>    2.1600    0.0000 </r>
       <r>    2.2731    0.0000 </r>
       <r>    2.4107    0.0000 </r>
      </set>
     </set>
    </set>
   </array>
  </eigenvalues>
  <separator name="orbital magnetization" >
   <v name="MAGDIPOLOUT">      0.00000000      0.00000000      0.00000000</v>
  </separator>
 </calculation>
 <structure name="finalpos" >
  <crystal>
   <varray name="basis" >
    <v>       8.32728637       4.78281792       0.00000000 </v>
    <v>      -8.32660015       4.78168458       0.00000000 </v>
    <v>       0.00000000       0.00000000      30.00000000 </v>
   </varray>
   <i name="volume">   2389.29207587 </i>
   <varray name="rec_basis" >
    <v>       0.06003893       0.10454896       0.00000000 </v>
    <v>      -0.06005316       0.10455758       0.00000000 </v>
    <v>       0.00000000       0.00000000       0.03333333 </v>
   </varray>
  </crystal>
  <varray name="positions" >
   <v>       0.30938268       0.00985306      -0.00234242 </v>
   <v>       0.68604464      -0.01373992       0.00167380 </v>
   <v>       1.02192778       0.31781473       0.00273501 </v>
   <v>       0.33484127       0.33602137       0.00016230 </v>
   <v>       0.00967963       0.00296080       0.00021428 </v>
   <v>      -0.02370798       0.68503407      -0.00279603 </v>
   <v>       0.34876043       0.64491774       0.00219073 </v>
   <v>       0.65551695       0.35751779      -0.00189389 </v>
   <v>       0.66228842       0.65621906       0.00019368 </v>
   <v>       0.11068102       0.22430237       0.94713924 </v>
   <v>       0.22541457       0.10849425       0.05356914 </v>
   <v>       0.10784521       0.55161469       0.95644098 </v>
   <v>       0.22018008       0.43771466       0.05642605 </v>
   <v>       0.11248313       0.89501370       0.94342767 </v>
   <v>       0.22101068       0.77793963       0.04356718 </v>
   <v>       0.44084245       0.21707720       0.94561946 </v>
   <v>       0.55308001       0.10851952       0.04184672 </v>
   <v>       0.44561973       0.55243834       0.94475712 </v>
   <v>       0.55393943       0.44604803       0.05585905 </v>
   <v>       0.44506856       0.88943243       0.95721955 </v>
   <v>       0.55976982       0.78062763       0.05471781 </v>
   <v>       0.78246197       0.22348948       0.95724959 </v>
   <v>       0.89085059       0.11291217       0.05375133 </v>
   <v>       0.77190056       0.55915718       0.94169020 </v>
   <v>       0.89152496       0.44481309       0.04449309 </v>
   <v>       0.77723965       0.88968673       0.94790741 </v>
   <v>       0.88356821       0.78233466       0.05418085 </v>
  </varray>
 </structure>
</modeling>
