   27   27  100    1
  0.9710400E+02  0.1002848E-08  0.1002848E-08  0.3000000E-08  0.5000000E-15
  1.000000000000000E-004
  CAR 
 unknown system                          
    159     34    120
 
  0.0000000E+00  0.0000000E+00  0.0000000E+00  0.1562500E-01
    1      -17.807657   1.000000
    2      -16.733411   1.000000
    3      -16.586006   1.000000
    4      -16.557094   1.000000
    5      -16.480341   1.000000
    6      -16.417142   1.000000
    7      -16.401527   1.000000
    8      -16.384811   1.000000
    9      -16.206159   1.000000
   10      -16.106633   1.000000
   11      -16.047394   1.000000
   12      -16.008596   1.000000
   13      -15.840344   1.000000
   14      -15.833945   1.000000
   15      -15.552651   1.000000
   16      -15.502966   1.000000
   17      -15.498998   1.000000
   18      -15.258805   1.000000
   19       -9.147678   1.000000
   20       -8.869400   1.000000
   21       -8.848148   1.000000
   22       -8.796461   1.000000
   23       -8.731020   1.000000
   24       -8.710926   1.000000
   25       -8.635011   1.000000
   26       -8.617283   1.000000
   27       -8.542468   1.000000
   28       -8.482100   1.000000
   29       -8.449477   1.000000
   30       -8.334150   1.000000
   31       -8.252049   1.000000
   32       -8.241214   1.000000
   33       -8.190811   1.000000
   34       -8.130635   1.000000
   35       -7.980232   1.000000
   36       -7.832821   1.000000
   37       -7.754314   1.000000
   38       -7.555172   1.000000
   39       -7.471700   1.000000
   40       -7.413719   1.000000
   41       -7.279189   1.000000
   42       -7.276504   1.000000
   43       -7.154157   1.000000
   44       -6.960931   1.000000
   45       -6.865694   1.000000
   46       -6.851269   1.000000
   47       -6.771188   1.000000
   48       -6.742375   1.000000
   49       -6.574700   1.000000
   50       -6.568466   1.000000
   51       -6.510420   1.000000
   52       -6.416530   1.000000
   53       -6.244082   1.000000
   54       -6.131772   1.000000
   55       -6.115535   1.000000
   56       -6.000734   1.000000
   57       -5.899850   1.000000
   58       -5.834721   1.000000
   59       -5.815958   1.000000
   60       -5.572222   1.000000
   61       -5.546368   1.000000
   62       -5.394029   1.000000
   63       -5.316830   1.000000
   64       -5.215494   1.000000
   65       -5.069713   1.000000
   66       -4.981561   1.000000
   67       -4.928092   1.000000
   68       -4.771794   1.000000
   69       -4.705356   1.000000
   70       -4.642736   1.000000
   71       -4.596406   1.000000
   72       -4.532683   1.000000
   73       -4.481473   1.000000
   74       -4.327933   1.000000
   75       -4.090219   1.000000
   76       -4.080219   1.000000
   77       -3.682773   0.987764
   78       -3.529813   0.878609
   79       -3.490450   0.813193
   80       -3.459705   0.749312
   81       -3.229657   0.169951
   82       -2.799361   0.000032
   83       -2.741492   0.000005
   84       -2.623348   0.000000
   85       -2.424714   0.000000
   86       -2.320421   0.000000
   87       -2.229626   0.000000
   88       -2.153982   0.000000
   89       -1.986908   0.000000
   90       -1.945149   0.000000
   91       -1.544579   0.000000
   92       -1.483820   0.000000
   93       -1.421229   0.000000
   94       -1.254073   0.000000
   95       -1.226773   0.000000
   96       -1.155214   0.000000
   97       -1.122606   0.000000
   98       -1.109708   0.000000
   99       -0.847010   0.000000
  100       -0.689898   0.000000
  101       -0.653582   0.000000
  102       -0.618961   0.000000
  103       -0.448724   0.000000
  104       -0.418819   0.000000
  105       -0.366415   0.000000
  106       -0.061561   0.000000
  107       -0.023745   0.000000
  108        0.130636   0.000000
  109        0.144904   0.000000
  110        0.249380   0.000000
  111        0.328978   0.000000
  112        0.410299   0.000000
  113        0.537160   0.000000
  114        0.979360   0.000000
  115        1.037372   0.000000
  116        1.103649   0.000000
  117        1.463459   0.000000
  118        1.652692   0.000000
  119        1.838370   0.000000
  120        2.162879   0.000000
 
  0.1250000E+00  0.2775558E-16  0.0000000E+00  0.3125000E-01
    1      -17.781630   1.000000
    2      -16.775446   1.000000
    3      -16.684491   1.000000
    4      -16.594625   1.000000
    5      -16.500353   1.000000
    6      -16.416616   1.000000
    7      -16.376352   1.000000
    8      -16.311660   1.000000
    9      -16.205283   1.000000
   10      -16.082092   1.000000
   11      -16.006122   1.000000
   12      -15.965776   1.000000
   13      -15.856634   1.000000
   14      -15.805653   1.000000
   15      -15.583686   1.000000
   16      -15.502613   1.000000
   17      -15.491103   1.000000
   18      -15.272008   1.000000
   19       -9.121190   1.000000
   20       -9.089310   1.000000
   21       -8.926810   1.000000
   22       -8.887234   1.000000
   23       -8.829441   1.000000
   24       -8.768020   1.000000
   25       -8.684979   1.000000
   26       -8.611255   1.000000
   27       -8.533886   1.000000
   28       -8.411101   1.000000
   29       -8.340586   1.000000
   30       -8.295673   1.000000
   31       -8.244116   1.000000
   32       -8.142590   1.000000
   33       -8.056941   1.000000
   34       -7.955349   1.000000
   35       -7.928435   1.000000
   36       -7.786008   1.000000
   37       -7.776067   1.000000
   38       -7.533026   1.000000
   39       -7.440695   1.000000
   40       -7.401393   1.000000
   41       -7.302768   1.000000
   42       -7.250225   1.000000
   43       -7.178121   1.000000
   44       -7.002178   1.000000
   45       -6.953528   1.000000
   46       -6.853695   1.000000
   47       -6.777465   1.000000
   48       -6.724736   1.000000
   49       -6.622260   1.000000
   50       -6.589352   1.000000
   51       -6.514924   1.000000
   52       -6.339259   1.000000
   53       -6.253201   1.000000
   54       -6.152041   1.000000
   55       -6.050023   1.000000
   56       -6.019322   1.000000
   57       -5.914764   1.000000
   58       -5.846813   1.000000
   59       -5.764071   1.000000
   60       -5.554428   1.000000
   61       -5.492346   1.000000
   62       -5.422406   1.000000
   63       -5.307199   1.000000
   64       -5.276721   1.000000
   65       -5.182023   1.000000
   66       -5.002803   1.000000
   67       -4.973860   1.000000
   68       -4.935774   1.000000
   69       -4.779855   1.000000
   70       -4.598893   1.000000
   71       -4.538475   1.000000
   72       -4.445491   1.000000
   73       -4.360739   1.000000
   74       -4.280863   1.000000
   75       -4.107495   1.000000
   76       -3.992878   0.999996
   77       -3.742969   0.996267
   78       -3.671628   0.985029
   79       -3.607909   0.957310
   80       -3.335889   0.419494
   81       -3.171843   0.086415
   82       -2.826577   0.000071
   83       -2.729896   0.000004
   84       -2.589052   0.000000
   85       -2.468362   0.000000
   86       -2.283101   0.000000
   87       -2.192416   0.000000
   88       -2.129412   0.000000
   89       -2.016972   0.000000
   90       -1.885035   0.000000
   91       -1.578051   0.000000
   92       -1.483117   0.000000
   93       -1.406284   0.000000
   94       -1.261617   0.000000
   95       -1.236095   0.000000
   96       -1.164135   0.000000
   97       -1.109225   0.000000
   98       -1.090821   0.000000
   99       -0.837065   0.000000
  100       -0.748141   0.000000
  101       -0.689032   0.000000
  102       -0.653755   0.000000
  103       -0.521066   0.000000
  104       -0.508374   0.000000
  105       -0.417108   0.000000
  106       -0.128621   0.000000
  107       -0.089241   0.000000
  108        0.097445   0.000000
  109        0.183606   0.000000
  110        0.220991   0.000000
  111        0.406674   0.000000
  112        0.517222   0.000000
  113        0.617500   0.000000
  114        0.968028   0.000000
  115        1.056134   0.000000
  116        1.114451   0.000000
  117        1.404841   0.000000
  118        1.698342   0.000000
  119        1.875737   0.000000
  120        2.198253   0.000000
 
  0.2500000E+00  0.5551115E-16  0.0000000E+00  0.3125000E-01
    1      -17.704495   1.000000
    2      -16.974435   1.000000
    3      -16.716877   1.000000
    4      -16.654543   1.000000
    5      -16.563427   1.000000
    6      -16.412942   1.000000
    7      -16.313200   1.000000
    8      -16.265101   1.000000
    9      -16.140531   1.000000
   10      -16.050959   1.000000
   11      -15.954991   1.000000
   12      -15.904789   1.000000
   13      -15.856749   1.000000
   14      -15.726877   1.000000
   15      -15.639277   1.000000
   16      -15.512900   1.000000
   17      -15.485994   1.000000
   18      -15.303888   1.000000
   19       -9.432939   1.000000
   20       -9.100055   1.000000
   21       -9.039201   1.000000
   22       -9.001621   1.000000
   23       -8.957564   1.000000
   24       -8.863560   1.000000
   25       -8.676867   1.000000
   26       -8.634470   1.000000
   27       -8.463706   1.000000
   28       -8.330320   1.000000
   29       -8.249945   1.000000
   30       -8.228232   1.000000
   31       -8.144187   1.000000
   32       -8.040679   1.000000
   33       -7.982223   1.000000
   34       -7.893791   1.000000
   35       -7.843719   1.000000
   36       -7.727685   1.000000
   37       -7.561913   1.000000
   38       -7.499920   1.000000
   39       -7.399272   1.000000
   40       -7.357864   1.000000
   41       -7.276714   1.000000
   42       -7.268210   1.000000
   43       -7.105378   1.000000
   44       -7.024110   1.000000
   45       -6.964652   1.000000
   46       -6.892979   1.000000
   47       -6.844741   1.000000
   48       -6.782127   1.000000
   49       -6.648445   1.000000
   50       -6.507699   1.000000
   51       -6.463704   1.000000
   52       -6.328468   1.000000
   53       -6.183798   1.000000
   54       -6.158250   1.000000
   55       -6.115233   1.000000
   56       -6.004926   1.000000
   57       -5.913875   1.000000
   58       -5.817339   1.000000
   59       -5.748386   1.000000
   60       -5.570712   1.000000
   61       -5.546015   1.000000
   62       -5.467734   1.000000
   63       -5.423761   1.000000
   64       -5.409363   1.000000
   65       -5.304310   1.000000
   66       -5.133301   1.000000
   67       -4.983917   1.000000
   68       -4.937620   1.000000
   69       -4.788493   1.000000
   70       -4.620797   1.000000
   71       -4.449380   1.000000
   72       -4.359273   1.000000
   73       -4.246259   1.000000
   74       -4.171989   1.000000
   75       -4.159803   1.000000
   76       -4.038160   0.999999
   77       -3.873917   0.999842
   78       -3.679970   0.987121
   79       -3.598031   0.950573
   80       -3.306637   0.340892
   81       -3.117690   0.040398
   82       -2.856245   0.000162
   83       -2.720451   0.000003
   84       -2.540649   0.000000
   85       -2.492345   0.000000
   86       -2.306158   0.000000
   87       -2.129841   0.000000
   88       -2.016507   0.000000
   89       -1.983459   0.000000
   90       -1.815007   0.000000
   91       -1.622751   0.000000
   92       -1.514793   0.000000
   93       -1.384315   0.000000
   94       -1.282138   0.000000
   95       -1.239088   0.000000
   96       -1.193158   0.000000
   97       -1.086003   0.000000
   98       -1.065175   0.000000
   99       -0.896405   0.000000
  100       -0.817302   0.000000
  101       -0.771244   0.000000
  102       -0.760450   0.000000
  103       -0.664711   0.000000
  104       -0.597380   0.000000
  105       -0.503815   0.000000
  106       -0.311689   0.000000
  107       -0.198172   0.000000
  108        0.050545   0.000000
  109        0.168123   0.000000
  110        0.230311   0.000000
  111        0.486479   0.000000
  112        0.690396   0.000000
  113        0.793896   0.000000
  114        0.940947   0.000000
  115        1.112445   0.000000
  116        1.165151   0.000000
  117        1.290823   0.000000
  118        1.823643   0.000000
  119        1.983931   0.000000
  120        2.303175   0.000000
 
  0.3750000E+00  0.0000000E+00  0.0000000E+00  0.3125000E-01
    1      -17.579613   1.000000
    2      -17.198903   1.000000
    3      -16.743065   1.000000
    4      -16.683296   1.000000
    5      -16.583040   1.000000
    6      -16.457470   1.000000
    7      -16.276155   1.000000
    8      -16.195927   1.000000
    9      -16.093506   1.000000
   10      -16.001985   1.000000
   11      -15.951771   1.000000
   12      -15.882397   1.000000
   13      -15.800254   1.000000
   14      -15.709701   1.000000
   15      -15.657276   1.000000
   16      -15.513510   1.000000
   17      -15.488301   1.000000
   18      -15.334766   1.000000
   19       -9.671203   1.000000
   20       -9.187602   1.000000
   21       -9.120462   1.000000
   22       -9.083969   1.000000
   23       -9.006027   1.000000
   24       -8.858498   1.000000
   25       -8.614018   1.000000
   26       -8.562824   1.000000
   27       -8.435818   1.000000
   28       -8.297859   1.000000
   29       -8.280093   1.000000
   30       -8.189817   1.000000
   31       -8.062760   1.000000
   32       -8.015484   1.000000
   33       -7.980460   1.000000
   34       -7.879401   1.000000
   35       -7.773655   1.000000
   36       -7.715107   1.000000
   37       -7.572848   1.000000
   38       -7.433003   1.000000
   39       -7.369149   1.000000
   40       -7.347759   1.000000
   41       -7.277744   1.000000
   42       -7.164631   1.000000
   43       -7.098279   1.000000
   44       -7.021052   1.000000
   45       -6.886032   1.000000
   46       -6.836471   1.000000
   47       -6.682550   1.000000
   48       -6.652355   1.000000
   49       -6.562491   1.000000
   50       -6.485778   1.000000
   51       -6.392683   1.000000
   52       -6.320108   1.000000
   53       -6.236905   1.000000
   54       -6.131492   1.000000
   55       -6.095724   1.000000
   56       -6.042149   1.000000
   57       -5.979228   1.000000
   58       -5.945767   1.000000
   59       -5.842786   1.000000
   60       -5.700929   1.000000
   61       -5.649819   1.000000
   62       -5.568189   1.000000
   63       -5.526589   1.000000
   64       -5.414715   1.000000
   65       -5.343192   1.000000
   66       -5.156518   1.000000
   67       -5.004604   1.000000
   68       -4.846791   1.000000
   69       -4.766912   1.000000
   70       -4.689626   1.000000
   71       -4.606581   1.000000
   72       -4.309352   1.000000
   73       -4.213220   1.000000
   74       -4.164692   1.000000
   75       -4.116200   1.000000
   76       -4.034062   0.999999
   77       -3.850594   0.999705
   78       -3.630535   0.969964
   79       -3.493279   0.818517
   80       -3.358299   0.482164
   81       -3.091102   0.026551
   82       -2.859025   0.000175
   83       -2.749288   0.000007
   84       -2.518887   0.000000
   85       -2.459721   0.000000
   86       -2.359103   0.000000
   87       -2.053680   0.000000
   88       -1.928765   0.000000
   89       -1.906350   0.000000
   90       -1.777797   0.000000
   91       -1.633093   0.000000
   92       -1.530049   0.000000
   93       -1.411149   0.000000
   94       -1.304174   0.000000
   95       -1.239801   0.000000
   96       -1.212368   0.000000
   97       -1.091536   0.000000
   98       -1.076203   0.000000
   99       -1.006951   0.000000
  100       -0.900303   0.000000
  101       -0.853094   0.000000
  102       -0.790982   0.000000
  103       -0.755091   0.000000
  104       -0.624280   0.000000
  105       -0.564648   0.000000
  106       -0.452236   0.000000
  107       -0.318524   0.000000
  108       -0.004933   0.000000
  109        0.146686   0.000000
  110        0.210426   0.000000
  111        0.494962   0.000000
  112        0.832189   0.000000
  113        0.922327   0.000000
  114        0.961912   0.000000
  115        1.165716   0.000000
  116        1.194203   0.000000
  117        1.240963   0.000000
  118        2.010013   0.000000
  119        2.156432   0.000000
  120        2.475147   0.000000
 
  0.5000000E+00  0.1110223E-15  0.0000000E+00  0.1562500E-01
    1      -17.439030   1.000000
    2      -17.374953   1.000000
    3      -16.754774   1.000000
    4      -16.694300   1.000000
    5      -16.579242   1.000000
    6      -16.479109   1.000000
    7      -16.280910   1.000000
    8      -16.105048   1.000000
    9      -16.083740   1.000000
   10      -16.068647   1.000000
   11      -15.913127   1.000000
   12      -15.835169   1.000000
   13      -15.786609   1.000000
   14      -15.736676   1.000000
   15      -15.672718   1.000000
   16      -15.497317   1.000000
   17      -15.489542   1.000000
   18      -15.346933   1.000000
   19       -9.755690   1.000000
   20       -9.220996   1.000000
   21       -9.154033   1.000000
   22       -9.117232   1.000000
   23       -9.055975   1.000000
   24       -8.711126   1.000000
   25       -8.653535   1.000000
   26       -8.577099   1.000000
   27       -8.412831   1.000000
   28       -8.352152   1.000000
   29       -8.186456   1.000000
   30       -8.173662   1.000000
   31       -8.074886   1.000000
   32       -8.034728   1.000000
   33       -7.939968   1.000000
   34       -7.878035   1.000000
   35       -7.827947   1.000000
   36       -7.660177   1.000000
   37       -7.591407   1.000000
   38       -7.497535   1.000000
   39       -7.406044   1.000000
   40       -7.346403   1.000000
   41       -7.263174   1.000000
   42       -7.086005   1.000000
   43       -7.045212   1.000000
   44       -6.989984   1.000000
   45       -6.840274   1.000000
   46       -6.658465   1.000000
   47       -6.639069   1.000000
   48       -6.569437   1.000000
   49       -6.498371   1.000000
   50       -6.477864   1.000000
   51       -6.367460   1.000000
   52       -6.348299   1.000000
   53       -6.339719   1.000000
   54       -6.273025   1.000000
   55       -6.123771   1.000000
   56       -6.004693   1.000000
   57       -5.955558   1.000000
   58       -5.908708   1.000000
   59       -5.803017   1.000000
   60       -5.723904   1.000000
   61       -5.690581   1.000000
   62       -5.601970   1.000000
   63       -5.562330   1.000000
   64       -5.550187   1.000000
   65       -5.420008   1.000000
   66       -5.126745   1.000000
   67       -5.119270   1.000000
   68       -4.790203   1.000000
   69       -4.775299   1.000000
   70       -4.727339   1.000000
   71       -4.508967   1.000000
   72       -4.444187   1.000000
   73       -4.172933   1.000000
   74       -4.154184   1.000000
   75       -4.115280   1.000000
   76       -3.961498   0.999988
   77       -3.854360   0.999733
   78       -3.560985   0.917505
   79       -3.463802   0.758440
   80       -3.408780   0.622566
   81       -3.075208   0.020355
   82       -2.853749   0.000152
   83       -2.778371   0.000017
   84       -2.503803   0.000000
   85       -2.449821   0.000000
   86       -2.373269   0.000000
   87       -2.022851   0.000000
   88       -1.896594   0.000000
   89       -1.871574   0.000000
   90       -1.778641   0.000000
   91       -1.630294   0.000000
   92       -1.492945   0.000000
   93       -1.452270   0.000000
   94       -1.319166   0.000000
   95       -1.240442   0.000000
   96       -1.220561   0.000000
   97       -1.131930   0.000000
   98       -1.106119   0.000000
   99       -1.001624   0.000000
  100       -0.955022   0.000000
  101       -0.845217   0.000000
  102       -0.820725   0.000000
  103       -0.787509   0.000000
  104       -0.614149   0.000000
  105       -0.587887   0.000000
  106       -0.513580   0.000000
  107       -0.369626   0.000000
  108       -0.028881   0.000000
  109        0.141363   0.000000
  110        0.195798   0.000000
  111        0.484702   0.000000
  112        0.877925   0.000000
  113        0.922420   0.000000
  114        1.078536   0.000000
  115        1.101347   0.000000
  116        1.204007   0.000000
  117        1.266480   0.000000
  118        2.242689   0.000000
  119        2.251646   0.000000
  120        2.374765   0.000000
 
  0.0000000E+00  0.1250000E+00  0.0000000E+00  0.3125000E-01
    1      -17.781898   1.000000
    2      -16.783660   1.000000
    3      -16.659390   1.000000
    4      -16.605483   1.000000
    5      -16.538722   1.000000
    6      -16.416442   1.000000
    7      -16.344502   1.000000
    8      -16.292821   1.000000
    9      -16.181983   1.000000
   10      -16.099697   1.000000
   11      -16.030960   1.000000
   12      -15.969281   1.000000
   13      -15.838217   1.000000
   14      -15.824141   1.000000
   15      -15.576714   1.000000
   16      -15.506347   1.000000
   17      -15.496697   1.000000
   18      -15.265665   1.000000
   19       -9.128588   1.000000
   20       -9.090682   1.000000
   21       -8.964183   1.000000
   22       -8.893854   1.000000
   23       -8.837192   1.000000
   24       -8.686807   1.000000
   25       -8.649870   1.000000
   26       -8.612341   1.000000
   27       -8.522879   1.000000
   28       -8.442248   1.000000
   29       -8.364962   1.000000
   30       -8.271920   1.000000
   31       -8.234785   1.000000
   32       -8.133716   1.000000
   33       -8.093065   1.000000
   34       -7.988898   1.000000
   35       -7.913977   1.000000
   36       -7.801153   1.000000
   37       -7.687035   1.000000
   38       -7.622624   1.000000
   39       -7.524075   1.000000
   40       -7.349981   1.000000
   41       -7.307520   1.000000
   42       -7.247249   1.000000
   43       -7.140114   1.000000
   44       -7.017772   1.000000
   45       -6.956542   1.000000
   46       -6.840458   1.000000
   47       -6.793682   1.000000
   48       -6.667650   1.000000
   49       -6.601781   1.000000
   50       -6.554236   1.000000
   51       -6.489595   1.000000
   52       -6.375654   1.000000
   53       -6.247060   1.000000
   54       -6.176105   1.000000
   55       -6.116202   1.000000
   56       -5.998318   1.000000
   57       -5.934978   1.000000
   58       -5.842496   1.000000
   59       -5.770235   1.000000
   60       -5.568373   1.000000
   61       -5.522697   1.000000
   62       -5.418027   1.000000
   63       -5.367412   1.000000
   64       -5.235482   1.000000
   65       -5.101604   1.000000
   66       -5.046366   1.000000
   67       -4.956372   1.000000
   68       -4.867425   1.000000
   69       -4.733096   1.000000
   70       -4.647780   1.000000
   71       -4.547696   1.000000
   72       -4.492924   1.000000
   73       -4.431915   1.000000
   74       -4.182829   1.000000
   75       -4.112118   1.000000
   76       -4.005648   0.999997
   77       -3.750691   0.996832
   78       -3.661047   0.981960
   79       -3.601896   0.953304
   80       -3.404976   0.612304
   81       -3.116105   0.039434
   82       -2.793039   0.000027
   83       -2.714229   0.000002
   84       -2.623294   0.000000
   85       -2.416560   0.000000
   86       -2.308106   0.000000
   87       -2.198534   0.000000
   88       -2.134387   0.000000
   89       -1.998224   0.000000
   90       -1.909326   0.000000
   91       -1.566222   0.000000
   92       -1.501618   0.000000
   93       -1.403011   0.000000
   94       -1.254723   0.000000
   95       -1.226952   0.000000
   96       -1.169523   0.000000
   97       -1.108536   0.000000
   98       -1.092545   0.000000
   99       -0.846796   0.000000
  100       -0.761313   0.000000
  101       -0.729241   0.000000
  102       -0.690442   0.000000
  103       -0.549308   0.000000
  104       -0.460546   0.000000
  105       -0.399616   0.000000
  106       -0.069646   0.000000
  107       -0.041086   0.000000
  108        0.084965   0.000000
  109        0.159452   0.000000
  110        0.283886   0.000000
  111        0.377197   0.000000
  112        0.474363   0.000000
  113        0.567987   0.000000
  114        0.964675   0.000000
  115        1.055653   0.000000
  116        1.127130   0.000000
  117        1.432791   0.000000
  118        1.696502   0.000000
  119        1.876503   0.000000
  120        2.198059   0.000000
 
  0.1250000E+00  0.1250000E+00  0.0000000E+00  0.3125000E-01
    1      -17.730310   1.000000
    2      -16.888067   1.000000
    3      -16.778375   1.000000
    4      -16.655436   1.000000
    5      -16.454955   1.000000
    6      -16.406718   1.000000
    7      -16.367867   1.000000
    8      -16.258403   1.000000
    9      -16.160694   1.000000
   10      -16.070600   1.000000
   11      -15.989516   1.000000
   12      -15.913501   1.000000
   13      -15.836330   1.000000
   14      -15.772821   1.000000
   15      -15.619952   1.000000
   16      -15.511985   1.000000
   17      -15.485832   1.000000
   18      -15.290045   1.000000
   19       -9.280839   1.000000
   20       -9.238528   1.000000
   21       -9.068391   1.000000
   22       -8.981252   1.000000
   23       -8.800722   1.000000
   24       -8.753293   1.000000
   25       -8.665825   1.000000
   26       -8.613404   1.000000
   27       -8.530353   1.000000
   28       -8.347577   1.000000
   29       -8.328262   1.000000
   30       -8.246174   1.000000
   31       -8.214315   1.000000
   32       -8.088919   1.000000
   33       -7.953245   1.000000
   34       -7.902028   1.000000
   35       -7.820015   1.000000
   36       -7.774587   1.000000
   37       -7.590701   1.000000
   38       -7.533629   1.000000
   39       -7.380883   1.000000
   40       -7.344878   1.000000
   41       -7.307845   1.000000
   42       -7.253753   1.000000
   43       -7.161342   1.000000
   44       -7.044055   1.000000
   45       -6.996721   1.000000
   46       -6.903389   1.000000
   47       -6.793756   1.000000
   48       -6.742347   1.000000
   49       -6.635955   1.000000
   50       -6.537067   1.000000
   51       -6.468798   1.000000
   52       -6.318434   1.000000
   53       -6.248210   1.000000
   54       -6.133677   1.000000
   55       -6.089671   1.000000
   56       -6.044538   1.000000
   57       -5.896175   1.000000
   58       -5.854163   1.000000
   59       -5.710913   1.000000
   60       -5.610500   1.000000
   61       -5.520806   1.000000
   62       -5.459517   1.000000
   63       -5.403111   1.000000
   64       -5.326670   1.000000
   65       -5.191115   1.000000
   66       -5.160024   1.000000
   67       -5.012745   1.000000
   68       -4.930074   1.000000
   69       -4.755352   1.000000
   70       -4.620729   1.000000
   71       -4.494948   1.000000
   72       -4.393365   1.000000
   73       -4.275930   1.000000
   74       -4.145523   1.000000
   75       -4.125113   1.000000
   76       -4.062229   1.000000
   77       -3.822071   0.999391
   78       -3.714812   0.993361
   79       -3.639097   0.973860
   80       -3.322859   0.383873
   81       -3.088066   0.025258
   82       -2.832661   0.000084
   83       -2.701153   0.000001
   84       -2.579101   0.000000
   85       -2.453382   0.000000
   86       -2.283268   0.000000
   87       -2.173261   0.000000
   88       -2.056365   0.000000
   89       -1.996411   0.000000
   90       -1.836496   0.000000
   91       -1.608225   0.000000
   92       -1.510504   0.000000
   93       -1.392068   0.000000
   94       -1.268788   0.000000
   95       -1.239987   0.000000
   96       -1.182472   0.000000
   97       -1.094595   0.000000
   98       -1.075438   0.000000
   99       -0.856591   0.000000
  100       -0.844504   0.000000
  101       -0.787229   0.000000
  102       -0.723034   0.000000
  103       -0.638289   0.000000
  104       -0.592881   0.000000
  105       -0.447584   0.000000
  106       -0.226782   0.000000
  107       -0.134086   0.000000
  108        0.062240   0.000000
  109        0.181144   0.000000
  110        0.257312   0.000000
  111        0.457736   0.000000
  112        0.590488   0.000000
  113        0.723137   0.000000
  114        0.937924   0.000000
  115        1.063178   0.000000
  116        1.178903   0.000000
  117        1.364376   0.000000
  118        1.782223   0.000000
  119        1.949103   0.000000
  120        2.268199   0.000000
 
  0.2500000E+00  0.1250000E+00  0.0000000E+00  0.3125000E-01
    1      -17.629156   1.000000
    2      -17.077678   1.000000
    3      -16.891612   1.000000
    4      -16.629750   1.000000
    5      -16.476365   1.000000
    6      -16.418720   1.000000
    7      -16.289845   1.000000
    8      -16.257397   1.000000
    9      -16.104732   1.000000
   10      -16.015082   1.000000
   11      -15.962041   1.000000
   12      -15.920457   1.000000
   13      -15.810326   1.000000
   14      -15.693679   1.000000
   15      -15.664774   1.000000
   16      -15.514932   1.000000
   17      -15.482905   1.000000
   18      -15.321023   1.000000
   19       -9.557465   1.000000
   20       -9.354467   1.000000
   21       -9.181137   1.000000
   22       -8.950841   1.000000
   23       -8.854664   1.000000
   24       -8.781295   1.000000
   25       -8.625858   1.000000
   26       -8.577068   1.000000
   27       -8.448271   1.000000
   28       -8.334498   1.000000
   29       -8.255260   1.000000
   30       -8.205014   1.000000
   31       -8.152469   1.000000
   32       -8.043347   1.000000
   33       -8.033933   1.000000
   34       -7.921874   1.000000
   35       -7.864693   1.000000
   36       -7.612312   1.000000
   37       -7.505846   1.000000
   38       -7.433797   1.000000
   39       -7.346486   1.000000
   40       -7.316600   1.000000
   41       -7.272282   1.000000
   42       -7.201875   1.000000
   43       -7.100313   1.000000
   44       -7.062663   1.000000
   45       -6.951697   1.000000
   46       -6.809909   1.000000
   47       -6.754532   1.000000