       N       E                     dE             d eps       ncg     rms          rms(c)
DAV:   1     0.112444439424E+04    0.11244E+04   -0.35856E+04  8160   0.577E+02
DAV:   2    -0.256908980606E+01   -0.11270E+04   -0.10866E+04 11000   0.173E+02
DAV:   3    -0.199745464934E+03   -0.19718E+03   -0.18901E+03 10920   0.820E+01
DAV:   4    -0.209014766110E+03   -0.92693E+01   -0.89607E+01 12040   0.260E+01
DAV:   5    -0.209349579878E+03   -0.33481E+00   -0.33383E+00 11640   0.365E+00    0.275E+01
DAV:   6    -0.236553329474E+03   -0.27204E+02   -0.10037E+02 12720   0.596E+01    0.595E+01
DAV:   7    -0.196085095941E+03    0.40468E+02   -0.16769E+02 12680   0.146E+02    0.198E+01
DAV:   8    -0.189219727569E+03    0.68654E+01   -0.16397E+01 12120   0.123E+01    0.118E+01
DAV:   9    -0.188013948396E+03    0.12058E+01   -0.29958E+00 13440   0.662E+00    0.824E+00
DAV:  10    -0.187021756808E+03    0.99219E+00   -0.14403E+00 13280   0.677E+00    0.201E+00
DAV:  11    -0.187219067189E+03   -0.19731E+00   -0.80617E-01 13080   0.455E+00    0.479E+00
DAV:  12    -0.187060128689E+03    0.15894E+00   -0.39247E-01 12240   0.412E+00    0.344E+00
DAV:  13    -0.186940962041E+03    0.11917E+00   -0.20832E-01 12400   0.289E+00    0.121E+00
DAV:  14    -0.186934530686E+03    0.64314E-02   -0.45897E-02 12920   0.115E+00    0.103E+00
DAV:  15    -0.186928091472E+03    0.64392E-02   -0.14969E-02 13400   0.621E-01    0.587E-01
DAV:  16    -0.186923919228E+03    0.41722E-02   -0.88081E-03 13000   0.399E-01    0.169E-01
DAV:  17    -0.186923672317E+03    0.24691E-03   -0.34057E-03 12040   0.164E-01    0.203E-01
DAV:  18    -0.186923141506E+03    0.53081E-03   -0.15716E-03 12440   0.175E-01    0.858E-02
DAV:  19    -0.186923557886E+03   -0.41638E-03   -0.75504E-04 10800   0.804E-02    0.950E-02
DAV:  20    -0.186924094104E+03   -0.53622E-03   -0.63275E-04  9640   0.831E-02    0.790E-02
DAV:  21    -0.186925244634E+03   -0.11505E-02   -0.35423E-04  9080   0.746E-02    0.238E-02
DAV:  22    -0.186926162736E+03   -0.91810E-03   -0.96309E-05  7320   0.267E-02    0.273E-02
DAV:  23    -0.186926847758E+03   -0.68502E-03   -0.53882E-05  7240   0.221E-02    0.145E-02
DAV:  24    -0.186927525678E+03   -0.67792E-03   -0.48507E-05  7240   0.198E-02    0.101E-02
DAV:  25    -0.186927882007E+03   -0.35633E-03   -0.95867E-06  6320   0.133E-02    0.505E-03
DAV:  26    -0.186928115117E+03   -0.23311E-03   -0.78295E-06  6800   0.807E-03    0.306E-03
DAV:  27    -0.186928194987E+03   -0.79871E-04   -0.28525E-06  7200   0.554E-03
   1 F= -.18692819E+03 E0= -.18675597E+03  d E =-.186928E+03
       N       E                     dE             d eps       ncg     rms          rms(c)
DAV:   1    -0.187487563081E+03   -0.55945E+00   -0.26699E+02  8160   0.346E+01    0.463E+00
DAV:   2    -0.189404020669E+03   -0.19165E+01   -0.20560E+01 12920   0.154E+01    0.883E+00
DAV:   3    -0.189395250425E+03    0.87702E-02   -0.40610E+00 12360   0.117E+01    0.701E+00
DAV:   4    -0.188763623756E+03    0.63163E+00   -0.60202E-01 12120   0.457E+00    0.173E+00
DAV:   5    -0.188773073130E+03   -0.94494E-02   -0.31807E-01 10200   0.155E+00    0.235E+00
DAV:   6    -0.188715895661E+03    0.57177E-01   -0.29900E-01 12160   0.217E+00    0.199E+00
DAV:   7    -0.188722092337E+03   -0.61967E-02   -0.17576E-01 12240   0.261E+00    0.236E+00
DAV:   8    -0.188677777077E+03    0.44315E-01   -0.82662E-02 12760   0.154E+00    0.378E-01
DAV:   9    -0.188675760507E+03    0.20166E-02   -0.68203E-03 10640   0.291E-01    0.210E-01
DAV:  10    -0.188677136077E+03   -0.13756E-02   -0.46500E-03 13480   0.403E-01    0.483E-01
DAV:  11    -0.188675304503E+03    0.18316E-02   -0.36918E-03 12640   0.352E-01    0.105E-01
DAV:  12    -0.188675424085E+03   -0.11958E-03   -0.67188E-04 11520   0.976E-02    0.793E-02
DAV:  13    -0.188675356404E+03    0.67682E-04   -0.19371E-04  7880   0.467E-02
   2 F= -.18867536E+03 E0= -.18853340E+03  d E =-.174716E+01
       N       E                     dE             d eps       ncg     rms          rms(c)
DAV:   1    -0.190573835498E+03   -0.18984E+01   -0.30373E+01  8880   0.141E+01    0.447E+00
DAV:   2    -0.190675174016E+03   -0.10134E+00   -0.29225E+00 11360   0.101E+01    0.807E+00
DAV:   3    -0.190029072819E+03    0.64610E+00   -0.13790E+00 12280   0.857E+00    0.392E+00
DAV:   4    -0.189846503501E+03    0.18257E+00   -0.66529E-01 12280   0.364E+00    0.250E+00
DAV:   5    -0.189767705336E+03    0.78798E-01   -0.28862E-01 12040   0.195E+00    0.119E+00
DAV:   6    -0.189749469448E+03    0.18236E-01   -0.59834E-02 11880   0.135E+00    0.850E-01
DAV:   7    -0.189743936951E+03    0.55325E-02   -0.14442E-02 11480   0.709E-01    0.203E-01
DAV:   8    -0.189743964100E+03   -0.27149E-04   -0.20798E-03 12360   0.165E-01    0.147E-01
DAV:   9    -0.189744109291E+03   -0.14519E-03   -0.10808E-03 10640   0.146E-01    0.154E-01
DAV:  10    -0.189744602161E+03   -0.49287E-03   -0.14598E-03 10480   0.266E-01    0.260E-01
DAV:  11    -0.189743966461E+03    0.63570E-03   -0.85399E-04  9160   0.194E-01    0.218E-02
DAV:  12    -0.189743990285E+03   -0.23824E-04   -0.66845E-05  5760   0.279E-02
   3 F= -.18974399E+03 E0= -.18962431E+03  d E =-.106863E+01
       N       E                     dE             d eps       ncg     rms          rms(c)
DAV:   1    -0.191236481672E+03   -0.14925E+01   -0.63111E+01  8160   0.182E+01    0.464E+00
DAV:   2    -0.191351139976E+03   -0.11466E+00   -0.55892E+00 13560   0.100E+01    0.683E+00
DAV:   3    -0.191001251594E+03    0.34989E+00   -0.16824E+00 12040   0.922E+00    0.493E+00
DAV:   4    -0.190759394520E+03    0.24186E+00   -0.86783E-01 12280   0.506E+00    0.256E+00
DAV:   5    -0.190666711325E+03    0.92683E-01   -0.27696E-01 12160   0.209E+00    0.122E+00
DAV:   6    -0.190656998280E+03    0.97130E-02   -0.10561E-01 11720   0.197E+00    0.142E+00
DAV:   7    -0.190643672401E+03    0.13326E-01   -0.52033E-02 11400   0.159E+00    0.605E-01
DAV:   8    -0.190638767472E+03    0.49049E-02   -0.68125E-03 12280   0.476E-01    0.118E-01
DAV:   9    -0.190639327880E+03   -0.56041E-03   -0.19621E-03 10840   0.153E-01    0.153E-01
DAV:  10    -0.190639158668E+03    0.16921E-03   -0.90159E-04 10640   0.191E-01    0.116E-01
DAV:  11    -0.190639079794E+03    0.78874E-04   -0.31781E-04  7800   0.123E-01
   4 F= -.19063908E+03 E0= -.19053887E+03  d E =-.895090E+00
       N       E                     dE             d eps       ncg     rms          rms(c)
DAV:   1    -0.191939156298E+03   -0.13000E+01   -0.11427E+02  8160   0.242E+01    0.569E+00
DAV:   2    -0.192054120575E+03   -0.11496E+00   -0.93575E+00 13560   0.118E+01    0.707E+00
DAV:   3    -0.191732800528E+03    0.32132E+00   -0.23312E+00 11760   0.113E+01    0.628E+00
DAV:   4    -0.191363049708E+03    0.36975E+00   -0.13653E+00 12240   0.751E+00    0.316E+00
DAV:   5    -0.191205430580E+03    0.15762E+00   -0.42936E-01 12600   0.312E+00    0.159E+00
DAV:   6    -0.191202712820E+03    0.27178E-02   -0.18726E-01 12560   0.303E+00    0.196E+00
DAV:   7    -0.191169485111E+03    0.33228E-01   -0.88340E-02 12400   0.214E+00    0.550E-01
DAV:   8    -0.191164246507E+03    0.52386E-02   -0.90692E-03 11200   0.467E-01    0.148E-01
DAV:   9    -0.191165007227E+03   -0.76072E-03   -0.33109E-03 11360   0.236E-01    0.200E-01
DAV:  10    -0.191164740135E+03    0.26709E-03   -0.12542E-03 10400   0.261E-01    0.108E-01
DAV:  11    -0.191164655948E+03    0.84188E-04   -0.27319E-04  7400   0.106E-01
   5 F= -.19116466E+03 E0= -.19107378E+03  d E =-.525576E+00
       N       E                     dE             d eps       ncg     rms          rms(c)
DAV:   1    -0.191204870272E+03   -0.40130E-01   -0.36019E+00  8160   0.406E+00    0.521E-01
DAV:   2    -0.191216918057E+03   -0.12048E-01   -0.14431E-01 13200   0.127E+00    0.727E-01
DAV:   3    -0.191213447681E+03    0.34704E-02   -0.30740E-02 12400   0.122E+00    0.688E-01
DAV:   4    -0.191209445785E+03    0.40019E-02   -0.12060E-02 11280   0.806E-01    0.310E-01
DAV:   5    -0.191208019700E+03    0.14261E-02   -0.37654E-03 10120   0.380E-01    0.201E-01
DAV:   6    -0.191208256722E+03   -0.23702E-03   -0.25106E-03 12080   0.379E-01    0.233E-01
DAV:   7    -0.191207628088E+03    0.62863E-03   -0.94857E-04 10360   0.221E-01    0.345E-02
DAV:   8    -0.191207662925E+03   -0.34838E-04   -0.10895E-04  6080   0.662E-02
   6 F= -.19120766E+03 E0= -.19111417E+03  d E =-.430070E-01
       N       E                     dE             d eps       ncg     rms          rms(c)
DAV:   1    -0.191219914509E+03   -0.12286E-01   -0.32659E-01  8160   0.123E+00    0.174E-01
DAV:   2    -0.191220716186E+03   -0.80168E-03   -0.12514E-02 11680   0.367E-01    0.223E-01
DAV:   3    -0.191220661348E+03    0.54838E-04   -0.31104E-03 12440   0.410E-01    0.246E-01
DAV:   4    -0.191220084454E+03    0.57689E-03   -0.13752E-03  9800   0.275E-01    0.993E-02
DAV:   5    -0.191220010129E+03    0.74324E-04   -0.48778E-04  8960   0.139E-01
   7 F= -.19122001E+03 E0= -.19112544E+03  d E =-.123472E-01
       N       E                     dE             d eps       ncg     rms          rms(c)
DAV:   1    -0.191218727351E+03    0.13571E-02   -0.98643E-01  8160   0.237E+00    0.579E-01
DAV:   2    -0.191216380288E+03    0.23471E-02   -0.70870E-02 12480   0.101E+00    0.712E-01
DAV:   3    -0.191216795335E+03   -0.41505E-03   -0.30681E-02 11720   0.134E+00    0.797E-01
DAV:   4    -0.191210171632E+03    0.66237E-02   -0.15476E-02 11520   0.905E-01    0.340E-01
DAV:   5    -0.191210354767E+03   -0.18314E-03   -0.73604E-03 10400   0.618E-01    0.405E-01
DAV:   6    -0.191208338215E+03    0.20166E-02   -0.32895E-03 11920   0.408E-01    0.671E-02
DAV:   7    -0.191208402856E+03   -0.64642E-04   -0.42120E-04  9520   0.101E-01
   8 F= -.19120840E+03 E0= -.19111547E+03  d E =0.116073E-01
       N       E                     dE             d eps       ncg     rms          rms(c)
DAV:   1    -0.191288633985E+03   -0.80296E-01   -0.65749E+00  8160   0.566E+00    0.947E-01
DAV:   2    -0.191297684083E+03   -0.90501E-02   -0.25591E-01 12920   0.197E+00    0.135E+00
DAV:   3    -0.191289447964E+03    0.82361E-02   -0.87890E-02 12200   0.225E+00    0.113E+00
DAV:   4    -0.191276127436E+03    0.13321E-01   -0.36364E-02 12360   0.134E+00    0.601E-01
DAV:   5    -0.191275869298E+03    0.25814E-03   -0.21647E-02 10720   0.103E+00    0.727E-01
DAV:   6    -0.191270510039E+03    0.53593E-02   -0.12772E-02 11840   0.791E-01    0.211E-01
DAV:   7    -0.191269948633E+03    0.56141E-03   -0.21321E-03 10760   0.232E-01    0.808E-02
DAV:   8    -0.191270000327E+03   -0.51694E-04   -0.64065E-04 11160   0.169E-01
   9 F= -.19127000E+03 E0= -.19117267E+03  d E =-.615975E-01
       N       E                     dE             d eps       ncg     rms          rms(c)
DAV:   1    -0.191291238983E+03   -0.21290E-01   -0.71117E-01  8160   0.183E+00    0.280E-01
DAV:   2    -0.191293069743E+03   -0.18308E-02   -0.30826E-02 12720   0.644E-01    0.409E-01
DAV:   3    -0.191291995602E+03    0.10741E-02   -0.78008E-03 11800   0.637E-01    0.320E-01
DAV:   4    -0.191291184918E+03    0.81068E-03   -0.33724E-03 10840   0.393E-01    0.195E-01
DAV:   5    -0.191290919196E+03    0.26572E-03   -0.17791E-03  9760   0.303E-01    0.182E-01
DAV:   6    -0.191290614578E+03    0.30462E-03   -0.91411E-04  9760   0.221E-01    0.718E-02
DAV:   7    -0.191290556605E+03    0.57973E-04   -0.13800E-04  6080   0.742E-02
  10 F= -.19129056E+03 E0= -.19119287E+03  d E =-.205563E-01
       N       E                     dE             d eps       ncg     rms          rms(c)
DAV:   1    -0.191340426679E+03   -0.49812E-01   -0.30529E+00  8160   0.371E+00    0.389E-01
DAV:   2    -0.191349481466E+03   -0.90548E-02   -0.81742E-02 13560   0.105E+00    0.688E-01
DAV:   3    -0.191345840105E+03    0.36414E-02   -0.19977E-02 12120   0.103E+00    0.481E-01
DAV:   4    -0.191343677497E+03    0.21626E-02   -0.56593E-03 11480   0.514E-01    0.198E-01
DAV:   5    -0.191343276310E+03    0.40119E-03   -0.19600E-03 11720   0.289E-01    0.183E-01
DAV:   6    -0.191343206431E+03    0.69879E-04   -0.13685E-03 11240   0.285E-01    0.144E-01
DAV:   7    -0.191342956534E+03    0.24990E-03   -0.42134E-04  8440   0.139E-01    0.282E-02
DAV:   8    -0.191342957817E+03   -0.12834E-05   -0.67506E-05  6240   0.430E-02
  11 F= -.19134296E+03 E0= -.19124546E+03  d E =-.524012E-01
       N       E                     dE             d eps       ncg     rms          rms(c)
DAV:   1    -0.191293376933E+03    0.49580E-01   -0.26927E+00  8160   0.352E+00    0.439E-01
DAV:   2    -0.191299329822E+03   -0.59529E-02   -0.79710E-02 13320   0.102E+00    0.647E-01
DAV:   3    -0.191297457394E+03    0.18724E-02   -0.21048E-02 11840   0.109E+00    0.591E-01
DAV:   4    -0.191293941641E+03    0.35158E-02   -0.84441E-03 11480   0.639E-01    0.215E-01
DAV:   5    -0.191293494496E+03    0.44714E-03   -0.27864E-03 11320   0.310E-01    0.204E-01
DAV:   6    -0.191293311338E+03    0.18316E-03   -0.18482E-03 11760   0.319E-01    0.160E-01
DAV:   7    -0.191293020040E+03    0.29130E-03   -0.62050E-04  9760   0.167E-01    0.367E-02
DAV:   8    -0.191293005422E+03    0.14617E-04   -0.75272E-05  6400   0.378E-02
  12 F= -.19129301E+03 E0= -.19119546E+03  d E =0.499524E-01
       N       E                     dE             d eps       ncg     rms          rms(c)
DAV:   1    -0.191375795173E+03   -0.82775E-01   -0.66031E+00  8160   0.557E+00    0.729E-01
DAV:   2    -0.191388802288E+03   -0.13007E-01   -0.21168E-01 13560   0.164E+00    0.991E-01
DAV:   3    -0.191385967457E+03    0.28348E-02   -0.55059E-02 11360   0.175E+00    0.934E-01
DAV:   4    -0.191376308351E+03    0.96591E-02   -0.21186E-02 11960   0.105E+00    0.396E-01
DAV:   5    -0.191375979989E+03    0.32836E-03   -0.10344E-02 11280   0.689E-01    0.484E-01
DAV:   6    -0.191373894387E+03    0.20856E-02   -0.68263E-03 11560   0.598E-01    0.204E-01
DAV:   7    -0.191373325998E+03    0.56839E-03   -0.15135E-03 10960   0.214E-01    0.534E-02
DAV:   8    -0.191373264763E+03    0.61235E-04   -0.21976E-04  8600   0.565E-02
  13 F= -.19137326E+03 E0= -.19127613E+03  d E =-.802593E-01
       N       E                     dE             d eps       ncg     rms          rms(c)
DAV:   1    -0.191398858001E+03   -0.25532E-01   -0.58033E-01  8160   0.163E+00    0.193E-01
DAV:   2    -0.191401320567E+03   -0.24626E-02   -0.19027E-02 12760   0.621E-01    0.415E-01
DAV:   3    -0.191399549521E+03    0.17710E-02   -0.42423E-03 11800   0.498E-01    0.158E-01
DAV:   4    -0.191399402334E+03    0.14719E-03   -0.10570E-03  9640   0.213E-01    0.128E-01
DAV:   5    -0.191399349850E+03    0.52484E-04   -0.80455E-04 10040   0.215E-01
  14 F= -.19139935E+03 E0= -.19130353E+03  d E =-.260851E-01
       N       E                     dE             d eps       ncg     rms          rms(c)
DAV:   1    -0.191466580981E+03   -0.67179E-01   -0.41587E+00  8160   0.434E+00    0.451E-01
DAV:   2    -0.191478924212E+03   -0.12343E-01   -0.11176E-01 13520   0.136E+00    0.844E-01
DAV:   3    -0.191472243320E+03    0.66809E-02   -0.21031E-02 12160   0.112E+00    0.409E-01
DAV:   4    -0.191470863989E+03    0.13793E-02   -0.55315E-03 11280   0.515E-01    0.283E-01
DAV:   5    -0.191470656410E+03    0.20758E-03   -0.41119E-03 10160   0.491E-01    0.286E-01
DAV:   6    -0.191469982247E+03    0.67416E-03   -0.21480E-03 12640   0.324E-01    0.107E-01
DAV:   7    -0.191469751511E+03    0.23074E-03   -0.49240E-04  9480   0.101E-01    0.238E-02
DAV:   8    -0.191469755052E+03   -0.35414E-05   -0.68709E-05  6880   0.278E-02
  15 F= -.19146976E+03 E0= -.19137801E+03  d E =-.704052E-01
       N       E                     dE             d eps       ncg     rms          rms(c)
DAV:   1    -0.191494305592E+03   -0.24554E-01   -0.45195E-01  8160   0.144E+00    0.154E-01
DAV:   2    -0.191495478449E+03   -0.11729E-02   -0.13333E-02 13480   0.400E-01    0.239E-01
DAV:   3    -0.191495202773E+03    0.27568E-03   -0.27400E-03 11320   0.400E-01    0.196E-01
DAV:   4    -0.191494773424E+03    0.42935E-03   -0.76148E-04  9080   0.201E-01    0.603E-02
DAV:   5    -0.191494741603E+03    0.31820E-04   -0.20718E-04  5720   0.795E-02
  16 F= -.19149474E+03 E0= -.19140452E+03  d E =-.249866E-01
       N       E                     dE             d eps       ncg     rms          rms(c)
DAV:   1    -0.191506470207E+03   -0.11697E-01   -0.27405E-01  8160   0.124E+00    0.375E-01
DAV:   2    -0.191511544420E+03   -0.50742E-02   -0.28880E-02 11320   0.114E+00    0.888E-01
DAV:   3    -0.191503068588E+03    0.84758E-02   -0.14332E-02 11320   0.991E-01    0.221E-01
DAV:   4    -0.191502558781E+03    0.50981E-03   -0.28076E-03 11400   0.316E-01    0.224E-01
DAV:   5    -0.191502776655E+03   -0.21787E-03   -0.33294E-03 11560   0.450E-01    0.297E-01
DAV:   6    -0.191501725007E+03    0.10516E-02   -0.17516E-03 11320   0.296E-01    0.346E-02
DAV:   7    -0.191501722941E+03    0.20651E-05   -0.11534E-04  5760   0.422E-02
  17 F= -.19150172E+03 E0= -.19141166E+03  d E =-.698134E-02
       N       E                     dE             d eps       ncg     rms          rms(c)
DAV:   1    -0.191591846643E+03   -0.90122E-01   -0.69207E+00  8160   0.560E+00    0.574E-01
DAV:   2    -0.191615222853E+03   -0.23376E-01   -0.20469E-01 12640   0.181E+00    0.109E+00
DAV:   3    -0.191603813978E+03    0.11409E-01   -0.36358E-02 12200   0.150E+00    0.531E-01
DAV:   4    -0.191601163842E+03    0.26501E-02   -0.82426E-03 11200   0.663E-01    0.330E-01
DAV:   5    -0.191600806032E+03    0.35781E-03   -0.51534E-03 10360   0.579E-01    0.330E-01
DAV:   6    -0.191599924694E+03    0.88134E-03   -0.29066E-03 12720   0.388E-01    0.135E-01
DAV:   7    -0.191599550535E+03    0.37416E-03   -0.81697E-04  9520   0.128E-01    0.337E-02
DAV:   8    -0.191599558501E+03   -0.79664E-05   -0.11925E-04  6560   0.595E-02
  18 F= -.19159956E+03 E0= -.19151596E+03  d E =-.978356E-01
       N       E                     dE             d eps       ncg     rms          rms(c)
DAV:   1    -0.191656268541E+03   -0.56718E-01   -0.27110E+00  8160   0.353E+00    0.365E-01
DAV:   2    -0.191663073728E+03   -0.68052E-02   -0.81558E-02 12240   0.908E-01    0.508E-01
DAV:   3    -0.191662383650E+03    0.69008E-03   -0.14100E-02 12360   0.926E-01    0.473E-01
DAV:   4    -0.191659775321E+03    0.26083E-02   -0.39652E-03 11280   0.492E-01    0.134E-01
DAV:   5    -0.191659801159E+03   -0.25838E-04   -0.14183E-03 11960   0.246E-01    0.169E-01
DAV:   6    -0.191659713811E+03    0.87348E-04   -0.11587E-03 10200   0.282E-01    0.138E-01
DAV:   7    -0.191659447595E+03    0.26622E-03   -0.40069E-04  8360   0.151E-01    0.295E-02
DAV:   8    -0.191659455456E+03   -0.78611E-05   -0.75284E-05  5840   0.557E-02
  19 F= -.19165946E+03 E0= -.19157885E+03  d E =-.598970E-01
       N       E                     dE             d eps       ncg     rms          rms(c)
DAV:   1    -0.191784186086E+03   -0.12474E+00   -0.61179E+01  8160   0.168E+01    0.164E+00
DAV:   2    -0.191960414036E+03   -0.17623E+00   -0.19663E+00 11920   0.429E+00    0.226E+00
DAV:   3    -0.191936592658E+03    0.23821E-01   -0.27205E-01 12360   0.410E+00    0.191E+00
DAV:   4    -0.191891204926E+03    0.45388E-01   -0.70593E-02 12240   0.218E+00    0.647E-01
DAV:   5    -0.191893248361E+03   -0.20434E-02   -0.28937E-02 12440   0.140E+00    0.869E-01
DAV:   6    -0.191886825536E+03    0.64228E-02   -0.21315E-02 12720   0.123E+00    0.446E-01
DAV:   7    -0.191883099776E+03    0.37258E-02   -0.67353E-03 11680   0.476E-01    0.947E-02
DAV:   8    -0.191883191809E+03   -0.92034E-04   -0.12470E-03 11760   0.175E-01    0.117E-01
DAV:   9    -0.191883089140E+03    0.10267E-03   -0.68867E-04 10560   0.207E-01    0.961E-02
DAV:  10    -0.191882959152E+03    0.12999E-03   -0.25009E-04  7360   0.112E-01    0.210E-02
DAV:  11    -0.191882979074E+03   -0.19922E-04   -0.80807E-05  6560   0.320E-02
  20 F= -.19188298E+03 E0= -.19180529E+03  d E =-.223524E+00
       N       E                     dE             d eps       ncg     rms          rms(c)
DAV:   1    -0.191911538711E+03   -0.28580E-01   -0.17051E+00  8160   0.291E+00    0.537E-01
DAV:   2    -0.191917458928E+03   -0.59202E-02   -0.10931E-01 12440   0.138E+00    0.773E-01
DAV:   3    -0.191913207160E+03    0.42518E-02   -0.21943E-02 11680   0.130E+00    0.501E-01
DAV:   4    -0.191909696172E+03    0.35110E-02   -0.70147E-03 12280   0.662E-01    0.268E-01
DAV:   5    -0.191910215530E+03   -0.51936E-03   -0.53372E-03 11560   0.588E-01    0.380E-01
DAV:   6    -0.191908457887E+03    0.17576E-02   -0.31685E-03 11680   0.447E-01    0.742E-02
DAV:   7    -0.191908471253E+03   -0.13366E-04   -0.41231E-04  9040   0.128E-01
  21 F= -.19190847E+03 E0= -.19182900E+03  d E =-.254922E-01
       N       E                     dE             d eps       ncg     rms          rms(c)
DAV:   1    -0.191926465310E+03   -0.18007E-01   -0.10300E+00  8160   0.217E+00    0.302E-01
DAV:   2    -0.191933029073E+03   -0.65638E-02   -0.50692E-02 10680   0.115E+00    0.652E-01
DAV:   3    -0.191928112238E+03    0.49168E-02   -0.10330E-02 12280   0.830E-01    0.190E-01
DAV:   4    -0.191927734589E+03    0.37765E-03   -0.15334E-03 11120   0.285E-01    0.168E-01
DAV:   5    -0.191927783671E+03   -0.49082E-04   -0.13449E-03 10280   0.323E-01    0.189E-01
DAV:   6    -0.191927359870E+03    0.42380E-03   -0.82666E-04 11440   0.210E-01    0.398E-02
DAV:   7    -0.191927350200E+03    0.96699E-05   -0.12085E-04  5960   0.546E-02
  22 F= -.19192735E+03 E0= -.19184790E+03  d E =-.188789E-01
       N       E                     dE             d eps       ncg     rms          rms(c)
DAV:   1    -0.191943552485E+03   -0.16193E-01   -0.10713E+00  8160   0.221E+00    0.247E-01
DAV:   2    -0.191946812216E+03   -0.32597E-02   -0.42126E-02 12040   0.648E-01    0.304E-01
DAV:   3    -0.191946886071E+03   -0.73855E-04   -0.58450E-03 12400   0.625E-01    0.319E-01
DAV:   4    -0.191945536649E+03    0.13494E-02   -0.17436E-03 11080   0.352E-01    0.733E-02
DAV:   5    -0.191945623164E+03   -0.86515E-04   -0.73095E-04  9880   0.157E-01
  23 F= -.19194562E+03 E0= -.19186528E+03  d E =-.182730E-01
       N       E                     dE             d eps       ncg     rms          rms(c)
DAV:   1    -0.191965596517E+03   -0.20060E-01   -0.13744E+01  8160   0.786E+00    0.805E-01
DAV:   2    -0.192011281656E+03   -0.45685E-01   -0.50192E-01 11880   0.232E+00    0.115E+00
DAV:   3    -0.192005801408E+03    0.54802E-02   -0.69826E-02 12280   0.210E+00    0.924E-01
DAV:   4    -0.191994024027E+03    0.11777E-01   -0.14716E-02 12240   0.990E-01    0.256E-01
DAV:   5    -0.191996714541E+03   -0.26905E-02   -0.80272E-03 12640   0.735E-01    0.527E-01
DAV:   6    -0.191993140249E+03    0.35743E-02   -0.52813E-03 11440   0.624E-01    0.101E-01
DAV:   7    -0.191993027034E+03    0.11322E-03   -0.74737E-04 10080   0.123E-01    0.539E-02
DAV:   8    -0.191993012712E+03    0.14322E-04   -0.19175E-04  7680   0.998E-02
  24 F= -.19199301E+03 E0= -.19191004E+03  d E =-.473895E-01
       N       E                     dE             d eps       ncg     rms          rms(c)
DAV:   1    -0.191998312115E+03   -0.52851E-02   -0.56081E+00  8160   0.504E+00    0.544E-01
DAV:   2    -0.192016894715E+03   -0.18583E-01   -0.23612E-01 11880   0.150E+00    0.589E-01
DAV:   3    -0.192018680961E+03   -0.17862E-02   -0.28370E-02 12200   0.134E+00    0.717E-01
DAV:   4    -0.192011950616E+03    0.67303E-02   -0.90921E-03 11640   0.832E-01    0.185E-01
DAV:   5    -0.192012424389E+03   -0.47377E-03   -0.42206E-03 10960   0.410E-01    0.280E-01
DAV:   6    -0.192011796060E+03    0.62833E-03   -0.35973E-03 11920   0.471E-01    0.180E-01
DAV:   7    -0.192011345599E+03    0.45046E-03   -0.87136E-04 10040   0.203E-01    0.474E-02
DAV:   8    -0.192011329136E+03    0.16463E-04   -0.11551E-04  6160   0.748E-02
  25 F= -.19201133E+03 E0= -.19192687E+03  d E =-.183164E-01
       N       E                     dE             d eps       ncg     rms          rms(c)
DAV:   1    -0.192013530168E+03   -0.21846E-02   -0.13184E+00  8160   0.241E+00    0.236E-01
DAV:   2    -0.192017737623E+03   -0.42075E-02   -0.49067E-02 11720   0.694E-01    0.270E-01
DAV:   3    -0.192017990001E+03   -0.25238E-03   -0.56954E-03 12520   0.590E-01    0.310E-01
DAV:   4    -0.192016789450E+03    0.12006E-02   -0.15930E-03 10280   0.347E-01    0.840E-02
DAV:   5    -0.192016994838E+03   -0.20539E-03   -0.59351E-04 10960   0.214E-01    0.149E-01
DAV:   6    -0.192016748449E+03    0.24639E-03   -0.46016E-04  9280   0.179E-01    0.331E-02
DAV:   7    -0.192016734771E+03    0.13679E-04   -0.72059E-05  6080   0.398E-02
  26 F= -.19201673E+03 E0= -.19193189E+03  d E =-.540563E-02
       N       E                     dE             d eps       ncg     rms          rms(c)
DAV:   1    -0.192017784005E+03   -0.10356E-02   -0.72769E-02  8240   0.575E-01    0.701E-02
DAV:   2    -0.192018165504E+03   -0.38150E-03   -0.32657E-03 12640   0.269E-01    0.138E-01
DAV:   3    -0.192017934110E+03    0.23139E-03   -0.49924E-04  9280   0.189E-01    0.448E-02
DAV:   4    -0.192017916343E+03    0.17767E-04   -0.78957E-05  5920   0.613E-02
  27 F= -.19201792E+03 E0= -.19193296E+03  d E =-.118157E-02
       N       E                     dE             d eps       ncg     rms          rms(c)
DAV:   1    -0.192019483013E+03   -0.15489E-02   -0.16945E-01  8160   0.868E-01    0.960E-02
DAV:   2    -0.192020000340E+03   -0.51733E-03   -0.61347E-03 11960   0.258E-01    0.126E-01
DAV:   3    -0.192019924364E+03    0.75976E-04   -0.89941E-04 11240   0.241E-01
  28 F= -.19201992E+03 E0= -.19193466E+03  d E =-.200802E-02
       N       E                     dE             d eps       ncg     rms          rms(c)
DAV:   1    -0.192020919632E+03   -0.91929E-03   -0.97868E-02  8160   0.667E-01    0.874E-02
DAV:   2    -0.192021208027E+03   -0.28840E-03   -0.32562E-03 13040   0.242E-01    0.130E-01
DAV:   3    -0.192021039265E+03    0.16876E-03   -0.78500E-04 11040   0.215E-01    0.795E-02
DAV:   4    -0.192020994546E+03    0.44719E-04   -0.20345E-04  6360   0.107E-01
  29 F= -.19202099E+03 E0= -.19193575E+03  d E =-.107018E-02
       N       E                     dE             d eps       ncg     rms          rms(c)
DAV:   1    -0.192022090147E+03   -0.10509E-02   -0.10112E-01  8160   0.670E-01    0.804E-02
DAV:   2    -0.192022536944E+03   -0.44680E-03   -0.37388E-03 11320   0.259E-01    0.148E-01
DAV:   3    -0.192022302468E+03    0.23448E-03   -0.53942E-04 10440   0.211E-01    0.640E-02
DAV:   4    -0.192022278162E+03    0.24306E-04   -0.10393E-04  5840   0.908E-02
  30 F= -.19202228E+03 E0= -.19193716E+03  d E =-.128362E-02
       N       E                     dE             d eps       ncg     rms          rms(c)
DAV:   1    -0.192023477635E+03   -0.11752E-02   -0.17143E-01  8160   0.873E-01    0.922E-02
DAV:   2    -0.192023892330E+03   -0.41469E-03   -0.56376E-03 11880   0.227E-01    0.881E-02
DAV:   3    -0.192023948381E+03   -0.56051E-04   -0.55065E-04 11080   0.198E-01
  31 F= -.19202395E+03 E0= -.19193893E+03  d E =-.167022E-02
       N       E                     dE             d eps       ncg     rms          rms(c)
DAV:   1    -0.192023442403E+03    0.44993E-03   -0.10309E-02  8160   0.250E-01    0.427E-02
DAV:   2    -0.192023676353E+03   -0.23395E-03   -0.77514E-04 10440   0.174E-01    0.130E-01
DAV:   3    -0.192023465742E+03    0.21061E-03   -0.32447E-04  8320   0.160E-01    0.246E-02
DAV:   4    -0.192023470804E+03   -0.50623E-05   -0.30484E-05  5720   0.332E-02
  32 F= -.19202347E+03 E0= -.19193844E+03  d E =0.477577E-03
       N       E                     dE             d eps       ncg     rms          rms(c)
DAV:   1    -0.192024272736E+03   -0.80699E-03   -0.74038E-02  8160   0.571E-01    0.569E-02
DAV:   2    -0.192024468803E+03   -0.19607E-03   -0.24539E-03 11840   0.150E-01    0.586E-02
DAV:   3    -0.192024491798E+03   -0.22995E-04   -0.23585E-04  8600   0.134E-01
  33 F= -.19202449E+03 E0= -.19193945E+03  d E =-.102099E-02
       N       E                     dE             d eps       ncg     rms          rms(c)
DAV:   1    -0.192024797491E+03   -0.32869E-03   -0.15093E-02  8160   0.272E-01    0.380E-02
DAV:   2    -0.192024820315E+03   -0.22825E-04   -0.43022E-04 10040   0.676E-02
  34 F= -.19202482E+03 E0= -.19193981E+03  d E =-.328517E-03
