<?xml version="1.0" encoding="ISO-8859-1"?>
<modeling>
 <generator>
  <i name="program" type="string">vasp </i>
  <i name="version" type="string">5.4.1  </i>
  <i name="subversion" type="string">05Feb16 (build Jul 05 2020 17:13:04) complex                          parallel </i>
  <i name="platform" type="string">IFC91_ompi </i>
  <i name="date" type="string">2024 04 26 </i>
  <i name="time" type="string">23:23:26 </i>
 </generator>
 <incar>
  <i type="int" name="ISTART">     0</i>
  <i type="string" name="PREC">normal</i>
  <i type="string" name="ALGO"> Normal</i>
  <i type="int" name="ISPIN">     1</i>
  <i type="int" name="ICHARG">     2</i>
  <i type="int" name="IBRION">     1</i>
  <i type="int" name="NSW">   100</i>
  <i type="int" name="ISIF">     3</i>
  <i type="int" name="ISYM">     0</i>
  <i name="SYMPREC">      0.00000001</i>
  <i name="POTIM">      0.50000000</i>
  <i type="logical" name="LREAL"> F  </i>
  <i type="logical" name="LPLANE"> F  </i>
  <i type="int" name="ISMEAR">     0</i>
  <i type="logical" name="LWAVE"> F  </i>
  <i type="logical" name="LCHARG"> F  </i>
  <v type="int" name="KPOINT_BSE">    -1     0     0     0</v>
 </incar>
 <kpoints>
  <generation param="Gamma">
   <v type="int" name="divisions">       8        8        1 </v>
   <v name="usershift">      0.00000000       0.00000000       0.00000000 </v>
   <v name="genvec1">      0.12500000       0.00000000       0.00000000 </v>
   <v name="genvec2">     -0.00000000       0.12500000       0.00000000 </v>
   <v name="genvec3">      0.00000000       0.00000000       1.00000000 </v>
   <v name="shift">      0.00000000       0.00000000       0.00000000 </v>
  </generation>
  <varray name="kpointlist" >
   <v>       0.00000000       0.00000000       0.00000000 </v>
   <v>       0.12500000       0.00000000       0.00000000 </v>
   <v>       0.25000000       0.00000000       0.00000000 </v>
   <v>       0.37500000       0.00000000       0.00000000 </v>
   <v>       0.50000000       0.00000000       0.00000000 </v>
   <v>       0.00000000       0.12500000       0.00000000 </v>
   <v>       0.12500000       0.12500000       0.00000000 </v>
   <v>       0.25000000       0.12500000       0.00000000 </v>
   <v>       0.37500000       0.12500000       0.00000000 </v>
   <v>       0.50000000       0.12500000       0.00000000 </v>
   <v>      -0.37500000       0.12500000       0.00000000 </v>
   <v>      -0.25000000       0.12500000       0.00000000 </v>
   <v>      -0.12500000       0.12500000       0.00000000 </v>
   <v>       0.00000000       0.25000000       0.00000000 </v>
   <v>       0.12500000       0.25000000       0.00000000 </v>
   <v>       0.25000000       0.25000000       0.00000000 </v>
   <v>       0.37500000       0.25000000       0.00000000 </v>
   <v>       0.50000000       0.25000000       0.00000000 </v>
   <v>      -0.37500000       0.25000000       0.00000000 </v>
   <v>      -0.25000000       0.25000000       0.00000000 </v>
   <v>      -0.12500000       0.25000000       0.00000000 </v>
   <v>      -0.00000000       0.37500000       0.00000000 </v>
   <v>       0.12500000       0.37500000       0.00000000 </v>
   <v>       0.25000000       0.37500000       0.00000000 </v>
   <v>       0.37500000       0.37500000       0.00000000 </v>
   <v>       0.50000000       0.37500000       0.00000000 </v>
   <v>      -0.37500000       0.37500000       0.00000000 </v>
   <v>      -0.25000000       0.37500000       0.00000000 </v>
   <v>      -0.12500000       0.37500000       0.00000000 </v>
   <v>       0.00000000       0.50000000       0.00000000 </v>
   <v>       0.12500000       0.50000000       0.00000000 </v>
   <v>       0.25000000       0.50000000       0.00000000 </v>
   <v>       0.37500000       0.50000000       0.00000000 </v>
   <v>       0.50000000       0.50000000       0.00000000 </v>
  </varray>
  <varray name="weights" >
   <v>       0.01562500 </v>
   <v>       0.03125000 </v>
   <v>       0.03125000 </v>
   <v>       0.03125000 </v>
   <v>       0.01562500 </v>
   <v>       0.03125000 </v>
   <v>       0.03125000 </v>
   <v>       0.03125000 </v>
   <v>       0.03125000 </v>
   <v>       0.03125000 </v>
   <v>       0.03125000 </v>
   <v>       0.03125000 </v>
   <v>       0.03125000 </v>
   <v>       0.03125000 </v>
   <v>       0.03125000 </v>
   <v>       0.03125000 </v>
   <v>       0.03125000 </v>
   <v>       0.03125000 </v>
   <v>       0.03125000 </v>
   <v>       0.03125000 </v>
   <v>       0.03125000 </v>
   <v>       0.03125000 </v>
   <v>       0.03125000 </v>
   <v>       0.03125000 </v>
   <v>       0.03125000 </v>
   <v>       0.03125000 </v>
   <v>       0.03125000 </v>
   <v>       0.03125000 </v>
   <v>       0.03125000 </v>
   <v>       0.01562500 </v>
   <v>       0.03125000 </v>
   <v>       0.03125000 </v>
   <v>       0.03125000 </v>
   <v>       0.01562500 </v>
  </varray>
 </kpoints>
 <parameters>
  <separator name="general" >
   <i type="string" name="SYSTEM">unknown system</i>
   <i type="logical" name="LCOMPAT"> F  </i>
  </separator>
  <separator name="electronic" >
   <i type="string" name="PREC">normal</i>
   <i name="ENMAX">    280.00000000</i>
   <i name="ENAUG">    373.43800000</i>
   <i name="EDIFF">      0.00010000</i>
   <i type="int" name="IALGO">    38</i>
   <i type="int" name="IWAVPR">    11</i>
   <i type="int" name="NBANDS">   120</i>
   <i name="NELECT">    159.00000000</i>
   <i type="int" name="TURBO">     0</i>
   <i type="int" name="IRESTART">     0</i>
   <i type="int" name="NREBOOT">     0</i>
   <i type="int" name="NMIN">     0</i>
   <i name="EREF">      0.00000000</i>
   <separator name="electronic smearing" >
    <i type="int" name="ISMEAR">     0</i>
    <i name="SIGMA">      0.20000000</i>
    <i name="KSPACING">      0.50000000</i>
    <i type="logical" name="KGAMMA"> T  </i>
   </separator>
   <separator name="electronic projectors" >
    <i type="logical" name="LREAL"> F  </i>
    <v name="ROPT">      0.00000000      0.00000000      0.00000000      0.00000000</v>
    <i type="int" name="LMAXPAW">  -100</i>
    <i type="int" name="LMAXMIX">     2</i>
    <i type="logical" name="NLSPLINE"> F  </i>
   </separator>
   <separator name="electronic startup" >
    <i type="int" name="ISTART">     0</i>
    <i type="int" name="ICHARG">     2</i>
    <i type="int" name="INIWAV">     1</i>
   </separator>
   <separator name="electronic spin" >
    <i type="int" name="ISPIN">     1</i>
    <i type="logical" name="LNONCOLLINEAR"> F  </i>
    <v name="MAGMOM">      1.00000000      1.00000000      1.00000000      1.00000000      1.00000000      1.00000000      1.00000000      1.00000000      1.00000000      1.00000000      1.00000000      1.00000000      1.00000000      1.00000000      1.00000000      1.00000000      1.00000000      1.00000000      1.00000000      1.00000000
      1.00000000      1.00000000      1.00000000      1.00000000      1.00000000      1.00000000      1.00000000</v>
    <i name="NUPDOWN">     -1.00000000</i>
    <i type="logical" name="LSORBIT"> F  </i>
    <v name="SAXIS">      0.00000000      0.00000000      1.00000000</v>
    <i type="logical" name="LSPIRAL"> F  </i>
    <v name="QSPIRAL">      0.00000000      0.00000000      0.00000000</v>
    <i type="logical" name="LZEROZ"> F  </i>
   </separator>
   <separator name="electronic exchange-correlation" >
    <i type="logical" name="LASPH"> F  </i>
    <i type="logical" name="LMETAGGA"> F  </i>
   </separator>
   <separator name="electronic convergence" >
    <i type="int" name="NELM">    60</i>
    <i type="int" name="NELMDL">    -5</i>
    <i type="int" name="NELMIN">     2</i>
    <i name="ENINI">    280.00000000</i>
    <separator name="electronic convergence detail" >
     <i type="logical" name="LDIAG"> T  </i>
     <i type="logical" name="LSUBROT"> F  </i>
     <i name="WEIMIN">      0.00100000</i>
     <i name="EBREAK">      0.00000021</i>
     <i name="DEPER">      0.30000000</i>
     <i type="int" name="NRMM">     4</i>
     <i name="TIME">      0.40000000</i>
    </separator>
   </separator>
   <separator name="electronic mixer" >
    <i name="AMIX">      0.40000000</i>
    <i name="BMIX">      1.00000000</i>
    <i name="AMIN">      0.10000000</i>
    <i name="AMIX_MAG">      1.60000000</i>
    <i name="BMIX_MAG">      1.00000000</i>
    <separator name="electronic mixer details" >
     <i type="int" name="IMIX">     4</i>
     <i type="logical" name="MIXFIRST"> F  </i>
     <i type="int" name="MAXMIX">   -45</i>
     <i name="WC">    100.00000000</i>
     <i type="int" name="INIMIX">     1</i>
     <i type="int" name="MIXPRE">     1</i>
     <i type="int" name="MREMOVE">     5</i>
    </separator>
   </separator>
   <separator name="electronic dipolcorrection" >
    <i type="logical" name="LDIPOL"> F  </i>
    <i type="logical" name="LMONO"> F  </i>
    <i type="int" name="IDIPOL">     0</i>
    <i name="EPSILON">      1.00000000</i>
    <v name="DIPOL">   -100.00000000   -100.00000000   -100.00000000</v>
    <i name="EFIELD">      0.00000000</i>
   </separator>
  </separator>
  <separator name="grids" >
   <i type="int" name="NGX">    42</i>
   <i type="int" name="NGY">    42</i>
   <i type="int" name="NGZ">   126</i>
   <i type="int" name="NGXF">    84</i>
   <i type="int" name="NGYF">    84</i>
   <i type="int" name="NGZF">   252</i>
   <i type="logical" name="ADDGRID"> F  </i>
  </separator>
  <separator name="ionic" >
   <i type="int" name="NSW">   100</i>
   <i type="int" name="IBRION">     1</i>
   <i type="int" name="ISIF">     3</i>
   <i name="PSTRESS">      0.00000000</i>
   <i name="EDIFFG">      0.00100000</i>
   <i type="int" name="NFREE">     0</i>
   <i name="POTIM">      0.50000000</i>
   <i name="SMASS">     -3.00000000</i>
   <i name="SCALEE">      1.00000000</i>
  </separator>
  <separator name="ionic md" >
   <i name="TEBEG">      0.00010000</i>
   <i name="TEEND">      0.00010000</i>
   <i type="int" name="NBLOCK">     1</i>
   <i type="int" name="KBLOCK">   100</i>
   <i type="int" name="NPACO">   256</i>
   <i name="APACO">     16.00000000</i>
  </separator>
  <separator name="symmetry" >
   <i type="int" name="ISYM">     0</i>
   <i name="SYMPREC">      0.00000001</i>
  </separator>
  <separator name="dos" >
   <i type="logical" name="LORBIT"> F  </i>
   <v name="RWIGS">     -1.00000000     -1.00000000     -1.00000000     -1.00000000</v>
   <i type="int" name="NEDOS">   301</i>
   <i name="EMIN">     10.00000000</i>
   <i name="EMAX">    -10.00000000</i>
   <i name="EFERMI">      0.00000000</i>
  </separator>
  <separator name="writing" >
   <i type="int" name="NWRITE">     2</i>
   <i type="logical" name="LWAVE"> F  </i>
   <i type="logical" name="LCHARG"> F  </i>
   <i type="logical" name="LPARD"> F  </i>
   <i type="logical" name="LVTOT"> F  </i>
   <i type="logical" name="LVHAR"> F  </i>
   <i type="logical" name="LELF"> F  </i>
   <i type="logical" name="LOPTICS"> F  </i>
   <v name="STM">      0.00000000      0.00000000      0.00000000      0.00000000      0.00000000      0.00000000      0.00000000</v>
  </separator>
  <separator name="performance" >
   <i type="int" name="NPAR">    40</i>
   <i type="int" name="NSIM">     4</i>
   <i type="int" name="NBLK">    -1</i>
   <i type="logical" name="LPLANE"> F  </i>
   <i type="logical" name="LSCALAPACK"> T  </i>
   <i type="logical" name="LSCAAWARE"> F  </i>
   <i type="logical" name="LSCALU"> F  </i>
   <i type="logical" name="LASYNC"> F  </i>
   <i type="logical" name="LORBITALREAL"> F  </i>
  </separator>
  <separator name="miscellaneous" >
   <i type="int" name="IDIOT">     3</i>
   <i type="logical" name="LMUSIC"> F  </i>
   <v name="POMASS">     50.94100000     95.94000000    183.85000000     32.06600000</v>
   <v name="DARWINR">      0.00000000      0.00000000      0.00000000      0.00000000</v>
   <v name="DARWINV">      1.00000000      1.00000000      1.00000000      1.00000000</v>
   <i type="logical" name="LCORR"> T  </i>
  </separator>
  <i type="logical" name="GGA_COMPAT"> T  </i>
  <i type="logical" name="LBERRY"> F  </i>
  <i type="int" name="ICORELEVEL">     0</i>
  <i type="logical" name="LDAU"> F  </i>
  <i type="int" name="I_CONSTRAINED_M">     0</i>
  <separator name="electronic exchange-correlation" >
   <i type="string" name="GGA">--</i>
   <i type="int" name="VOSKOWN">     0</i>
   <i type="logical" name="LHFCALC"> F  </i>
   <i type="string" name="PRECFOCK"></i>
   <i type="logical" name="LSYMGRAD"> F  </i>
   <i type="logical" name="LHFONE"> F  </i>
   <i type="logical" name="LRHFCALC"> F  </i>
   <i type="logical" name="LTHOMAS"> F  </i>
   <i type="logical" name="LMODELHF"> F  </i>
   <i name="ENCUT4O">     -1.00000000</i>
   <i type="int" name="EXXOEP">     0</i>
   <i type="int" name="FOURORBIT">     0</i>
   <i name="AEXX">      0.00000000</i>
   <i name="HFALPHA">      0.00000000</i>
   <i name="MCALPHA">      0.00000000</i>
   <i name="ALDAX">      1.00000000</i>
   <i name="AGGAX">      1.00000000</i>
   <i name="ALDAC">      1.00000000</i>
   <i name="AGGAC">      1.00000000</i>
   <i type="int" name="NKREDX">     1</i>
   <i type="int" name="NKREDY">     1</i>
   <i type="int" name="NKREDZ">     1</i>
   <i type="logical" name="SHIFTRED"> F  </i>
   <i type="logical" name="ODDONLY"> F  </i>
   <i type="logical" name="EVENONLY"> F  </i>
   <i type="int" name="LMAXFOCK">     0</i>
   <i type="int" name="NMAXFOCKAE">     0</i>
   <i type="logical" name="LFOCKAEDFT"> F  </i>
   <i name="HFSCREEN">      0.00000000</i>
   <i name="HFSCREENC">      0.00000000</i>
   <i type="int" name="NBANDSGWLOW">     0</i>
  </separator>
  <separator name="vdW DFT" >
   <i type="logical" name="LUSE_VDW"> F  </i>
   <i name="Zab_VDW">     -0.84910000</i>
   <i name="PARAM1">      0.12340000</i>
   <i name="PARAM2">      1.00000000</i>
   <i name="PARAM3">      0.00000000</i>
  </separator>
  <separator name="model GW" >
   <i type="int" name="MODEL_GW">     0</i>
   <i name="MODEL_EPS0">     58.26239943</i>
   <i name="MODEL_ALPHA">      1.00000000</i>
  </separator>
  <separator name="linear response parameters" >
   <i type="logical" name="LEPSILON"> F  </i>
   <i type="logical" name="LRPA"> F  </i>
   <i type="logical" name="LNABLA"> F  </i>
   <i type="logical" name="LVEL"> F  </i>
   <i type="int" name="KINTER">     0</i>
   <i name="CSHIFT">      0.10000000</i>
   <i name="OMEGAMAX">     -1.00000000</i>
   <i name="DEG_THRESHOLD">      0.00200000</i>
  </separator>
  <separator name="orbital magnetization" >
   <i type="logical" name="NUCIND"> F  </i>
   <v name="MAGPOS">      0.00000000      0.00000000      0.00000000</v>
   <i type="logical" name="LNICSALL"> T  </i>
   <i type="logical" name="ORBITALMAG"> F  </i>
   <i type="logical" name="LMAGBLOCH"> F  </i>
   <i type="logical" name="LCHIMAG"> F  </i>
   <i type="logical" name="LGAUGE"> T  </i>
   <i type="int" name="MAGATOM">     0</i>
   <v name="MAGDIPOL">      0.00000000      0.00000000      0.00000000</v>
   <v name="AVECCONST">      0.00000000      0.00000000      0.00000000</v>
  </separator>
  <separator name="response functions" >
   <i type="logical" name="LADDER"> F  </i>
   <i type="logical" name="LFXC"> F  </i>
   <i type="logical" name="LHARTREE"> T  </i>
   <i type="int" name="IBSE">     0</i>
   <v type="int" name="KPOINT">    -1     0     0     0</v>
   <i type="logical" name="LTCTE"> F  </i>
   <i type="logical" name="LTETE"> F  </i>
   <i type="logical" name="LTRIPLET"> F  </i>
   <i type="logical" name="LFXCEPS"> F  </i>
   <i type="logical" name="LFXHEG"> F  </i>
   <i type="int" name="NATURALO">     0</i>
   <i type="logical" name="L2ORDER"> F  </i>
   <i type="logical" name="LUSEW"> F  </i>
   <i name="ENCUTGW">     -2.00000000</i>
   <i name="ENCUTGWSOFT">     -2.00000000</i>
   <i name="ENCUTLF">     -1.00000000</i>
   <i type="int" name="LMAXMP2">    -1</i>
   <i name="SCISSOR">      0.00000000</i>
   <i type="int" name="NOMEGA">     0</i>
   <i type="int" name="NOMEGAR">     0</i>
   <i type="int" name="NBANDSGW">    -1</i>
   <i type="int" name="NBANDSO">    -1</i>
   <i type="int" name="NBANDSV">    -1</i>
   <i type="int" name="NELM">     1</i>
   <i type="int" name="NELMHF">     1</i>
   <i type="int" name="DIM">     3</i>
   <i type="int" name="ANTIRES">     0</i>
   <i name="OMEGAMAX">    -30.00000000</i>
   <i name="OMEGAMIN">    -30.00000000</i>
   <i name="OMEGATL">   -200.00000000</i>
   <i type="int" name="OMEGAGRID">     0</i>
   <i name="CSHIFT">     -0.10000000</i>
   <i type="logical" name="SELFENERGY"> F  </i>
   <i type="logical" name="LSPECTRAL"> F  </i>
   <i type="logical" name="LSPECTRALGW"> F  </i>
   <i type="logical" name="LSINGLES"> F  </i>
   <i type="logical" name="LFERMIGW"> F  </i>
   <i type="logical" name="ODDONLYGW"> F  </i>
   <i type="logical" name="EVENONLYGW"> F  </i>
   <i type="int" name="NKREDLFX">     1</i>
   <i type="int" name="NKREDLFY">     1</i>
   <i type="int" name="NKREDLFZ">     1</i>
   <i type="int" name="MAXMEM">  1800</i>
   <i type="int" name="TELESCOPE">     0</i>
   <i type="int" name="TAUPAR">     1</i>
   <i type="int" name="OMEGAPAR">    -1</i>
   <i name="LAMBDA">      1.00000000</i>
  </separator>
  <separator name="External order field" >
   <i name="OFIELD_KAPPA">      0.00000000</i>
   <v name="OFIELD_K">      0.00000000      0.00000000      0.00000000</v>
   <i name="OFIELD_Q6_NEAR">      0.00000000</i>
   <i name="OFIELD_Q6_FAR">      0.00000000</i>
   <i name="OFIELD_A">      0.00000000</i>
  </separator>
 </parameters>
 <atominfo>
  <atoms>      27 </atoms>
  <types>       4 </types>
  <array name="atoms" >
   <dimension dim="1">ion</dimension>
   <field type="string">element</field>
   <field type="int">atomtype</field>
   <set>
    <rc><c>V </c><c>   1</c></rc>
    <rc><c>V </c><c>   1</c></rc>
    <rc><c>V </c><c>   1</c></rc>
    <rc><c>Mo</c><c>   2</c></rc>
    <rc><c>Mo</c><c>   2</c></rc>
    <rc><c>Mo</c><c>   2</c></rc>
    <rc><c>W </c><c>   3</c></rc>
    <rc><c>W </c><c>   3</c></rc>
    <rc><c>W </c><c>   3</c></rc>
    <rc><c>S </c><c>   4</c></rc>
    <rc><c>S </c><c>   4</c></rc>
    <rc><c>S </c><c>   4</c></rc>
    <rc><c>S </c><c>   4</c></rc>
    <rc><c>S </c><c>   4</c></rc>
    <rc><c>S </c><c>   4</c></rc>
    <rc><c>S </c><c>   4</c></rc>
    <rc><c>S </c><c>   4</c></rc>
    <rc><c>S </c><c>   4</c></rc>
    <rc><c>S </c><c>   4</c></rc>
    <rc><c>S </c><c>   4</c></rc>
    <rc><c>S </c><c>   4</c></rc>
    <rc><c>S </c><c>   4</c></rc>
    <rc><c>S </c><c>   4</c></rc>
    <rc><c>S </c><c>   4</c></rc>
    <rc><c>S </c><c>   4</c></rc>
    <rc><c>S </c><c>   4</c></rc>
    <rc><c>S </c><c>   4</c></rc>
   </set>
  </array>
  <array name="atomtypes" >
   <dimension dim="1">type</dimension>
   <field type="int">atomspertype</field>
   <field type="string">element</field>
   <field>mass</field>
   <field>valence</field>
   <field type="string">pseudopotential</field>
   <set>
    <rc><c>   3</c><c>V </c><c>     50.94100000</c><c>      5.00000000</c><c> PAW_PBE V 08Apr2002                    </c></rc>
    <rc><c>   3</c><c>Mo</c><c>     95.94000000</c><c>      6.00000000</c><c> PAW_PBE Mo 08Apr2002                   </c></rc>
    <rc><c>   3</c><c>W </c><c>    183.85000000</c><c>      6.00000000</c><c> PAW_PBE W 08Apr2002                    </c></rc>
    <rc><c>  18</c><c>S </c><c>     32.06600000</c><c>      6.00000000</c><c>  PAW_PBE S 17Jan2003                   </c></rc>
   </set>
  </array>
 </atominfo>
 <structure name="initialpos" >
  <crystal>
   <varray name="basis" >
    <v>       8.66999996       5.03999989       0.00000000 </v>
    <v>      -8.66999982       5.04000013       0.00000000 </v>
    <v>       0.00000000       0.00000000      30.00000000 </v>
   </varray>
   <i name="volume">   2621.80797419 </i>
   <varray name="rec_basis" >
    <v>       0.05767013       0.09920635       0.00000000 </v>
    <v>      -0.05767013       0.09920635       0.00000000 </v>
    <v>       0.00000000       0.00000000       0.03333333 </v>
   </varray>
  </crystal>
  <varray name="positions" >
   <v>       0.66666669       0.00000000       0.00000000 </v>
   <v>       0.00000000       0.66666669       0.00000000 </v>
   <v>       0.33333334       0.33333334       0.00000000 </v>
   <v>       0.66666669       0.66666669       0.00000000 </v>
   <v>       0.33333334       0.66666669       0.00000000 </v>
   <v>       0.00000000       0.00000000       0.00000000 </v>
   <v>       1.00000000       0.33333334       0.00000000 </v>
   <v>       0.33333334       0.00000000       0.00000000 </v>
   <v>       0.66666669       0.33333334       0.00000000 </v>
   <v>       0.11068511       0.22244981       0.95539999 </v>
   <v>       0.22244981       0.11068511       0.04460000 </v>
   <v>       0.11068511       0.55578315       0.95539999 </v>
   <v>       0.22244981       0.44401845       0.04460000 </v>
   <v>       0.11068511       0.88911647       0.95539999 </v>
   <v>       0.22244981       0.77735180       0.04460000 </v>
   <v>       0.44401845       0.22244981       0.95539999 </v>
   <v>       0.55578315       0.11068511       0.04460000 </v>
   <v>       0.44401845       0.55578315       0.95539999 </v>
   <v>       0.55578315       0.44401845       0.04460000 </v>
   <v>       0.44401845       0.88911647       0.95539999 </v>
   <v>       0.55578315       0.77735180       0.04460000 </v>
   <v>       0.77735180       0.22244981       0.95539999 </v>
   <v>       0.88911647       0.11068511       0.04460000 </v>
   <v>       0.77735180       0.55578315       0.95539999 </v>
   <v>       0.88911647       0.44401845       0.04460000 </v>
   <v>       0.77735180       0.88911647       0.95539999 </v>
   <v>       0.88911647       0.77735180       0.04460000 </v>
  </varray>
 </structure>
 <calculation>
  <scstep>
   <time name="dav">   22.00   22.06</time>
   <time name="total">   22.04   22.10</time>
   <energy>
    <i name="alphaZ">     81.65567618 </i>
    <i name="ewald">  41888.36874788 </i>
    <i name="hartreedc"> -47720.98535216 </i>
    <i name="XCdc">   -242.93567428 </i>
    <i name="pawpsdc">   3467.42045192 </i>
    <i name="pawaedc">  -2871.19716117 </i>
    <i name="eentropy">     -0.52218225 </i>
    <i name="bandstr">   -238.80263616 </i>
    <i name="atom">   6761.44252427 </i>
    <i name="e_fr_energy">   1124.44439424 </i>
    <i name="e_wo_entrp">   1124.96657649 </i>
    <i name="e_0_energy">   1124.70548536 </i>
   </energy>
  </scstep>
  <scstep>
   <time name="dav">   28.05   28.12</time>
   <time name="total">   28.05   28.13</time>
   <energy>
    <i name="e_fr_energy">     -2.56908981 </i>
    <i name="e_wo_entrp">     -2.39111571 </i>
    <i name="e_0_energy">     -2.48010276 </i>
   </energy>
  </scstep>
  <scstep>
   <time name="dav">   27.84   27.91</time>
   <time name="total">   27.84   27.91</time>
   <energy>
    <i name="e_fr_energy">   -199.74546493 </i>
    <i name="e_wo_entrp">   -199.50818671 </i>
    <i name="e_0_energy">   -199.62682582 </i>
   </energy>
  </scstep>
  <scstep>
   <time name="dav">   30.27   30.34</time>
   <time name="total">   30.27   30.35</time>
   <energy>
    <i name="e_fr_energy">   -209.01476611 </i>
    <i name="e_wo_entrp">   -208.75141964 </i>
    <i name="e_0_energy">   -208.88309287 </i>
   </energy>
  </scstep>
  <scstep>
   <time name="dav">   29.31   29.38</time>
   <time name="total">   29.78   29.85</time>
   <energy>
    <i name="e_fr_energy">   -209.34957988 </i>
    <i name="e_wo_entrp">   -209.08978204 </i>
    <i name="e_0_energy">   -209.21968096 </i>
   </energy>
  </scstep>
  <scstep>
   <time name="dav">   31.55   31.62</time>
   <time name="total">   32.04   32.13</time>
   <energy>
    <i name="e_fr_energy">   -236.55332947 </i>
    <i name="e_wo_entrp">   -236.28240539 </i>
    <i name="e_0_energy">   -236.41786743 </i>
   </energy>
  </scstep>
  <scstep>
   <time name="dav">   31.43   31.50</time>
   <time name="total">   31.93   32.02</time>
   <energy>
    <i name="e_fr_energy">   -196.08509594 </i>
    <i name="e_wo_entrp">   -195.82895406 </i>
    <i name="e_0_energy">   -195.95702500 </i>
   </energy>
  </scstep>
  <scstep>
   <time name="dav">   30.37   30.45</time>
   <time name="total">   30.89   30.97</time>
   <energy>
    <i name="e_fr_energy">   -189.21972757 </i>
    <i name="e_wo_entrp">   -188.93355503 </i>
    <i name="e_0_energy">   -189.07664130 </i>
   </energy>
  </scstep>
  <scstep>
   <time name="dav">   33.07   33.15</time>
   <time name="total">   33.59   33.68</time>
   <energy>
    <i name="e_fr_energy">   -188.01394840 </i>
    <i name="e_wo_entrp">   -187.70392968 </i>
    <i name="e_0_energy">   -187.85893904 </i>
   </energy>
  </scstep>
  <scstep>
   <time name="dav">   32.80   32.88</time>
   <time name="total">   33.34   33.43</time>
   <energy>
    <i name="e_fr_energy">   -187.02175681 </i>
    <i name="e_wo_entrp">   -186.66999743 </i>
    <i name="e_0_energy">   -186.84587712 </i>
   </energy>
  </scstep>
  <scstep>
   <time name="dav">   32.35   32.42</time>
   <time name="total">   32.88   32.97</time>
   <energy>
    <i name="e_fr_energy">   -187.21906719 </i>
    <i name="e_wo_entrp">   -186.89003241 </i>
    <i name="e_0_energy">   -187.05454980 </i>
   </energy>
  </scstep>
  <scstep>
   <time name="dav">   30.58   30.65</time>
   <time name="total">   31.11   31.20</time>
   <energy>
    <i name="e_fr_energy">   -187.06012869 </i>
    <i name="e_wo_entrp">   -186.72925222 </i>
    <i name="e_0_energy">   -186.89469045 </i>
   </energy>
  </scstep>
  <scstep>
   <time name="dav">   30.91   30.98</time>
   <time name="total">   31.44   31.52</time>
   <energy>
    <i name="e_fr_energy">   -186.94096204 </i>
    <i name="e_wo_entrp">   -186.59573454 </i>
    <i name="e_0_energy">   -186.76834829 </i>
   </energy>
  </scstep>
  <scstep>
   <time name="dav">   32.02   32.09</time>
   <time name="total">   32.55   32.64</time>
   <energy>
    <i name="e_fr_energy">   -186.93453069 </i>
    <i name="e_wo_entrp">   -186.58812417 </i>
    <i name="e_0_energy">   -186.76132743 </i>
   </energy>
  </scstep>
  <scstep>
   <time name="dav">   33.05   33.13</time>
   <time name="total">   33.59   33.68</time>
   <energy>
    <i name="e_fr_energy">   -186.92809147 </i>
    <i name="e_wo_entrp">   -186.58207875 </i>
    <i name="e_0_energy">   -186.75508511 </i>
   </energy>
  </scstep>
  <scstep>
   <time name="dav">   32.19   32.27</time>
   <time name="total">   32.73   32.81</time>
   <energy>
    <i name="e_fr_energy">   -186.92391923 </i>
    <i name="e_wo_entrp">   -186.57929339 </i>
    <i name="e_0_energy">   -186.75160631 </i>
   </energy>
  </scstep>
  <scstep>
   <time name="dav">   30.10   30.18</time>
   <time name="total">   30.64   30.72</time>
   <energy>
    <i name="e_fr_energy">   -186.92367232 </i>
    <i name="e_wo_entrp">   -186.57943072 </i>
    <i name="e_0_energy">   -186.75155152 </i>
   </energy>
  </scstep>
  <scstep>
   <time name="dav">   30.97   31.04</time>
   <time name="total">   31.51   31.59</time>
   <energy>
    <i name="e_fr_energy">   -186.92314151 </i>
    <i name="e_wo_entrp">   -186.57824333 </i>
    <i name="e_0_energy">   -186.75069242 </i>
   </energy>
  </scstep>
  <scstep>
   <time name="dav">   27.45   27.51</time>
   <time name="total">   27.99   28.06</time>
   <energy>
    <i name="e_fr_energy">   -186.92355789 </i>
    <i name="e_wo_entrp">   -186.57894091 </i>
    <i name="e_0_energy">   -186.75124940 </i>
   </energy>
  </scstep>
  <scstep>
   <time name="dav">   25.03   25.09</time>
   <time name="total">   25.57   25.64</time>
   <energy>
    <i name="e_fr_energy">   -186.92409410 </i>
    <i name="e_wo_entrp">   -186.57979979 </i>
    <i name="e_0_energy">   -186.75194695 </i>
   </energy>
  </scstep>
  <scstep>
   <time name="dav">   23.85   23.91</time>
   <time name="total">   24.39   24.45</time>
   <energy>
    <i name="e_fr_energy">   -186.92524463 </i>
    <i name="e_wo_entrp">   -186.58078680 </i>
    <i name="e_0_energy">   -186.75301572 </i>
   </energy>
  </scstep>
  <scstep>
   <time name="dav">   20.29   20.33</time>
   <time name="total">   20.82   20.88</time>
   <energy>
    <i name="e_fr_energy">   -186.92616274 </i>
    <i name="e_wo_entrp">   -186.58167668 </i>
    <i name="e_0_energy">   -186.75391971 </i>
   </energy>
  </scstep>
  <scstep>
   <time name="dav">   20.17   20.22</time>
   <time name="total">   20.70   20.76</time>
   <energy>
    <i name="e_fr_energy">   -186.92684776 </i>
    <i name="e_wo_entrp">   -186.58238164 </i>
    <i name="e_0_energy">   -186.75461470 </i>
   </energy>
  </scstep>
  <scstep>
   <time name="dav">   20.14   20.19</time>
   <time name="total">   20.68   20.74</time>
   <energy>
    <i name="e_fr_energy">   -186.92752568 </i>
    <i name="e_wo_entrp">   -186.58310043 </i>
    <i name="e_0_energy">   -186.75531306 </i>
   </energy>
  </scstep>
  <scstep>
   <time name="dav">   18.24   18.28</time>
   <time name="total">   18.77   18.83</time>
   <energy>
    <i name="e_fr_energy">   -186.92788201 </i>
    <i name="e_wo_entrp">   -186.58342990 </i>
    <i name="e_0_energy">   -186.75565595 </i>
   </energy>
  </scstep>
  <scstep>
   <time name="dav">   19.24   19.29</time>
   <time name="total">   19.78   19.83</time>
   <energy>
    <i name="e_fr_energy">   -186.92811512 </i>
    <i name="e_wo_entrp">   -186.58366292 </i>
    <i name="e_0_energy">   -186.75588902 </i>
   </energy>
  </scstep>
  <scstep>
   <time name="dav">   20.16   20.21</time>
   <time name="total">   20.19   20.25</time>
   <energy>
    <i name="alphaZ">     81.65567618 </i>
    <i name="ewald">  41888.36874788 </i>
    <i name="hartreedc"> -47831.62775059 </i>
    <i name="XCdc">   -231.60174707 </i>
    <i name="pawpsdc">   4192.25221184 </i>
    <i name="pawaedc">  -3610.29103274 </i>
    <i name="eentropy">     -0.34444982 </i>
    <i name="bandstr">  -1436.78237494 </i>
    <i name="atom">   6761.44252427 </i>
    <i name="e_fr_energy">   -186.92819499 </i>
    <i name="e_wo_entrp">   -186.58374517 </i>
    <i name="e_0_energy">   -186.75597008 </i>
   </energy>
  </scstep>
  <structure>
   <crystal>
    <varray name="basis" >
     <v>       8.66999996       5.03999989       0.00000000 </v>
     <v>      -8.66999982       5.04000013       0.00000000 </v>
     <v>       0.00000000       0.00000000      30.00000000 </v>
    </varray>
    <i name="volume">   2621.80797419 </i>
    <varray name="rec_basis" >
     <v>       0.05767013       0.09920635       0.00000000 </v>
     <v>      -0.05767013       0.09920635       0.00000000 </v>
     <v>       0.00000000       0.00000000       0.03333333 </v>
    </varray>
   </crystal>
   <varray name="positions" >
    <v>       0.66666669       0.00000000       0.00000000 </v>
    <v>       0.00000000       0.66666669       0.00000000 </v>
    <v>       0.33333334       0.33333334       0.00000000 </v>
    <v>       0.66666669       0.66666669       0.00000000 </v>
    <v>       0.33333334       0.66666669       0.00000000 </v>
    <v>       0.00000000       0.00000000       0.00000000 </v>
    <v>       1.00000000       0.33333334       0.00000000 </v>
    <v>       0.33333334       0.00000000       0.00000000 </v>
    <v>       0.66666669       0.33333334       0.00000000 </v>
    <v>       0.11068511       0.22244981       0.95539999 </v>
    <v>       0.22244981       0.11068511       0.04460000 </v>
    <v>       0.11068511       0.55578315       0.95539999 </v>
    <v>       0.22244981       0.44401845       0.04460000 </v>
    <v>       0.11068511       0.88911647       0.95539999 </v>
    <v>       0.22244981       0.77735180       0.04460000 </v>
    <v>       0.44401845       0.22244981       0.95539999 </v>
    <v>       0.55578315       0.11068511       0.04460000 </v>
    <v>       0.44401845       0.55578315       0.95539999 </v>
    <v>       0.55578315       0.44401845       0.04460000 </v>
    <v>       0.44401845       0.88911647       0.95539999 </v>
    <v>       0.55578315       0.77735180       0.04460000 </v>
    <v>       0.77735180       0.22244981       0.95539999 </v>
    <v>       0.88911647       0.11068511       0.04460000 </v>
    <v>       0.77735180       0.55578315       0.95539999 </v>
    <v>       0.88911647       0.44401845       0.04460000 </v>
    <v>       0.77735180       0.88911647       0.95539999 </v>
    <v>       0.88911647       0.77735180       0.04460000 </v>
   </varray>
  </structure>
  <varray name="forces" >
   <v>       0.44005235      -0.23723737      -0.00196952 </v>
   <v>      -0.22282698       0.11821450      -0.00202859 </v>
   <v>      -0.21576852       0.12838175       0.00389140 </v>
   <v>      -0.26349646       0.13820811       0.00198581 </v>
   <v>       0.26609766       0.13749616      -0.04060043 </v>
   <v>      -0.00117874      -0.28979961       0.03932802 </v>
   <v>       0.29323545       0.15654058      -0.03092027 </v>
   <v>      -0.00328984      -0.32327037       0.02883522 </v>
   <v>      -0.28825549       0.15227415       0.00136603 </v>
   <v>       0.37247926       0.72052097      -2.17522412 </v>
   <v>      -0.37204723       0.72630876       2.13795237 </v>
   <v>      -0.68795712      -0.15332292      -2.08802576 </v>
   <v>       0.68672275      -0.14811685       2.14900102 </v>
   <v>       0.62734151      -0.57312091      -2.18508346 </v>
   <v>      -0.62589665      -0.56794290       2.16144670 </v>
   <v>      -0.62819860       0.00568703      -2.12879117 </v>
   <v>       0.62926183       0.00683613       2.10003235 </v>
   <v>       0.53026787      -0.71452286      -2.16244652 </v>
   <v>      -0.36871782      -0.72818527       2.16351121 </v>
   <v>       0.37513959       0.72951174      -2.16401663 </v>
   <v>      -0.53624651       0.71477974       2.19731558 </v>
   <v>       0.47531147      -0.60121313      -2.14406248 </v>
   <v>      -0.63317721      -0.57470041       2.15762384 </v>
   <v>       0.63624517       0.57067240      -2.16170039 </v>
   <v>      -0.48366859       0.59764031       2.17513171 </v>
   <v>      -0.76691123       0.00396250      -2.15494859 </v>
   <v>       0.76548209       0.00439776       2.12239668 </v>
  </varray>
  <varray name="stress" >
   <v>       7.32403685       0.00823707      -1.52767366 </v>
   <v>       0.00823707       4.43893819       0.03501939 </v>
   <v>      -1.52767362       0.03501945      30.25534187 </v>
  </varray>
  <energy>
   <i name="e_fr_energy">   -186.92819499 </i>
   <i name="e_wo_entrp">   -186.75597008 </i>
   <i name="e_0_energy">     -0.34444982 </i>
  </energy>
  <time name="totalsc">  797.93  800.06</time>
 </calculation>
 <calculation>
  <scstep>
   <time name="dav">   21.94   21.99</time>
   <time name="total">   22.48   22.54</time>
   <energy>
    <i name="alphaZ">     78.91943528 </i>
    <i name="ewald">  39381.15112577 </i>
    <i name="hartreedc"> -45338.99867820 </i>
    <i name="XCdc">   -239.04119534 </i>
    <i name="pawpsdc">   4192.23480131 </i>
    <i name="pawaedc">  -3610.27401503 </i>
    <i name="eentropy">     -0.28539928 </i>
    <i name="bandstr">  -1412.63616187 </i>
    <i name="atom">   6761.44252427 </i>
    <i name="e_fr_energy">   -187.48756308 </i>
    <i name="e_wo_entrp">   -187.20216380 </i>
    <i name="e_0_energy">   -187.34486344 </i>
   </energy>
  </scstep>
  <scstep>
   <time name="dav">   32.00   32.08</time>
   <time name="total">   32.54   32.62</time>
   <energy>
    <i name="e_fr_energy">   -189.40402067 </i>
    <i name="e_wo_entrp">   -189.08150572 </i>
    <i name="e_0_energy">   -189.24276320 </i>
   </energy>
  </scstep>
  <scstep>
   <time name="dav">   30.67   30.74</time>
   <time name="total">   31.22   31.30</time>
   <energy>
    <i name="e_fr_energy">   -189.39525042 </i>
    <i name="e_wo_entrp">   -189.10548711 </i>
    <i name="e_0_energy">   -189.25036877 </i>
   </energy>
  </scstep>
  <scstep>
   <time name="dav">   30.16   30.23</time>
   <time name="total">   30.70   30.79</time>
   <energy>
    <i name="e_fr_energy">   -188.76362376 </i>
    <i name="e_wo_entrp">   -188.48067273 </i>
    <i name="e_0_energy">   -188.62214824 </i>
   </energy>
  </scstep>
  <scstep>
   <time name="dav">   26.18   26.24</time>
   <time name="total">   26.73   26.80</time>
   <energy>
    <i name="e_fr_energy">   -188.77307313 </i>
    <i name="e_wo_entrp">   -188.48376978 </i>
    <i name="e_0_energy">   -188.62842145 </i>
   </energy>
  </scstep>
  <scstep>
   <time name="dav">   30.34   30.41</time>
   <time name="total">   30.88   30.96</time>
   <energy>
    <i name="e_fr_energy">   -188.71589566 </i>
    <i name="e_wo_entrp">   -188.43005808 </i>
    <i name="e_0_energy">   -188.57297687 </i>
   </energy>
  </scstep>
  <scstep>
   <time name="dav">   30.38   30.45</time>
   <time name="total">   30.93   31.01</time>
   <energy>
    <i name="e_fr_energy">   -188.72209234 </i>
    <i name="e_wo_entrp">   -188.43670847 </i>
    <i name="e_0_energy">   -188.57940040 </i>
   </energy>
  </scstep>
  <scstep>
   <time name="dav">   31.57   31.64</time>
   <time name="total">   32.11   32.19</time>
   <energy>
    <i name="e_fr_energy">   -188.67777708 </i>
    <i name="e_wo_entrp">   -188.39341809 </i>
    <i name="e_0_energy">   -188.53559758 </i>
   </energy>
  </scstep>
  <scstep>
   <time name="dav">   27.14   27.21</time>
   <time name="total">   27.68   27.76</time>
   <energy>
    <i name="e_fr_energy">   -188.67576051 </i>
    <i name="e_wo_entrp">   -188.39134951 </i>
    <i name="e_0_energy">   -188.53355501 </i>
   </energy>
  </scstep>
  <scstep>
   <time name="dav">   33.15   33.23</time>
   <time name="total">   33.70   33.79</time>
   <energy>
    <i name="e_fr_energy">   -188.67713608 </i>
    <i name="e_wo_entrp">   -188.39291757 </i>
    <i name="e_0_energy">   -188.53502682 </i>
   </energy>
  </scstep>
  <scstep>
   <time name="dav">   31.34   31.42</time>
   <time name="total">   31.89   31.97</time>
   <energy>
    <i name="e_fr_energy">   -188.67530450 </i>
    <i name="e_wo_entrp">   -188.39134268 </i>
    <i name="e_0_energy">   -188.53332359 </i>
   </energy>
  </scstep>
  <scstep>
   <time name="dav">   28.93   29.00</time>
   <time name="total">   29.48   29.56</time>
   <energy>
    <i name="e_fr_energy">   -188.67542409 </i>
    <i name="e_wo_entrp">   -188.39174205 </i>
    <i name="e_0_energy">   -188.53358307 </i>
   </energy>
  </scstep>
  <scstep>
   <time name="dav">   21.63   21.68</time>
   <time name="total">   21.67   21.73</time>
   <energy>
    <i name="alphaZ">     78.91943528 </i>
    <i name="ewald">  39381.15112577 </i>
    <i name="hartreedc"> -45349.60605849 </i>
    <i name="XCdc">   -237.96478482 </i>
    <i name="pawpsdc">   3950.55776596 </i>
    <i name="pawaedc">  -3365.08406918 </i>
    <i name="eentropy">     -0.28391203 </i>
    <i name="bandstr">  -1407.80738316 </i>
    <i name="atom">   6761.44252427 </i>
    <i name="e_fr_energy">   -188.67535640 </i>
    <i name="e_wo_entrp">   -188.39144437 </i>
    <i name="e_0_energy">   -188.53340039 </i>
   </energy>
  </scstep>
  <structure>
   <crystal>
    <varray name="basis" >
     <v>       8.85578519       5.10562220       0.00000000 </v>
     <v>      -8.85554228       5.10520482       0.00000000 </v>
     <v>       0.00000000       0.00000000      30.00000000 </v>
    </varray>
    <i name="volume">   2712.70951424 </i>
    <varray name="rec_basis" >
     <v>       0.05645873       0.09793392       0.00000000 </v>
     <v>      -0.05646335       0.09793660       0.00000000 </v>
     <v>       0.00000000       0.00000000       0.03333333 </v>
    </varray>
   </crystal>
   <varray name="positions" >
    <v>       0.66675557      -0.00235971      -0.00000317 </v>
    <v>      -0.00005417       0.66785240      -0.00000326 </v>
    <v>       0.33334747       0.33454808       0.00000626 </v>
    <v>       0.66659506       0.66806124       0.00000319 </v>
    <v>       0.33473172       0.66658441      -0.00006529 </v>
    <v>      -0.00139025      -0.00138369       0.00006324 </v>
    <v>       1.00156503       0.33326672      -0.00004972 </v>
    <v>       0.33177703      -0.00153801       0.00004637 </v>
    <v>       0.66659349       0.33486410       0.00000220 </v>
    <v>       0.11516980       0.22486191       0.95190204 </v>
    <v>       0.22489081       0.11519630       0.04803802 </v>
    <v>       0.10803730       0.55696336       0.95204226 </v>
    <v>       0.22365150       0.44139900       0.04805578 </v>
    <v>       0.10968753       0.88462816       0.95188618 </v>
    <v>       0.21799030       0.77637498       0.04807580 </v>
    <v>       0.44229792       0.22422478       0.95197671 </v>
    <v>       0.55756658       0.10896712       0.04797704 </v>
    <v>       0.44207405       0.55088817       0.95192258 </v>
    <v>       0.55127224       0.44155921       0.04807912 </v>
    <v>       0.44855358       0.89156419       0.95192006 </v>
    <v>       0.55771215       0.78226464       0.04813348 </v>
    <v>       0.77579680       0.21825002       0.95195215 </v>
    <v>       0.88460436       0.10969621       0.04806965 </v>
    <v>       0.78185316       0.55674424       0.95192378 </v>
    <v>       0.89063112       0.44822439       0.04809780 </v>
    <v>       0.77523709       0.89126910       0.95193464 </v>
    <v>       0.89126721       0.77524315       0.04801300 </v>
   </varray>
  </structure>
  <varray name="forces" >
   <v>       0.39024034      -0.22567180      -0.00127187 </v>
   <v>      -0.19876359       0.11264616       0.00901010 </v>
   <v>      -0.19435642       0.11405979      -0.00769516 </v>
   <v>      -0.21554114       0.11761703       0.00202126 </v>
   <v>       0.21655116       0.12363461      -0.08213284 </v>
   <v>       0.00511505      -0.23735843       0.08025645 </v>
   <v>       0.22157006       0.12469677      -0.10181841 </v>
   <v>      -0.00682358      -0.26241902       0.09907443 </v>
   <v>      -0.21464074       0.12988181       0.00243481 </v>
   <v>      -0.10151470       0.05319557       0.02335089 </v>
   <v>       0.11791555       0.05123881      -0.10682386 </v>
   <v>       0.03074063      -0.11448510       0.09086402 </v>
   <v>      -0.00396190      -0.10191283       0.08726408 </v>
   <v>       0.08433421       0.03689517      -0.07026131 </v>
   <v>      -0.07614878       0.04910875      -0.02144657 </v>
   <v>       0.07107718      -0.00515257       0.11002383 </v>
   <v>      -0.08564173       0.00314074      -0.20697257 </v>
   <v>       0.03225549      -0.05493539      -0.09507801 </v>
   <v>       0.10026895      -0.05276225      -0.01099440 </v>
   <v>      -0.11169950       0.06598585       0.02597997 </v>
   <v>      -0.02650381       0.07159753       0.16917540 </v>
   <v>      -0.05240521       0.05492714       0.22485949 </v>
   <v>      -0.09249325       0.05079527      -0.01482265 </v>
   <v>       0.07567613      -0.04878210       0.00838771 </v>
   <v>       0.04735845      -0.04363782      -0.13429484 </v>
   <v>      -0.05719864      -0.00293620      -0.18609683 </v>
   <v>       0.04458980      -0.00936750       0.10700688 </v>
  </varray>
  <varray name="stress" >
   <v>     -19.82641811      -0.00201816       0.04354141 </v>
   <v>      -0.00201818     -19.42419172       0.02816526 </v>
   <v>       0.04354147       0.02816547      -1.69121711 </v>
  </varray>
  <energy>
   <i name="e_fr_energy">   -188.67535640 </i>
   <i name="e_wo_entrp">   -188.53340039 </i>
   <i name="e_0_energy">     -0.28391203 </i>
  </energy>
  <time name="totalsc">  424.53  425.66</time>
 </calculation>
 <calculation>
  <scstep>
   <time name="dav">   23.42   23.48</time>
   <time name="total">   23.96   24.02</time>
   <energy>
    <i name="alphaZ">     82.33270466 </i>
    <i name="ewald">  41297.70962158 </i>
    <i name="hartreedc"> -47296.53853263 </i>
    <i name="XCdc">   -233.85703961 </i>
    <i name="pawpsdc">   3949.76853127 </i>
    <i name="pawaedc">  -3364.28826185 </i>
    <i name="eentropy">     -0.23495022 </i>
    <i name="bandstr">  -1386.90843298 </i>
    <i name="atom">   6761.44252427 </i>
    <i name="e_fr_energy">   -190.57383550 </i>
    <i name="e_wo_entrp">   -190.33888528 </i>
    <i name="e_0_energy">   -190.45636039 </i>
   </energy>
  </scstep>
  <scstep>
   <time name="dav">   28.59   28.65</time>
   <time name="total">   29.10   29.18</time>
   <energy>
    <i name="e_fr_energy">   -190.67517402 </i>
    <i name="e_wo_entrp">   -190.42858781 </i>
    <i name="e_0_energy">   -190.55188091 </i>
   </energy>
  </scstep>
  <scstep>
   <time name="dav">   30.50   30.58</time>
   <time name="total">   31.03   31.11</time>
   <energy>
    <i name="e_fr_energy">   -190.02907282 </i>
    <i name="e_wo_entrp">   -189.78453072 </i>
    <i name="e_0_energy">   -189.90680177 </i>
   </energy>
  </scstep>
  <scstep>
   <time name="dav">   30.47   30.54</time>
   <time name="total">   31.01   31.09</time>
   <energy>
    <i name="e_fr_energy">   -189.84650350 </i>
    <i name="e_wo_entrp">   -189.60436901 </i>
    <i name="e_0_energy">   -189.72543626 </i>
   </energy>
  </scstep>
  <scstep>
   <time name="dav">   29.97   30.05</time>
   <time name="total">   30.50   30.59</time>
   <energy>
    <i name="e_fr_energy">   -189.76770534 </i>
    <i name="e_wo_entrp">   -189.52642192 </i>
    <i name="e_0_energy">   -189.64706363 </i>
   </energy>
  </scstep>
  <scstep>
   <time name="dav">   29.74   29.81</time>
   <time name="total">   30.27   30.35</time>
   <energy>
    <i name="e_fr_energy">   -189.74946945 </i>
    <i name="e_wo_entrp">   -189.50968986 </i>
    <i name="e_0_energy">   -189.62957965 </i>
   </energy>
  </scstep>
  <scstep>
   <time name="dav">   28.81   28.88</time>
   <time name="total">   29.34   29.42</time>
   <energy>
    <i name="e_fr_energy">   -189.74393695 </i>
    <i name="e_wo_entrp">   -189.50459910 </i>
    <i name="e_0_energy">   -189.62426803 </i>
   </energy>
  </scstep>
  <scstep>
   <time name="dav">   30.66   30.74</time>
   <time name="total">   31.19   31.28</time>
   <energy>
    <i name="e_fr_energy">   -189.74396410 </i>
    <i name="e_wo_entrp">   -189.50467101 </i>
    <i name="e_0_energy">   -189.62431756 </i>
   </energy>
  </scstep>
  <scstep>
   <time name="dav">   27.11   27.17</time>
   <time name="total">   27.64   27.71</time>
   <energy>
    <i name="e_fr_energy">   -189.74410929 </i>
    <i name="e_wo_entrp">   -189.50463580 </i>
    <i name="e_0_energy">   -189.62437254 </i>
   </energy>
  </scstep>
  <scstep>
   <time name="dav">   26.73   26.79</time>
   <time name="total">   27.26   27.33</time>
   <energy>
    <i name="e_fr_energy">   -189.74460216 </i>
    <i name="e_wo_entrp">   -189.50514996 </i>
    <i name="e_0_energy">   -189.62487606 </i>
   </energy>
  </scstep>
  <scstep>
   <time name="dav">   24.12   24.18</time>
   <time name="total">   24.65   24.72</time>
   <energy>
    <i name="e_fr_energy">   -189.74396646 </i>
    <i name="e_wo_entrp">   -189.50463530 </i>
    <i name="e_0_energy">   -189.62430088 </i>
   </energy>
  </scstep>
  <scstep>
   <time name="dav">   17.09   17.13</time>
   <time name="total">   17.13   17.18</time>
   <energy>
    <i name="alphaZ">     82.33270466 </i>
    <i name="ewald">  41297.70962158 </i>
    <i name="hartreedc"> -47270.28146824 </i>
    <i name="XCdc">   -235.24314220 </i>
    <i name="pawpsdc">   4038.74168380 </i>
    <i name="pawaedc">  -3454.45646929 </i>
    <i name="eentropy">     -0.23936680 </i>
    <i name="bandstr">  -1409.75007806 </i>
    <i name="atom">   6761.44252427 </i>
    <i name="e_fr_energy">   -189.74399029 </i>
    <i name="e_wo_entrp">   -189.50462348 </i>
    <i name="e_0_energy">   -189.62430688 </i>
   </energy>
  </scstep>
  <structure>
   <crystal>
    <varray name="basis" >
     <v>       8.66836305       4.99974707       0.00000000 </v>
     <v>      -8.66814728       4.99937650       0.00000000 </v>
     <v>       0.00000000       0.00000000      30.00000000 </v>
    </varray>
    <i name="volume">   2600.24863532 </i>
    <varray name="rec_basis" >
     <v>       0.05767960       0.10000752       0.00000000 </v>
     <v>      -0.05768387       0.10001001       0.00000000 </v>
     <v>       0.00000000       0.00000000       0.03333333 </v>
    </varray>
   </crystal>
   <varray name="positions" >
    <v>       0.66675440      -0.00311096      -0.00000389 </v>
    <v>      -0.00005740       0.66823121       0.00000185 </v>
    <v>       0.33335083       0.33492501       0.00000189 </v>
    <v>       0.66658399       0.66846446       0.00000434 </v>
    <v>       0.33514593       0.66658239      -0.00011189 </v>
    <v>      -0.00178101      -0.00178429       0.00010878 </v>
    <v>       1.00198582       0.33326164      -0.00010749 </v>
    <v>       0.33133302      -0.00196891       0.00010258 </v>
    <v>       0.66660373       0.33528690       0.00000358 </v>
    <v>       0.11516092       0.22504815       0.95191529 </v>
    <v>       0.22508954       0.11516839       0.04797741 </v>
    <v>       0.10787600       0.55674297       0.95209381 </v>
    <v>       0.22347780       0.44123291       0.04810529 </v>
    <v>       0.10983008       0.88460861       0.95184632 </v>
    <v>       0.21799899       0.77653003       0.04806363 </v>
    <v>       0.44235764       0.22414788       0.95203913 </v>
    <v>       0.55748951       0.10905467       0.04785960 </v>
    <v>       0.44201348       0.55076559       0.95186864 </v>
    <v>       0.55128065       0.44137488       0.04807288 </v>
    <v>       0.44855623       0.89178155       0.95193480 </v>
    <v>       0.55780603       0.78240947       0.04822946 </v>
    <v>       0.77583800       0.21839195       0.95207973 </v>
    <v>       0.88460015       0.10986978       0.04806124 </v>
    <v>       0.78184456       0.55659019       0.95192854 </v>
    <v>       0.89060388       0.44810613       0.04802161 </v>
    <v>       0.77517723       0.89131918       0.95182905 </v>
    <v>       0.89129444       0.77518468       0.04807371 </v>
   </varray>
  </structure>
  <varray name="forces" >
   <v>       0.37979086      -0.22204353       0.00048373 </v>
   <v>      -0.19555469       0.10952778       0.00629455 </v>
   <v>      -0.19159198       0.11204070      -0.00682372 </v>
   <v>      -0.19628823       0.10663662       0.00056595 </v>
   <v>       0.20362927       0.10852097      -0.06475257 </v>
   <v>       0.01075428      -0.22357804       0.06408181 </v>
   <v>       0.19633452       0.11633382      -0.08677359 </v>
   <v>      -0.01140799      -0.23943329       0.08554785 </v>
   <v>      -0.19491226       0.11832371       0.00125461 </v>
   <v>       0.03768840       0.10123518      -0.47652282 </v>
   <v>      -0.00762380       0.10976036       0.38229763 </v>
   <v>      -0.08387620      -0.03588340      -0.39610145 </v>
   <v>       0.10191797      -0.02237119       0.59293542 </v>
   <v>       0.07114630      -0.09414763      -0.57632607 </v>
   <v>      -0.05106756      -0.09354466       0.47653503 </v>
   <v>      -0.07035060      -0.01798101      -0.38705273 </v>
   <v>       0.06142049       0.00669239       0.27822542 </v>
   <v>       0.07995117      -0.10670063      -0.59143041 </v>
   <v>      -0.03412142      -0.10070380       0.49313838 </v>
   <v>      -0.00100450       0.12841401      -0.47078346 </v>
   <v>      -0.06241569       0.12908249       0.67091209 </v>
   <v>       0.01977257      -0.07185072      -0.26160997 </v>
   <v>      -0.09402313      -0.07318035       0.48054750 </v>
   <v>       0.05388376       0.09178742      -0.49327975 </v>
   <v>      -0.01352352       0.08649030       0.36395018 </v>
   <v>      -0.12311883      -0.00158465      -0.68697401 </v>
   <v>       0.11459082      -0.02184282       0.60166039 </v>
  </varray>
  <varray name="stress" >
   <v>     -10.11878661      -0.00538589       0.02598697 </v>
   <v>      -0.00538577      -9.81055252       0.02295711 </v>
   <v>       0.02598693       0.02295726       6.48265184 </v>
  </varray>
  <energy>
   <i name="e_fr_energy">   -189.74399029 </i>
   <i name="e_wo_entrp">   -189.62430688 </i>
   <i name="e_0_energy">     -0.23936680 </i>
  </energy>
  <time name="totalsc">  375.59  376.58</time>
 </calculation>
 <calculation>
  <scstep>
   <time name="dav">   21.91   21.96</time>
   <time name="total">   22.43   22.49</time>
   <energy>
    <i name="alphaZ">     85.80113442 </i>
    <i name="ewald">  42823.87468427 </i>
    <i name="hartreedc"> -48840.86813832 </i>
    <i name="XCdc">   -232.95964917 </i>
    <i name="pawpsdc">   4038.71460609 </i>
    <i name="pawaedc">  -3454.42649412 </i>
    <i name="eentropy">     -0.19349496 </i>
    <i name="bandstr">  -1372.62165416 </i>
    <i name="atom">   6761.44252427 </i>
    <i name="e_fr_energy">   -191.23648167 </i>
    <i name="e_wo_entrp">   -191.04298671 </i>
    <i name="e_0_energy">   -191.13973419 </i>
   </energy>
  </scstep>
  <scstep>
   <time name="dav">   33.39   33.47</time>
   <time name="total">   33.90   33.99</time>
   <energy>
    <i name="e_fr_energy">   -191.35113998 </i>
    <i name="e_wo_entrp">   -191.13867155 </i>
    <i name="e_0_energy">   -191.24490576 </i>
   </energy>
  </scstep>
  <scstep>
   <time name="dav">   29.94   30.01</time>
   <time name="total">   30.46   30.54</time>
   <energy>
    <i name="e_fr_energy">   -191.00125159 </i>
    <i name="e_wo_entrp">   -190.79398712 </i>
    <i name="e_0_energy">   -190.89761936 </i>
   </energy>
  </scstep>
  <scstep>
   <time name="dav">   30.50   30.58</time>
   <time name="total">   31.03   31.11</time>
   <energy>
    <i name="e_fr_energy">   -190.75939452 </i>
    <i name="e_wo_entrp">   -190.55775055 </i>
    <i name="e_0_energy">   -190.65857253 </i>
   </energy>
  </scstep>
  <scstep>
   <time name="dav">   30.27   30.35</time>
   <time name="total">   30.79   30.88</time>
   <energy>
    <i name="e_fr_energy">   -190.66671133 </i>
    <i name="e_wo_entrp">   -190.46474703 </i>
    <i name="e_0_energy">   -190.56572918 </i>
   </energy>
  </scstep>
  <scstep>
   <time name="dav">   29.40   29.47</time>
   <time name="total">   29.92   30.00</time>
   <energy>
    <i name="e_fr_energy">   -190.65699828 </i>
    <i name="e_wo_entrp">   -190.45557538 </i>
    <i name="e_0_energy">   -190.55628683 </i>
   </energy>
  </scstep>
  <scstep>
   <time name="dav">   28.67   28.74</time>
   <time name="total">   29.20   29.27</time>
   <energy>
    <i name="e_fr_energy">   -190.64367240 </i>
    <i name="e_wo_entrp">   -190.44342806 </i>
    <i name="e_0_energy">   -190.54355023 </i>
   </energy>
  </scstep>
  <scstep>
   <time name="dav">   30.48   30.55</time>
   <time name="total">   31.00   31.08</time>
   <energy>
    <i name="e_fr_energy">   -190.63876747 </i>
    <i name="e_wo_entrp">   -190.43811980 </i>
    <i name="e_0_energy">   -190.53844363 </i>
   </energy>
  </scstep>
  <scstep>
   <time name="dav">   27.48   27.55</time>
   <time name="total">   28.00   28.08</time>
   <energy>
    <i name="e_fr_energy">   -190.63932788 </i>
    <i name="e_wo_entrp">   -190.43884811 </i>
    <i name="e_0_energy">   -190.53908800 </i>
   </energy>
  </scstep>
  <scstep>
   <time name="dav">   27.09   27.15</time>
   <time name="total">   27.61   27.68</time>
   <energy>
    <i name="e_fr_energy">   -190.63915867 </i>
    <i name="e_wo_entrp">   -190.43872988 </i>
    <i name="e_0_energy">   -190.53894427 </i>
   </energy>
  </scstep>
  <scstep>
   <time name="dav">   21.22   21.27</time>
   <time name="total">   21.26   21.32</time>
   <energy>
    <i name="alphaZ">     85.80113442 </i>
    <i name="ewald">  42823.87468427 </i>
    <i name="hartreedc"> -48812.46944962 </i>
    <i name="XCdc">   -234.28594516 </i>
    <i name="pawpsdc">   4062.44939813 </i>
    <i name="pawaedc">  -3478.32633901 </i>
    <i name="eentropy">     -0.20042733 </i>
    <i name="bandstr">  -1398.92465977 </i>
    <i name="atom">   6761.44252427 </i>
    <i name="e_fr_energy">   -190.63907979 </i>
    <i name="e_wo_entrp">   -190.43865247 </i>
    <i name="e_0_energy">   -190.53886613 </i>
   </energy>
  </scstep>
  <structure>
   <crystal>
    <varray name="basis" >
     <v>       8.48709589       4.89981558       0.00000000 </v>
     <v>      -8.48713492       4.89988637       0.00000000 </v>
     <v>       0.00000000       0.00000000      30.00000000 </v>
    </varray>
    <i name="volume">   2495.13604198 </i>
    <varray name="rec_basis" >
     <v>       0.05891326       0.10204415       0.00000000 </v>
     <v>      -0.05891241       0.10204369       0.00000000 </v>
     <v>       0.00000000       0.00000000       0.03333333 </v>
    </varray>
   </crystal>
   <varray name="positions" >
    <v>       0.66672984      -0.00585351      -0.00000139 </v>
    <v>      -0.00008114       0.66961323       0.00001258 </v>
    <v>       0.33335930       0.33631185      -0.00001151 </v>
    <v>       0.66654293       0.66978816       0.00000427 </v>
    <v>       0.33650672       0.66650708      -0.00023129 </v>
    <v>      -0.00310165      -0.00319907       0.00022782 </v>
    <v>       1.00336836       0.33329640      -0.00027453 </v>
    <v>       0.32984105      -0.00336513       0.00026837 </v>
    <v>       0.66664020       0.33667678       0.00000517 </v>
    <v>       0.11625340       0.22546605       0.95050158 </v>
    <v>       0.22571565       0.11621213       0.04918664 </v>
    <v>       0.10737887       0.55718366       0.95085780 </v>
    <v>       0.22405822       0.44077018       0.04976523 </v>
    <v>       0.10914987       0.88345164       0.95022048 </v>
    <v>       0.21690658       0.77573470       0.04947574 </v>
    <v>       0.44175409       0.22446168       0.95081326 </v>
    <v>       0.55797486       0.10867101       0.04884979 </v>
    <v>       0.44157277       0.54960865       0.95021977 </v>
    <v>       0.55021160       0.44094071       0.04952465 </v>
    <v>       0.44967406       0.89258708       0.95053565 </v>
    <v>       0.55848187       0.78364065       0.05004767 </v>
    <v>       0.77524566       0.21744815       0.95112290 </v>
    <v>       0.88348841       0.10944277       0.04947944 </v>
    <v>       0.78293567       0.55735434       0.95047858 </v>
    <v>       0.89133533       0.44911123       0.04920059 </v>
    <v>       0.77463010       0.89185324       0.94997829 </v>
    <v>       0.89164183       0.77450080       0.04974234 </v>
   </varray>
  </structure>
  <varray name="forces" >
   <v>       0.35986006      -0.20908094       0.00210177 </v>
   <v>      -0.20471907       0.09548619       0.00141211 </v>
   <v>      -0.18307726       0.12563073      -0.00359116 </v>
   <v>      -0.16017796       0.09051531      -0.00243110 </v>
   <v>       0.20222796       0.08914173      -0.01156766 </v>
   <v>       0.02891549      -0.22228420       0.01326189 </v>
   <v>       0.19228453       0.12801462      -0.03322493 </v>
   <v>      -0.02131666      -0.24465724       0.03555947 </v>
   <v>      -0.22362036       0.13413240      -0.00160843 </v>
   <v>       0.07151334       0.00625723      -0.32205898 </v>
   <v>      -0.04040553       0.00786352       0.25152840 </v>
   <v>      -0.01344372       0.03185633      -0.25411745 </v>
   <v>       0.03346702       0.02805514       0.40132022 </v>
   <v>      -0.00080042      -0.05331655      -0.39862284 </v>
   <v>       0.03060275      -0.06364474       0.32135083 </v>
   <v>      -0.04338574      -0.02910960      -0.22199572 </v>
   <v>       0.03853868      -0.00277972       0.13143780 </v>
   <v>       0.03697554       0.00526222      -0.44906703 </v>
   <v>      -0.07489661       0.00514940       0.35079510 </v>
   <v>       0.02047033       0.03323770      -0.31950911 </v>
   <v>      -0.00559531       0.03074453       0.50179760 </v>
   <v>       0.02795993      -0.04155678      -0.12928458 </v>
   <v>      -0.01718928      -0.03095556       0.32103355 </v>
   <v>      -0.04030141       0.06317868      -0.34775649 </v>
   <v>      -0.00129484       0.06511363       0.21760597 </v>
   <v>      -0.01466450      -0.01038084      -0.50735724 </v>
   <v>       0.00207303      -0.03187317       0.45298802 </v>
  </varray>
  <varray name="stress" >
   <v>      -5.74224337      -0.00696300      -0.07565083 </v>
   <v>      -0.00696275      -5.77451131      -0.00062439 </v>
   <v>      -0.07565078      -0.00062436       4.40816839 </v>
  </varray>
  <energy>
   <i name="e_fr_energy">   -190.63907979 </i>
   <i name="e_wo_entrp">   -190.53886613 </i>
   <i name="e_0_energy">     -0.20042733 </i>
  </energy>
  <time name="totalsc">  357.77  358.72</time>
 </calculation>
 <calculation>
  <scstep>
   <time name="dav">   21.94   21.99</time>
   <time name="total">   22.45   22.51</time>
   <energy>
    <i name="alphaZ">     90.20420874 </i>
    <i name="ewald">  44678.96662660 </i>
    <i name="hartreedc"> -50723.73736661 </i>
    <i name="XCdc">   -231.77991956 </i>
    <i name="pawpsdc">   4062.64860372 </i>
    <i name="pawaedc">  -3478.52223909 </i>
    <i name="eentropy">     -0.17395883 </i>
    <i name="bandstr">  -1350.98763554 </i>
    <i name="atom">   6761.44252427 </i>
    <i name="e_fr_energy">   -191.93915630 </i>
    <i name="e_wo_entrp">   -191.76519747 </i>
    <i name="e_0_energy">   -191.85217688 </i>
   </energy>
  </scstep>
  <scstep>
   <time name="dav">   33.31   33.39</time>
   <time name="total">   33.82   33.91</time>
   <energy>
    <i name="e_fr_energy">   -192.05412058 </i>
    <i name="e_wo_entrp">   -191.86347011 </i>
    <i name="e_0_energy">   -191.95879534 </i>
   </energy>
  </scstep>
  <scstep>
   <time name="dav">   29.36   29.43</time>
   <time name="total">   29.87   29.95</time>
   <energy>
    <i name="e_fr_energy">   -191.73280053 </i>
    <i name="e_wo_entrp">   -191.54119284 </i>
    <i name="e_0_energy">   -191.63699668 </i>
   </energy>
  </scstep>
  <scstep>
   <time name="dav">   30.36   30.43</time>
   <time name="total">   30.87   30.95</time>
   <energy>
    <i name="e_fr_energy">   -191.36304971 </i>
    <i name="e_wo_entrp">   -191.17994315 </i>
    <i name="e_0_energy">   -191.27149643 </i>
   </energy>
  </scstep>
  <scstep>
   <time name="dav">   31.16   31.23</time>
   <time name="total">   31.67   31.75</time>
   <energy>
    <i name="e_fr_energy">   -191.20543058 </i>
    <i name="e_wo_entrp">   -191.02527844 </i>
    <i name="e_0_energy">   -191.11535451 </i>
   </energy>
  </scstep>
  <scstep>
   <time name="dav">   31.11   31.18</time>
   <time name="total">   31.61   31.70</time>
   <energy>
    <i name="e_fr_energy">   -191.20271282 </i>
    <i name="e_wo_entrp">   -191.01846296 </i>
    <i name="e_0_energy">   -191.11058789 </i>
   </energy>
  </scstep>
  <scstep>
   <time name="dav">   30.70   30.78</time>
   <time name="total">   31.21   31.30</time>
   <energy>
    <i name="e_fr_energy">   -191.16948511 </i>
    <i name="e_wo_entrp">   -190.98725077 </i>
    <i name="e_0_energy">   -191.07836794 </i>
   </energy>
  </scstep>
  <scstep>
   <time name="dav">   28.25   28.32</time>
   <time name="total">   28.76   28.84</time>
   <energy>
    <i name="e_fr_energy">   -191.16424651 </i>
    <i name="e_wo_entrp">   -190.98227629 </i>
    <i name="e_0_energy">   -191.07326140 </i>
   </energy>
  </scstep>
  <scstep>
   <time name="dav">   28.55   28.62</time>
   <time name="total">   29.06   29.14</time>
   <energy>
    <i name="e_fr_energy">   -191.16500723 </i>
    <i name="e_wo_entrp">   -190.98323931 </i>
    <i name="e_0_energy">   -191.07412327 </i>
   </energy>
  </scstep>
  <scstep>
   <time name="dav">   26.55   26.61</time>
   <time name="total">   27.06   27.13</time>
   <energy>
    <i name="e_fr_energy">   -191.16474014 </i>
    <i name="e_wo_entrp">   -190.98298975 </i>
    <i name="e_0_energy">   -191.07386494 </i>
   </energy>
  </scstep>
  <scstep>
   <time name="dav">   20.45   20.50</time>
   <time name="total">   20.48   20.54</time>
   <energy>
    <i name="alphaZ">     90.20420874 </i>
    <i name="ewald">  44678.96662660 </i>
    <i name="hartreedc"> -50689.20710666 </i>
    <i name="XCdc">   -233.35865357 </i>
    <i name="pawpsdc">   4080.73325821 </i>
    <i name="pawaedc">  -3496.63422887 </i>
    <i name="eentropy">     -0.18176043 </i>
    <i name="bandstr">  -1383.12952425 </i>
    <i name="atom">   6761.44252427 </i>
    <i name="e_fr_energy">   -191.16465595 </i>
    <i name="e_wo_entrp">   -190.98289552 </i>
    <i name="e_0_energy">   -191.07377573 </i>
   </energy>
  </scstep>
  <structure>
   <crystal>
    <varray name="basis" >
     <v>       8.27767630       4.77795259       0.00000000 </v>
     <v>      -8.27823642       4.77892608       0.00000000 </v>
     <v>       0.00000000       0.00000000      30.00000000 </v>
    </varray>
    <i name="volume">   2373.34272892 </i>
    <varray name="rec_basis" >
     <v>       0.06040753       0.10464021       0.00000000 </v>
     <v>      -0.06039523       0.10463313       0.00000000 </v>
     <v>       0.00000000       0.00000000       0.03333333 </v>
    </varray>
   </crystal>
   <varray name="positions" >
    <v>       0.66670376      -0.01104830       0.00000800 </v>
    <v>      -0.00033410       0.67226962       0.00001825 </v>
    <v>       0.33357433       0.33916192      -0.00002695 </v>
    <v>       0.66651090       0.67206072      -0.00000540 </v>
    <v>       0.33903395       0.66617296      -0.00028982 </v>
    <v>      -0.00562714      -0.00612300       0.00029313 </v>
    <v>       1.00625606       0.33350215      -0.00042334 </v>
    <v>       0.32672548      -0.00617865       0.00042621 </v>
    <v>       0.66670352       0.33982605      -0.00000096 </v>
    <v>       0.11735170       0.22513084       0.94861018 </v>
    <v>       0.22568861       0.11712768       0.05076855 </v>
    <v>       0.10753049       0.55805694       0.94926144 </v>
    <v>       0.22504341       0.44077996       0.05200390 </v>
    <v>       0.10807337       0.88228984       0.94799995 </v>
    <v>       0.21582532       0.77428965       0.05136278 </v>
    <v>       0.44079483       0.22465948       0.94932423 </v>
    <v>       0.55851625       0.10811377       0.04995002 </v>
    <v>       0.44168327       0.54894152       0.94782400 </v>
    <v>       0.54922759       0.44140871       0.05153011 </v>
    <v>       0.45074789       0.89303271       0.94865944 </v>
    <v>       0.55904423       0.78451740       0.05267711 </v>
    <v>       0.77461866       0.21619033       0.95003803 </v>
    <v>       0.88246411       0.10882166       0.05136494 </v>
    <v>       0.78395110       0.55883694       0.94848616 </v>
    <v>       0.89244033       0.45046607       0.05066276 </v>
    <v>       0.77419589       0.89206736       0.94732144 </v>
    <v>       0.89147065       0.77384012       0.05215574 </v>
   </varray>
  </structure>
  <varray name="forces" >
   <v>       0.28156398      -0.16201736      -0.00473150 </v>
   <v>      -0.22086907       0.02442482       0.02972734 </v>
   <v>      -0.13382249       0.17807295      -0.02481413 </v>
   <v>      -0.00460050      -0.00540410       0.00275488 </v>
   <v>       0.15780106       0.04956955       0.00359895 </v>
   <v>       0.03424080      -0.15277605      -0.00741904 </v>
   <v>       0.16806429       0.10560630      -0.02849053 </v>
   <v>      -0.01667524      -0.19752238       0.02603942 </v>
   <v>      -0.28381196       0.16081679       0.00376076 </v>
   <v>       0.07399183      -0.05719970      -0.01328360 </v>
   <v>      -0.04143056      -0.09248231      -0.05073402 </v>
   <v>       0.06203448       0.08113105       0.05270242 </v>
   <v>      -0.00914829       0.05172896       0.10864505 </v>
   <v>      -0.04978721      -0.01249936      -0.12275068 </v>
   <v>       0.08434687      -0.03309076       0.02015629 </v>
   <v>      -0.02157367      -0.03761958       0.05988054 </v>
   <v>       0.00060827      -0.01001932      -0.18006273 </v>
   <v>      -0.01373494       0.09820401      -0.12650620 </v>
   <v>      -0.08467533       0.08313295       0.08886656 </v>
   <v>       0.01725086      -0.04987750      -0.01603870 </v>
   <v>       0.05720571      -0.04384498       0.16299689 </v>
   <v>       0.01246271       0.00412050       0.17421695 </v>
   <v>       0.05114950       0.01224456       0.02083820 </v>
   <v>      -0.11185971       0.03129598      -0.09954688 </v>
   <v>       0.01953579       0.03752893      -0.05077358 </v>
   <v>       0.06350979      -0.02652402      -0.15657259 </v>
   <v>      -0.09177697      -0.03699996       0.12753989 </v>
  </varray>
  <varray name="stress" >
   <v>      -0.35815183       0.00675326      -0.04912411 </v>
   <v>       0.00675339      -0.28870449      -0.06818572 </v>
   <v>      -0.04912420      -0.06818580      -0.66569863 </v>
  </varray>
  <energy>
   <i name="e_fr_energy">   -191.16465595 </i>
   <i name="e_wo_entrp">   -191.07377573 </i>
   <i name="e_0_energy">     -0.18176043 </i>
  </energy>
  <time name="totalsc">  358.98  359.93</time>
 </calculation>
 <calculation>
  <scstep>
   <time name="dav">   21.91   21.96</time>
   <time name="total">   22.42   22.48</time>
   <energy>
    <i name="alphaZ">     90.46066753 </i>
    <i name="ewald">  44780.33453183 </i>
    <i name="hartreedc"> -50794.01638355 </i>
    <i name="XCdc">   -233.24377298 </i>
    <i name="pawpsdc">   4080.80266563 </i>
    <i name="pawaedc">  -3496.69988275 </i>
    <i name="eentropy">     -0.18674835 </i>
    <i name="bandstr">  -1380.09847190 </i>
    <i name="atom">   6761.44252427 </i>
    <i name="e_fr_energy">   -191.20487027 </i>
    <i name="e_wo_entrp">   -191.01812192 </i>
    <i name="e_0_energy">   -191.11149610 </i>
   </energy>
  </scstep>
  <scstep>
   <time name="dav">   32.55   32.63</time>
   <time name="total">   33.06   33.15</time>
   <energy>
    <i name="e_fr_energy">   -191.21691806 </i>
    <i name="e_wo_entrp">   -191.02955069 </i>
    <i name="e_0_energy">   -191.12323438 </i>
   </energy>
  </scstep>
  <scstep>
   <time name="dav">   30.68   30.75</time>
   <time name="total">   31.19   31.28</time>
   <energy>
    <i name="e_fr_energy">   -191.21344768 </i>
    <i name="e_wo_entrp">   -191.02713641 </i>
    <i name="e_0_energy">   -191.12029205 </i>
   </energy>
  </scstep>
  <scstep>
   <time name="dav">   28.45   28.52</time>
   <time name="total">   28.95   29.03</time>
   <energy>
    <i name="e_fr_energy">   -191.20944578 </i>
    <i name="e_wo_entrp">   -191.02234021 </i>
    <i name="e_0_energy">   -191.11589300 </i>
   </energy>
  </scstep>
  <scstep>
   <time name="dav">   26.00   26.06</time>
   <time name="total">   26.51   26.58</time>
   <energy>
    <i name="e_fr_energy">   -191.20801970 </i>
    <i name="e_wo_entrp">   -191.02119750 </i>
    <i name="e_0_energy">   -191.11460860 </i>
   </energy>
  </scstep>
  <scstep>
   <time name="dav">   30.15   30.23</time>
   <time name="total">   30.66   30.75</time>
   <energy>
    <i name="e_fr_energy">   -191.20825672 </i>
    <i name="e_wo_entrp">   -191.02115558 </i>
    <i name="e_0_energy">   -191.11470615 </i>
   </energy>
  </scstep>
  <scstep>
   <time name="dav">   26.46   26.52</time>
   <time name="total">   26.97   27.05</time>
   <energy>
    <i name="e_fr_energy">   -191.20762809 </i>
    <i name="e_wo_entrp">   -191.02062761 </i>
    <i name="e_0_energy">   -191.11412785 </i>
   </energy>
  </scstep>
  <scstep>
   <time name="dav">   17.82   17.86</time>
   <time name="total">   17.86   17.91</time>
   <energy>
    <i name="alphaZ">     90.46066753 </i>
    <i name="ewald">  44780.33453183 </i>
    <i name="hartreedc"> -50792.87956700 </i>
    <i name="XCdc">   -233.31559944 </i>
    <i name="pawpsdc">   4080.33729365 </i>
    <i name="pawaedc">  -3496.21885009 </i>
    <i name="eentropy">     -0.18698884 </i>
    <i name="bandstr">  -1381.18167484 </i>
    <i name="atom">   6761.44252427 </i>
    <i name="e_fr_energy">   -191.20766293 </i>
    <i name="e_wo_entrp">   -191.02067409 </i>
    <i name="e_0_energy">   -191.11416851 </i>
   </energy>
  </scstep>
  <structure>
   <crystal>
    <varray name="basis" >
     <v>       8.26522149       4.77177262       0.00000000 </v>
     <v>      -8.26561950       4.77246546       0.00000000 </v>
     <v>       0.00000000       0.00000000      30.00000000 </v>
    </varray>
    <i name="volume">   2366.61422891 </i>
    <varray name="rec_basis" >
     <v>       0.06049738       0.10477778       0.00000000 </v>
     <v>      -0.06048860       0.10477273       0.00000000 </v>
     <v>       0.00000000       0.00000000       0.03333333 </v>
    </varray>
   </crystal>
   <varray name="positions" >
    <v>       0.66670544      -0.01296191       0.00000030 </v>
    <v>      -0.00089257       0.67317304       0.00006900 </v>
    <v>       0.33411933       0.34062353      -0.00006971 </v>
    <v>       0.66646658       0.67212507      -0.00000104 </v>
    <v>       0.33987215       0.66593991      -0.00028600 </v>
    <v>      -0.00642444      -0.00714478       0.00028304 </v>
    <v>       1.00743643       0.33355508      -0.00047729 </v>
    <v>       0.32551293      -0.00727793       0.00047630 </v>
    <v>       0.66668960       0.34166590       0.00000523 </v>
    <v>       0.11732415       0.22458809       0.94850846 </v>
    <v>       0.22506999       0.11680552       0.05075009 </v>
    <v>       0.10815674       0.55833797       0.94928265 </v>
    <v>       0.22533470       0.44108239       0.05228046 </v>
    <v>       0.10780642       0.88232459       0.94770020 </v>
    <v>       0.21585937       0.77379289       0.05147599 </v>
    <v>       0.44048759       0.22453767       0.94936086 </v>
    <v>       0.55849030       0.10803340       0.04969499 </v>
    <v>       0.44216406       0.54947424       0.94751244 </v>
    <v>       0.54936457       0.44212668       0.05176428 </v>
    <v>       0.45058385       0.89273288       0.94855368 </v>
    <v>       0.55901105       0.78414792       0.05305931 </v>
    <v>       0.77465016       0.21611783       0.95028381 </v>
    <v>       0.88263972       0.10869960       0.05147926 </v>
    <v>       0.78382060       0.55940959       0.94823430 </v>
    <v>       0.89274631       0.45066559       0.05064048 </v>
    <v>       0.77423036       0.89174293       0.94694910 </v>
    <v>       0.89098908       0.77389673       0.05246971 </v>
   </varray>
  </structure>
  <varray name="forces" >
   <v>       0.30279706      -0.17272355       0.00132588 </v>
   <v>      -0.25492495       0.02155014       0.01949867 </v>
   <v>      -0.14095016       0.20475754      -0.02170693 </v>
   <v>       0.02520488      -0.00970814      -0.00123933 </v>
   <v>       0.15207415       0.05626339       0.01414643 </v>
   <v>       0.03891055      -0.16355241      -0.01222491 </v>
   <v>       0.20488899       0.11807021      -0.03846530 </v>
   <v>      -0.00751889      -0.25545931       0.03889909 </v>
   <v>      -0.33577044       0.20564003      -0.00099657 </v>
   <v>       0.07362791      -0.02574206       0.01200064 </v>
   <v>      -0.03754398      -0.05570055      -0.09003356 </v>
   <v>       0.02879717       0.05810053       0.09750855 </v>
   <v>       0.00780360       0.03537984       0.08165340 </v>
   <v>      -0.02366127      -0.02551161      -0.08431390 </v>
   <v>       0.05557814      -0.05009571      -0.01379317 </v>
   <v>      -0.02051436      -0.02116211       0.07931184 </v>
   <v>      -0.00041335       0.00651092      -0.22379246 </v>
   <v>      -0.00277547       0.06349942      -0.10324290 </v>
   <v>      -0.06990725       0.04227686       0.10424809 </v>
   <v>       0.01440698      -0.02290801       0.00953602 </v>
   <v>       0.04225403      -0.02333946       0.11564737 </v>
   <v>      -0.00358125      -0.00346808       0.21744549 </v>
   <v>       0.02548503       0.00072950      -0.00906130 </v>
   <v>      -0.06714355       0.03915846      -0.10112669 </v>
   <v>       0.00552515       0.03160674      -0.07613953 </v>
   <v>       0.04184571      -0.02641840      -0.11381922 </v>
   <v>      -0.05449441      -0.02775418       0.09873429 </v>
  </varray>
  <varray name="stress" >
   <v>       0.19040288      -0.00306247      -0.06949124 </v>
   <v>      -0.00306235       0.16911251      -0.08243847 </v>
   <v>      -0.06949125      -0.08243838      -1.18259028 </v>
  </varray>
  <energy>
   <i name="e_fr_energy">   -191.20766293 </i>
   <i name="e_wo_entrp">   -191.11416851 </i>
   <i name="e_0_energy">     -0.18698884 </i>
  </energy>
  <time name="totalsc">  259.99  260.69</time>
 </calculation>
 <calculation>
  <scstep>
   <time name="dav">   21.92   21.97</time>
   <time name="total">   22.43   22.49</time>
   <energy>
    <i name="alphaZ">     90.36484489 </i>
    <i name="ewald">  44744.04295229 </i>
    <i name="hartreedc"> -50755.31006893 </i>
    <i name="XCdc">   -233.35419384 </i>
    <i name="pawpsdc">   4080.42067423 </i>
    <i name="pawaedc">  -3496.30271744 </i>
    <i name="eentropy">     -0.18921128 </i>
    <i name="bandstr">  -1382.33471870 </i>
    <i name="atom">   6761.44252427 </i>
    <i name="e_fr_energy">   -191.21991451 </i>
    <i name="e_wo_entrp">   -191.03070323 </i>
    <i name="e_0_energy">   -191.12530887 </i>
   </energy>
  </scstep>
  <scstep>
   <time name="dav">   29.33   29.40</time>
   <time name="total">   29.84   29.92</time>
   <energy>
    <i name="e_fr_energy">   -191.22071619 </i>
    <i name="e_wo_entrp">   -191.03146068 </i>
    <i name="e_0_energy">   -191.12608843 </i>
   </energy>
  </scstep>
  <scstep>
   <time name="dav">   30.84   30.91</time>
   <time name="total">   31.34   31.43</time>
   <energy>
    <i name="e_fr_energy">   -191.22066135 </i>
    <i name="e_wo_entrp">   -191.03180266 </i>
    <i name="e_0_energy">   -191.12623201 </i>
   </energy>
  </scstep>
  <scstep>
   <time name="dav">   25.32   25.38</time>
   <time name="total">   25.82   25.90</time>
   <energy>
    <i name="e_fr_energy">   -191.22008445 </i>
    <i name="e_wo_entrp">   -191.03089682 </i>
    <i name="e_0_energy">   -191.12549064 </i>
   </energy>
  </scstep>
  <scstep>
   <time name="dav">   23.58   23.64</time>
   <time name="total">   23.62   23.68</time>
   <energy>
    <i name="alphaZ">     90.36484489 </i>
    <i name="ewald">  44744.04295229 </i>
    <i name="hartreedc"> -50756.52826865 </i>
    <i name="XCdc">   -233.31830020 </i>
    <i name="pawpsdc">   4081.69867208 </i>
    <i name="pawaedc">  -3497.59396916 </i>
    <i name="eentropy">     -0.18914212 </i>
    <i name="bandstr">  -1381.13932353 </i>
    <i name="atom">   6761.44252427 </i>
    <i name="e_fr_energy">   -191.22001013 </i>
    <i name="e_wo_entrp">   -191.03086801 </i>
    <i name="e_0_energy">   -191.12543907 </i>
   </energy>
  </scstep>
  <structure>
   <crystal>
    <varray name="basis" >
     <v>       8.26969862       4.77422002       0.00000000 </v>
     <v>      -8.27011975       4.77495289       0.00000000 </v>
     <v>       0.00000000       0.00000000      30.00000000 </v>
    </varray>
    <i name="volume">   2369.12378029 </i>
    <varray name="rec_basis" >
     <v>       0.06046480       0.10472378       0.00000000 </v>
     <v>      -0.06045552       0.10471845       0.00000000 </v>
     <v>       0.00000000       0.00000000       0.03333333 </v>
    </varray>
   </crystal>
   <varray name="positions" >
    <v>       0.66671004      -0.01344621       0.00000116 </v>
    <v>      -0.00110615       0.67340635       0.00007888 </v>
    <v>       0.33432991       0.34105602      -0.00008097 </v>
    <v>       0.66647801       0.67203025      -0.00000174 </v>
    <v>       0.34006421       0.66589503      -0.00027626 </v>
    <v>      -0.00661226      -0.00740185       0.00027454 </v>
    <v>       1.00778452       0.33354870      -0.00049532 </v>
[...]
      <set comment="kpoint 31">
       <r>  -17.4894    1.0000 </r>
       <r>  -17.2873    1.0000 </r>
       <r>  -16.9348    1.0000 </r>
       <r>  -16.6209    1.0000 </r>
       <r>  -16.4998    1.0000 </r>
       <r>  -16.4336    1.0000 </r>
       <r>  -16.2662    1.0000 </r>
       <r>  -16.1016    1.0000 </r>
       <r>  -16.0842    1.0000 </r>
       <r>  -16.0122    1.0000 </r>
       <r>  -15.9374    1.0000 </r>
       <r>  -15.9079    1.0000 </r>
       <r>  -15.8175    1.0000 </r>
       <r>  -15.7862    1.0000 </r>
       <r>  -15.6849    1.0000 </r>
       <r>  -15.4989    1.0000 </r>
       <r>  -15.4684    1.0000 </r>
       <r>  -15.3099    1.0000 </r>
       <r>   -9.7141    1.0000 </r>
       <r>   -9.4465    1.0000 </r>
       <r>   -9.2516    1.0000 </r>
       <r>   -8.9640    1.0000 </r>
       <r>   -8.7660    1.0000 </r>
       <r>   -8.7462    1.0000 </r>
       <r>   -8.5381    1.0000 </r>
       <r>   -8.4719    1.0000 </r>
       <r>   -8.4354    1.0000 </r>
       <r>   -8.3597    1.0000 </r>
       <r>   -8.3105    1.0000 </r>
       <r>   -8.2646    1.0000 </r>
       <r>   -8.1880    1.0000 </r>
       <r>   -8.1291    1.0000 </r>
       <r>   -7.9673    1.0000 </r>
       <r>   -7.8700    1.0000 </r>
       <r>   -7.8202    1.0000 </r>
       <r>   -7.6808    1.0000 </r>
       <r>   -7.5734    1.0000 </r>
       <r>   -7.4127    1.0000 </r>
       <r>   -7.3372    1.0000 </r>
       <r>   -7.3009    1.0000 </r>
       <r>   -7.1600    1.0000 </r>
       <r>   -7.1021    1.0000 </r>
       <r>   -7.0091    1.0000 </r>
       <r>   -6.9663    1.0000 </r>
       <r>   -6.8886    1.0000 </r>
       <r>   -6.8237    1.0000 </r>
       <r>   -6.7271    1.0000 </r>
       <r>   -6.6216    1.0000 </r>
       <r>   -6.5072    1.0000 </r>
       <r>   -6.4404    1.0000 </r>
       <r>   -6.3907    1.0000 </r>
       <r>   -6.3275    1.0000 </r>
       <r>   -6.2721    1.0000 </r>
       <r>   -6.2178    1.0000 </r>
       <r>   -6.1584    1.0000 </r>
       <r>   -6.0380    1.0000 </r>
       <r>   -5.9963    1.0000 </r>
       <r>   -5.9306    1.0000 </r>
       <r>   -5.8497    1.0000 </r>
       <r>   -5.7569    1.0000 </r>
       <r>   -5.6789    1.0000 </r>
       <r>   -5.6178    1.0000 </r>
       <r>   -5.5830    1.0000 </r>
       <r>   -5.3833    1.0000 </r>
       <r>   -5.2820    1.0000 </r>
       <r>   -5.1688    1.0000 </r>
       <r>   -5.0308    1.0000 </r>
       <r>   -4.9222    1.0000 </r>
       <r>   -4.8391    1.0000 </r>
       <r>   -4.6681    1.0000 </r>
       <r>   -4.4966    1.0000 </r>
       <r>   -4.4161    1.0000 </r>
       <r>   -4.2966    1.0000 </r>
       <r>   -4.2100    1.0000 </r>
       <r>   -4.1081    1.0000 </r>
       <r>   -3.8705    0.9998 </r>
       <r>   -3.7857    0.9985 </r>
       <r>   -3.6845    0.9881 </r>
       <r>   -3.5620    0.9186 </r>
       <r>   -3.4672    0.7659 </r>
       <r>   -2.9231    0.0009 </r>
       <r>   -2.7510    0.0000 </r>
       <r>   -2.6381    0.0000 </r>
       <r>   -2.5222    0.0000 </r>
       <r>   -2.3668    0.0000 </r>
       <r>   -2.2649    0.0000 </r>
       <r>   -2.0762    0.0000 </r>
       <r>   -1.9432    0.0000 </r>
       <r>   -1.8696    0.0000 </r>
       <r>   -1.7767    0.0000 </r>
       <r>   -1.6102    0.0000 </r>
       <r>   -1.5604    0.0000 </r>
       <r>   -1.4947    0.0000 </r>
       <r>   -1.4124    0.0000 </r>
       <r>   -1.3233    0.0000 </r>
       <r>   -1.2194    0.0000 </r>
       <r>   -1.1244    0.0000 </r>
       <r>   -1.0550    0.0000 </r>
       <r>   -1.0391    0.0000 </r>
       <r>   -0.9796    0.0000 </r>
       <r>   -0.9508    0.0000 </r>
       <r>   -0.8553    0.0000 </r>
       <r>   -0.8212    0.0000 </r>
       <r>   -0.6853    0.0000 </r>
       <r>   -0.4879    0.0000 </r>
       <r>   -0.3420    0.0000 </r>
       <r>   -0.1845    0.0000 </r>
       <r>   -0.0375    0.0000 </r>
       <r>    0.0764    0.0000 </r>
       <r>    0.2693    0.0000 </r>
       <r>    0.5063    0.0000 </r>
       <r>    0.6631    0.0000 </r>
       <r>    0.7945    0.0000 </r>
       <r>    0.9852    0.0000 </r>
       <r>    1.1396    0.0000 </r>
       <r>    1.2585    0.0000 </r>
       <r>    1.4102    0.0000 </r>
       <r>    2.1389    0.0000 </r>
       <r>    2.2971    0.0000 </r>
       <r>    2.4022    0.0000 </r>
      </set>
      <set comment="kpoint 32">
       <r>  -17.5113    1.0000 </r>
       <r>  -17.1680    1.0000 </r>
       <r>  -17.0885    1.0000 </r>
       <r>  -16.6178    1.0000 </r>
       <r>  -16.4502    1.0000 </r>
       <r>  -16.3448    1.0000 </r>
       <r>  -16.2763    1.0000 </r>
       <r>  -16.1701    1.0000 </r>
       <r>  -16.0655    1.0000 </r>
       <r>  -16.0366    1.0000 </r>
       <r>  -15.9405    1.0000 </r>
       <r>  -15.9127    1.0000 </r>
       <r>  -15.8289    1.0000 </r>
       <r>  -15.7722    1.0000 </r>
       <r>  -15.6994    1.0000 </r>
       <r>  -15.4839    1.0000 </r>
       <r>  -15.4785    1.0000 </r>
       <r>  -15.2955    1.0000 </r>
       <r>   -9.6275    1.0000 </r>
       <r>   -9.5758    1.0000 </r>
       <r>   -9.3403    1.0000 </r>
       <r>   -8.8662    1.0000 </r>
       <r>   -8.7321    1.0000 </r>
       <r>   -8.5778    1.0000 </r>
       <r>   -8.5112    1.0000 </r>
       <r>   -8.4997    1.0000 </r>
       <r>   -8.3929    1.0000 </r>
       <r>   -8.3814    1.0000 </r>
       <r>   -8.3233    1.0000 </r>
       <r>   -8.2548    1.0000 </r>
       <r>   -8.2508    1.0000 </r>
       <r>   -8.1708    1.0000 </r>
       <r>   -8.1121    1.0000 </r>
       <r>   -7.8697    1.0000 </r>
       <r>   -7.8303    1.0000 </r>
       <r>   -7.6343    1.0000 </r>
       <r>   -7.4988    1.0000 </r>
       <r>   -7.4106    1.0000 </r>
       <r>   -7.3960    1.0000 </r>
       <r>   -7.2889    1.0000 </r>
       <r>   -7.2037    1.0000 </r>
       <r>   -7.1344    1.0000 </r>
       <r>   -7.0323    1.0000 </r>
       <r>   -6.9567    1.0000 </r>
       <r>   -6.8636    1.0000 </r>
       <r>   -6.8394    1.0000 </r>
       <r>   -6.7455    1.0000 </r>
       <r>   -6.6194    1.0000 </r>
       <r>   -6.4778    1.0000 </r>
       <r>   -6.4584    1.0000 </r>
       <r>   -6.3522    1.0000 </r>
       <r>   -6.3499    1.0000 </r>
       <r>   -6.2517    1.0000 </r>
       <r>   -6.2186    1.0000 </r>
       <r>   -6.1583    1.0000 </r>
       <r>   -6.0490    1.0000 </r>
       <r>   -5.9348    1.0000 </r>
       <r>   -5.8447    1.0000 </r>
       <r>   -5.8365    1.0000 </r>
       <r>   -5.7499    1.0000 </r>
       <r>   -5.6157    1.0000 </r>
       <r>   -5.5915    1.0000 </r>
       <r>   -5.5778    1.0000 </r>
       <r>   -5.4342    1.0000 </r>
       <r>   -5.3900    1.0000 </r>
       <r>   -5.1283    1.0000 </r>
       <r>   -5.1200    1.0000 </r>
       <r>   -4.9567    1.0000 </r>
       <r>   -4.9081    1.0000 </r>
       <r>   -4.5398    1.0000 </r>
       <r>   -4.4642    1.0000 </r>
       <r>   -4.4332    1.0000 </r>
       <r>   -4.3121    1.0000 </r>
       <r>   -4.2961    1.0000 </r>
       <r>   -4.0914    1.0000 </r>
       <r>   -3.8628    0.9998 </r>
       <r>   -3.7862    0.9986 </r>
       <r>   -3.6385    0.9736 </r>
       <r>   -3.5472    0.9017 </r>
       <r>   -3.4920    0.8161 </r>
       <r>   -2.9321    0.0011 </r>
       <r>   -2.7183    0.0000 </r>
       <r>   -2.6721    0.0000 </r>
       <r>   -2.4801    0.0000 </r>
       <r>   -2.3867    0.0000 </r>
       <r>   -2.2659    0.0000 </r>
       <r>   -2.0344    0.0000 </r>
       <r>   -1.9780    0.0000 </r>
       <r>   -1.8832    0.0000 </r>
       <r>   -1.8098    0.0000 </r>
       <r>   -1.5879    0.0000 </r>
       <r>   -1.5717    0.0000 </r>
       <r>   -1.4596    0.0000 </r>
       <r>   -1.4513    0.0000 </r>
       <r>   -1.3162    0.0000 </r>
       <r>   -1.2218    0.0000 </r>
       <r>   -1.0964    0.0000 </r>
       <r>   -1.0570    0.0000 </r>
       <r>   -1.0306    0.0000 </r>
       <r>   -0.9726    0.0000 </r>
       <r>   -0.9412    0.0000 </r>
       <r>   -0.8947    0.0000 </r>
       <r>   -0.8314    0.0000 </r>
       <r>   -0.6643    0.0000 </r>
       <r>   -0.5331    0.0000 </r>
       <r>   -0.2895    0.0000 </r>
       <r>   -0.1908    0.0000 </r>
       <r>    0.0335    0.0000 </r>
       <r>    0.0673    0.0000 </r>
       <r>    0.2378    0.0000 </r>
       <r>    0.4834    0.0000 </r>
       <r>    0.6927    0.0000 </r>
       <r>    0.7442    0.0000 </r>
       <r>    1.0225    0.0000 </r>
       <r>    1.2065    0.0000 </r>
       <r>    1.2579    0.0000 </r>
       <r>    1.2763    0.0000 </r>
       <r>    2.1079    0.0000 </r>
       <r>    2.2648    0.0000 </r>
       <r>    2.5753    0.0000 </r>
      </set>
      <set comment="kpoint 33">
       <r>  -17.4894    1.0000 </r>
       <r>  -17.2875    1.0000 </r>
       <r>  -16.9343    1.0000 </r>
       <r>  -16.6215    1.0000 </r>
       <r>  -16.5014    1.0000 </r>
       <r>  -16.4300    1.0000 </r>
       <r>  -16.2674    1.0000 </r>
       <r>  -16.1035    1.0000 </r>
       <r>  -16.0832    1.0000 </r>
       <r>  -16.0126    1.0000 </r>
       <r>  -15.9324    1.0000 </r>
       <r>  -15.9088    1.0000 </r>
       <r>  -15.8208    1.0000 </r>
       <r>  -15.7877    1.0000 </r>
       <r>  -15.6833    1.0000 </r>
       <r>  -15.4995    1.0000 </r>
       <r>  -15.4708    1.0000 </r>
       <r>  -15.3068    1.0000 </r>
       <r>   -9.7153    1.0000 </r>
       <r>   -9.4469    1.0000 </r>
       <r>   -9.2496    1.0000 </r>
       <r>   -8.9674    1.0000 </r>
       <r>   -8.7709    1.0000 </r>
       <r>   -8.7425    1.0000 </r>
       <r>   -8.5361    1.0000 </r>
       <r>   -8.4657    1.0000 </r>
       <r>   -8.4327    1.0000 </r>
       <r>   -8.3610    1.0000 </r>
       <r>   -8.3115    1.0000 </r>
       <r>   -8.2681    1.0000 </r>
       <r>   -8.1918    1.0000 </r>
       <r>   -8.1336    1.0000 </r>
       <r>   -7.9607    1.0000 </r>
       <r>   -7.8725    1.0000 </r>
       <r>   -7.8173    1.0000 </r>
       <r>   -7.6846    1.0000 </r>
       <r>   -7.5683    1.0000 </r>
       <r>   -7.4056    1.0000 </r>
       <r>   -7.3412    1.0000 </r>
       <r>   -7.2960    1.0000 </r>
       <r>   -7.1629    1.0000 </r>
       <r>   -7.1001    1.0000 </r>
       <r>   -7.0058    1.0000 </r>
       <r>   -6.9682    1.0000 </r>
       <r>   -6.8879    1.0000 </r>
       <r>   -6.8261    1.0000 </r>
       <r>   -6.7305    1.0000 </r>
       <r>   -6.6231    1.0000 </r>
       <r>   -6.5058    1.0000 </r>
       <r>   -6.4384    1.0000 </r>
       <r>   -6.3917    1.0000 </r>
       <r>   -6.3246    1.0000 </r>
       <r>   -6.2724    1.0000 </r>
       <r>   -6.2210    1.0000 </r>
       <r>   -6.1631    1.0000 </r>
       <r>   -6.0373    1.0000 </r>
       <r>   -5.9969    1.0000 </r>
       <r>   -5.9321    1.0000 </r>
       <r>   -5.8516    1.0000 </r>
       <r>   -5.7576    1.0000 </r>
       <r>   -5.6818    1.0000 </r>
       <r>   -5.6157    1.0000 </r>
       <r>   -5.5843    1.0000 </r>
       <r>   -5.3910    1.0000 </r>
       <r>   -5.2767    1.0000 </r>
       <r>   -5.1675    1.0000 </r>
       <r>   -5.0226    1.0000 </r>
       <r>   -4.9285    1.0000 </r>
       <r>   -4.8387    1.0000 </r>
       <r>   -4.6675    1.0000 </r>
       <r>   -4.4921    1.0000 </r>
       <r>   -4.4140    1.0000 </r>
       <r>   -4.2902    1.0000 </r>
       <r>   -4.2190    1.0000 </r>
       <r>   -4.1073    1.0000 </r>
       <r>   -3.8762    0.9999 </r>
       <r>   -3.7824    0.9984 </r>
       <r>   -3.6865    0.9886 </r>
       <r>   -3.5702    0.9269 </r>
       <r>   -3.4599    0.7499 </r>
       <r>   -2.9373    0.0013 </r>
       <r>   -2.7405    0.0000 </r>
       <r>   -2.6339    0.0000 </r>
       <r>   -2.5117    0.0000 </r>
       <r>   -2.3734    0.0000 </r>
       <r>   -2.2588    0.0000 </r>
       <r>   -2.0692    0.0000 </r>
       <r>   -1.9551    0.0000 </r>
       <r>   -1.8647    0.0000 </r>
       <r>   -1.7677    0.0000 </r>
       <r>   -1.6166    0.0000 </r>
       <r>   -1.5617    0.0000 </r>
       <r>   -1.4871    0.0000 </r>
       <r>   -1.4185    0.0000 </r>
       <r>   -1.3297    0.0000 </r>
       <r>   -1.2262    0.0000 </r>
       <r>   -1.1267    0.0000 </r>
       <r>   -1.0540    0.0000 </r>
       <r>   -1.0302    0.0000 </r>
       <r>   -0.9829    0.0000 </r>
       <r>   -0.9557    0.0000 </r>
       <r>   -0.8597    0.0000 </r>
       <r>   -0.8193    0.0000 </r>
       <r>   -0.6881    0.0000 </r>
       <r>   -0.4852    0.0000 </r>
       <r>   -0.3364    0.0000 </r>
       <r>   -0.1854    0.0000 </r>
       <r>   -0.0296    0.0000 </r>
       <r>    0.0767    0.0000 </r>
       <r>    0.2748    0.0000 </r>
       <r>    0.5073    0.0000 </r>
       <r>    0.6645    0.0000 </r>
       <r>    0.7911    0.0000 </r>
       <r>    0.9858    0.0000 </r>
       <r>    1.1349    0.0000 </r>
       <r>    1.2514    0.0000 </r>
       <r>    1.4084    0.0000 </r>
       <r>    2.1385    0.0000 </r>
       <r>    2.2974    0.0000 </r>
       <r>    2.4022    0.0000 </r>
      </set>
      <set comment="kpoint 34">
       <r>  -17.4476    1.0000 </r>
       <r>  -17.3728    1.0000 </r>
       <r>  -16.7487    1.0000 </r>
       <r>  -16.7073    1.0000 </r>
       <r>  -16.5960    1.0000 </r>
       <r>  -16.4431    1.0000 </r>
       <r>  -16.2524    1.0000 </r>
       <r>  -16.1276    1.0000 </r>
       <r>  -16.0376    1.0000 </r>
       <r>  -16.0010    1.0000 </r>
       <r>  -15.9357    1.0000 </r>
       <r>  -15.8934    1.0000 </r>
       <r>  -15.8183    1.0000 </r>
       <r>  -15.7905    1.0000 </r>
       <r>  -15.6717    1.0000 </r>
       <r>  -15.5068    1.0000 </r>
       <r>  -15.4718    1.0000 </r>
       <r>  -15.3193    1.0000 </r>
       <r>   -9.7550    1.0000 </r>
       <r>   -9.2973    1.0000 </r>
       <r>   -9.1774    1.0000 </r>
       <r>   -9.0578    1.0000 </r>
       <r>   -8.9446    1.0000 </r>
       <r>   -8.7637    1.0000 </r>
       <r>   -8.5548    1.0000 </r>
       <r>   -8.4802    1.0000 </r>
       <r>   -8.4479    1.0000 </r>
       <r>   -8.3603    1.0000 </r>
       <r>   -8.2835    1.0000 </r>
       <r>   -8.2560    1.0000 </r>
       <r>   -8.2163    1.0000 </r>
       <r>   -8.0248    1.0000 </r>
       <r>   -7.9249    1.0000 </r>
       <r>   -7.8828    1.0000 </r>
       <r>   -7.7375    1.0000 </r>
       <r>   -7.6387    1.0000 </r>
       <r>   -7.5982    1.0000 </r>
       <r>   -7.5474    1.0000 </r>
       <r>   -7.3624    1.0000 </r>
       <r>   -7.2267    1.0000 </r>
       <r>   -7.1278    1.0000 </r>
       <r>   -7.0651    1.0000 </r>
       <r>   -7.0328    1.0000 </r>
       <r>   -6.9198    1.0000 </r>
       <r>   -6.9154    1.0000 </r>
       <r>   -6.7796    1.0000 </r>
       <r>   -6.6764    1.0000 </r>
       <r>   -6.6228    1.0000 </r>
       <r>   -6.5494    1.0000 </r>
       <r>   -6.4675    1.0000 </r>
       <r>   -6.4271    1.0000 </r>
       <r>   -6.3135    1.0000 </r>
       <r>   -6.2900    1.0000 </r>
       <r>   -6.2449    1.0000 </r>
       <r>   -6.1701    1.0000 </r>
       <r>   -6.0840    1.0000 </r>
       <r>   -6.0500    1.0000 </r>
       <r>   -5.9276    1.0000 </r>
       <r>   -5.8781    1.0000 </r>
       <r>   -5.7840    1.0000 </r>
       <r>   -5.6856    1.0000 </r>
       <r>   -5.5888    1.0000 </r>
       <r>   -5.5659    1.0000 </r>
       <r>   -5.4189    1.0000 </r>
       <r>   -5.2762    1.0000 </r>
       <r>   -5.1433    1.0000 </r>
       <r>   -4.8963    1.0000 </r>
       <r>   -4.8708    1.0000 </r>
       <r>   -4.8250    1.0000 </r>
       <r>   -4.7058    1.0000 </r>
       <r>   -4.5801    1.0000 </r>
       <r>   -4.4446    1.0000 </r>
       <r>   -4.2127    1.0000 </r>
       <r>   -4.1789    1.0000 </r>
       <r>   -4.1139    1.0000 </r>
       <r>   -3.8998    0.9999 </r>
       <r>   -3.8081    0.9991 </r>
       <r>   -3.6844    0.9881 </r>
       <r>   -3.6038    0.9546 </r>
       <r>   -3.4419    0.7076 </r>
       <r>   -2.9382    0.0013 </r>
       <r>   -2.7523    0.0000 </r>
       <r>   -2.6002    0.0000 </r>
       <r>   -2.5495    0.0000 </r>
       <r>   -2.3677    0.0000 </r>
       <r>   -2.2491    0.0000 </r>
       <r>   -2.0934    0.0000 </r>
       <r>   -1.9381    0.0000 </r>
       <r>   -1.8460    0.0000 </r>
       <r>   -1.7326    0.0000 </r>
       <r>   -1.6293    0.0000 </r>
       <r>   -1.5679    0.0000 </r>
       <r>   -1.4744    0.0000 </r>
       <r>   -1.4529    0.0000 </r>
       <r>   -1.3006    0.0000 </r>
       <r>   -1.2348    0.0000 </r>
       <r>   -1.1612    0.0000 </r>
       <r>   -1.0500    0.0000 </r>
       <r>   -1.0332    0.0000 </r>
       <r>   -0.9974    0.0000 </r>
       <r>   -0.9481    0.0000 </r>
       <r>   -0.8544    0.0000 </r>
       <r>   -0.7812    0.0000 </r>
       <r>   -0.7189    0.0000 </r>
       <r>   -0.4386    0.0000 </r>
       <r>   -0.3778    0.0000 </r>
       <r>   -0.1975    0.0000 </r>
       <r>   -0.0662    0.0000 </r>
       <r>    0.0734    0.0000 </r>
       <r>    0.2991    0.0000 </r>
       <r>    0.5269    0.0000 </r>
       <r>    0.6536    0.0000 </r>
       <r>    0.8403    0.0000 </r>
       <r>    0.9317    0.0000 </r>
       <r>    1.0967    0.0000 </r>
       <r>    1.2862    0.0000 </r>
       <r>    1.4724    0.0000 </r>
       <r>    2.2091    0.0000 </r>
       <r>    2.2677    0.0000 </r>
       <r>    2.3832    0.0000 </r>
      </set>
     </set>
    </set>
   </array>
  </eigenvalues>
  <separator name="orbital magnetization" >
   <v name="MAGDIPOLOUT">      0.00000000      0.00000000      0.00000000</v>
  </separator>
 </calculation>
 <structure name="finalpos" >
  <crystal>
   <varray name="basis" >
    <v>       8.33656712       4.81105904       0.00000000 </v>
    <v>      -8.33889935       4.81509975       0.00000000 </v>
    <v>       0.00000000       0.00000000      30.00000000 </v>
   </varray>
   <i name="volume">   2407.81018041 </i>
   <varray name="rec_basis" >
    <v>       0.05999351       0.10389813       0.00000000 </v>
    <v>      -0.05994317       0.10386907       0.00000000 </v>
    <v>       0.00000000       0.00000000       0.03333333 </v>
   </varray>
  </crystal>
  <varray name="positions" >
   <v>       0.66778067      -0.03045757       0.00007165 </v>
   <v>      -0.01746585       0.68471417      -0.00023202 </v>
   <v>       0.35046186       0.36859575       0.00010454 </v>
   <v>       0.66647855       0.67254845      -0.00003238 </v>
   <v>       0.34846032       0.66009635       0.00048057 </v>
   <v>      -0.01478895      -0.02115704      -0.00051832 </v>
   <v>       1.03018580       0.32731390       0.00014457 </v>
   <v>       0.30193906      -0.03525694       0.00002293 </v>
   <v>       0.66635790       0.36983680      -0.00001778 </v>
   <v>       0.12844496       0.22247215       0.94866262 </v>
   <v>       0.22747892       0.11787861       0.04533777 </v>
   <v>       0.10551043       0.55651308       0.95495276 </v>
   <v>       0.22982412       0.44245457       0.05546014 </v>
   <v>       0.10328481       0.87898755       0.94445682 </v>
   <v>       0.20473954       0.76079606       0.05118223 </v>
   <v>       0.44058991       0.22380073       0.95291438 </v>
   <v>       0.55559482       0.10922174       0.04206925 </v>
   <v>       0.44848497       0.55696461       0.94502809 </v>
   <v>       0.54893335       0.45022524       0.05495201 </v>
   <v>       0.44964145       0.88976835       0.94948847 </v>
   <v>       0.55729130       0.78224912       0.05517908 </v>
   <v>       0.77758911       0.22038060       0.95782887 </v>
   <v>       0.88377079       0.10646272       0.05092759 </v>
   <v>       0.78407285       0.56756453       0.94499271 </v>
   <v>       0.89276173       0.44965015       0.04690354 </v>
   <v>       0.77604049       0.89143419       0.94476521 </v>
   <v>       0.88475155       0.77515660       0.05487459 </v>
  </varray>
 </structure>
</modeling>
