unknown system                          
           1
     8.855785    5.105622    0.000000
    -8.855542    5.105205    0.000000
     0.000000    0.000000   30.000000
   V    Mo   W    S 
   3   3   3  18
Direct configuration=     1
   0.66666669  0.00000000  0.00000000
   0.00000000  0.66666669  0.00000000
   0.33333334  0.33333334  0.00000000
   0.66666669  0.66666669  0.00000000
   0.33333334  0.66666669  0.00000000
   0.00000000  0.00000000  0.00000000
   1.00000000  0.33333334  0.00000000
   0.33333334  0.00000000  0.00000000
   0.66666669  0.33333334  0.00000000
   0.11068511  0.22244981  0.95539999
   0.22244981  0.11068511  0.04460000
   0.11068511  0.55578315  0.95539999
   0.22244981  0.44401845  0.04460000
   0.11068511  0.88911647  0.95539999
   0.22244981  0.77735180  0.04460000
   0.44401845  0.22244981  0.95539999
   0.55578315  0.11068511  0.04460000
   0.44401845  0.55578315  0.95539999
   0.55578315  0.44401845  0.04460000
   0.44401845  0.88911647  0.95539999
   0.55578315  0.77735180  0.04460000
   0.77735180  0.22244981  0.95539999
   0.88911647  0.11068511  0.04460000
   0.77735180  0.55578315  0.95539999
   0.88911647  0.44401845  0.04460000
   0.77735180  0.88911647  0.95539999
   0.88911647  0.77735180  0.04460000
unknown system                          
           1
     8.668363    4.999747    0.000000
    -8.668147    4.999377    0.000000
     0.000000    0.000000   30.000000
   V    Mo   W    S 
   3   3   3  18
Direct configuration=     2
   0.66675557 -0.00235971 -0.00000317
  -0.00005417  0.66785240 -0.00000326
   0.33334747  0.33454808  0.00000626
   0.66659506  0.66806124  0.00000319
   0.33473172  0.66658441 -0.00006529
  -0.00139025 -0.00138369  0.00006324
   1.00156503  0.33326672 -0.00004972
   0.33177703 -0.00153801  0.00004637
   0.66659349  0.33486410  0.00000220
   0.11516980  0.22486191  0.95190204
   0.22489081  0.11519630  0.04803802
   0.10803730  0.55696336  0.95204226
   0.22365150  0.44139900  0.04805578
   0.10968753  0.88462816  0.95188618
   0.21799030  0.77637498  0.04807580
   0.44229792  0.22422478  0.95197671
   0.55756658  0.10896712  0.04797704
   0.44207405  0.55088817  0.95192258
   0.55127224  0.44155921  0.04807912
   0.44855358  0.89156419  0.95192006
   0.55771215  0.78226464  0.04813348
   0.77579680  0.21825002  0.95195215
   0.88460436  0.10969621  0.04806965
   0.78185316  0.55674424  0.95192378
   0.89063112  0.44822439  0.04809780
   0.77523709  0.89126910  0.95193464
   0.89126721  0.77524315  0.04801300
unknown system                          
           1
     8.487096    4.899816    0.000000
    -8.487135    4.899886    0.000000
     0.000000    0.000000   30.000000
   V    Mo   W    S 
   3   3   3  18
Direct configuration=     3
   0.66675440 -0.00311096 -0.00000389
  -0.00005740  0.66823121  0.00000185
   0.33335083  0.33492501  0.00000189
   0.66658399  0.66846446  0.00000434
   0.33514593  0.66658239 -0.00011189
  -0.00178101 -0.00178429  0.00010878
   1.00198582  0.33326164 -0.00010749
   0.33133302 -0.00196891  0.00010258
   0.66660373  0.33528690  0.00000358
   0.11516092  0.22504815  0.95191529
   0.22508954  0.11516839  0.04797741
   0.10787600  0.55674297  0.95209381
   0.22347780  0.44123291  0.04810529
   0.10983008  0.88460861  0.95184632
   0.21799899  0.77653003  0.04806363
   0.44235764  0.22414788  0.95203913
   0.55748951  0.10905467  0.04785960
   0.44201348  0.55076559  0.95186864
   0.55128065  0.44137488  0.04807288
   0.44855623  0.89178155  0.95193480
   0.55780603  0.78240947  0.04822946
   0.77583800  0.21839195  0.95207973
   0.88460015  0.10986978  0.04806124
   0.78184456  0.55659019  0.95192854
   0.89060388  0.44810613  0.04802161
   0.77517723  0.89131918  0.95182905
   0.89129444  0.77518468  0.04807371
unknown system                          
           1
     8.277676    4.777953    0.000000
    -8.278236    4.778926    0.000000
     0.000000    0.000000   30.000000
   V    Mo   W    S 
   3   3   3  18
Direct configuration=     4
   0.66672984 -0.00585351 -0.00000139
  -0.00008114  0.66961323  0.00001258
   0.33335930  0.33631185 -0.00001151
   0.66654293  0.66978816  0.00000427
   0.33650672  0.66650708 -0.00023129
  -0.00310165 -0.00319907  0.00022782
   1.00336836  0.33329640 -0.00027453
   0.32984105 -0.00336513  0.00026837
   0.66664020  0.33667678  0.00000517
   0.11625340  0.22546605  0.95050158
   0.22571565  0.11621213  0.04918664
   0.10737887  0.55718366  0.95085780
   0.22405822  0.44077018  0.04976523
   0.10914987  0.88345164  0.95022048
   0.21690658  0.77573470  0.04947574
   0.44175409  0.22446168  0.95081326
   0.55797486  0.10867101  0.04884979
   0.44157277  0.54960865  0.95021977
   0.55021160  0.44094071  0.04952465
   0.44967406  0.89258708  0.95053565
   0.55848187  0.78364065  0.05004767
   0.77524566  0.21744815  0.95112290
   0.88348841  0.10944277  0.04947944
   0.78293567  0.55735434  0.95047858
   0.89133533  0.44911123  0.04920059
   0.77463010  0.89185324  0.94997829
   0.89164183  0.77450080  0.04974234
unknown system                          
           1
     8.265221    4.771773    0.000000
    -8.265620    4.772465    0.000000
     0.000000    0.000000   30.000000
   V    Mo   W    S 
   3   3   3  18
Direct configuration=     5
   0.66670376 -0.01104830  0.00000800
  -0.00033410  0.67226962  0.00001825
   0.33357433  0.33916192 -0.00002695
   0.66651090  0.67206072 -0.00000540
   0.33903395  0.66617296 -0.00028982
  -0.00562714 -0.00612300  0.00029313
   1.00625606  0.33350215 -0.00042334
   0.32672548 -0.00617865  0.00042621
   0.66670352  0.33982605 -0.00000096
   0.11735170  0.22513084  0.94861018
   0.22568861  0.11712768  0.05076855
   0.10753049  0.55805694  0.94926144
   0.22504341  0.44077996  0.05200390
   0.10807337  0.88228984  0.94799995
   0.21582532  0.77428965  0.05136278
   0.44079483  0.22465948  0.94932423
   0.55851625  0.10811377  0.04995002
   0.44168327  0.54894152  0.94782400
   0.54922759  0.44140871  0.05153011
   0.45074789  0.89303271  0.94865944
   0.55904423  0.78451740  0.05267711
   0.77461866  0.21619033  0.95003803
   0.88246411  0.10882166  0.05136494
   0.78395110  0.55883694  0.94848616
   0.89244033  0.45046607  0.05066276
   0.77419589  0.89206736  0.94732144
   0.89147065  0.77384012  0.05215574
unknown system                          
           1
     8.269699    4.774220    0.000000
    -8.270120    4.774953    0.000000
     0.000000    0.000000   30.000000
   V    Mo   W    S 
   3   3   3  18
Direct configuration=     6
   0.66670544 -0.01296191  0.00000030
  -0.00089257  0.67317304  0.00006900
   0.33411933  0.34062353 -0.00006971
   0.66646658  0.67212507 -0.00000104
   0.33987215  0.66593991 -0.00028600
  -0.00642444 -0.00714478  0.00028304
   1.00743643  0.33355508 -0.00047729
   0.32551293 -0.00727793  0.00047630
   0.66668960  0.34166590  0.00000523
   0.11732415  0.22458809  0.94850846
   0.22506999  0.11680552  0.05075009
   0.10815674  0.55833797  0.94928265
   0.22533470  0.44108239  0.05228046
   0.10780642  0.88232459  0.94770020
   0.21585937  0.77379289  0.05147599
   0.44048759  0.22453767  0.94936086
   0.55849030  0.10803340  0.04969499
   0.44216406  0.54947424  0.94751244
   0.54936457  0.44212668  0.05176428
   0.45058385  0.89273288  0.94855368
   0.55901105  0.78414792  0.05305931
   0.77465016  0.21611783  0.95028381
   0.88263972  0.10869960  0.05147926
   0.78382060  0.55940959  0.94823430
   0.89274631  0.45066559  0.05064048
   0.77423036  0.89174293  0.94694910
   0.89098908  0.77389673  0.05246971
unknown system                          
           1
     8.248608    4.762039    0.000000
    -8.248378    4.761644    0.000000
     0.000000    0.000000   30.000000
   V    Mo   W    S 
   3   3   3  18
Direct configuration=     7
   0.66671004 -0.01344621  0.00000116
  -0.00110615  0.67340635  0.00007888
   0.33432991  0.34105602 -0.00008097
   0.66647801  0.67203025 -0.00000174
   0.34006421  0.66589503 -0.00027626
  -0.00661226 -0.00740185  0.00027454
   1.00778452  0.33354870 -0.00049532
   0.32512643 -0.00765804  0.00049454
   0.66671100  0.34229487  0.00000454
   0.11732730  0.22448318  0.94856599
   0.22494319  0.11672623  0.05065643
   0.10827548  0.55838363  0.94938105
   0.22537450  0.44113155  0.05226578
   0.10776918  0.88233176  0.94771360
   0.21585334  0.77369017  0.05141711
   0.44045931  0.22451679  0.94944590
   0.55848784  0.10806370  0.04953882
   0.44226533  0.54959915  0.94751807
   0.54939068  0.44225052  0.05176981
   0.45053281  0.89267250  0.94860948
   0.55899962  0.78404612  0.05305365
   0.77465574  0.21615087  0.95043607
   0.88269099  0.10869499  0.05142321
   0.78379786  0.55950127  0.94823097
   0.89277475  0.45067734  0.05055754
   0.77423656  0.89165080  0.94695615
   0.89089428  0.77391878  0.05246090
unknown system                          
           1
     8.278573    4.779040    0.000000
    -8.279329    4.780354    0.000000
     0.000000    0.000000   30.000000
   V    Mo   W    S 
   3   3   3  18
Direct configuration=     8
   0.66668109 -0.01329807  0.00000553
  -0.00081881  0.67338068  0.00006905
   0.33405553  0.34068169 -0.00007812
   0.66664006  0.67247778 -0.00000287
   0.33995289  0.66601999 -0.00026512
  -0.00662429 -0.00750141  0.00026971
   1.00744195  0.33368570 -0.00047257
   0.32528377 -0.00748396  0.00047392
   0.66686069  0.34177055 -0.00000220
   0.11719694  0.22441813  0.94841567
   0.22485873  0.11665684  0.05084881
   0.10832566  0.55842395  0.94920633
   0.22537369  0.44120469  0.05240584
   0.10773194  0.88230795  0.94760553
   0.21590617  0.77372037  0.05154912
   0.44040721  0.22448058  0.94927877
   0.55845264  0.10794089  0.04975289
   0.44232864  0.54966509  0.94736883
   0.54948233  0.44236442  0.05184447
   0.45055215  0.89262559  0.94845598
   0.55897783  0.78407848  0.05319671
   0.77469413  0.21605081  0.95021883
   0.88268442  0.10865542  0.05156477
   0.78377699  0.55954443  0.94818898
   0.89286639  0.45077397  0.05070961
   0.77425224  0.89168711  0.94680798
   0.89087347  0.77388277  0.05258345
unknown system                          
           1
     8.270290    4.774035    0.000000
    -8.271310    4.775805    0.000000
     0.000000    0.000000   30.000000
   V    Mo   W    S 
   3   3   3  18
Direct configuration=     9
   0.66673614 -0.01532156 -0.00000058
  -0.00185978  0.67429061  0.00011357
   0.33506425  0.34268171 -0.00011437
   0.66641146  0.67175113 -0.00000335
   0.34088550  0.66567626 -0.00026236
  -0.00735390 -0.00830579  0.00026156
   1.00915493  0.33346776 -0.00057046
   0.32374306 -0.00900608  0.00056959
   0.66668026  0.34453957  0.00000492
   0.11751364  0.22418522  0.94859299
   0.22462524  0.11663482  0.05047923
   0.10860600  0.55858210  0.94956128
   0.22559932  0.44124302  0.05239314
   0.10756851  0.88225423  0.94757066
   0.21571156  0.77324441  0.05139074
   0.44029549  0.22449967  0.94959613
   0.55855520  0.10813937  0.04913649
   0.44252860  0.54984798  0.94735631
   0.54931930  0.44260045  0.05195780
   0.45049081  0.89256100  0.94863866
   0.55903568  0.78383455  0.05324026
   0.77459185  0.21615584  0.95083448
   0.88273118  0.10862864  0.05140394
   0.78383651  0.55989217  0.94803484
   0.89292595  0.45080238  0.05041442
   0.77419963  0.89139873  0.94677579
   0.89061810  0.77393625  0.05262420
unknown system                          
           1
     8.271140    4.773842    0.000000
    -8.272680    4.776513    0.000000
     0.000000    0.000000   30.000000
   V    Mo   W    S 
   3   3   3  18
Direct configuration=    10
   0.66671940 -0.01608454  0.00000670
  -0.00207870  0.67473234  0.00012613
   0.33528444  0.34329453 -0.00013435
   0.66651272  0.67179930 -0.00000290
   0.34113392  0.66562614 -0.00026214
  -0.00765341 -0.00882773  0.00025854
   1.00965286  0.33354200 -0.00059329
   0.32307481 -0.00966074  0.00059256
   0.66681305  0.34538609  0.00000930
   0.11754000  0.22402169  0.94852887
   0.22445097  0.11656074  0.05049157
   0.10874720  0.55870826  0.94956186
   0.22568600  0.44131739  0.05253070
   0.10744683  0.88217237  0.94743397
   0.21560591  0.77300824  0.05146183
   0.44022602  0.22447301  0.94958834
   0.55856860  0.10813470  0.04904533
   0.44266496  0.54999565  0.94721520
   0.54932080  0.44278408  0.05209231
   0.45048764  0.89251695  0.94856828
   0.55903188  0.78374974  0.05340832
   0.77456445  0.21611389  0.95090828
   0.88274533  0.10858875  0.05146466
   0.78390717  0.56011502  0.94790402
   0.89303934  0.45092429  0.05042765
   0.77421121  0.89131834  0.94660041
   0.89051106  0.77390396  0.05276777
unknown system                          
           1
     8.260640    4.769153    0.000000
    -8.261162    4.770060    0.000000
     0.000000    0.000000   30.000000
   V    Mo   W    S 
   3   3   3  18
Direct configuration=    11
   0.66674686 -0.01763430  0.00000365
  -0.00283543  0.67547874  0.00015364
   0.33602183  0.34476584 -0.00016009
   0.66647378  0.67139107 -0.00000417
   0.34178671  0.66548277 -0.00025861
  -0.00824108 -0.00952956  0.00025680
   1.01086877  0.33337193 -0.00066700
   0.32182437 -0.01097816  0.00066547
   0.66680694  0.34747074  0.00000919
   0.11775835  0.22385561  0.94859742
   0.22432092  0.11653401  0.05027003
   0.10888401  0.55879141  0.94979285
   0.22581308  0.44135622  0.05257841
   0.10733210  0.88210449  0.94738213
   0.21541947  0.77264861  0.05138321
   0.44018499  0.22447187  0.94977899
   0.55863986  0.10829146  0.04862816
   0.44282322  0.55014497  0.94714455
   0.54921644  0.44294302  0.05223283
   0.45047564  0.89250916  0.94865757
   0.55906866  0.78359951  0.05347712
   0.77449524  0.21620011  0.95132410
   0.88275457  0.10859566  0.05138799
   0.78398502  0.56035571  0.94776297
   0.89307522  0.45094841  0.05023515
   0.77417177  0.89112691  0.94653672
   0.89034316  0.77391824  0.05283082
unknown system                          
           1
     8.279532    4.778109    0.000000
    -8.281815    4.782065    0.000000
     0.000000    0.000000   30.000000
   V    Mo   W    S 
   3   3   3  18
Direct configuration=    12
   0.66671778 -0.01638412  0.00000643
  -0.00202808  0.67482779  0.00013453
   0.33522580  0.34335579 -0.00014256
   0.66652682  0.67198183 -0.00000301
   0.34130045  0.66564296 -0.00025704
  -0.00783344 -0.00902573  0.00025583
   1.00972862  0.33363672 -0.00060873
   0.32294554 -0.00972784  0.00060542
   0.66686514  0.34557497  0.00000712
   0.11744506  0.22399002  0.94856505
   0.22434051  0.11645967  0.05047698
   0.10885326  0.55872372  0.94956718
   0.22568784  0.44133524  0.05252879
   0.10744594  0.88217957  0.94742068
   0.21568327  0.77306333  0.05144483
   0.44020824  0.22445320  0.94961163
   0.55852293  0.10809760  0.04900474
   0.44271319  0.55006020  0.94720948
   0.54940225  0.44284194  0.05206313
   0.45044704  0.89246151  0.94858101
   0.55904939  0.78374035  0.05342322
   0.77460074  0.21610850  0.95094087
   0.88279191  0.10856647  0.05144256
   0.78383807  0.56009477  0.94792365
   0.89307648  0.45095003  0.05042534
   0.77419047  0.89129273  0.94658503
   0.89046924  0.77391321  0.05278772
unknown system                          
           1
     8.276007    4.775708    0.000000
    -8.278656    4.780299    0.000000
     0.000000    0.000000   30.000000
   V    Mo   W    S 
   3   3   3  18
Direct configuration=    13
   0.66674757 -0.01860653  0.00000591
  -0.00315450  0.67590322  0.00017150
   0.33633558  0.34553935 -0.00017867
   0.66648121  0.67138413 -0.00000302
   0.34218529  0.66543035 -0.00025005
  -0.00863257 -0.01004507  0.00024823
   1.01151541  0.33342370 -0.00069090
   0.32106746 -0.01170926  0.00068537
   0.66690123  0.34855635  0.00001256
   0.11786465  0.22368298  0.94854977
   0.22415841  0.11651463  0.05024234
   0.10904163  0.55894305  0.94981350
   0.22592081  0.44140205  0.05270926
   0.10721494  0.88202411  0.94722764
   0.21528428  0.77235384  0.05145738
   0.44010509  0.22445568  0.94980690
   0.55870172  0.10830465  0.04846131
   0.44296010  0.55025768  0.94700396
   0.54914300  0.44309532  0.05238255
   0.45052318  0.89251500  0.94861339
   0.55910635  0.78354463  0.05364056
   0.77441168  0.21612475  0.95147228
   0.88271328  0.10853804  0.05142352
   0.78408233  0.56060139  0.94759465
   0.89318613  0.45105800  0.05023782
   0.77414091  0.89104029  0.94637018
   0.89020926  0.77388215  0.05299197
unknown system                          
           1
     8.271667    4.772135    0.000000
    -8.275293    4.778419    0.000000
     0.000000    0.000000   30.000000
   V    Mo   W    S 
   3   3   3  18
Direct configuration=    14
   0.66675712 -0.01927874  0.00000604
  -0.00348688  0.67624081  0.00018306
   0.33666406  0.34621339 -0.00019060
   0.66647064  0.67124768 -0.00000347
   0.34244351  0.66535910 -0.00025099
  -0.00887141 -0.01036377  0.00024956
   1.01207099  0.33336872 -0.00072285
   0.32047157 -0.01233847  0.00071552
   0.66692688  0.34942142  0.00001380
   0.11796012  0.22361193  0.94856953
   0.22411501  0.11649466  0.05015034
   0.10908641  0.55896494  0.94990668
   0.22596969  0.44142146  0.05274003
   0.10716359  0.88199230  0.94719122
   0.21518960  0.77218867  0.05144097
   0.44010571  0.22445689  0.94988865
   0.55872949  0.10837137  0.04828143
   0.44303149  0.55033112  0.94696909
   0.54909458  0.44316137  0.05244740
   0.45053067  0.89252823  0.94864366
   0.55911231  0.78348162  0.05368018
   0.77437876  0.21615705  0.95164654
   0.88270528  0.10853981  0.05139486
   0.78413037  0.56071777  0.94752636
   0.89319289  0.45106720  0.05016335
   0.77413720  0.89097140  0.94633117
   0.89013482  0.77388651  0.05302838
unknown system                          
           1
     8.274007    4.773005    0.000000
    -8.278006    4.779932    0.000000
     0.000000    0.000000   30.000000
   V    Mo   W    S 
   3   3   3  18
Direct configuration=    15
   0.66678194 -0.02101529  0.00000674
  -0.00443493  0.67715395  0.00021091
   0.33759932  0.34804270 -0.00022081
   0.66645851  0.67077750 -0.00000527
   0.34308925  0.66517928 -0.00025297
  -0.00946397 -0.01116073  0.00025182
   1.01355343  0.33314248 -0.00080386
   0.31889711 -0.01405618  0.00079415
   0.66697233  0.35176996  0.00001745
   0.11826231  0.22342125  0.94860565
   0.22403384  0.11647703  0.04990623
   0.10916597  0.55902251  0.95016270
   0.22610605  0.44147366  0.05283095
   0.10701792  0.88190048  0.94709384
   0.21488910  0.77169620  0.05140139
   0.44010411  0.22445666  0.95010141
   0.55881745  0.10857351  0.04780411
   0.44321953  0.55052227  0.94686635
   0.54894064  0.44333443  0.05264743
   0.45055294  0.89257432  0.94871747
   0.55912032  0.78330085  0.05378265
   0.77428242  0.21626036  0.95211325
   0.88268157  0.10856043  0.05133026
   0.78428270  0.56104615  0.94732452
   0.89320951  0.45108523  0.04995607
   0.77413382  0.89078040  0.94623036
   0.88994127  0.77389503  0.05312712
unknown system                          
           1
     8.287728    4.780417    0.000000
    -8.292042    4.787891    0.000000
     0.000000    0.000000   30.000000
   V    Mo   W    S 
   3   3   3  18
Direct configuration=    16
   0.66678228 -0.02154631  0.00000773
  -0.00476388  0.67747199  0.00021831
   0.33792432  0.34865839 -0.00023057
   0.66649279  0.67062162 -0.00000562
   0.34324644  0.66510889 -0.00024994
  -0.00962359 -0.01145416  0.00024957
   1.01403528  0.33309472 -0.00082127
   0.31833812 -0.01466254  0.00081074
   0.66702963  0.35253104  0.00001891
   0.11838560  0.22333251  0.94858710
   0.22400330  0.11648278  0.04984775
   0.10918784  0.55906455  0.95022741
   0.22616457  0.44150437  0.05289245
   0.10694595  0.88185186  0.94703276
   0.21474785  0.77147201  0.05141938
   0.44009546  0.22444428  0.95015507
   0.55885099  0.10864498  0.04765938
   0.44330396  0.55060305  0.94680410
   0.54887509  0.44341805  0.05274180
   0.45056323  0.89259219  0.94871662
   0.55910728  0.78321884  0.05384530
   0.77424336  0.21628927  0.95225042
   0.88267401  0.10857089  0.05133130
   0.78436169  0.56120244  0.94723188
   0.89323435  0.45110745  0.04990694
   0.77414739  0.89070848  0.94616683
   0.88986115  0.77388281  0.05318554
unknown system                          
           1
     8.283270    4.775841    0.000000
    -8.289669    4.786926    0.000000
     0.000000    0.000000   30.000000
   V    Mo   W    S 
   3   3   3  18
Direct configuration=    17
   0.66681154 -0.02177369  0.00000355
  -0.00491483  0.67745562  0.00021984
   0.33807252  0.34877771 -0.00022726
   0.66644144  0.67051152 -0.00000610
   0.34345452  0.66520357 -0.00024513
  -0.00978724 -0.01142707  0.00024743
   1.01410997  0.33294686 -0.00081856
   0.31833510 -0.01470947  0.00081254
   0.66692957  0.35282381  0.00001169
   0.11843552  0.22328483  0.94854865
   0.22401778  0.11658306  0.04986156
   0.10919629  0.55911226  0.95021569
   0.22615425  0.44148683  0.05292939
   0.10698410  0.88188908  0.94700037
   0.21476632  0.77142565  0.05143979
   0.44004249  0.22445753  0.95012258
   0.55894521  0.10862512  0.04765826
   0.44327320  0.55055316  0.94674423
   0.54878583  0.44335452  0.05280914
   0.45065319  0.89265323  0.94869734
   0.55914896  0.78330036  0.05389236
   0.77416504  0.21619687  0.95226519
   0.88258185  0.10855078  0.05136472
   0.78438974  0.56118409  0.94717091
   0.89324769  0.45109910  0.04992092
   0.77409917  0.89074840  0.94612643
   0.88987525  0.77390072  0.05323438
unknown system                          
           1
     8.288227    4.777383    0.000000
    -8.295678    4.790290    0.000000
     0.000000    0.000000   30.000000
   V    Mo   W    S 
   3   3   3  18
Direct configuration=    18
   0.66683804 -0.02380099  0.00001048
  -0.00622832  0.67868539  0.00024719
   0.33938194  0.35132405 -0.00026150
   0.66642166  0.67001513 -0.00000784
   0.34415308  0.66481751 -0.00025266
  -0.01044169 -0.01248099  0.00024863
   1.01612819  0.33266534 -0.00090819
   0.31622473 -0.01702810  0.00089615
   0.66699501  0.35546841  0.00002920
   0.11898499  0.22304260  0.94856851
   0.22400485  0.11656261  0.04950627
   0.10919157  0.55911633  0.95058726
   0.22638863  0.44158403  0.05306970
   0.10671512  0.88172335  0.94683994
   0.21417825  0.77060042  0.05142950
   0.44007055  0.22445484  0.95044567
   0.55900826  0.10892289  0.04697834
   0.44360027  0.55089089  0.94661131
   0.54853482  0.44369050  0.05308107
   0.45068125  0.89272220  0.94880413
   0.55909999  0.78296099  0.05402001
   0.77407212  0.21639753  0.95291965
   0.88254824  0.10856963  0.05126674
   0.78468243  0.56181442  0.94688243
   0.89326526  0.45113670  0.04961491
   0.77417033  0.89046137  0.94599335
   0.88954487  0.77389739  0.05337962
unknown system                          
           1
     8.296284    4.777366    0.000000
    -8.308338    4.798246    0.000000
     0.000000    0.000000   30.000000
   V    Mo   W    S 
   3   3   3  18
Direct configuration=    19
   0.66686572 -0.02498182  0.00001076
  -0.00715933  0.67940955  0.00025079
   0.34030929  0.35293204 -0.00026892
   0.66644183  0.66976033 -0.00001007
   0.34460876  0.66457196 -0.00024127
  -0.01088162 -0.01317832  0.00023966
   1.01735295  0.33243341 -0.00093860
   0.31493262 -0.01846954  0.00092673
   0.66702406  0.35706496  0.00002980
   0.11942103  0.22285257  0.94853812
   0.22405620  0.11662815  0.04929308
   0.10912795  0.55912050  0.95081522
   0.22655105  0.44166201  0.05320016
   0.10653708  0.88162763  0.94670593
   0.21374223  0.76997806  0.05144987
   0.44004871  0.22444595  0.95063081
   0.55906069  0.10908847  0.04656495
   0.44384766  0.55114261  0.94647309
   0.54833090  0.44392420  0.05328553
   0.45072658  0.89276650  0.94885731
   0.55903896  0.78274251  0.05413042
   0.77401205  0.21649850  0.95332512
   0.88250378  0.10857161  0.05122498
   0.78487963  0.56224081  0.94668224
   0.89330777  0.45117197  0.04942989
   0.77423271  0.89030212  0.94588353
   0.88929521  0.77390771  0.05351078
unknown system                          
           1
     8.316278    4.788344    0.000000
    -8.327637    4.808016    0.000000
     0.000000    0.000000   30.000000
   V    Mo   W    S 
   3   3   3  18
Direct configuration=    20
   0.66703313 -0.03006184  0.00002598
  -0.01162812  0.68257762  0.00024089
   0.34487581  0.36078371 -0.00027229
   0.66619364  0.66886575 -0.00001203
   0.34670186  0.66290953 -0.00016725
  -0.01286424 -0.01642503  0.00015580
   1.02338881  0.33125971 -0.00105911
   0.30895801 -0.02519533  0.00104179
   0.66688734  0.36392366  0.00006077
   0.12188963  0.22201762  0.94845895
   0.22453566  0.11703242  0.04812901
   0.10863824  0.55895717  0.95201903
   0.22748017  0.44206906  0.05384188
   0.10558339  0.88118594  0.94599751
   0.21135496  0.76675585  0.05151502
   0.43990165  0.22441415  0.95161144
   0.55907617  0.10982793  0.04451249
   0.44529695  0.55262291  0.94581782
   0.54744332  0.44531258  0.05418339
   0.45078590  0.89280227  0.94917854
   0.55863900  0.78154329  0.05462919
   0.77395180  0.21717483  0.95534083
   0.88241312  0.10849002  0.05096909
   0.78569500  0.56446940  0.94574297
   0.89351596  0.45131383  0.04846638
   0.77469978  0.88953097  0.94537624
   0.88776751  0.77405641  0.05419559
unknown system                          
           1
     8.308129    4.784843    0.000000
    -8.318925    4.803541    0.000000
     0.000000    0.000000   30.000000
   V    Mo   W    S 
   3   3   3  18
Direct configuration=    21
   0.66707672 -0.03002886  0.00001469
  -0.01223135  0.68276517  0.00016005
   0.34543391  0.36132978 -0.00019835
   0.66640553  0.66935528 -0.00001900
   0.34681954  0.66251120 -0.00009022
  -0.01309852 -0.01721578  0.00010152
   1.02388403  0.33112719 -0.00094651
   0.30824236 -0.02599571  0.00094878
   0.66699546  0.36437657  0.00001749
   0.12274403  0.22187637  0.94836695
   0.22483982  0.11731556  0.04792244
   0.10831967  0.55889846  0.95224558
   0.22770817  0.44220450  0.05405767
   0.10534336  0.88104792  0.94583455
   0.21056389  0.76585591  0.05155338
   0.43984248  0.22442173  0.95174456
   0.55885386  0.10979789  0.04425199
   0.44583554  0.55324066  0.94555583
   0.54733229  0.44579582  0.05436109
   0.45070917  0.89256091  0.94921834
   0.55841871  0.78127311  0.05476224
   0.77420154  0.21739807  0.95561431
   0.88252017  0.10840160  0.05094766
   0.78572978  0.56493790  0.94563379
   0.89358573  0.45136654  0.04831448
   0.77485745  0.88944296  0.94525348
   0.88728112  0.77415371  0.05437311
unknown system                          
           1
     8.313139    4.788288    0.000000
    -8.323526    4.806278    0.000000
     0.000000    0.000000   30.000000
   V    Mo   W    S 
   3   3   3  18
Direct configuration=    22
   0.66710826 -0.03031390  0.00002369
  -0.01273266  0.68305375  0.00015210
   0.34597000  0.36217828 -0.00019296
   0.66637894  0.66946233 -0.00001744
   0.34702340  0.66216402 -0.00007572
  -0.01329602 -0.01770241  0.00006823
   1.02464218  0.33090896 -0.00095240
   0.30754548 -0.02684728  0.00095193
   0.66692223  0.36502232  0.00004140
   0.12314362  0.22191803  0.94844522
   0.22499823  0.11736098  0.04770423
   0.10814245  0.55876947  0.95247174
   0.22782366  0.44222507  0.05412842
   0.10520735  0.88095475  0.94575701
   0.21013339  0.76547166  0.05148312
   0.43987414  0.22443073  0.95189272
   0.55865012  0.10979485  0.04400247
   0.44609536  0.55356651  0.94552534
   0.54741658  0.44609120  0.05438026
   0.45059823  0.89240101  0.94929672
   0.55831518  0.78116741  0.05477672
   0.77440209  0.21760757  0.95585594
   0.88262064  0.10833207  0.05088343
   0.78568329  0.56519118  0.94558953
   0.89355942  0.45134791  0.04815620
   0.77497897  0.88944343  0.94523158
   0.88700990  0.77421455  0.05442043
unknown system                          
           1
     8.323893    4.795788    0.000000
    -8.333152    4.811825    0.000000
     0.000000    0.000000   30.000000
   V    Mo   W    S 
   3   3   3  18
Direct configuration=    23
   0.66714211 -0.03055461  0.00002994
  -0.01330115  0.68331641  0.00012781
   0.34654511  0.36301649 -0.00017523
   0.66639492  0.66971879 -0.00001949
   0.34723710  0.66180701 -0.00003856
  -0.01353092 -0.01826866  0.00002567
   1.02537149  0.33068224 -0.00090024
   0.30683566 -0.02771974  0.00090609
   0.66688648  0.36563754  0.00004539
   0.12371366  0.22191286  0.94846825
   0.22520840  0.11748601  0.04748735
   0.10790918  0.55866814  0.95270102
   0.22797362  0.44225027  0.05425902
   0.10504176  0.88081707  0.94562324
   0.20954817  0.76488902  0.05145447
   0.43988649  0.22441036  0.95201879
   0.55841103  0.10975681  0.04376501
   0.44642863  0.55397200  0.94543554
   0.54748141  0.44647142  0.05445956
   0.45049020  0.89219590  0.94935051
   0.55817596  0.78109186  0.05482766
   0.77464348  0.21782506  0.95609028
   0.88273050  0.10823051  0.05084533
   0.78563213  0.56550159  0.94550833
   0.89356423  0.45132011  0.04801704
   0.77511370  0.88949835  0.94517165
   0.88668110  0.77428164  0.05451547
unknown system                          
           1
     8.334644    4.803774    0.000000
    -8.342070    4.816635    0.000000
     0.000000    0.000000   30.000000
   V    Mo   W    S 
   3   3   3  18
Direct configuration=    24
   0.66726640 -0.03122855  0.00004320
  -0.01513592  0.68432032  0.00001710
   0.34848592  0.36621861 -0.00007029
   0.66607719  0.67047555 -0.00002120
   0.34775618  0.66026226  0.00011756
  -0.01407283 -0.01994728 -0.00012553
   1.02812456  0.32987365 -0.00069337
   0.30430237 -0.03090298  0.00072815
   0.66657124  0.36767331  0.00002103
   0.12580153  0.22195443  0.94859863
   0.22602155  0.11789264  0.04661217
   0.10713639  0.55812863  0.95357612
   0.22864328  0.44230530  0.05465661
   0.10450097  0.88032794  0.94519677
   0.20761541  0.76304378  0.05129427
   0.44000773  0.22433476  0.95251320
   0.55738858  0.10957678  0.04293171
   0.44752651  0.55526537  0.94519234
   0.54770924  0.44783286  0.05467148
   0.45003280  0.89140360  0.94955907