   27   27  100    1
  0.9710400E+02  0.1002848E-08  0.1002848E-08  0.3000000E-08  0.5000000E-15
  1.000000000000000E-004
  CAR 
 unknown system                          
    159     34    120
 
  0.0000000E+00  0.0000000E+00  0.0000000E+00  0.1562500E-01
    1      -17.807867   1.000000
    2      -16.628531   1.000000
    3      -16.621909   1.000000
    4      -16.495342   1.000000
    5      -16.473214   1.000000
    6      -16.461293   1.000000
    7      -16.398802   1.000000
    8      -16.323508   1.000000
    9      -16.123385   1.000000
   10      -16.091082   1.000000
   11      -16.013225   1.000000
   12      -15.935622   1.000000
   13      -15.872891   1.000000
   14      -15.853428   1.000000
   15      -15.640018   1.000000
   16      -15.541632   1.000000
   17      -15.429419   1.000000
   18      -15.345463   1.000000
   19       -9.304676   1.000000
   20       -8.909596   1.000000
   21       -8.858770   1.000000
   22       -8.747149   1.000000
   23       -8.694449   1.000000
   24       -8.668683   1.000000
   25       -8.644105   1.000000
   26       -8.549607   1.000000
   27       -8.476485   1.000000
   28       -8.433857   1.000000
   29       -8.421767   1.000000
   30       -8.328642   1.000000
   31       -8.271719   1.000000
   32       -8.184054   1.000000
   33       -8.110287   1.000000
   34       -8.003902   1.000000
   35       -7.916633   1.000000
   36       -7.868616   1.000000
   37       -7.705884   1.000000
   38       -7.581012   1.000000
   39       -7.524497   1.000000
   40       -7.389685   1.000000
   41       -7.336662   1.000000
   42       -7.230679   1.000000
   43       -7.161362   1.000000
   44       -6.906239   1.000000
   45       -6.841484   1.000000
   46       -6.778655   1.000000
   47       -6.754472   1.000000
   48       -6.614954   1.000000
   49       -6.558863   1.000000
   50       -6.468728   1.000000
   51       -6.425477   1.000000
   52       -6.362019   1.000000
   53       -6.333185   1.000000
   54       -6.250718   1.000000
   55       -6.228955   1.000000
   56       -6.102832   1.000000
   57       -6.040940   1.000000
   58       -5.912770   1.000000
   59       -5.675333   1.000000
   60       -5.607454   1.000000
   61       -5.439907   1.000000
   62       -5.419257   1.000000
   63       -5.248095   1.000000
   64       -5.096710   1.000000
   65       -5.047604   1.000000
   66       -4.993405   1.000000
   67       -4.925166   1.000000
   68       -4.815457   1.000000
   69       -4.694378   1.000000
   70       -4.670269   1.000000
   71       -4.618158   1.000000
   72       -4.555896   1.000000
   73       -4.479136   1.000000
   74       -4.241938   1.000000
   75       -4.217352   1.000000
   76       -4.006957   1.000000
   77       -3.572826   0.999335
   78       -3.526335   0.998016
   79       -3.424758   0.984711
   80       -3.283330   0.877477
   81       -3.138826   0.555934
   82       -2.808065   0.013969
   83       -2.680008   0.000956
   84       -2.646888   0.000422
   85       -2.505623   0.000007
   86       -2.408188   0.000000
   87       -2.393101   0.000000
   88       -2.258749   0.000000
   89       -2.152354   0.000000
   90       -2.087588   0.000000
   91       -1.894806   0.000000
   92       -1.656463   0.000000
   93       -1.496652   0.000000
   94       -1.420768   0.000000
   95       -1.324777   0.000000
   96       -1.212684   0.000000
   97       -1.094159   0.000000
   98       -1.013243   0.000000
   99       -0.721505   0.000000
  100       -0.545832   0.000000
  101       -0.442229   0.000000
  102       -0.377236   0.000000
  103       -0.354925   0.000000
  104       -0.325367   0.000000
  105       -0.066485   0.000000
  106       -0.011525   0.000000
  107        0.078527   0.000000
  108        0.179755   0.000000
  109        0.308654   0.000000
  110        0.350475   0.000000
  111        0.468542   0.000000
  112        0.592297   0.000000
  113        0.726920   0.000000
  114        0.761716   0.000000
  115        0.929208   0.000000
  116        0.939482   0.000000
  117        1.067540   0.000000
  118        1.663731   0.000000
  119        1.834500   0.000000
  120        2.169742   0.000000
 
  0.1250000E+00  0.2775558E-16  0.0000000E+00  0.3125000E-01
    1      -17.782218   1.000000
    2      -16.763126   1.000000
    3      -16.627035   1.000000
    4      -16.559701   1.000000
    5      -16.510873   1.000000
    6      -16.353409   1.000000
    7      -16.343099   1.000000
    8      -16.283438   1.000000
    9      -16.161310   1.000000
   10      -16.093008   1.000000
   11      -16.001863   1.000000
   12      -15.906546   1.000000
   13      -15.842583   1.000000
   14      -15.815552   1.000000
   15      -15.654420   1.000000
   16      -15.559513   1.000000
   17      -15.434056   1.000000
   18      -15.352605   1.000000
   19       -9.298370   1.000000
   20       -9.132366   1.000000
   21       -8.935057   1.000000
   22       -8.846845   1.000000
   23       -8.771901   1.000000
   24       -8.669609   1.000000
   25       -8.640258   1.000000
   26       -8.533882   1.000000
   27       -8.475053   1.000000
   28       -8.441191   1.000000
   29       -8.329863   1.000000
   30       -8.249314   1.000000
   31       -8.183888   1.000000
   32       -8.137624   1.000000
   33       -8.011168   1.000000
   34       -7.965391   1.000000
   35       -7.858443   1.000000
   36       -7.735174   1.000000
   37       -7.723016   1.000000
   38       -7.544343   1.000000
   39       -7.504358   1.000000
   40       -7.434742   1.000000
   41       -7.340643   1.000000
   42       -7.179439   1.000000
   43       -7.141723   1.000000
   44       -7.006441   1.000000
   45       -6.902707   1.000000
   46       -6.819731   1.000000
   47       -6.700974   1.000000
   48       -6.609312   1.000000
   49       -6.522449   1.000000
   50       -6.461503   1.000000
   51       -6.412550   1.000000
   52       -6.373632   1.000000
   53       -6.336806   1.000000
   54       -6.286558   1.000000
   55       -6.231452   1.000000
   56       -6.147805   1.000000
   57       -6.043017   1.000000
   58       -5.881478   1.000000
   59       -5.647485   1.000000
   60       -5.611039   1.000000
   61       -5.433181   1.000000
   62       -5.359790   1.000000
   63       -5.252909   1.000000
   64       -5.170278   1.000000
   65       -5.133437   1.000000
   66       -5.070770   1.000000
   67       -5.011416   1.000000
   68       -4.912407   1.000000
   69       -4.729859   1.000000
   70       -4.685503   1.000000
   71       -4.595175   1.000000
   72       -4.486172   1.000000
   73       -4.395688   1.000000
   74       -4.122738   1.000000
   75       -4.037993   1.000000
   76       -3.979209   1.000000
   77       -3.703546   0.999982
   78       -3.658393   0.999932
   79       -3.543323   0.998654
   80       -3.161881   0.619319
   81       -3.032605   0.270791
   82       -2.813610   0.015427
   83       -2.688915   0.001180
   84       -2.646466   0.000418
   85       -2.493194   0.000005
   86       -2.421633   0.000000
   87       -2.373642   0.000000
   88       -2.254361   0.000000
   89       -2.161336   0.000000
   90       -2.102397   0.000000
   91       -1.904008   0.000000
   92       -1.621295   0.000000
   93       -1.485150   0.000000
   94       -1.415684   0.000000
   95       -1.320607   0.000000
   96       -1.195042   0.000000
   97       -1.086811   0.000000
   98       -0.977593   0.000000
   99       -0.720363   0.000000
  100       -0.620490   0.000000
  101       -0.513648   0.000000
  102       -0.457530   0.000000
  103       -0.426216   0.000000
  104       -0.350716   0.000000
  105       -0.131385   0.000000
  106       -0.089375   0.000000
  107        0.043123   0.000000
  108        0.190995   0.000000
  109        0.238892   0.000000
  110        0.350224   0.000000
  111        0.480415   0.000000
  112        0.568021   0.000000
  113        0.782472   0.000000
  114        0.833169   0.000000
  115        0.904461   0.000000
  116        1.033116   0.000000
  117        1.127215   0.000000
  118        1.706186   0.000000
  119        1.873701   0.000000
  120        2.204655   0.000000
 
  0.2500000E+00  0.5551115E-16  0.0000000E+00  0.3125000E-01
    1      -17.706127   1.000000
    2      -16.987741   1.000000
    3      -16.664115   1.000000
    4      -16.592534   1.000000
    5      -16.538614   1.000000
    6      -16.311716   1.000000
    7      -16.261251   1.000000
    8      -16.239193   1.000000
    9      -16.158532   1.000000
   10      -16.088019   1.000000
   11      -15.997991   1.000000
   12      -15.845889   1.000000
   13      -15.802629   1.000000
   14      -15.723928   1.000000
   15      -15.670913   1.000000
   16      -15.601193   1.000000
   17      -15.451479   1.000000
   18      -15.372531   1.000000
   19       -9.495252   1.000000
   20       -9.217777   1.000000
   21       -9.077042   1.000000
   22       -8.957332   1.000000
   23       -8.929942   1.000000
   24       -8.726365   1.000000
   25       -8.576093   1.000000
   26       -8.523563   1.000000
   27       -8.448146   1.000000
   28       -8.358430   1.000000
   29       -8.305478   1.000000
   30       -8.210347   1.000000
   31       -8.152244   1.000000
   32       -8.100069   1.000000
   33       -7.891596   1.000000
   34       -7.796736   1.000000
   35       -7.715777   1.000000
   36       -7.653809   1.000000
   37       -7.614851   1.000000
   38       -7.531344   1.000000
   39       -7.444026   1.000000
   40       -7.347041   1.000000
   41       -7.238332   1.000000
   42       -7.157306   1.000000
   43       -7.130414   1.000000
   44       -7.050670   1.000000
   45       -6.947503   1.000000
   46       -6.846914   1.000000
   47       -6.706534   1.000000
   48       -6.637223   1.000000
   49       -6.550999   1.000000
   50       -6.481958   1.000000
   51       -6.408665   1.000000
   52       -6.379719   1.000000
   53       -6.322219   1.000000
   54       -6.274012   1.000000
   55       -6.173642   1.000000
   56       -6.124045   1.000000
   57       -6.038055   1.000000
   58       -5.880962   1.000000
   59       -5.650169   1.000000
   60       -5.604529   1.000000
   61       -5.570274   1.000000
   62       -5.474403   1.000000
   63       -5.430147   1.000000
   64       -5.383061   1.000000
   65       -5.247735   1.000000
   66       -5.086983   1.000000
   67       -4.993289   1.000000
   68       -4.880729   1.000000
   69       -4.689420   1.000000
   70       -4.639973   1.000000
   71       -4.607306   1.000000
   72       -4.352823   1.000000
   73       -4.275349   1.000000
   74       -4.228320   1.000000
   75       -3.925110   1.000000
   76       -3.874898   1.000000
   77       -3.810682   0.999999
   78       -3.754032   0.999996
   79       -3.531081   0.998218
   80       -3.111778   0.479827
   81       -2.922052   0.081938
   82       -2.811967   0.014982
   83       -2.702697   0.001624
   84       -2.611554   0.000167
   85       -2.508931   0.000008
   86       -2.426570   0.000000
   87       -2.349092   0.000000
   88       -2.237707   0.000000
   89       -2.172151   0.000000
   90       -2.108763   0.000000
   91       -1.914726   0.000000
   92       -1.584479   0.000000
   93       -1.445534   0.000000
   94       -1.401457   0.000000
   95       -1.310375   0.000000
   96       -1.160637   0.000000
   97       -1.060337   0.000000
   98       -0.912975   0.000000
   99       -0.776950   0.000000
  100       -0.735474   0.000000
  101       -0.672390   0.000000
  102       -0.606836   0.000000
  103       -0.563422   0.000000
  104       -0.399032   0.000000
  105       -0.291139   0.000000
  106       -0.216819   0.000000
  107       -0.085372   0.000000
  108        0.123459   0.000000
  109        0.141319   0.000000
  110        0.376967   0.000000
  111        0.463310   0.000000
  112        0.551469   0.000000
  113        0.804671   0.000000
  114        0.918091   0.000000
  115        1.021879   0.000000
  116        1.195633   0.000000
  117        1.265428   0.000000
  118        1.825604   0.000000
  119        1.985810   0.000000
  120        2.308339   0.000000
 
  0.3750000E+00  0.0000000E+00  0.0000000E+00  0.3125000E-01
    1      -17.582304   1.000000
    2      -17.212948   1.000000
    3      -16.702536   1.000000
    4      -16.619089   1.000000
    5      -16.527042   1.000000
    6      -16.343964   1.000000
    7      -16.223378   1.000000
    8      -16.196782   1.000000
    9      -16.148829   1.000000
   10      -16.035818   1.000000
   11      -15.939061   1.000000
   12      -15.854406   1.000000
   13      -15.785190   1.000000
   14      -15.689670   1.000000
   15      -15.674006   1.000000
   16      -15.568120   1.000000
   17      -15.483340   1.000000
   18      -15.397204   1.000000
   19       -9.715867   1.000000
   20       -9.255688   1.000000
   21       -9.141144   1.000000
   22       -9.057827   1.000000
   23       -8.940487   1.000000
   24       -8.774360   1.000000
   25       -8.545711   1.000000
   26       -8.500130   1.000000
   27       -8.407595   1.000000
   28       -8.377110   1.000000
   29       -8.254232   1.000000
   30       -8.206226   1.000000
   31       -8.128840   1.000000
   32       -8.064040   1.000000
   33       -7.926828   1.000000
   34       -7.784513   1.000000
   35       -7.675248   1.000000
   36       -7.620800   1.000000
   37       -7.515377   1.000000
   38       -7.466552   1.000000
   39       -7.345531   1.000000
   40       -7.236982   1.000000
   41       -7.174985   1.000000
   42       -7.123433   1.000000
   43       -7.035455   1.000000
   44       -6.988367   1.000000
   45       -6.881133   1.000000
   46       -6.797736   1.000000
   47       -6.737463   1.000000
   48       -6.635446   1.000000
   49       -6.572266   1.000000
   50       -6.485079   1.000000
   51       -6.373499   1.000000
   52       -6.343633   1.000000
   53       -6.294449   1.000000
   54       -6.196217   1.000000
   55       -6.139597   1.000000
   56       -6.033517   1.000000
   57       -6.021206   1.000000
   58       -5.930456   1.000000
   59       -5.848274   1.000000
   60       -5.802714   1.000000
   61       -5.740311   1.000000
   62       -5.663024   1.000000
   63       -5.590298   1.000000
   64       -5.516527   1.000000
   65       -5.208351   1.000000
   66       -4.988294   1.000000
   67       -4.911252   1.000000
   68       -4.835850   1.000000
   69       -4.750667   1.000000
   70       -4.632998   1.000000
   71       -4.587302   1.000000
   72       -4.519333   1.000000
   73       -4.248251   1.000000
   74       -4.173179   1.000000
   75       -4.101966   1.000000
   76       -3.784030   0.999999
   77       -3.675293   0.999958
   78       -3.610013   0.999742
   79       -3.469539   0.993416
   80       -3.118876   0.499840
   81       -2.926203   0.086473
   82       -2.791013   0.010205
   83       -2.696879   0.001421
   84       -2.578422   0.000066
   85       -2.515249   0.000010
   86       -2.431100   0.000001
   87       -2.351390   0.000000
   88       -2.200465   0.000000
   89       -2.159254   0.000000
   90       -2.092889   0.000000
   91       -1.912597   0.000000
   92       -1.583132   0.000000
   93       -1.427155   0.000000
   94       -1.380166   0.000000
   95       -1.298555   0.000000
   96       -1.146588   0.000000
   97       -1.039469   0.000000
   98       -0.924098   0.000000
   99       -0.881466   0.000000
  100       -0.817227   0.000000
  101       -0.761482   0.000000
  102       -0.683892   0.000000
  103       -0.647775   0.000000
  104       -0.464646   0.000000
  105       -0.425107   0.000000
  106       -0.345657   0.000000
  107       -0.202284   0.000000
  108        0.039387   0.000000
  109        0.080400   0.000000
  110        0.278383   0.000000
  111        0.511021   0.000000
  112        0.576386   0.000000
  113        0.802987   0.000000
  114        0.978643   0.000000
  115        1.142103   0.000000
  116        1.319302   0.000000
  117        1.402656   0.000000
  118        2.006737   0.000000
  119        2.157880   0.000000
  120        2.477337   0.000000
 
  0.5000000E+00  0.1110223E-15  0.0000000E+00  0.1562500E-01
    1      -17.422138   1.000000
    2      -17.408463   1.000000
    3      -16.716691   1.000000
    4      -16.630151   1.000000
    5      -16.515082   1.000000
    6      -16.364621   1.000000
    7      -16.214234   1.000000
    8      -16.183819   1.000000
    9      -16.150450   1.000000
   10      -15.965448   1.000000
   11      -15.931541   1.000000
   12      -15.870224   1.000000
   13      -15.782747   1.000000
   14      -15.729214   1.000000
   15      -15.640839   1.000000
   16      -15.519930   1.000000
   17      -15.515558   1.000000
   18      -15.409609   1.000000
   19       -9.795680   1.000000
   20       -9.287592   1.000000
   21       -9.164575   1.000000
   22       -9.094027   1.000000
   23       -8.894180   1.000000
   24       -8.758372   1.000000
   25       -8.644254   1.000000
   26       -8.478565   1.000000
   27       -8.387572   1.000000
   28       -8.367100   1.000000
   29       -8.229220   1.000000
   30       -8.134653   1.000000
   31       -8.125066   1.000000
   32       -8.039290   1.000000
   33       -7.991147   1.000000
   34       -7.824955   1.000000
   35       -7.711858   1.000000
   36       -7.612448   1.000000
   37       -7.519734   1.000000
   38       -7.423685   1.000000
   39       -7.309664   1.000000
   40       -7.210720   1.000000
   41       -7.128485   1.000000
   42       -7.043415   1.000000
   43       -6.996984   1.000000
   44       -6.924511   1.000000
   45       -6.843549   1.000000
   46       -6.760992   1.000000
   47       -6.730335   1.000000
   48       -6.589731   1.000000
   49       -6.563024   1.000000
   50       -6.454009   1.000000
   51       -6.403144   1.000000
   52       -6.364868   1.000000
   53       -6.285736   1.000000
   54       -6.183046   1.000000
   55       -6.142873   1.000000
   56       -6.075428   1.000000
   57       -5.971524   1.000000
   58       -5.955389   1.000000
   59       -5.904825   1.000000
   60       -5.840263   1.000000
   61       -5.766725   1.000000
   62       -5.726312   1.000000
   63       -5.644078   1.000000
   64       -5.558124   1.000000
   65       -5.231138   1.000000
   66       -5.102314   1.000000
   67       -4.895921   1.000000
   68       -4.879849   1.000000
   69       -4.749513   1.000000
   70       -4.603285   1.000000
   71       -4.564433   1.000000
   72       -4.504913   1.000000
   73       -4.262834   1.000000
   74       -4.159176   1.000000
   75       -4.144853   1.000000
   76       -3.721350   0.999990
   77       -3.631223   0.999854
   78       -3.588968   0.999556
   79       -3.402433   0.977500
   80       -3.132348   0.537788
   81       -2.944062   0.108133
   82       -2.783659   0.008876
   83       -2.699001   0.001492
   84       -2.571578   0.000054
   85       -2.502463   0.000007
   86       -2.435146   0.000001
   87       -2.352825   0.000000
   88       -2.189870   0.000000
   89       -2.138573   0.000000
   90       -2.081490   0.000000
   91       -1.909744   0.000000
   92       -1.586557   0.000000
   93       -1.435266   0.000000
   94       -1.368113   0.000000
   95       -1.294334   0.000000
   96       -1.152663   0.000000
   97       -1.039876   0.000000
   98       -0.957101   0.000000
   99       -0.921657   0.000000
  100       -0.857680   0.000000
  101       -0.757881   0.000000
  102       -0.713433   0.000000
  103       -0.653356   0.000000
  104       -0.508609   0.000000
  105       -0.460413   0.000000
  106       -0.414002   0.000000
  107       -0.238500   0.000000
  108        0.000384   0.000000
  109        0.065659   0.000000
  110        0.233138   0.000000
  111        0.529256   0.000000
  112        0.589774   0.000000
  113        0.800136   0.000000
  114        1.001223   0.000000
  115        1.186325   0.000000
  116        1.361236   0.000000
  117        1.457530   0.000000
  118        2.235718   0.000000
  119        2.240641   0.000000
  120        2.351349   0.000000
 
  0.0000000E+00  0.1250000E+00  0.0000000E+00  0.3125000E-01
    1      -17.782378   1.000000
    2      -16.745427   1.000000
    3      -16.626402   1.000000
    4      -16.573707   1.000000
    5      -16.510505   1.000000
    6      -16.396355   1.000000
    7      -16.329546   1.000000
    8      -16.264183   1.000000
    9      -16.181802   1.000000
   10      -16.069258   1.000000
   11      -15.989238   1.000000
   12      -15.912478   1.000000
   13      -15.866994   1.000000
   14      -15.796180   1.000000
   15      -15.653089   1.000000
   16      -15.551520   1.000000
   17      -15.444190   1.000000
   18      -15.350367   1.000000
   19       -9.291391   1.000000
   20       -9.122237   1.000000
   21       -8.971637   1.000000
   22       -8.853740   1.000000
   23       -8.761535   1.000000
   24       -8.701796   1.000000
   25       -8.597160   1.000000
   26       -8.517383   1.000000
   27       -8.480043   1.000000
   28       -8.429094   1.000000
   29       -8.319807   1.000000
   30       -8.284037   1.000000
   31       -8.204333   1.000000
   32       -8.096224   1.000000
   33       -8.061758   1.000000
   34       -7.970673   1.000000
   35       -7.847186   1.000000
   36       -7.738534   1.000000
   37       -7.686102   1.000000
   38       -7.569422   1.000000
   39       -7.504568   1.000000
   40       -7.396632   1.000000
   41       -7.314734   1.000000
   42       -7.234540   1.000000
   43       -7.157666   1.000000
   44       -6.956910   1.000000
   45       -6.882583   1.000000
   46       -6.811762   1.000000
   47       -6.760051   1.000000
   48       -6.634195   1.000000
   49       -6.544501   1.000000
   50       -6.456250   1.000000
   51       -6.423677   1.000000
   52       -6.341592   1.000000
   53       -6.319835   1.000000
   54       -6.278014   1.000000
   55       -6.222054   1.000000
   56       -6.140049   1.000000
   57       -6.044768   1.000000
   58       -5.873494   1.000000
   59       -5.686888   1.000000
   60       -5.578248   1.000000
   61       -5.417581   1.000000
   62       -5.345851   1.000000
   63       -5.267475   1.000000
   64       -5.226123   1.000000
   65       -5.105483   1.000000
   66       -5.078170   1.000000
   67       -4.960094   1.000000
   68       -4.864122   1.000000
   69       -4.830117   1.000000
   70       -4.674033   1.000000
   71       -4.592874   1.000000
   72       -4.460536   1.000000
   73       -4.392531   1.000000
   74       -4.186170   1.000000
   75       -4.125112   1.000000
   76       -3.844284   1.000000
   77       -3.734641   0.999993
   78       -3.650860   0.999915
   79       -3.513893   0.997387
   80       -3.217290   0.756628
   81       -2.989947   0.180868
   82       -2.799916   0.012042
   83       -2.711015   0.001961
   84       -2.650897   0.000467
   85       -2.499601   0.000006
   86       -2.451613   0.000001
   87       -2.368031   0.000000
   88       -2.257797   0.000000
   89       -2.162707   0.000000
   90       -2.081929   0.000000
   91       -1.886605   0.000000
   92       -1.645254   0.000000
   93       -1.485072   0.000000
   94       -1.411673   0.000000
   95       -1.312838   0.000000
   96       -1.186692   0.000000
   97       -1.080944   0.000000
   98       -0.970267   0.000000
   99       -0.731116   0.000000
  100       -0.605094   0.000000
  101       -0.520182   0.000000
  102       -0.452816   0.000000
  103       -0.426393   0.000000
  104       -0.271422   0.000000
  105       -0.177593   0.000000
  106       -0.116009   0.000000
  107       -0.033122   0.000000
  108        0.194182   0.000000
  109        0.290937   0.000000
  110        0.357701   0.000000
  111        0.447556   0.000000
  112        0.595481   0.000000
  113        0.777568   0.000000
  114        0.846152   0.000000
  115        0.951627   0.000000
  116        1.016862   0.000000
  117        1.087332   0.000000
  118        1.706852   0.000000
  119        1.873080   0.000000
  120        2.205022   0.000000
 
  0.1250000E+00  0.1250000E+00  0.0000000E+00  0.3125000E-01
    1      -17.731339   1.000000
    2      -16.901138   1.000000
    3      -16.732021   1.000000
    4      -16.571222   1.000000
    5      -16.467141   1.000000
    6      -16.359189   1.000000
    7      -16.260066   1.000000
    8      -16.238127   1.000000
    9      -16.193318   1.000000
   10      -16.075348   1.000000
   11      -15.962559   1.000000
   12      -15.928747   1.000000
   13      -15.788825   1.000000
   14      -15.739847   1.000000
   15      -15.673434   1.000000
   16      -15.588166   1.000000
   17      -15.455360   1.000000
   18      -15.356861   1.000000
   19       -9.393555   1.000000
   20       -9.252631   1.000000
   21       -9.114631   1.000000
   22       -8.973815   1.000000
   23       -8.746616   1.000000
   24       -8.712582   1.000000
   25       -8.616768   1.000000
   26       -8.509746   1.000000
   27       -8.392278   1.000000
   28       -8.337791   1.000000
   29       -8.327247   1.000000
   30       -8.258093   1.000000
   31       -8.153186   1.000000
   32       -8.109621   1.000000
   33       -7.993699   1.000000
   34       -7.870377   1.000000
   35       -7.737580   1.000000
   36       -7.719163   1.000000
   37       -7.683650   1.000000
   38       -7.476814   1.000000
   39       -7.408292   1.000000
   40       -7.311611   1.000000
   41       -7.274001   1.000000
   42       -7.201475   1.000000
   43       -7.155404   1.000000
   44       -7.037450   1.000000
   45       -6.969808   1.000000
   46       -6.813241   1.000000
   47       -6.720079   1.000000
   48       -6.639681   1.000000
   49       -6.594001   1.000000
   50       -6.448695   1.000000
   51       -6.424755   1.000000
   52       -6.362126   1.000000
   53       -6.294011   1.000000
   54       -6.273930   1.000000
   55       -6.181022   1.000000
   56       -6.141768   1.000000
   57       -6.070718   1.000000
   58       -5.864270   1.000000
   59       -5.704804   1.000000
   60       -5.579814   1.000000
   61       -5.512755   1.000000
   62       -5.414201   1.000000
   63       -5.368233   1.000000
   64       -5.251572   1.000000
   65       -5.141634   1.000000
   66       -5.085296   1.000000
   67       -5.007019   1.000000
   68       -4.983211   1.000000
   69       -4.814310   1.000000
   70       -4.745148   1.000000
   71       -4.445342   1.000000
   72       -4.402614   1.000000
   73       -4.293623   1.000000
   74       -4.114207   1.000000
   75       -4.000124   1.000000
   76       -3.898664   1.000000
   77       -3.837825   1.000000
   78       -3.722595   0.999990
   79       -3.532309   0.998267
   80       -3.175784   0.656159
   81       -2.867927   0.037959
   82       -2.803746   0.012917
   83       -2.702716   0.001625
   84       -2.682370   0.001011
   85       -2.503867   0.000007
   86       -2.434881   0.000001
   87       -2.360934   0.000000
   88       -2.248652   0.000000
   89       -2.168924   0.000000
   90       -2.075941   0.000000
   91       -1.896197   0.000000
   92       -1.613327   0.000000
   93       -1.471285   0.000000
   94       -1.405621   0.000000
   95       -1.297991   0.000000
   96       -1.156339   0.000000
   97       -1.064065   0.000000
   98       -0.900737   0.000000
   99       -0.752591   0.000000
  100       -0.713546   0.000000
  101       -0.603064   0.000000
  102       -0.559425   0.000000
  103       -0.478399   0.000000
  104       -0.415219   0.000000
  105       -0.315418   0.000000
  106       -0.172281   0.000000
  107       -0.061427   0.000000
  108        0.067812   0.000000
  109        0.229483   0.000000
  110        0.351458   0.000000
  111        0.458807   0.000000
  112        0.580854   0.000000
  113        0.831489   0.000000
  114        0.935181   0.000000
  115        1.022831   0.000000
  116        1.094550   0.000000
  117        1.190053   0.000000
  118        1.787128   0.000000
  119        1.949156   0.000000
  120        2.274157   0.000000
 
  0.2500000E+00  0.1250000E+00  0.0000000E+00  0.3125000E-01
    1      -17.631341   1.000000
    2      -17.102546   1.000000
    3      -16.828108   1.000000
    4      -16.555339   1.000000
    5      -16.449383   1.000000
    6      -16.332420   1.000000
    7      -16.238474   1.000000
    8      -16.218095   1.000000
    9      -16.167316   1.000000
   10      -16.044077   1.000000
   11      -15.932295   1.000000
   12      -15.895596   1.000000
   13      -15.801561   1.000000
   14      -15.699892   1.000000
   15      -15.654804   1.000000
   16      -15.594752   1.000000
   17      -15.472160   1.000000
   18      -15.373825   1.000000
   19       -9.623163   1.000000
   20       -9.359884   1.000000
   21       -9.177506   1.000000
   22       -9.028000   1.000000
   23       -8.801172   1.000000
   24       -8.693678   1.000000
   25       -8.546187   1.000000
   26       -8.483685   1.000000
   27       -8.381356   1.000000
   28       -8.359161   1.000000
   29       -8.301951   1.000000
   30       -8.205063   1.000000
   31       -8.145359   1.000000
   32       -8.103120   1.000000
   33       -7.987872   1.000000
   34       -7.856640   1.000000
   35       -7.802244   1.000000
   36       -7.575974   1.000000
   37       -7.482566   1.000000
   38       -7.406387   1.000000
   39       -7.367342   1.000000
   40       -7.261233   1.000000
   41       -7.188621   1.000000
   42       -7.152181   1.000000
   43       -7.060031   1.000000
   44       -6.998562   1.000000
   45       -6.915578   1.000000
   46       -6.803964   1.000000
   47       -6.743502   1.000000