       N       E                     dE             d eps       ncg     rms          rms(c)
DAV:   1     0.112621308364E+04    0.11262E+04   -0.35978E+04  8160   0.577E+02
DAV:   2    -0.212408728829E+01   -0.11283E+04   -0.10868E+04 11200   0.173E+02
DAV:   3    -0.199759881927E+03   -0.19764E+03   -0.18969E+03 10920   0.821E+01
DAV:   4    -0.208943774998E+03   -0.91839E+01   -0.88997E+01 12000   0.261E+01
DAV:   5    -0.209288153049E+03   -0.34438E+00   -0.34342E+00 11480   0.377E+00    0.275E+01
DAV:   6    -0.236807472208E+03   -0.27519E+02   -0.11031E+02 12800   0.603E+01    0.594E+01
DAV:   7    -0.196664774687E+03    0.40143E+02   -0.17900E+02 13240   0.152E+02    0.203E+01
DAV:   8    -0.190030863482E+03    0.66339E+01   -0.20815E+01 11720   0.134E+01    0.136E+01
DAV:   9    -0.188239799353E+03    0.17911E+01   -0.30938E+00 11680   0.627E+00    0.918E+00
DAV:  10    -0.187056539630E+03    0.11833E+01   -0.18225E+00 13280   0.773E+00    0.297E+00
DAV:  11    -0.186999270780E+03    0.57269E-01   -0.60943E-01 12560   0.239E+00    0.250E+00
DAV:  12    -0.187084358450E+03   -0.85088E-01   -0.62745E-01 12360   0.425E+00    0.460E+00
DAV:  13    -0.186908977268E+03    0.17538E+00   -0.44078E-01 13000   0.368E+00    0.187E+00
DAV:  14    -0.186897932314E+03    0.11045E-01   -0.12198E-01 13120   0.212E+00    0.182E+00
DAV:  15    -0.186872330098E+03    0.25602E-01   -0.59613E-02 12840   0.150E+00    0.722E-01
DAV:  16    -0.186867856574E+03    0.44735E-02   -0.85028E-03 12720   0.366E-01    0.391E-01
DAV:  17    -0.186866089777E+03    0.17668E-02   -0.71576E-03 12920   0.350E-01    0.222E-01
DAV:  18    -0.186865428921E+03    0.66086E-03   -0.17527E-03 11600   0.125E-01    0.132E-01
DAV:  19    -0.186865304492E+03    0.12443E-03   -0.61079E-04 10160   0.102E-01    0.448E-02
DAV:  20    -0.186866149058E+03   -0.84457E-03   -0.76201E-04  9080   0.506E-02    0.378E-02
DAV:  21    -0.186866836240E+03   -0.68718E-03   -0.19312E-04  8320   0.395E-02    0.340E-02
DAV:  22    -0.186867855203E+03   -0.10190E-02   -0.15906E-04  7560   0.448E-02    0.391E-02
DAV:  23    -0.186869015244E+03   -0.11600E-02   -0.13541E-04  7440   0.475E-02    0.162E-02
DAV:  24    -0.186869589531E+03   -0.57429E-03   -0.28618E-05  6800   0.171E-02    0.444E-03
DAV:  25    -0.186869953179E+03   -0.36365E-03   -0.16811E-05  5480   0.959E-03    0.429E-03
DAV:  26    -0.186870197125E+03   -0.24395E-03   -0.93694E-06  6800   0.717E-03    0.159E-03
DAV:  27    -0.186870286753E+03   -0.89629E-04   -0.32566E-06  7280   0.415E-03
   1 F= -.18687029E+03 E0= -.18669809E+03  d E =-.186870E+03
       N       E                     dE             d eps       ncg     rms          rms(c)
DAV:   1    -0.187505751037E+03   -0.63555E+00   -0.27129E+02  8160   0.350E+01    0.465E+00
DAV:   2    -0.189497766127E+03   -0.19920E+01   -0.20355E+01 12240   0.156E+01    0.968E+00
DAV:   3    -0.189355605903E+03    0.14216E+00   -0.46643E+00 12360   0.124E+01    0.655E+00
DAV:   4    -0.188794753796E+03    0.56085E+00   -0.63702E-01 12480   0.461E+00    0.236E+00
DAV:   5    -0.188868058614E+03   -0.73305E-01   -0.43526E-01 11440   0.356E+00    0.490E+00
DAV:   6    -0.188782949136E+03    0.85109E-01   -0.71981E-01 12520   0.414E+00    0.267E+00
DAV:   7    -0.188700007394E+03    0.82942E-01   -0.24056E-01 11600   0.154E+00    0.116E+00
DAV:   8    -0.188683370517E+03    0.16637E-01   -0.63601E-02 11560   0.896E-01    0.851E-01
DAV:   9    -0.188680438507E+03    0.29320E-02   -0.22987E-02 11600   0.833E-01    0.823E-01
DAV:  10    -0.188675962199E+03    0.44763E-02   -0.88036E-03 11720   0.526E-01    0.312E-01
DAV:  11    -0.188675347455E+03    0.61474E-03   -0.29926E-03 13080   0.240E-01    0.138E-01
DAV:  12    -0.188675185374E+03    0.16208E-03   -0.12195E-03 12040   0.112E-01    0.989E-02
DAV:  13    -0.188675218170E+03   -0.32796E-04   -0.28767E-04  7680   0.668E-02
   2 F= -.18867522E+03 E0= -.18853382E+03  d E =-.180493E+01
       N       E                     dE             d eps       ncg     rms          rms(c)
DAV:   1    -0.190594598046E+03   -0.19194E+01   -0.31162E+01  9120   0.142E+01    0.444E+00
DAV:   2    -0.190559570710E+03    0.35027E-01   -0.28011E+00 11160   0.952E+00    0.733E+00
DAV:   3    -0.190079105876E+03    0.48046E+00   -0.13975E+00 12320   0.859E+00    0.422E+00
DAV:   4    -0.189875019473E+03    0.20409E+00   -0.75861E-01 12680   0.419E+00    0.264E+00
DAV:   5    -0.189913659833E+03   -0.38640E-01   -0.47194E-01 12240   0.401E+00    0.372E+00
DAV:   6    -0.189770979386E+03    0.14268E+00   -0.21282E-01 12280   0.314E+00    0.670E-01
DAV:   7    -0.189764436004E+03    0.65434E-02   -0.16451E-02 12240   0.502E-01    0.234E-01
DAV:   8    -0.189765231160E+03   -0.79516E-03   -0.42560E-03 11720   0.335E-01    0.348E-01
DAV:   9    -0.189764472918E+03    0.75824E-03   -0.23387E-03 10240   0.317E-01    0.161E-01
DAV:  10    -0.189764638792E+03   -0.16587E-03   -0.96227E-04 10000   0.143E-01    0.127E-01
DAV:  11    -0.189764460223E+03    0.17857E-03   -0.44737E-04  8800   0.784E-02    0.175E-02
DAV:  12    -0.189764480322E+03   -0.20100E-04   -0.65856E-05  7320   0.259E-02
   3 F= -.18976448E+03 E0= -.18964432E+03  d E =-.108926E+01
       N       E                     dE             d eps       ncg     rms          rms(c)
DAV:   1    -0.191333817330E+03   -0.15694E+01   -0.76223E+01  8160   0.199E+01    0.461E+00
DAV:   2    -0.191180038549E+03    0.15378E+00   -0.54197E+00 13160   0.793E+00    0.486E+00
DAV:   3    -0.191278605565E+03   -0.98567E-01   -0.16087E+00 12240   0.914E+00    0.647E+00
DAV:   4    -0.190880801785E+03    0.39780E+00   -0.12576E+00 12920   0.730E+00    0.269E+00
DAV:   5    -0.190807783083E+03    0.73019E-01   -0.34347E-01 12240   0.306E+00    0.218E+00
DAV:   6    -0.190771843238E+03    0.35940E-01   -0.17793E-01 12400   0.280E+00    0.154E+00
DAV:   7    -0.190752972401E+03    0.18871E-01   -0.59269E-02 11880   0.142E+00    0.469E-01
DAV:   8    -0.190749899283E+03    0.30731E-02   -0.81528E-03 11240   0.426E-01    0.277E-01
DAV:   9    -0.190749619778E+03    0.27950E-03   -0.24761E-03 10800   0.337E-01    0.221E-01
DAV:  10    -0.190749710414E+03   -0.90636E-04   -0.15521E-03 11320   0.219E-01    0.138E-01
DAV:  11    -0.190749479894E+03    0.23052E-03   -0.89484E-04 10040   0.114E-01    0.476E-02
DAV:  12    -0.190749474248E+03    0.56463E-05   -0.13827E-04  7360   0.440E-02
   4 F= -.19074947E+03 E0= -.19064450E+03  d E =-.984994E+00
       N       E                     dE             d eps       ncg     rms          rms(c)
DAV:   1    -0.192120642655E+03   -0.13712E+01   -0.16523E+02  8160   0.287E+01    0.570E+00
DAV:   2    -0.191853283393E+03    0.26736E+00   -0.95771E+00 11240   0.814E+00    0.380E+00
DAV:   3    -0.191984842665E+03   -0.13156E+00   -0.19959E+00 11880   0.844E+00    0.725E+00
DAV:   4    -0.191747787253E+03    0.23706E+00   -0.24284E+00 11440   0.106E+01    0.452E+00
DAV:   5    -0.191577694741E+03    0.17009E+00   -0.75551E-01 12280   0.571E+00    0.338E+00
DAV:   6    -0.191435818179E+03    0.14188E+00   -0.26994E-01 12320   0.375E+00    0.122E+00
DAV:   7    -0.191428194458E+03    0.76237E-02   -0.74420E-02 12280   0.147E+00    0.865E-01
DAV:   8    -0.191425971664E+03    0.22228E-02   -0.35630E-02 12080   0.125E+00    0.778E-01
DAV:   9    -0.191419261847E+03    0.67098E-02   -0.10639E-02 12440   0.698E-01    0.181E-01
DAV:  10    -0.191419569503E+03   -0.30766E-03   -0.23340E-03 11000   0.178E-01    0.109E-01
DAV:  11    -0.191419416897E+03    0.15261E-03   -0.64860E-04 11120   0.972E-02    0.544E-02
DAV:  12    -0.191419400989E+03    0.15909E-04   -0.10664E-04  7080   0.456E-02
   5 F= -.19141940E+03 E0= -.19131687E+03  d E =-.669927E+00
       N       E                     dE             d eps       ncg     rms          rms(c)
DAV:   1    -0.191488562675E+03   -0.69146E-01   -0.56579E+00  8160   0.501E+00    0.664E-01
DAV:   2    -0.191555990869E+03   -0.67428E-01   -0.30404E-01 13520   0.309E+00    0.232E+00
DAV:   3    -0.191501822310E+03    0.54169E-01   -0.11331E-01 12400   0.236E+00    0.478E-01
DAV:   4    -0.191503588948E+03   -0.17666E-02   -0.17314E-02 11360   0.844E-01    0.674E-01
DAV:   5    -0.191499139935E+03    0.44490E-02   -0.99639E-03 11360   0.664E-01    0.220E-01
DAV:   6    -0.191499018057E+03    0.12188E-03   -0.26461E-03 10600   0.241E-01    0.189E-01
DAV:   7    -0.191499577778E+03   -0.55972E-03   -0.35185E-03 11520   0.391E-01    0.328E-01
DAV:   8    -0.191498514615E+03    0.10632E-02   -0.19148E-03  9560   0.288E-01    0.402E-02
DAV:   9    -0.191498526557E+03   -0.11942E-04   -0.98849E-05  5720   0.408E-02
   6 F= -.19149853E+03 E0= -.19139363E+03  d E =-.791256E-01
       N       E                     dE             d eps       ncg     rms          rms(c)
DAV:   1    -0.191545327094E+03   -0.46812E-01   -0.23350E+00  8160   0.321E+00    0.369E-01
DAV:   2    -0.191561933910E+03   -0.16607E-01   -0.78302E-02 13600   0.135E+00    0.115E+00
DAV:   3    -0.191548544215E+03    0.13390E-01   -0.32211E-02 12280   0.123E+00    0.321E-01
DAV:   4    -0.191549071778E+03   -0.52756E-03   -0.63493E-03 11080   0.497E-01    0.401E-01
DAV:   5    -0.191547516867E+03    0.15549E-02   -0.36556E-03 11040   0.403E-01    0.126E-01
DAV:   6    -0.191547461127E+03    0.55739E-04   -0.80648E-04 10120   0.123E-01
   7 F= -.19154746E+03 E0= -.19144169E+03  d E =-.489346E-01
       N       E                     dE             d eps       ncg     rms          rms(c)
DAV:   1    -0.191507036612E+03    0.40480E-01   -0.14568E+00  8160   0.255E+00    0.325E-01
DAV:   2    -0.191522773706E+03   -0.15737E-01   -0.62071E-02 13560   0.141E+00    0.113E+00
DAV:   3    -0.191508854957E+03    0.13919E-01   -0.23043E-02 11440   0.112E+00    0.229E-01
DAV:   4    -0.191509342547E+03   -0.48759E-03   -0.35915E-03 10040   0.397E-01    0.315E-01
DAV:   5    -0.191508340099E+03    0.10024E-02   -0.21610E-03 10160   0.314E-01    0.989E-02
DAV:   6    -0.191508315495E+03    0.24605E-04   -0.54637E-04 10280   0.107E-01
   8 F= -.19150832E+03 E0= -.19140326E+03  d E =0.391456E-01
       N       E                     dE             d eps       ncg     rms          rms(c)
DAV:   1    -0.191407391058E+03    0.10095E+00   -0.11385E+01  8160   0.715E+00    0.774E-01
DAV:   2    -0.191465934997E+03   -0.58544E-01   -0.33566E-01 12840   0.251E+00    0.199E+00
DAV:   3    -0.191422126206E+03    0.43809E-01   -0.89347E-02 11960   0.219E+00    0.647E-01
DAV:   4    -0.191424426663E+03   -0.23005E-02   -0.23314E-02 11680   0.977E-01    0.835E-01
DAV:   5    -0.191417475986E+03    0.69507E-02   -0.15719E-02 11040   0.873E-01    0.253E-01
DAV:   6    -0.191417570912E+03   -0.94926E-04   -0.37037E-03 10760   0.287E-01    0.195E-01
DAV:   7    -0.191417163087E+03    0.40782E-03   -0.23414E-03 12720   0.291E-01    0.209E-01
DAV:   8    -0.191416761559E+03    0.40153E-03   -0.92118E-04  8680   0.206E-01    0.528E-02
DAV:   9    -0.191416751696E+03    0.98632E-05   -0.10752E-04  5960   0.535E-02
   9 F= -.19141675E+03 E0= -.19131442E+03  d E =0.915638E-01
       N       E                     dE             d eps       ncg     rms          rms(c)
DAV:   1    -0.191433064167E+03   -0.16303E-01   -0.15797E+00  8160   0.270E+00    0.345E-01
DAV:   2    -0.191436814491E+03   -0.37503E-02   -0.56916E-02 11120   0.731E-01    0.454E-01
DAV:   3    -0.191437183705E+03   -0.36921E-03   -0.17022E-02 12280   0.840E-01    0.547E-01
DAV:   4    -0.191434432652E+03    0.27511E-02   -0.69639E-03 11280   0.539E-01    0.228E-01
DAV:   5    -0.191434390582E+03    0.42070E-04   -0.27947E-03  9760   0.384E-01    0.243E-01
DAV:   6    -0.191433805086E+03    0.58550E-03   -0.17546E-03 10440   0.265E-01    0.874E-02
DAV:   7    -0.191433753646E+03    0.51440E-04   -0.49957E-04  9800   0.106E-01
  10 F= -.19143375E+03 E0= -.19133093E+03  d E =-.170020E-01
       N       E                     dE             d eps       ncg     rms          rms(c)
DAV:   1    -0.191485779998E+03   -0.51975E-01   -0.39593E+00  8160   0.423E+00    0.584E-01
DAV:   2    -0.191528467455E+03   -0.42687E-01   -0.17247E-01 13600   0.240E+00    0.201E+00
DAV:   3    -0.191489564545E+03    0.38903E-01   -0.80729E-02 12160   0.201E+00    0.451E-01
DAV:   4    -0.191491046657E+03   -0.14821E-02   -0.14125E-02 10280   0.786E-01    0.606E-01
DAV:   5    -0.191487240216E+03    0.38064E-02   -0.82697E-03 10440   0.618E-01    0.214E-01
DAV:   6    -0.191486806398E+03    0.43382E-03   -0.23067E-03 10960   0.210E-01    0.118E-01
DAV:   7    -0.191486932027E+03   -0.12563E-03   -0.15400E-03 10600   0.228E-01    0.194E-01
DAV:   8    -0.191486571181E+03    0.36085E-03   -0.87883E-04  8560   0.193E-01    0.520E-02
DAV:   9    -0.191486549150E+03    0.22030E-04   -0.82598E-05  5800   0.486E-02
  11 F= -.19148655E+03 E0= -.19138134E+03  d E =-.527955E-01
       N       E                     dE             d eps       ncg     rms          rms(c)
DAV:   1    -0.191526510760E+03   -0.39940E-01   -0.22400E+00  8160   0.315E+00    0.396E-01
DAV:   2    -0.191548171645E+03   -0.21661E-01   -0.91421E-02 13600   0.174E+00    0.133E+00
DAV:   3    -0.191529322818E+03    0.18849E-01   -0.36187E-02 12240   0.138E+00    0.256E-01
DAV:   4    -0.191530162589E+03   -0.83977E-03   -0.52605E-03 11320   0.457E-01    0.400E-01
DAV:   5    -0.191528700675E+03    0.14619E-02   -0.36042E-03 10200   0.401E-01    0.149E-01
DAV:   6    -0.191528529371E+03    0.17130E-03   -0.89300E-04  9840   0.137E-01    0.775E-02
DAV:   7    -0.191528481867E+03    0.47504E-04   -0.42743E-04  9560   0.953E-02
  12 F= -.19152848E+03 E0= -.19142191E+03  d E =-.419327E-01
       N       E                     dE             d eps       ncg     rms          rms(c)
DAV:   1    -0.191392557093E+03    0.13597E+00   -0.18916E+01  8160   0.919E+00    0.113E+00
DAV:   2    -0.191547042738E+03   -0.15449E+00   -0.72892E-01 13600   0.466E+00    0.324E+00
DAV:   3    -0.191415992518E+03    0.13105E+00   -0.20088E-01 12240   0.344E+00    0.605E-01
DAV:   4    -0.191416860335E+03   -0.86782E-03   -0.26687E-02 12240   0.902E-01    0.806E-01
DAV:   5    -0.191412499354E+03    0.43610E-02   -0.23736E-02 11200   0.104E+00    0.560E-01
DAV:   6    -0.191409941876E+03    0.25575E-02   -0.89770E-03 12200   0.551E-01    0.232E-01
DAV:   7    -0.191409096303E+03    0.84557E-03   -0.27949E-03 10760   0.207E-01    0.823E-02
DAV:   8    -0.191409070937E+03    0.25366E-04   -0.60128E-04 10960   0.135E-01
  13 F= -.19140907E+03 E0= -.19130676E+03  d E =0.119411E+00
       N       E                     dE             d eps       ncg     rms          rms(c)
DAV:   1    -0.191378969214E+03    0.30127E-01   -0.19731E+00  8160   0.296E+00    0.323E-01
DAV:   2    -0.191387541062E+03   -0.85718E-02   -0.54386E-02 13600   0.982E-01    0.766E-01
DAV:   3    -0.191381808077E+03    0.57330E-02   -0.17381E-02 12200   0.939E-01    0.362E-01
DAV:   4    -0.191381222695E+03    0.58538E-03   -0.42315E-03 11040   0.402E-01    0.273E-01
DAV:   5    -0.191380629039E+03    0.59366E-03   -0.22809E-03 10120   0.338E-01    0.161E-01
DAV:   6    -0.191380387864E+03    0.24117E-03   -0.85671E-04 10360   0.177E-01    0.774E-02
DAV:   7    -0.191380383618E+03    0.42461E-05   -0.38696E-04  8520   0.100E-01
  14 F= -.19138038E+03 E0= -.19127901E+03  d E =0.286873E-01
       N       E                     dE             d eps       ncg     rms          rms(c)
DAV:   1    -0.191414635771E+03   -0.34248E-01   -0.25567E+00  8160   0.337E+00    0.374E-01
DAV:   2    -0.191429644722E+03   -0.15009E-01   -0.89059E-02 13280   0.119E+00    0.990E-01
DAV:   3    -0.191419780549E+03    0.98642E-02   -0.29818E-02 12000   0.119E+00    0.394E-01
DAV:   4    -0.191419200327E+03    0.58022E-03   -0.60489E-03 10920   0.471E-01    0.342E-01
DAV:   5    -0.191418158603E+03    0.10417E-02   -0.31704E-03 11120   0.382E-01    0.160E-01
DAV:   6    -0.191417959266E+03    0.19934E-03   -0.10304E-03 10200   0.159E-01    0.937E-02
DAV:   7    -0.191417992471E+03   -0.33204E-04   -0.72563E-04 10760   0.140E-01
  15 F= -.19141799E+03 E0= -.19131434E+03  d E =-.376089E-01
       N       E                     dE             d eps       ncg     rms          rms(c)
DAV:   1    -0.191435065823E+03   -0.17107E-01   -0.52375E-01  8160   0.155E+00    0.225E-01
DAV:   2    -0.191441181875E+03   -0.61161E-02   -0.24683E-02 13560   0.901E-01    0.760E-01
DAV:   3    -0.191435494356E+03    0.56875E-02   -0.11408E-02 11720   0.765E-01    0.180E-01
DAV:   4    -0.191435646562E+03   -0.15221E-03   -0.18839E-03 10080   0.291E-01    0.214E-01
DAV:   5    -0.191435203615E+03    0.44295E-03   -0.11693E-03  9640   0.239E-01    0.949E-02
DAV:   6    -0.191435113337E+03    0.90277E-04   -0.33477E-04  6920   0.888E-02
  16 F= -.19143511E+03 E0= -.19133074E+03  d E =-.171209E-01
       N       E                     dE             d eps       ncg     rms          rms(c)
DAV:   1    -0.191484903346E+03   -0.49700E-01   -0.38108E+00  8160   0.414E+00    0.565E-01
DAV:   2    -0.191525512045E+03   -0.40609E-01   -0.17033E-01 13600   0.241E+00    0.188E+00
DAV:   3    -0.191488906360E+03    0.36606E-01   -0.72972E-02 12240   0.193E+00    0.376E-01
DAV:   4    -0.191490937112E+03   -0.20308E-02   -0.12943E-02 10480   0.716E-01    0.626E-01
DAV:   5    -0.191487305107E+03    0.36320E-02   -0.92286E-03 10880   0.626E-01    0.224E-01
DAV:   6    -0.191486888463E+03    0.41664E-03   -0.23322E-03 11120   0.224E-01    0.136E-01
DAV:   7    -0.191487258510E+03   -0.37005E-03   -0.21522E-03 10840   0.295E-01    0.260E-01
DAV:   8    -0.191486594939E+03    0.66357E-03   -0.12172E-03  8600   0.231E-01    0.390E-02
DAV:   9    -0.191486598430E+03   -0.34915E-05   -0.79990E-05  5680   0.390E-02
  17 F= -.19148660E+03 E0= -.19137965E+03  d E =-.514851E-01
       N       E                     dE             d eps       ncg     rms          rms(c)
DAV:   1    -0.191502665933E+03   -0.16071E-01   -0.35628E-01  8160   0.125E+00    0.135E-01
DAV:   2    -0.191504587644E+03   -0.19217E-02   -0.10484E-02 13400   0.454E-01    0.382E-01
DAV:   3    -0.191503160676E+03    0.14270E-02   -0.37084E-03 11440   0.421E-01    0.132E-01
DAV:   4    -0.191503224296E+03   -0.63621E-04   -0.84902E-04  8360   0.182E-01
  18 F= -.19150322E+03 E0= -.19139606E+03  d E =-.166259E-01
       N       E                     dE             d eps       ncg     rms          rms(c)
DAV:   1    -0.191308190036E+03    0.19497E+00   -0.44848E+01  8160   0.141E+01    0.149E+00
DAV:   2    -0.191536203895E+03   -0.22801E+00   -0.13025E+00 13560   0.494E+00    0.366E+00
DAV:   3    -0.191367579837E+03    0.16862E+00   -0.31381E-01 12160   0.422E+00    0.107E+00
DAV:   4    -0.191363224816E+03    0.43550E-02   -0.53097E-02 12240   0.131E+00    0.101E+00
DAV:   5    -0.191358093392E+03    0.51314E-02   -0.45146E-02 11280   0.142E+00    0.842E-01
DAV:   6    -0.191352341772E+03    0.57516E-02   -0.18532E-02 12160   0.842E-01    0.347E-01
DAV:   7    -0.191350936779E+03    0.14050E-02   -0.68516E-03 12200   0.381E-01    0.243E-01
DAV:   8    -0.191350674877E+03    0.26190E-03   -0.29654E-03 11920   0.367E-01    0.229E-01
DAV:   9    -0.191350166459E+03    0.50842E-03   -0.99222E-04  9480   0.208E-01    0.513E-02
DAV:  10    -0.191350142167E+03    0.24292E-04   -0.18669E-04  6880   0.522E-02
  19 F= -.19135014E+03 E0= -.19124791E+03  d E =0.153082E+00
       N       E                     dE             d eps       ncg     rms          rms(c)
DAV:   1    -0.191351261082E+03   -0.10946E-02   -0.15473E+00  8160   0.265E+00    0.325E-01
DAV:   2    -0.191355532776E+03   -0.42717E-02   -0.46314E-02 12640   0.883E-01    0.581E-01
DAV:   3    -0.191353303739E+03    0.22290E-02   -0.13171E-02 12320   0.803E-01    0.417E-01
DAV:   4    -0.191351945193E+03    0.13585E-02   -0.47135E-03 11200   0.456E-01    0.227E-01
DAV:   5    -0.191351932112E+03    0.13081E-04   -0.27838E-03 10120   0.372E-01    0.250E-01
DAV:   6    -0.191351319393E+03    0.61272E-03   -0.16243E-03 10800   0.280E-01    0.839E-02
DAV:   7    -0.191351272925E+03    0.46468E-04   -0.42456E-04  9000   0.107E-01
  20 F= -.19135127E+03 E0= -.19124877E+03  d E =-.113076E-02
       N       E                     dE             d eps       ncg     rms          rms(c)
DAV:   1    -0.191332146746E+03    0.19173E-01   -0.54168E+00  8160   0.490E+00    0.532E-01
DAV:   2    -0.191348779702E+03   -0.16633E-01   -0.13729E-01 13120   0.142E+00    0.108E+00
DAV:   3    -0.191340358478E+03    0.84212E-02   -0.42112E-02 12320   0.144E+00    0.687E-01
DAV:   4    -0.191336101106E+03    0.42574E-02   -0.10039E-02 11320   0.618E-01    0.267E-01
DAV:   5    -0.191335758560E+03    0.34255E-03   -0.43583E-03 12080   0.443E-01    0.291E-01
DAV:   6    -0.191335291930E+03    0.46663E-03   -0.36234E-03 11360   0.437E-01    0.203E-01
DAV:   7    -0.191334888958E+03    0.40297E-03   -0.13897E-03 10120   0.228E-01    0.107E-01
DAV:   8    -0.191334844593E+03    0.44365E-04   -0.52078E-04  9000   0.161E-01
  21 F= -.19133484E+03 E0= -.19123259E+03  d E =0.164283E-01
       N       E                     dE             d eps       ncg     rms          rms(c)
DAV:   1    -0.191358658606E+03   -0.23770E-01   -0.30692E+00  8160   0.370E+00    0.429E-01
DAV:   2    -0.191376601981E+03   -0.17943E-01   -0.10627E-01 13440   0.143E+00    0.108E+00
DAV:   3    -0.191364254003E+03    0.12348E-01   -0.34637E-02 12080   0.134E+00    0.426E-01
DAV:   4    -0.191363337283E+03    0.91672E-03   -0.67513E-03 11040   0.495E-01    0.340E-01
DAV:   5    -0.191362577429E+03    0.75985E-03   -0.40664E-03 10400   0.442E-01    0.244E-01
DAV:   6    -0.191361937502E+03    0.63993E-03   -0.15151E-03  9880   0.222E-01    0.786E-02
DAV:   7    -0.191362011654E+03   -0.74152E-04   -0.60331E-04 10600   0.125E-01
  22 F= -.19136201E+03 E0= -.19125789E+03  d E =-.271671E-01
       N       E                     dE             d eps       ncg     rms          rms(c)
DAV:   1    -0.191375505148E+03   -0.13568E-01   -0.80906E-01  8160   0.192E+00    0.272E-01
DAV:   2    -0.191382967919E+03   -0.74628E-02   -0.36463E-02 13480   0.105E+00    0.792E-01
DAV:   3    -0.191376487081E+03    0.64808E-02   -0.14117E-02 11920   0.866E-01    0.223E-01
DAV:   4    -0.191376605609E+03   -0.11853E-03   -0.30468E-03 10520   0.350E-01    0.269E-01
DAV:   5    -0.191376032049E+03    0.57356E-03   -0.21588E-03  9640   0.316E-01    0.141E-01
DAV:   6    -0.191375783180E+03    0.24887E-03   -0.59800E-04  8640   0.129E-01    0.452E-02
DAV:   7    -0.191375899370E+03   -0.11619E-03   -0.36968E-04  8240   0.129E-01    0.117E-01
DAV:   8    -0.191375757585E+03    0.14179E-03   -0.24166E-04  6600   0.117E-01    0.194E-02
DAV:   9    -0.191375764162E+03   -0.65778E-05   -0.27236E-05  5800   0.233E-02
  23 F= -.19137576E+03 E0= -.19127041E+03  d E =-.137525E-01
       N       E                     dE             d eps       ncg     rms          rms(c)
DAV:   1    -0.191407806122E+03   -0.32049E-01   -0.57958E+00  8160   0.509E+00    0.625E-01
DAV:   2    -0.191455063909E+03   -0.47258E-01   -0.22195E-01 13600   0.242E+00    0.200E+00
DAV:   3    -0.191417848323E+03    0.37216E-01   -0.94087E-02 12240   0.214E+00    0.611E-01
DAV:   4    -0.191416889292E+03    0.95903E-03   -0.17532E-02 11400   0.824E-01    0.566E-01
DAV:   5    -0.191414068321E+03    0.28210E-02   -0.94156E-03 11600   0.662E-01    0.285E-01
DAV:   6    -0.191413095416E+03    0.97290E-03   -0.29568E-03 11880   0.285E-01    0.143E-01
DAV:   7    -0.191414240996E+03   -0.11456E-02   -0.33246E-03 11880   0.402E-01    0.367E-01
DAV:   8    -0.191412885869E+03    0.13551E-02   -0.20754E-03  9760   0.314E-01    0.289E-02
DAV:   9    -0.191412920608E+03   -0.34739E-04   -0.79437E-05  5680   0.339E-02
  24 F= -.19141292E+03 E0= -.19130512E+03  d E =-.371564E-01
       N       E                     dE             d eps       ncg     rms          rms(c)
DAV:   1    -0.191401265288E+03    0.11621E-01   -0.55726E-01  8160   0.158E+00    0.187E-01
DAV:   2    -0.191405164958E+03   -0.38997E-02   -0.19836E-02 13520   0.692E-01    0.537E-01
DAV:   3    -0.191402105064E+03    0.30599E-02   -0.67905E-03 11360   0.597E-01    0.177E-01
DAV:   4    -0.191402039172E+03    0.65892E-04   -0.14502E-03  9520   0.235E-01    0.167E-01
DAV:   5    -0.191401821737E+03    0.21743E-03   -0.84156E-04  9200   0.199E-01    0.905E-02
DAV:   6    -0.191401714106E+03    0.10763E-03   -0.23044E-04  6080   0.865E-02    0.306E-02
DAV:   7    -0.191401785604E+03   -0.71498E-04   -0.21262E-04  7400   0.930E-02
  25 F= -.19140179E+03 E0= -.19129470E+03  d E =0.111350E-01
       N       E                     dE             d eps       ncg     rms          rms(c)
DAV:   1    -0.191409855656E+03   -0.81415E-02   -0.29501E-01  8160   0.116E+00    0.155E-01
DAV:   2    -0.191412799788E+03   -0.29441E-02   -0.11776E-02 13600   0.603E-01    0.535E-01
DAV:   3    -0.191410052895E+03    0.27469E-02   -0.56659E-03 11480   0.524E-01    0.122E-01
DAV:   4    -0.191410066972E+03   -0.14077E-04   -0.76060E-04  9040   0.183E-01
  26 F= -.19141007E+03 E0= -.19130265E+03  d E =-.828137E-02
       N       E                     dE             d eps       ncg     rms          rms(c)
DAV:   1    -0.191402130885E+03    0.79220E-02   -0.26932E-01  8160   0.111E+00    0.131E-01
DAV:   2    -0.191404766442E+03   -0.26356E-02   -0.98007E-03 13600   0.517E-01    0.453E-01
DAV:   3    -0.191402383749E+03    0.23827E-02   -0.38014E-03 11080   0.460E-01    0.831E-02
DAV:   4    -0.191402539806E+03   -0.15606E-03   -0.58579E-04  8200   0.155E-01    0.134E-01
DAV:   5    -0.191402358070E+03    0.18174E-03   -0.35631E-04  7800   0.131E-01    0.315E-02
DAV:   6    -0.191402363897E+03   -0.58269E-05   -0.49975E-05  5920   0.372E-02
  27 F= -.19140236E+03 E0= -.19129503E+03  d E =0.770307E-02
       N       E                     dE             d eps       ncg     rms          rms(c)
DAV:   1    -0.191402591826E+03   -0.23376E-03   -0.32443E-01  8160   0.124E+00    0.191E-01
DAV:   2    -0.191404791309E+03   -0.21995E-02   -0.16667E-02 11840   0.609E-01    0.459E-01
DAV:   3    -0.191402966782E+03    0.18245E-02   -0.63126E-03 11440   0.533E-01    0.201E-01
DAV:   4    -0.191402782467E+03    0.18432E-03   -0.15837E-03  9560   0.265E-01    0.168E-01
DAV:   5    -0.191402624635E+03    0.15783E-03   -0.10457E-03  9640   0.237E-01    0.129E-01
DAV:   6    -0.191402448709E+03    0.17593E-03   -0.47035E-04  8080   0.129E-01    0.369E-02
DAV:   7    -0.191402433767E+03    0.14942E-04   -0.12154E-04  6560   0.417E-02
  28 F= -.19140243E+03 E0= -.19129497E+03  d E =-.698703E-04
       N       E                     dE             d eps       ncg     rms          rms(c)
DAV:   1    -0.191421981986E+03   -0.19533E-01   -0.16599E+00  8160   0.275E+00    0.363E-01
DAV:   2    -0.191433209822E+03   -0.11228E-01   -0.60774E-02 13600   0.130E+00    0.991E-01
DAV:   3    -0.191423411327E+03    0.97985E-02   -0.23095E-02 12120   0.109E+00    0.305E-01
DAV:   4    -0.191423732606E+03   -0.32128E-03   -0.55442E-03 11000   0.481E-01    0.381E-01
DAV:   5    -0.191422546363E+03    0.11862E-02   -0.41102E-03 10160   0.442E-01    0.199E-01
DAV:   6    -0.191422066098E+03    0.48026E-03   -0.13205E-03  9600   0.189E-01    0.646E-02
DAV:   7    -0.191422197056E+03   -0.13096E-03   -0.61943E-04  9440   0.155E-01    0.138E-01
DAV:   8    -0.191422011166E+03    0.18589E-03   -0.40462E-04  7720   0.139E-01    0.331E-02
DAV:   9    -0.191422007125E+03    0.40414E-05   -0.41131E-05  5440   0.336E-02
  29 F= -.19142201E+03 E0= -.19131375E+03  d E =-.195734E-01
       N       E                     dE             d eps       ncg     rms          rms(c)
DAV:   1    -0.191439404314E+03   -0.17393E-01   -0.12123E+00  8160   0.234E+00    0.292E-01
DAV:   2    -0.191449451920E+03   -0.10048E-01   -0.47043E-02 13600   0.112E+00    0.940E-01
DAV:   3    -0.191441215917E+03    0.82360E-02   -0.19337E-02 11960   0.971E-01    0.270E-01
DAV:   4    -0.191441146086E+03    0.69831E-04   -0.34650E-03 11080   0.369E-01    0.260E-01
DAV:   5    -0.191440548256E+03    0.59783E-03   -0.20736E-03 10320   0.315E-01    0.137E-01
DAV:   6    -0.191440371444E+03    0.17681E-03   -0.75251E-04  9400   0.153E-01    0.843E-02
DAV:   7    -0.191440551953E+03   -0.18051E-03   -0.76888E-04  9280   0.192E-01    0.159E-01
DAV:   8    -0.191440292867E+03    0.25909E-03   -0.43887E-04  7880   0.142E-01    0.194E-02
DAV:   9    -0.191440304256E+03   -0.11390E-04   -0.37431E-05  5480   0.243E-02
  30 F= -.19144030E+03 E0= -.19133139E+03  d E =-.182971E-01
       N       E                     dE             d eps       ncg     rms          rms(c)
DAV:   1    -0.191380823554E+03    0.59469E-01   -0.10711E+01  8160   0.693E+00    0.827E-01
DAV:   2    -0.191458037837E+03   -0.77214E-01   -0.37850E-01 13320   0.301E+00    0.248E+00
DAV:   3    -0.191397438101E+03    0.60600E-01   -0.14127E-01 12280   0.262E+00    0.792E-01
DAV:   4    -0.191395614706E+03    0.18234E-02   -0.25778E-02 10400   0.104E+00    0.716E-01
DAV:   5    -0.191390977387E+03    0.46373E-02   -0.15160E-02 12160   0.878E-01    0.366E-01
DAV:   6    -0.191389260741E+03    0.17166E-02   -0.50962E-03 11920   0.382E-01    0.136E-01
DAV:   7    -0.191389127243E+03    0.13350E-03   -0.14829E-03 11480   0.133E-01    0.698E-02
DAV:   8    -0.191389024526E+03    0.10272E-03   -0.29290E-04  8840   0.684E-02    0.332E-02
DAV:   9    -0.191389042499E+03   -0.17973E-04   -0.11563E-04  6800   0.712E-02
  31 F= -.19138904E+03 E0= -.19128215E+03  d E =0.512618E-01
       N       E                     dE             d eps       ncg     rms          rms(c)
DAV:   1    -0.191348469183E+03    0.40555E-01   -0.94120E+00  8160   0.649E+00    0.775E-01
DAV:   2    -0.191419682607E+03   -0.71213E-01   -0.32255E-01 13440   0.286E+00    0.247E+00
DAV:   3    -0.191361403538E+03    0.58279E-01   -0.13510E-01 12280   0.254E+00    0.716E-01
DAV:   4    -0.191360360153E+03    0.10434E-02   -0.21798E-02 10640   0.963E-01    0.672E-01
DAV:   5    -0.191356016900E+03    0.43433E-02   -0.12873E-02 12480   0.820E-01    0.325E-01
DAV:   6    -0.191354741716E+03    0.12752E-02   -0.38930E-03 11840   0.341E-01    0.132E-01
DAV:   7    -0.191354871495E+03   -0.12978E-03   -0.16070E-03 12840   0.215E-01    0.181E-01
DAV:   8    -0.191354571360E+03    0.30013E-03   -0.86005E-04  8960   0.211E-01    0.835E-02
DAV:   9    -0.191354507009E+03    0.64352E-04   -0.16084E-04  5880   0.810E-02
  32 F= -.19135451E+03 E0= -.19124965E+03  d E =0.345355E-01
       N       E                     dE             d eps       ncg     rms          rms(c)
DAV:   1    -0.191356081633E+03   -0.15103E-02   -0.10920E-01  8160   0.701E-01    0.102E-01
DAV:   2    -0.191357338047E+03   -0.12564E-02   -0.48128E-03 13520   0.408E-01    0.351E-01
DAV:   3    -0.191356128081E+03    0.12100E-02   -0.22511E-03 10560   0.347E-01    0.774E-02
DAV:   4    -0.191356137213E+03   -0.91321E-05   -0.31437E-04  8320   0.116E-01
  33 F= -.19135614E+03 E0= -.19125110E+03  d E =-.163020E-02
       N       E                     dE             d eps       ncg     rms          rms(c)
DAV:   1    -0.191372562390E+03   -0.16434E-01   -0.18135E+00  8160   0.287E+00    0.382E-01
DAV:   2    -0.191390264375E+03   -0.17702E-01   -0.77434E-02 13360   0.144E+00    0.130E+00
DAV:   3    -0.191375433706E+03    0.14831E-01   -0.36631E-02 11840   0.131E+00    0.369E-01
DAV:   4    -0.191374748579E+03    0.68513E-03   -0.61120E-03 11240   0.476E-01    0.300E-01
DAV:   5    -0.191374055937E+03    0.69264E-03   -0.33712E-03 11440   0.406E-01    0.202E-01
DAV:   6    -0.191373516835E+03    0.53910E-03   -0.13100E-03  9720   0.200E-01    0.560E-02
DAV:   7    -0.191373569959E+03   -0.53124E-04   -0.35978E-04  8160   0.939E-02
  34 F= -.19137357E+03 E0= -.19126726E+03  d E =-.174327E-01
       N       E                     dE             d eps       ncg     rms          rms(c)
DAV:   1    -0.191383269016E+03   -0.97522E-02   -0.60263E-01  8160   0.165E+00    0.215E-01
DAV:   2    -0.191389360176E+03   -0.60912E-02   -0.25266E-02 13200   0.796E-01    0.744E-01
DAV:   3    -0.191384264336E+03    0.50958E-02   -0.11372E-02 11240   0.742E-01    0.197E-01
DAV:   4    -0.191384195303E+03    0.69034E-04   -0.18134E-03  9840   0.248E-01    0.171E-01
DAV:   5    -0.191383944457E+03    0.25085E-03   -0.94352E-04  9800   0.218E-01    0.102E-01
DAV:   6    -0.191383844490E+03    0.99967E-04   -0.37825E-04  7840   0.118E-01
  35 F= -.19138384E+03 E0= -.19127712E+03  d E =-.102745E-01
       N       E                     dE             d eps       ncg     rms          rms(c)
DAV:   1    -0.191379031204E+03    0.49133E-02   -0.15396E-01  8160   0.845E-01    0.159E-01
DAV:   2    -0.191384847370E+03   -0.58162E-02   -0.13548E-02 13080   0.768E-01    0.775E-01
DAV:   3    -0.191378972275E+03    0.58751E-02   -0.87375E-03 11280   0.681E-01    0.774E-02
DAV:   4    -0.191379007163E+03   -0.34888E-04   -0.40970E-04  8640   0.104E-01
  36 F= -.19137901E+03 E0= -.19127234E+03  d E =0.483733E-02
       N       E                     dE             d eps       ncg     rms          rms(c)
DAV:   1    -0.191355966084E+03    0.23006E-01   -0.39916E+00  8160   0.424E+00    0.506E-01
DAV:   2    -0.191381742028E+03   -0.25776E-01   -0.12369E-01 13480   0.171E+00    0.143E+00
DAV:   3    -0.191360428360E+03    0.21314E-01   -0.43751E-02 11560   0.153E+00    0.461E-01
DAV:   4    -0.191359936336E+03    0.49202E-03   -0.93437E-03 11120   0.584E-01    0.393E-01
DAV:   5    -0.191358809812E+03    0.11265E-02   -0.62327E-03 12120   0.560E-01    0.289E-01
DAV:   6    -0.191357867717E+03    0.94210E-03   -0.26366E-03 11320   0.312E-01    0.976E-02
DAV:   7    -0.191358018127E+03   -0.15041E-03   -0.89212E-04 10520   0.175E-01    0.156E-01
DAV:   8    -0.191357778762E+03    0.23936E-03   -0.50109E-04  8560   0.155E-01    0.446E-02
DAV:   9    -0.191357774378E+03    0.43845E-05   -0.63403E-05  5760   0.432E-02
  37 F= -.19135777E+03 E0= -.19125177E+03  d E =0.212328E-01
       N       E                     dE             d eps       ncg     rms          rms(c)
DAV:   1    -0.191357777769E+03    0.99314E-06   -0.32558E-05  7960   0.225E-02    0.867E-03
DAV:   2    -0.191357781034E+03   -0.32655E-05   -0.16813E-05  6080   0.242E-02
  38 F= -.19135778E+03 E0= -.19125177E+03  d E =-.665688E-05
       N       E                     dE             d eps       ncg     rms          rms(c)
DAV:   1    -0.191369605627E+03   -0.11828E-01   -0.10445E+00  8160   0.217E+00    0.298E-01
DAV:   2    -0.191381261798E+03   -0.11656E-01   -0.47854E-02 13360   0.118E+00    0.104E+00
DAV:   3    -0.191371255491E+03    0.10006E-01   -0.22078E-02 11160   0.103E+00    0.271E-01
DAV:   4    -0.191371193763E+03    0.61728E-04   -0.38551E-03 11160   0.397E-01    0.268E-01
DAV:   5    -0.191370513227E+03    0.68054E-03   -0.21276E-03 10320   0.319E-01    0.129E-01
DAV:   6    -0.191370300269E+03    0.21296E-03   -0.65396E-04  9880   0.126E-01    0.470E-02
DAV:   7    -0.191370391578E+03   -0.91309E-04   -0.34166E-04  7480   0.113E-01
  39 F= -.19137039E+03 E0= -.19126350E+03  d E =-.126105E-01
       N       E                     dE             d eps       ncg     rms          rms(c)
DAV:   1    -0.191377086629E+03   -0.67864E-02   -0.68235E-01  8160   0.174E+00    0.213E-01
DAV:   2    -0.191383546490E+03   -0.64599E-02   -0.27288E-02 13560   0.855E-01    0.767E-01
DAV:   3    -0.191378069541E+03    0.54769E-02   -0.11869E-02 11440   0.745E-01    0.174E-01
DAV:   4    -0.191377883729E+03    0.18581E-03   -0.11844E-03  9800   0.166E-01    0.112E-01
DAV:   5    -0.191377842885E+03    0.40844E-04   -0.69455E-04  9280   0.173E-01
  40 F= -.19137784E+03 E0= -.19127038E+03  d E =-.745131E-02
       N       E                     dE             d eps       ncg     rms          rms(c)
DAV:   1    -0.191380999362E+03   -0.31156E-02   -0.56453E-01  8160   0.159E+00    0.169E-01
DAV:   2    -0.191383187255E+03   -0.21879E-02   -0.14475E-02 13320   0.545E-01    0.410E-01
DAV:   3    -0.191381611803E+03    0.15755E-02   -0.45105E-03 10480   0.460E-01    0.161E-01
DAV:   4    -0.191381673125E+03   -0.61323E-04   -0.12900E-03  9560   0.235E-01    0.182E-01
DAV:   5    -0.191381399878E+03    0.27325E-03   -0.88384E-04  9080   0.214E-01    0.938E-02
DAV:   6    -0.191381316952E+03    0.82926E-04   -0.31420E-04  7400   0.101E-01
  41 F= -.19138132E+03 E0= -.19127385E+03  d E =-.347407E-02
       N       E                     dE             d eps       ncg     rms          rms(c)
DAV:   1    -0.191386635214E+03   -0.52353E-02   -0.39471E-01  8160   0.134E+00    0.146E-01
DAV:   2    -0.191388025155E+03   -0.13899E-02   -0.10622E-02 13600   0.456E-01    0.313E-01
DAV:   3    -0.191387043398E+03    0.98176E-03   -0.29243E-03 11520   0.376E-01    0.120E-01
DAV:   4    -0.191387149748E+03   -0.10635E-03   -0.87183E-04  8600   0.193E-01    0.164E-01
DAV:   5    -0.191386919510E+03    0.23024E-03   -0.62764E-04  8240   0.179E-01    0.752E-02
DAV:   6    -0.191386891136E+03    0.28375E-04   -0.22029E-04  6280   0.823E-02
  42 F= -.19138689E+03 E0= -.19127935E+03  d E =-.557418E-02
       N       E                     dE             d eps       ncg     rms          rms(c)
DAV:   1    -0.191394525631E+03   -0.76061E-02   -0.46436E-01  8160   0.145E+00    0.202E-01
DAV:   2    -0.191399910816E+03   -0.53852E-02   -0.21810E-02 13360   0.801E-01    0.717E-01
DAV:   3    -0.191395188729E+03    0.47221E-02   -0.10165E-02 11240   0.695E-01    0.183E-01
DAV:   4    -0.191395164636E+03    0.24093E-04   -0.17260E-03  9600   0.260E-01    0.178E-01
DAV:   5    -0.191394866954E+03    0.29768E-03   -0.97886E-04 10280   0.215E-01    0.896E-02
DAV:   6    -0.191394770615E+03    0.96340E-04   -0.30296E-04  7000   0.926E-02
  43 F= -.19139477E+03 E0= -.19128663E+03  d E =-.787948E-02
       N       E                     dE             d eps       ncg     rms          rms(c)
DAV:   1    -0.191398210404E+03   -0.33435E-02   -0.15504E-01  8160   0.835E-01    0.100E-01
DAV:   2    -0.191399517611E+03   -0.13072E-02   -0.56139E-03 13560   0.354E-01    0.343E-01
DAV:   3    -0.191398409404E+03    0.11082E-02   -0.24132E-03  9520   0.339E-01    0.889E-02
DAV:   4    -0.191398408541E+03    0.86316E-06   -0.32812E-04  7800   0.971E-02
  44 F= -.19139841E+03 E0= -.19129014E+03  d E =-.363793E-02
       N       E                     dE             d eps       ncg     rms          rms(c)
DAV:   1    -0.191405924530E+03   -0.75151E-02   -0.63077E-01  8160   0.168E+00    0.185E-01
DAV:   2    -0.191409136187E+03   -0.32117E-02   -0.17991E-02 13560   0.590E-01    0.534E-01
DAV:   3    -0.191406725071E+03    0.24111E-02   -0.71012E-03 11440   0.560E-01    0.187E-01
DAV:   4    -0.191406490641E+03    0.23443E-03   -0.11209E-03  9640   0.166E-01    0.906E-02
DAV:   5    -0.191406414286E+03    0.76355E-04   -0.48732E-04  9520   0.125E-01
  45 F= -.19140641E+03 E0= -.19129802E+03  d E =-.800574E-02
       N       E                     dE             d eps       ncg     rms          rms(c)
DAV:   1    -0.191412028715E+03   -0.55381E-02   -0.53888E-01  8160   0.157E+00    0.179E-01
DAV:   2    -0.191414784906E+03   -0.27562E-02   -0.16113E-02 13520   0.512E-01    0.462E-01
DAV:   3    -0.191412834633E+03    0.19503E-02   -0.57394E-03 11320   0.532E-01    0.199E-01
DAV:   4    -0.191412811311E+03    0.23323E-04   -0.15584E-03  9520   0.243E-01    0.188E-01
DAV:   5    -0.191412464417E+03    0.34689E-03   -0.88111E-04  8760   0.209E-01    0.742E-02
DAV:   6    -0.191412437151E+03    0.27266E-04   -0.22765E-04  6480   0.876E-02
  46 F= -.19141244E+03 E0= -.19130378E+03  d E =-.602286E-02
       N       E                     dE             d eps       ncg     rms          rms(c)
DAV:   1    -0.191426030373E+03   -0.13566E-01   -0.93330E-01  8160   0.207E+00    0.295E-01
DAV:   2    -0.191436674346E+03   -0.10644E-01   -0.42608E-02 13200   0.112E+00    0.105E+00
DAV:   3    -0.191427017191E+03    0.96572E-02   -0.22064E-02 11280   0.998E-01    0.259E-01
DAV:   4    -0.191427084081E+03   -0.66891E-04   -0.36913E-03 11440   0.391E-01    0.270E-01
DAV:   5    -0.191426363990E+03    0.72009E-03   -0.21444E-03 10480   0.328E-01    0.129E-01
DAV:   6    -0.191426203516E+03    0.16047E-03   -0.79432E-04  9600   0.147E-01    0.756E-02
DAV:   7    -0.191426307217E+03   -0.10370E-03   -0.57981E-04  9000   0.163E-01    0.134E-01
DAV:   8    -0.191426126073E+03    0.18114E-03   -0.30125E-04  6920   0.125E-01    0.232E-02
DAV:   9    -0.191426130170E+03   -0.40969E-05   -0.30919E-05  5520   0.265E-02
  47 F= -.19142613E+03 E0= -.19131730E+03  d E =-.136930E-01
       N       E                     dE             d eps       ncg     rms          rms(c)
DAV:   1    -0.191426366766E+03   -0.24069E-03   -0.26981E-04  9360   0.375E-02    0.851E-03
DAV:   2    -0.191426369786E+03   -0.30199E-05   -0.17856E-05  5880   0.220E-02
  48 F= -.19142637E+03 E0= -.19131754E+03  d E =-.239616E-03
       N       E                     dE             d eps       ncg     rms          rms(c)
DAV:   1    -0.191444308085E+03   -0.17941E-01   -0.14417E+00  8160   0.257E+00    0.329E-01
DAV:   2    -0.191453806847E+03   -0.94988E-02   -0.47662E-02 13560   0.110E+00    0.963E-01
DAV:   3    -0.191445725618E+03    0.80812E-02   -0.21766E-02 12280   0.101E+00    0.338E-01
DAV:   4    -0.191445385846E+03    0.33977E-03   -0.48688E-03 11080   0.430E-01    0.292E-01
DAV:   5    -0.191444778010E+03    0.60784E-03   -0.32702E-03 11080   0.397E-01    0.200E-01
DAV:   6    -0.191444357601E+03    0.42041E-03   -0.13598E-03  9520   0.220E-01    0.107E-01
DAV:   7    -0.191444495804E+03   -0.13820E-03   -0.86411E-04  8720   0.211E-01    0.158E-01
DAV:   8    -0.191444243779E+03    0.25203E-03   -0.45089E-04  8080   0.148E-01    0.259E-02
DAV:   9    -0.191444247105E+03   -0.33260E-05   -0.47475E-05  6080   0.297E-02
  49 F= -.19144425E+03 E0= -.19133552E+03  d E =-.178773E-01
       N       E                     dE             d eps       ncg     rms          rms(c)
DAV:   1    -0.191425711664E+03    0.18532E-01   -0.15726E+00  8160   0.268E+00    0.325E-01
DAV:   2    -0.191432391583E+03   -0.66799E-02   -0.44719E-02 13040   0.961E-01    0.761E-01
DAV:   3    -0.191427260160E+03    0.51314E-02   -0.16614E-02 12360   0.895E-01    0.369E-01
DAV:   4    -0.191426735542E+03    0.52462E-03   -0.49877E-03 11080   0.433E-01    0.287E-01
DAV:   5    -0.191426234393E+03    0.50115E-03   -0.34045E-03 10320   0.402E-01    0.215E-01
DAV:   6    -0.191425698105E+03    0.53629E-03   -0.14010E-03  9560   0.229E-01    0.793E-02
DAV:   7    -0.191425895577E+03   -0.19747E-03   -0.71643E-04  9320   0.184E-01    0.160E-01
DAV:   8    -0.191425646386E+03    0.24919E-03   -0.46742E-04  8080   0.154E-01    0.310E-02
DAV:   9    -0.191425650299E+03   -0.39131E-05   -0.47133E-05  5480   0.333E-02
  50 F= -.19142565E+03 E0= -.19131666E+03  d E =0.185968E-01
       N       E                     dE             d eps       ncg     rms          rms(c)
DAV:   1    -0.191423591940E+03    0.20544E-02   -0.11806E-01  8160   0.731E-01    0.727E-02
DAV:   2    -0.191423906514E+03   -0.31457E-03   -0.26809E-03 13600   0.196E-01    0.157E-01
DAV:   3    -0.191423729908E+03    0.17661E-03   -0.76027E-04  8560   0.183E-01    0.835E-02
DAV:   4    -0.191423676490E+03    0.53418E-04   -0.14104E-04  5440   0.770E-02
  51 F= -.19142368E+03 E0= -.19131426E+03  d E =0.197381E-02
       N       E                     dE             d eps       ncg     rms          rms(c)
DAV:   1    -0.191436300397E+03   -0.12570E-01   -0.10511E+00  8160   0.218E+00    0.274E-01
DAV:   2    -0.191446277202E+03   -0.99768E-02   -0.45031E-02 13080   0.993E-01    0.961E-01
DAV:   3    -0.191438128589E+03    0.81486E-02   -0.20451E-02 11440   0.940E-01    0.264E-01
DAV:   4    -0.191437630922E+03    0.49767E-03   -0.23994E-03 10600   0.262E-01    0.161E-01
DAV:   5    -0.191437647765E+03   -0.16843E-04   -0.16329E-03 10320   0.278E-01    0.201E-01
DAV:   6    -0.191437308669E+03    0.33910E-03   -0.86370E-04  8440   0.202E-01    0.823E-02
DAV:   7    -0.191437426606E+03   -0.11794E-03   -0.57600E-04  8800   0.167E-01    0.121E-01
DAV:   8    -0.191437258791E+03    0.16781E-03   -0.31006E-04  7600   0.128E-01    0.236E-02
DAV:   9    -0.191437257459E+03    0.13322E-05   -0.37895E-05  5840   0.262E-02
  52 F= -.19143726E+03 E0= -.19132743E+03  d E =-.135810E-01
       N       E                     dE             d eps       ncg     rms          rms(c)
DAV:   1    -0.191441800294E+03   -0.45415E-02   -0.21317E-01  8160   0.991E-01    0.109E-01
DAV:   2    -0.191442099151E+03   -0.29886E-03   -0.47207E-03 13600   0.258E-01    0.149E-01
DAV:   3    -0.191442000360E+03    0.98791E-04   -0.12022E-03 10600   0.237E-01    0.126E-01
DAV:   4    -0.191441888568E+03    0.11179E-03   -0.54934E-04  8520   0.155E-01    0.932E-02
DAV:   5    -0.191441870192E+03    0.18376E-04   -0.36857E-04  7760   0.138E-01
  53 F= -.19144187E+03 E0= -.19133238E+03  d E =-.461273E-02
       N       E                     dE             d eps       ncg     rms          rms(c)
DAV:   1    -0.191447443361E+03   -0.55548E-02   -0.12712E+00  8160   0.240E+00    0.305E-01
DAV:   2    -0.191462385501E+03   -0.14942E-01   -0.57397E-02 13480   0.124E+00    0.126E+00
DAV:   3    -0.191449157432E+03    0.13228E-01   -0.29431E-02 11080   0.109E+00    0.225E-01
DAV:   4    -0.191449303734E+03   -0.14630E-03   -0.28760E-03 10840   0.346E-01    0.262E-01
DAV:   5    -0.191448657586E+03    0.64615E-03   -0.20031E-03 10520   0.313E-01    0.133E-01
DAV:   6    -0.191448791238E+03   -0.13365E-03   -0.11144E-03  9600   0.217E-01    0.175E-01
DAV:   7    -0.191448542628E+03    0.24861E-03   -0.85452E-04  8840   0.206E-01    0.763E-02
DAV:   8    -0.191448462780E+03    0.79848E-04   -0.13396E-04  5640   0.634E-02
  54 F= -.19144846E+03 E0= -.19133745E+03  d E =-.659259E-02
       N       E                     dE             d eps       ncg     rms          rms(c)
DAV:   1    -0.191454788998E+03   -0.62464E-02   -0.47508E-01  8160   0.147E+00    0.186E-01
DAV:   2    -0.191458217937E+03   -0.34289E-02   -0.18307E-02 13000   0.635E-01    0.574E-01
DAV:   3    -0.191455342629E+03    0.28753E-02   -0.76940E-03 11280   0.570E-01    0.175E-01
DAV:   4    -0.191455281905E+03    0.60724E-04   -0.11541E-03  9520   0.216E-01    0.154E-01
DAV:   5    -0.191455147156E+03    0.13475E-03   -0.99326E-04  9360   0.224E-01    0.124E-01
DAV:   6    -0.191455097729E+03    0.49427E-04   -0.55891E-04  8120   0.155E-01
  55 F= -.19145510E+03 E0= -.19134339E+03  d E =-.663495E-02
       N       E                     dE             d eps       ncg     rms          rms(c)
DAV:   1    -0.191469257101E+03   -0.14110E-01   -0.10084E+00  8160   0.214E+00    0.240E-01
DAV:   2    -0.191474482503E+03   -0.52254E-02   -0.29812E-02 13520   0.776E-01    0.671E-01
DAV:   3    -0.191470496271E+03    0.39862E-02   -0.11136E-02 12160   0.713E-01    0.237E-01
DAV:   4    -0.191470252857E+03    0.24341E-03   -0.20216E-03  9880   0.248E-01    0.179E-01
DAV:   5    -0.191470166072E+03    0.86785E-04   -0.16425E-03 10680   0.276E-01    0.182E-01
DAV:   6    -0.191469916512E+03    0.24956E-03   -0.82193E-04  8160   0.187E-01    0.872E-02
DAV:   7    -0.191469961295E+03   -0.44783E-04   -0.51043E-04  8320   0.159E-01
  56 F= -.19146996E+03 E0= -.19135854E+03  d E =-.148636E-01
       N       E                     dE             d eps       ncg     rms          rms(c)
DAV:   1    -0.191470882015E+03   -0.96550E-03   -0.41699E-01  8160   0.138E+00    0.140E-01
DAV:   2    -0.191471706349E+03   -0.82433E-03   -0.90622E-03 13240   0.335E-01    0.245E-01
DAV:   3    -0.191471437365E+03    0.26898E-03   -0.25781E-03 10920   0.337E-01    0.189E-01
DAV:   4    -0.191471112275E+03    0.32509E-03   -0.69650E-04  8200   0.165E-01    0.673E-02
DAV:   5    -0.191471259778E+03   -0.14750E-03   -0.60460E-04  8400   0.159E-01    0.144E-01
DAV:   6    -0.191471077163E+03    0.18261E-03   -0.48254E-04  7880   0.143E-01    0.380E-02
DAV:   7    -0.191471071493E+03    0.56696E-05   -0.64517E-05  5440   0.387E-02
  57 F= -.19147107E+03 E0= -.19135897E+03  d E =-.111020E-02
       N       E                     dE             d eps       ncg     rms          rms(c)
DAV:   1    -0.191493592528E+03   -0.22515E-01   -0.18627E+00  8160   0.296E+00    0.423E-01
DAV:   2    -0.191506716742E+03   -0.13124E-01   -0.75840E-02 13560   0.134E+00    0.119E+00
DAV:   3    -0.191495090433E+03    0.11626E-01   -0.36771E-02 12240   0.126E+00    0.437E-01
DAV:   4    -0.191494149440E+03    0.94099E-03   -0.81272E-03 11400   0.521E-01    0.357E-01
DAV:   5    -0.191493590035E+03    0.55940E-03   -0.61965E-03 11240   0.523E-01    0.322E-01
DAV:   6    -0.191492774752E+03    0.81528E-03   -0.32291E-03 11320   0.354E-01    0.187E-01
DAV:   7    -0.191492642626E+03    0.13213E-03   -0.15975E-03  9520   0.275E-01    0.147E-01
DAV:   8    -0.191492403845E+03    0.23878E-03   -0.53019E-04  8240   0.148E-01    0.325E-02
DAV:   9    -0.191492389900E+03    0.13945E-04   -0.68295E-05  6640   0.375E-02
  58 F= -.19149239E+03 E0= -.19138046E+03  d E =-.213184E-01
       N       E                     dE             d eps       ncg     rms          rms(c)
DAV:   1    -0.191502497558E+03   -0.10094E-01   -0.82228E-01  8160   0.194E+00    0.203E-01
DAV:   2    -0.191504788378E+03   -0.22908E-02   -0.20039E-02 13480   0.526E-01    0.397E-01
DAV:   3    -0.191503732312E+03    0.10561E-02   -0.60719E-03 12320   0.522E-01    0.266E-01
DAV:   4    -0.191503239473E+03    0.49284E-03   -0.18546E-03 10080   0.254E-01    0.125E-01
DAV:   5    -0.191503228414E+03    0.11059E-04   -0.11374E-03 10000   0.198E-01    0.163E-01
DAV:   6    -0.191503056867E+03    0.17155E-03   -0.78035E-04  8200   0.189E-01    0.824E-02
DAV:   7    -0.191503036296E+03    0.20571E-04   -0.24004E-04  6360   0.101E-01
  59 F= -.19150304E+03 E0= -.19139225E+03  d E =-.106464E-01
       N       E                     dE             d eps       ncg     rms          rms(c)
DAV:   1    -0.191527326728E+03   -0.24270E-01   -0.18932E+00  8160   0.292E+00    0.359E-01
DAV:   2    -0.191543694468E+03   -0.16368E-01   -0.71669E-02 13280   0.134E+00    0.121E+00
DAV:   3    -0.191529907127E+03    0.13787E-01   -0.30577E-02 12440   0.122E+00    0.301E-01
DAV:   4    -0.191529395150E+03    0.51198E-03   -0.37702E-03 11240   0.304E-01    0.217E-01
DAV:   5    -0.191529443614E+03   -0.48464E-04   -0.32060E-03 11240   0.357E-01    0.274E-01
DAV:   6    -0.191528787848E+03    0.65577E-03   -0.16486E-03  9520   0.263E-01    0.823E-02
DAV:   7    -0.191528790590E+03   -0.27425E-05   -0.37016E-04  8240   0.906E-02
  60 F= -.19152879E+03 E0= -.19141868E+03  d E =-.257543E-01
       N       E                     dE             d eps       ncg     rms          rms(c)
DAV:   1    -0.191448212340E+03    0.80576E-01   -0.15212E+01  8160   0.829E+00    0.102E+00
DAV:   2    -0.191585199566E+03   -0.13699E+00   -0.60529E-01 13080   0.382E+00    0.359E+00
DAV:   3    -0.191474083734E+03    0.11112E+00   -0.29364E-01 12240   0.352E+00    0.922E-01
DAV:   4    -0.191469470020E+03    0.46137E-02   -0.34586E-02 11440   0.114E+00    0.787E-01
DAV:   5    -0.191465480403E+03    0.39896E-02   -0.26016E-02 12360   0.110E+00    0.594E-01
DAV:   6    -0.191463189261E+03    0.22911E-02   -0.12089E-02 11160   0.715E-01    0.446E-01
DAV:   7    -0.191462882571E+03    0.30669E-03   -0.89193E-03 11600   0.651E-01    0.383E-01
DAV:   8    -0.191461248173E+03    0.16344E-02   -0.35066E-03 11840   0.356E-01    0.760E-02
DAV:   9    -0.191461162237E+03    0.85935E-04   -0.39561E-04  8600   0.780E-02
  61 F= -.19146116E+03 E0= -.19135068E+03  d E =0.676284E-01
       N       E                     dE             d eps       ncg     rms          rms(c)
DAV:   1    -0.191439506095E+03    0.21742E-01   -0.41259E+00  8160   0.429E+00    0.495E-01
DAV:   2    -0.191471563060E+03   -0.32057E-01   -0.14090E-01 13560   0.185E+00    0.174E+00
DAV:   3    -0.191444953784E+03    0.26609E-01   -0.63222E-02 12240   0.169E+00    0.410E-01
DAV:   4    -0.191444400378E+03    0.55341E-03   -0.71573E-03 11360   0.467E-01    0.368E-01
DAV:   5    -0.191443663262E+03    0.73712E-03   -0.60285E-03 11840   0.515E-01    0.311E-01
DAV:   6    -0.191442988856E+03    0.67441E-03   -0.27714E-03 10080   0.341E-01    0.174E-01
DAV:   7    -0.191443193986E+03   -0.20513E-03   -0.17694E-03 11040   0.305E-01    0.209E-01
DAV:   8    -0.191442669808E+03    0.52418E-03   -0.84042E-04  8600   0.211E-01    0.341E-02
DAV:   9    -0.191442667859E+03    0.19489E-05   -0.79673E-05  5800   0.401E-02
  62 F= -.19144267E+03 E0= -.19133328E+03  d E =0.184944E-01
       N       E                     dE             d eps       ncg     rms          rms(c)
DAV:   1    -0.191441280759E+03    0.13890E-02   -0.80816E-03  8160   0.193E-01    0.254E-02
DAV:   2    -0.191441344624E+03   -0.63865E-04   -0.32825E-04  9680   0.879E-02
  63 F= -.19144134E+03 E0= -.19133202E+03  d E =0.132323E-02
       N       E                     dE             d eps       ncg     rms          rms(c)
DAV:   1    -0.191466462297E+03   -0.25182E-01   -0.27750E+00  8160   0.357E+00    0.418E-01
DAV:   2    -0.191479502951E+03   -0.13041E-01   -0.87872E-02 13600   0.132E+00    0.105E+00
DAV:   3    -0.191470854769E+03    0.86482E-02   -0.31748E-02 12280   0.120E+00    0.495E-01
DAV:   4    -0.191469647851E+03    0.12069E-02   -0.81958E-03 11280   0.561E-01    0.358E-01
DAV:   5    -0.191468805306E+03    0.84254E-03   -0.51633E-03 11200   0.506E-01    0.271E-01
DAV:   6    -0.191468127649E+03    0.67766E-03   -0.23352E-03 11040   0.302E-01    0.145E-01
DAV:   7    -0.191468387671E+03   -0.26002E-03   -0.16037E-03 10040   0.288E-01    0.215E-01
DAV:   8    -0.191467903995E+03    0.48368E-03   -0.85647E-04  8200   0.205E-01    0.375E-02
DAV:   9    -0.191467899426E+03    0.45690E-05   -0.82517E-05  5880   0.408E-02
  64 F= -.19146790E+03 E0= -.19135918E+03  d E =-.265548E-01
       N       E                     dE             d eps       ncg     rms          rms(c)
DAV:   1    -0.191456328548E+03    0.11575E-01   -0.49170E-01  8160   0.149E+00    0.164E-01
DAV:   2    -0.191458378263E+03   -0.20497E-02   -0.13159E-02 13440   0.500E-01    0.418E-01
DAV:   3    -0.191456897144E+03    0.14811E-02   -0.47380E-03 11640   0.469E-01    0.184E-01
DAV:   4    -0.191456740580E+03    0.15656E-03   -0.11072E-03  9520   0.195E-01    0.123E-01
DAV:   5    -0.191456672868E+03    0.67711E-04   -0.75876E-04  9120   0.192E-01
  65 F= -.19145667E+03 E0= -.19134744E+03  d E =0.112266E-01
       N       E                     dE             d eps       ncg     rms          rms(c)
DAV:   1    -0.191464995192E+03   -0.82546E-02   -0.34639E-01  8160   0.138E+00    0.343E-01
DAV:   2    -0.191465802971E+03   -0.80778E-03   -0.24681E-02 10520   0.801E-01    0.592E-01
DAV:   3    -0.191463346537E+03    0.24564E-02   -0.13215E-02 11400   0.831E-01    0.408E-01
DAV:   4    -0.191462614522E+03    0.73201E-03   -0.68280E-03 10920   0.548E-01    0.370E-01
DAV:   5    -0.191461947787E+03    0.66674E-03   -0.48222E-03  9800   0.488E-01    0.266E-01
DAV:   6    -0.191461121407E+03    0.82638E-03   -0.18572E-03 10840   0.256E-01    0.773E-02
DAV:   7    -0.191461101793E+03    0.19614E-04   -0.38188E-04  8000   0.123E-01
  66 F= -.19146110E+03 E0= -.19135269E+03  d E =-.442892E-02
       N       E                     dE             d eps       ncg     rms          rms(c)
DAV:   1    -0.191481444994E+03   -0.20324E-01   -0.11293E+00  8160   0.231E+00    0.357E-01
DAV:   2    -0.191490324838E+03   -0.88798E-02   -0.47190E-02 12760   0.115E+00    0.102E+00
DAV:   3    -0.191481705640E+03    0.86192E-02   -0.23328E-02 11880   0.105E+00    0.356E-01
DAV:   4    -0.191481422704E+03    0.28294E-03   -0.58419E-03 11360   0.498E-01    0.339E-01
DAV:   5    -0.191480519939E+03    0.90277E-03   -0.41404E-03 10760   0.456E-01    0.219E-01
DAV:   6    -0.191480124045E+03    0.39589E-03   -0.18786E-03  9800   0.265E-01    0.150E-01
DAV:   7    -0.191480020751E+03    0.10329E-03   -0.96854E-04  9080   0.224E-01    0.120E-01
DAV:   8    -0.191479871714E+03    0.14904E-03   -0.34472E-04  8120   0.120E-01    0.262E-02
DAV:   9    -0.191479865141E+03    0.65730E-05   -0.46587E-05  6800   0.296E-02
  67 F= -.19147987E+03 E0= -.19137197E+03  d E =-.187633E-01
       N       E                     dE             d eps       ncg     rms          rms(c)
DAV:   1    -0.191504601221E+03   -0.24730E-01   -0.19479E+00  8160   0.297E+00    0.359E-01
DAV:   2    -0.191518905870E+03   -0.14305E-01   -0.64251E-02 13600   0.130E+00    0.120E+00
DAV:   3    -0.191506752914E+03    0.12153E-01   -0.28291E-02 12040   0.115E+00    0.320E-01
DAV:   4    -0.191506529943E+03    0.22297E-03   -0.46150E-03 11360   0.401E-01    0.294E-01
DAV:   5    -0.191506023751E+03    0.50619E-03   -0.35896E-03 10920   0.419E-01    0.238E-01
DAV:   6    -0.191505574206E+03    0.44954E-03   -0.15610E-03  9680   0.263E-01    0.124E-01
DAV:   7    -0.191505637555E+03   -0.63349E-04   -0.91685E-04  9560   0.224E-01
  68 F= -.19150564E+03 E0= -.19139942E+03  d E =-.257724E-01
       N       E                     dE             d eps       ncg     rms          rms(c)
DAV:   1    -0.191487467299E+03    0.18107E-01   -0.88909E-01  8160   0.200E+00    0.204E-01
DAV:   2    -0.191491525307E+03   -0.40580E-02   -0.23533E-02 13600   0.649E-01    0.579E-01
DAV:   3    -0.191488591999E+03    0.29333E-02   -0.77545E-03 11200   0.604E-01    0.204E-01
DAV:   4    -0.191488285131E+03    0.30687E-03   -0.11566E-03  9680   0.182E-01    0.101E-01
DAV:   5    -0.191488301621E+03   -0.16490E-04   -0.77970E-04 10480   0.188E-01
  69 F= -.19148830E+03 E0= -.19138071E+03  d E =0.173359E-01
       N       E                     dE             d eps       ncg     rms          rms(c)
DAV:   1    -0.191497585699E+03   -0.93006E-02   -0.41129E-01  8160   0.139E+00    0.229E-01
DAV:   2    -0.191500441469E+03   -0.28558E-02   -0.19976E-02 11360   0.747E-01    0.529E-01
DAV:   3    -0.191497638894E+03    0.28026E-02   -0.74239E-03 11920   0.639E-01    0.245E-01
DAV:   4    -0.191497360998E+03    0.27790E-03   -0.23955E-03  9880   0.325E-01    0.211E-01
DAV:   5    -0.191497203596E+03    0.15740E-03   -0.17191E-03  9600   0.290E-01    0.178E-01
DAV:   6    -0.191496879904E+03    0.32369E-03   -0.77560E-04  9520   0.178E-01    0.751E-02
DAV:   7    -0.191496913050E+03   -0.33146E-04   -0.41840E-04  8640   0.145E-01
  70 F= -.19149691E+03 E0= -.19139001E+03  d E =-.861143E-02
       N       E                     dE             d eps       ncg     rms          rms(c)
DAV:   1    -0.191517840298E+03   -0.20960E-01   -0.12297E+00  8160   0.237E+00    0.298E-01
DAV:   2    -0.191525428335E+03   -0.75880E-02   -0.41344E-02 13600   0.100E+00    0.880E-01
DAV:   3    -0.191519124103E+03    0.63042E-02   -0.16674E-02 11480   0.884E-01    0.293E-01
DAV:   4    -0.191518888578E+03    0.23553E-03   -0.34755E-03 11320   0.390E-01    0.258E-01
DAV:   5    -0.191518329265E+03    0.55931E-03   -0.22764E-03 10480   0.357E-01    0.165E-01
DAV:   6    -0.191518091862E+03    0.23740E-03   -0.10522E-03  9800   0.199E-01    0.956E-02
DAV:   7    -0.191518134154E+03   -0.42293E-04   -0.59255E-04  8760   0.181E-01
  71 F= -.19151813E+03 E0= -.19141269E+03  d E =-.212211E-01
       N       E                     dE             d eps       ncg     rms          rms(c)
DAV:   1    -0.191543704426E+03   -0.25613E-01   -0.16901E+00  8160   0.278E+00    0.337E-01
DAV:   2    -0.191554379595E+03   -0.10675E-01   -0.54809E-02 13600   0.115E+00    0.103E+00
DAV:   3    -0.191545639982E+03    0.87396E-02   -0.21597E-02 12000   0.102E+00    0.318E-01
DAV:   4    -0.191545371233E+03    0.26875E-03   -0.41045E-03 11400   0.402E-01    0.277E-01
DAV:   5    -0.191544830353E+03    0.54088E-03   -0.29992E-03 10760   0.398E-01    0.213E-01
DAV:   6    -0.191544495476E+03    0.33488E-03   -0.14397E-03 10280   0.257E-01    0.131E-01
DAV:   7    -0.191544518895E+03   -0.23419E-04   -0.90412E-04  9720   0.226E-01
  72 F= -.19154452E+03 E0= -.19144113E+03  d E =-.263847E-01
       N       E                     dE             d eps       ncg     rms          rms(c)
DAV:   1    -0.191538854390E+03    0.56411E-02   -0.66389E-02  8160   0.561E-01    0.549E-02
DAV:   2    -0.191539135416E+03   -0.28103E-03   -0.17512E-03 13000   0.174E-01    0.147E-01
DAV:   3    -0.191538945448E+03    0.18997E-03   -0.54448E-04  8320   0.166E-01    0.661E-02
DAV:   4    -0.191538908634E+03    0.36814E-04   -0.10034E-04  5480   0.655E-02
  73 F= -.19153891E+03 E0= -.19143500E+03  d E =0.561026E-02
       N       E                     dE             d eps       ncg     rms          rms(c)
DAV:   1    -0.191559316276E+03   -0.20371E-01   -0.10231E+00  8160   0.216E+00    0.280E-01
DAV:   2    -0.191569803357E+03   -0.10487E-01   -0.38249E-02 13600   0.114E+00    0.100E+00
DAV:   3    -0.191560062829E+03    0.97405E-02   -0.16178E-02 12400   0.974E-01    0.188E-01
DAV:   4    -0.191560128261E+03   -0.65432E-04   -0.20209E-03 10920   0.254E-01    0.215E-01
DAV:   5    -0.191559924897E+03    0.20336E-03   -0.19379E-03 11280   0.309E-01    0.185E-01
DAV:   6    -0.191559600048E+03    0.32485E-03   -0.73315E-04  8600   0.178E-01    0.537E-02
DAV:   7    -0.191559583521E+03    0.16526E-04   -0.22246E-04  6560   0.727E-02
  74 F= -.19155958E+03 E0= -.19145740E+03  d E =-.206749E-01
       N       E                     dE             d eps       ncg     rms          rms(c)
DAV:   1    -0.191523005126E+03    0.36595E-01   -0.33373E+00  8160   0.393E+00    0.540E-01
DAV:   2    -0.191548314970E+03   -0.25310E-01   -0.12544E-01 12920   0.182E+00    0.162E+00
DAV:   3    -0.191525121337E+03    0.23194E-01   -0.54628E-02 12360   0.167E+00    0.458E-01
DAV:   4    -0.191523578353E+03    0.15430E-02   -0.79610E-03 10840   0.493E-01    0.326E-01
DAV:   5    -0.191523838124E+03   -0.25977E-03   -0.78860E-03 10920   0.595E-01    0.433E-01
DAV:   6    -0.191522197327E+03    0.16408E-02   -0.43762E-03 11320   0.456E-01    0.158E-01
DAV:   7    -0.191522164048E+03    0.33279E-04   -0.13282E-03 10120   0.238E-01    0.151E-01
DAV:   8    -0.191521914812E+03    0.24924E-03   -0.55706E-04  9600   0.183E-01    0.518E-02
DAV:   9    -0.191521886615E+03    0.28198E-04   -0.96295E-05  5920   0.623E-02
  75 F= -.19152189E+03 E0= -.19141680E+03  d E =0.376969E-01
       N       E                     dE             d eps       ncg     rms          rms(c)
DAV:   1    -0.191499405570E+03    0.22509E-01   -0.13811E+00  8160   0.250E+00    0.302E-01
DAV:   2    -0.191509725570E+03   -0.10320E-01   -0.46786E-02 13320   0.109E+00    0.996E-01
DAV:   3    -0.191500882787E+03    0.88428E-02   -0.19553E-02 12240   0.976E-01    0.244E-01
DAV:   4    -0.191500696846E+03    0.18594E-03   -0.26006E-03 10840   0.268E-01    0.206E-01
DAV:   5    -0.191500616280E+03    0.80566E-04   -0.23717E-03 10560   0.330E-01    0.229E-01
DAV:   6    -0.191500187390E+03    0.42889E-03   -0.11986E-03  9480   0.231E-01    0.785E-02
DAV:   7    -0.191500178394E+03    0.89957E-05   -0.37843E-04  9080   0.120E-01
  76 F= -.19150018E+03 E0= -.19139324E+03  d E =0.217082E-01
       N       E                     dE             d eps       ncg     rms          rms(c)
DAV:   1    -0.191504199095E+03   -0.40117E-02   -0.31341E-01  8160   0.120E+00    0.164E-01
DAV:   2    -0.191505339692E+03   -0.11406E-02   -0.11821E-02 12400   0.504E-01    0.308E-01
DAV:   3    -0.191504479292E+03    0.86040E-03   -0.28802E-03 11120   0.403E-01    0.154E-01
DAV:   4    -0.191504408804E+03    0.70488E-04   -0.11336E-03  9720   0.226E-01    0.162E-01
DAV:   5    -0.191504294125E+03    0.11468E-03   -0.88657E-04  9080   0.213E-01    0.127E-01
DAV:   6    -0.191504158589E+03    0.13554E-03   -0.41213E-04  7240   0.128E-01    0.626E-02
DAV:   7    -0.191504175175E+03   -0.16585E-04   -0.24205E-04  6320   0.111E-01
  77 F= -.19150418E+03 E0= -.19139726E+03  d E =-.399678E-02
       N       E                     dE             d eps       ncg     rms          rms(c)
DAV:   1    -0.191528838009E+03   -0.24679E-01   -0.17335E+00  8160   0.283E+00    0.366E-01
DAV:   2    -0.191537679134E+03   -0.88411E-02   -0.55979E-02 13520   0.111E+00    0.968E-01
DAV:   3    -0.191530194337E+03    0.74848E-02   -0.21866E-02 12280   0.103E+00    0.366E-01
DAV:   4    -0.191529540754E+03    0.65358E-03   -0.51600E-03 11440   0.435E-01    0.300E-01
DAV:   5    -0.191529156327E+03    0.38443E-03   -0.43060E-03 10880   0.456E-01    0.276E-01
DAV:   6    -0.191528512663E+03    0.64366E-03   -0.20143E-03 11200   0.300E-01    0.126E-01
DAV:   7    -0.191528490810E+03    0.21852E-04   -0.85440E-04  9560   0.208E-01
  78 F= -.19152849E+03 E0= -.19142366E+03  d E =-.243156E-01
       N       E                     dE             d eps       ncg     rms          rms(c)
DAV:   1    -0.191550838332E+03   -0.22326E-01   -0.13263E+00  8160   0.247E+00    0.292E-01
DAV:   2    -0.191558996845E+03   -0.81585E-02   -0.43396E-02 13560   0.991E-01    0.874E-01
DAV:   3    -0.191552605842E+03    0.63910E-02   -0.16102E-02 11880   0.887E-01    0.283E-01
DAV:   4    -0.191552324414E+03    0.28143E-03   -0.31267E-03 11120   0.330E-01    0.230E-01
DAV:   5    -0.191552072346E+03    0.25207E-03   -0.24157E-03 10520   0.346E-01    0.210E-01
DAV:   6    -0.191551695701E+03    0.37665E-03   -0.11183E-03  9920   0.231E-01    0.947E-02
DAV:   7    -0.191551773079E+03   -0.77379E-04   -0.57853E-04  8600   0.180E-01
  79 F= -.19155177E+03 E0= -.19144858E+03  d E =-.232823E-01
       N       E                     dE             d eps       ncg     rms          rms(c)
DAV:   1    -0.191491008777E+03    0.60687E-01   -0.82076E+00  8160   0.608E+00    0.667E-01
DAV:   2    -0.191530308448E+03   -0.39300E-01   -0.23962E-01 13600   0.222E+00    0.175E+00
DAV:   3    -0.191501907399E+03    0.28401E-01   -0.70890E-02 12240   0.189E+00    0.661E-01
DAV:   4    -0.191500073508E+03    0.18339E-02   -0.15294E-02 11320   0.785E-01    0.511E-01
DAV:   5    -0.191498101812E+03    0.19717E-02   -0.99611E-03 11920   0.745E-01    0.364E-01
DAV:   6    -0.191496913608E+03    0.11882E-02   -0.48445E-03 11680   0.448E-01    0.197E-01
DAV:   7    -0.191497466952E+03   -0.55334E-03   -0.32593E-03 12160   0.402E-01    0.321E-01
DAV:   8    -0.191496420062E+03    0.10469E-02   -0.18338E-03  9600   0.302E-01    0.518E-02
DAV:   9    -0.191496406611E+03    0.13452E-04   -0.14555E-04  5640   0.533E-02
  80 F= -.19149641E+03 E0= -.19138919E+03  d E =0.553665E-01
       N       E                     dE             d eps       ncg     rms          rms(c)
DAV:   1    -0.191471833389E+03    0.24587E-01   -0.23855E+00  8160   0.326E+00    0.306E-01
DAV:   2    -0.191477469796E+03   -0.56364E-02   -0.52976E-02 13440   0.789E-01    0.571E-01
DAV:   3    -0.191475654780E+03    0.18150E-02   -0.12717E-02 11160   0.750E-01    0.426E-01
DAV:   4    -0.191474514226E+03    0.11406E-02   -0.43224E-03 10960   0.400E-01    0.217E-01
DAV:   5    -0.191474261692E+03    0.25253E-03   -0.21776E-03 10320   0.337E-01    0.186E-01
DAV:   6    -0.191474012452E+03    0.24924E-03   -0.12362E-03 10240   0.241E-01    0.918E-02
DAV:   7    -0.191473899084E+03    0.11337E-03   -0.38079E-04  8520   0.103E-01    0.436E-02
DAV:   8    -0.191473887066E+03    0.12018E-04   -0.99460E-05  7160   0.690E-02
  81 F= -.19147389E+03 E0= -.19136484E+03  d E =0.225195E-01
       N       E                     dE             d eps       ncg     rms          rms(c)
DAV:   1    -0.191490892501E+03   -0.16993E-01   -0.12135E+00  8160   0.235E+00    0.285E-01
DAV:   2    -0.191500880131E+03   -0.99876E-02   -0.48607E-02 12560   0.103E+00    0.922E-01
DAV:   3    -0.191493188150E+03    0.76920E-02   -0.18261E-02 11800   0.936E-01    0.290E-01
DAV:   4    -0.191492774804E+03    0.41335E-03   -0.30036E-03 10520   0.331E-01    0.216E-01
DAV:   5    -0.191492584210E+03    0.19059E-03   -0.21105E-03 10120   0.328E-01    0.197E-01
DAV:   6    -0.191492286210E+03    0.29800E-03   -0.97177E-04  9440   0.209E-01    0.104E-01
DAV:   7    -0.191492361567E+03   -0.75357E-04   -0.71377E-04  9760   0.195E-01
  82 F= -.19149236E+03 E0= -.19138422E+03  d E =-.184745E-01
       N       E                     dE             d eps       ncg     rms          rms(c)
DAV:   1    -0.191499127350E+03   -0.68411E-02   -0.16096E-01  8160   0.862E-01    0.126E-01
DAV:   2    -0.191500224089E+03   -0.10967E-02   -0.62403E-03 12640   0.400E-01    0.341E-01
DAV:   3    -0.191499204006E+03    0.10201E-02   -0.26807E-03 11240   0.359E-01    0.127E-01
DAV:   4    -0.191499193710E+03    0.10296E-04   -0.71420E-04  8160   0.175E-01
  83 F= -.19149919E+03 E0= -.19139148E+03  d E =-.683214E-02
       N       E                     dE             d eps       ncg     rms          rms(c)
DAV:   1    -0.191527768569E+03   -0.28565E-01   -0.24983E+00  8160   0.341E+00    0.448E-01
DAV:   2    -0.191543888629E+03   -0.16120E-01   -0.87468E-02 13560   0.142E+00    0.130E+00
DAV:   3    -0.191530502921E+03    0.13386E-01   -0.38983E-02 12160   0.134E+00    0.469E-01
DAV:   4    -0.191529069240E+03    0.14337E-02   -0.80266E-03 11360   0.504E-01    0.324E-01
DAV:   5    -0.191528994638E+03    0.74602E-04   -0.62634E-03 11000   0.543E-01    0.376E-01
DAV:   6    -0.191527674226E+03    0.13204E-02   -0.32572E-03 11520   0.390E-01    0.131E-01
DAV:   7    -0.191527778630E+03   -0.10440E-03   -0.11768E-03  9560   0.235E-01    0.161E-01
DAV:   8    -0.191527476070E+03    0.30256E-03   -0.54027E-04  8800   0.182E-01    0.417E-02
DAV:   9    -0.191527456546E+03    0.19524E-04   -0.76817E-05  6320   0.524E-02
  84 F= -.19152746E+03 E0= -.19142167E+03  d E =-.282628E-01
       N       E                     dE             d eps       ncg     rms          rms(c)
DAV:   1    -0.191534438531E+03   -0.69625E-02   -0.14208E-01  8160   0.800E-01    0.964E-02
DAV:   2    -0.191535604735E+03   -0.11662E-02   -0.50390E-03 13320   0.362E-01    0.330E-01
DAV:   3    -0.191534612127E+03    0.99261E-03   -0.20443E-03 10000   0.321E-01    0.854E-02
DAV:   4    -0.191534619493E+03   -0.73660E-05   -0.29576E-04  7720   0.112E-01
  85 F= -.19153462E+03 E0= -.19142937E+03  d E =-.716295E-02
       N       E                     dE             d eps       ncg     rms          rms(c)
DAV:   1    -0.191555951063E+03   -0.21339E-01   -0.13458E+00  8160   0.246E+00    0.277E-01
DAV:   2    -0.191562481171E+03   -0.65301E-02   -0.37336E-02 13480   0.834E-01    0.763E-01
DAV:   3    -0.191557812783E+03    0.46684E-02   -0.14139E-02 11920   0.817E-01    0.308E-01
DAV:   4    -0.191557076031E+03    0.73675E-03   -0.25548E-03 10800   0.273E-01    0.145E-01
DAV:   5    -0.191557173547E+03   -0.97516E-04   -0.18154E-03 11080   0.273E-01    0.216E-01
DAV:   6    -0.191556826147E+03    0.34740E-03   -0.12358E-03 10520   0.264E-01    0.101E-01
DAV:   7    -0.191556743454E+03    0.82693E-04   -0.28602E-04  7560   0.992E-02
  86 F= -.19155674E+03 E0= -.19145380E+03  d E =-.221240E-01
       N       E                     dE             d eps       ncg     rms          rms(c)
DAV:   1    -0.191557643673E+03   -0.81753E-03   -0.13405E-02  8160   0.268E-01    0.659E-02
DAV:   2    -0.191557711383E+03   -0.67709E-04   -0.87762E-04 10240   0.161E-01
  87 F= -.19155771E+03 E0= -.19145449E+03  d E =-.967929E-03
       N       E                     dE             d eps       ncg     rms          rms(c)
DAV:   1    -0.191588834406E+03   -0.31191E-01   -0.24858E+00  8160   0.336E+00    0.403E-01
DAV:   2    -0.191607069654E+03   -0.18235E-01   -0.81682E-02 13480   0.149E+00    0.132E+00
DAV:   3    -0.191591541824E+03    0.15528E-01   -0.30803E-02 12560   0.129E+00    0.316E-01
DAV:   4    -0.191592107081E+03   -0.56526E-03   -0.57176E-03 11480   0.502E-01    0.409E-01
DAV:   5    -0.191590668414E+03    0.14387E-02   -0.46766E-03 10560   0.502E-01    0.219E-01
DAV:   6    -0.191590386873E+03    0.28154E-03   -0.15937E-03 11560   0.263E-01    0.146E-01
DAV:   7    -0.191590374035E+03    0.12838E-04   -0.11067E-03 10440   0.256E-01    0.142E-01
DAV:   8    -0.191590100863E+03    0.27317E-03   -0.42910E-04  8960   0.151E-01    0.230E-02
DAV:   9    -0.191590101066E+03   -0.20299E-06   -0.50618E-05  6000   0.313E-02
  88 F= -.19159010E+03 E0= -.19149005E+03  d E =-.323897E-01
       N       E                     dE             d eps       ncg     rms          rms(c)
DAV:   1    -0.191605797649E+03   -0.15697E-01   -0.56274E-01  8160   0.160E+00    0.189E-01
DAV:   2    -0.191607812526E+03   -0.20149E-02   -0.16554E-02 13560   0.548E-01    0.426E-01
DAV:   3    -0.191606449324E+03    0.13632E-02   -0.50087E-03 11440   0.500E-01    0.211E-01
DAV:   4    -0.191606197987E+03    0.25134E-03   -0.13268E-03  9640   0.252E-01    0.149E-01
DAV:   5    -0.191606048535E+03    0.14945E-03   -0.83389E-04 10080   0.231E-01    0.110E-01
DAV:   6    -0.191605905568E+03    0.14297E-03   -0.37304E-04  8040   0.128E-01    0.337E-02
DAV:   7    -0.191605898364E+03    0.72047E-05   -0.93611E-05  6120   0.446E-02
  89 F= -.19160590E+03 E0= -.19150724E+03  d E =-.157973E-01
       N       E                     dE             d eps       ncg     rms          rms(c)
DAV:   1    -0.191566207402E+03    0.39698E-01   -0.34352E+00  8160   0.395E+00    0.462E-01
DAV:   2    -0.191576688748E+03   -0.10481E-01   -0.99497E-02 13560   0.127E+00    0.914E-01
DAV:   3    -0.191570466862E+03    0.62219E-02   -0.24619E-02 11840   0.114E+00    0.553E-01
DAV:   4    -0.191568692931E+03    0.17739E-02   -0.92192E-03 11360   0.632E-01    0.372E-01
DAV:   5    -0.191567722981E+03    0.96995E-03   -0.52760E-03 10640   0.559E-01    0.272E-01
DAV:   6    -0.191566989476E+03    0.73351E-03   -0.25201E-03 11760   0.327E-01    0.122E-01
DAV:   7    -0.191567073212E+03   -0.83737E-04   -0.10534E-03 10760   0.231E-01    0.166E-01
DAV:   8    -0.191566797466E+03    0.27575E-03   -0.54549E-04  8320   0.177E-01    0.419E-02
DAV:   9    -0.191566787073E+03    0.10393E-04   -0.73933E-05  6040   0.436E-02
  90 F= -.19156679E+03 E0= -.19146460E+03  d E =0.391113E-01
       N       E                     dE             d eps       ncg     rms          rms(c)
DAV:   1    -0.191544715666E+03    0.22082E-01   -0.17948E+00  8160   0.283E+00    0.302E-01
DAV:   2    -0.191549816795E+03   -0.51011E-02   -0.44527E-02 13200   0.833E-01    0.633E-01
DAV:   3    -0.191546829623E+03    0.29872E-02   -0.12304E-02 11920   0.766E-01    0.350E-01
DAV:   4    -0.191546135103E+03    0.69452E-03   -0.35729E-03 11040   0.385E-01    0.232E-01
DAV:   5    -0.191545793608E+03    0.34149E-03   -0.20993E-03  9920   0.356E-01    0.177E-01
DAV:   6    -0.191545586767E+03    0.20684E-03   -0.11582E-03 10720   0.225E-01    0.115E-01
DAV:   7    -0.191545581064E+03    0.57036E-05   -0.66597E-04  8440   0.187E-01
  91 F= -.19154558E+03 E0= -.19144064E+03  d E =0.212060E-01
       N       E                     dE             d eps       ncg     rms          rms(c)
DAV:   1    -0.191559493731E+03   -0.13907E-01   -0.17677E+00  8160   0.283E+00    0.323E-01
DAV:   2    -0.191566391666E+03   -0.68979E-02   -0.57434E-02 13160   0.954E-01    0.689E-01
DAV:   3    -0.191563008807E+03    0.33829E-02   -0.16157E-02 12240   0.899E-01    0.412E-01
DAV:   4    -0.191561677294E+03    0.13315E-02   -0.41942E-03 11320   0.399E-01    0.221E-01
DAV:   5    -0.191561727809E+03   -0.50515E-04   -0.28923E-03 10120   0.369E-01    0.263E-01
DAV:   6    -0.191561151501E+03    0.57631E-03   -0.17369E-03  9520   0.282E-01    0.109E-01
DAV:   7    -0.191561243882E+03   -0.92381E-04   -0.74257E-04  9440   0.193E-01
  92 F= -.19156124E+03 E0= -.19145640E+03  d E =-.156628E-01
       N       E                     dE             d eps       ncg     rms          rms(c)
DAV:   1    -0.191564548087E+03   -0.33966E-02   -0.30859E+00  8160   0.369E+00    0.389E-01
DAV:   2    -0.191573987181E+03   -0.94391E-02   -0.75409E-02 13160   0.113E+00    0.846E-01
DAV:   3    -0.191568234204E+03    0.57530E-02   -0.23063E-02 12360   0.106E+00    0.418E-01
DAV:   4    -0.191567258288E+03    0.97592E-03   -0.52674E-03 10880   0.472E-01    0.311E-01
DAV:   5    -0.191566998411E+03    0.25988E-03   -0.44616E-03 11520   0.482E-01    0.309E-01
DAV:   6    -0.191566502003E+03    0.49641E-03   -0.28673E-03 11040   0.339E-01    0.192E-01
DAV:   7    -0.191566355545E+03    0.14646E-03   -0.14554E-03  9840   0.274E-01    0.141E-01
DAV:   8    -0.191566107073E+03    0.24847E-03   -0.40330E-04  8640   0.138E-01    0.240E-02
DAV:   9    -0.191566107926E+03   -0.85276E-06   -0.49634E-05  6360   0.278E-02
  93 F= -.19156611E+03 E0= -.19145920E+03  d E =-.486404E-02
       N       E                     dE             d eps       ncg     rms          rms(c)
DAV:   1    -0.191583471807E+03   -0.17365E-01   -0.22356E+00  8160   0.319E+00    0.379E-01
DAV:   2    -0.191591823262E+03   -0.83515E-02   -0.66122E-02 13280   0.107E+00    0.890E-01
DAV:   3    -0.191586254686E+03    0.55686E-02   -0.22916E-02 12040   0.101E+00    0.437E-01
DAV:   4    -0.191585050493E+03    0.12042E-02   -0.63278E-03 11440   0.478E-01    0.295E-01
DAV:   5    -0.191584730224E+03    0.32027E-03   -0.44346E-03 10400   0.466E-01    0.301E-01
DAV:   6    -0.191583948178E+03    0.78205E-03   -0.23709E-03 11360   0.330E-01    0.131E-01
DAV:   7    -0.191584009975E+03   -0.61797E-04   -0.10685E-03  9560   0.236E-01    0.147E-01
DAV:   8    -0.191583744826E+03    0.26515E-03   -0.44515E-04  8800   0.159E-01    0.296E-02
DAV:   9    -0.191583738112E+03    0.67139E-05   -0.49577E-05  5920   0.363E-02
  94 F= -.19158374E+03 E0= -.19147918E+03  d E =-.176302E-01
       N       E                     dE             d eps       ncg     rms          rms(c)
DAV:   1    -0.191603935850E+03   -0.20191E-01   -0.16211E+00  8160   0.272E+00    0.326E-01
DAV:   2    -0.191612949113E+03   -0.90133E-02   -0.57150E-02 13360   0.108E+00    0.859E-01
DAV:   3    -0.191606617831E+03    0.63313E-02   -0.18596E-02 12360   0.968E-01    0.339E-01
DAV:   4    -0.191605958393E+03    0.65944E-03   -0.41262E-03 11080   0.376E-01    0.259E-01
DAV:   5    -0.191605805119E+03    0.15327E-03   -0.33211E-03 10240   0.396E-01    0.261E-01
DAV:   6    -0.191605153754E+03    0.65136E-03   -0.14874E-03  9520   0.257E-01    0.786E-02
DAV:   7    -0.191605192948E+03   -0.39194E-04   -0.51302E-04  9880   0.128E-01
  95 F= -.19160519E+03 E0= -.19150234E+03  d E =-.214548E-01
       N       E                     dE             d eps       ncg     rms          rms(c)
DAV:   1    -0.191625263989E+03   -0.20110E-01   -0.18168E+00  8160   0.288E+00    0.314E-01
DAV:   2    -0.191633660238E+03   -0.83962E-02   -0.58304E-02 13320   0.990E-01    0.751E-01
DAV:   3    -0.191628765986E+03    0.48943E-02   -0.15823E-02 12240   0.911E-01    0.354E-01
DAV:   4    -0.191627968199E+03    0.79779E-03   -0.38689E-03 11240   0.371E-01    0.227E-01
DAV:   5    -0.191627906946E+03    0.61253E-04   -0.29050E-03 10400   0.365E-01    0.254E-01
DAV:   6    -0.191627339421E+03    0.56752E-03   -0.14028E-03  9600   0.262E-01    0.892E-02
DAV:   7    -0.191627455551E+03   -0.11613E-03   -0.61429E-04 10000   0.181E-01    0.125E-01
DAV:   8    -0.191627260300E+03    0.19525E-03   -0.30591E-04  9360   0.145E-01    0.246E-02
DAV:   9    -0.191627257433E+03    0.28672E-05   -0.33348E-05  6080   0.260E-02
  96 F= -.19162726E+03 E0= -.19152649E+03  d E =-.220645E-01
       N       E                     dE             d eps       ncg     rms          rms(c)
DAV:   1    -0.191626916451E+03    0.34385E-03   -0.14640E-03  8520   0.827E-02    0.130E-02
DAV:   2    -0.191626918411E+03   -0.19604E-05   -0.43110E-05  7320   0.342E-02
  97 F= -.19162692E+03 E0= -.19152611E+03  d E =0.339022E-03
       N       E                     dE             d eps       ncg     rms          rms(c)
DAV:   1    -0.191647230603E+03   -0.20314E-01   -0.22135E+00  8160   0.317E+00    0.317E-01
DAV:   2    -0.191652654317E+03   -0.54237E-02   -0.57557E-02 13200   0.815E-01    0.504E-01
DAV:   3    -0.191651662960E+03    0.99136E-03   -0.12431E-02 12200   0.798E-01    0.464E-01
DAV:   4    -0.191649919879E+03    0.17431E-02   -0.45057E-03 11560   0.461E-01    0.201E-01
DAV:   5    -0.191649905156E+03    0.14724E-04   -0.27023E-03 10680   0.344E-01    0.244E-01
DAV:   6    -0.191649453218E+03    0.45194E-03   -0.16367E-03 10280   0.297E-01    0.121E-01
DAV:   7    -0.191649498493E+03   -0.45275E-04   -0.72719E-04  9560   0.199E-01
  98 F= -.19164950E+03 E0= -.19155129E+03  d E =-.225801E-01
       N       E                     dE             d eps       ncg     rms          rms(c)
DAV:   1    -0.191636401968E+03    0.13051E-01   -0.10344E+00  8160   0.219E+00    0.286E-01
DAV:   2    -0.191639837516E+03   -0.34355E-02   -0.35135E-02 12520   0.839E-01    0.528E-01
DAV:   3    -0.191637189119E+03    0.26484E-02   -0.92635E-03 12120   0.730E-01    0.274E-01
DAV:   4    -0.191637108212E+03    0.80908E-04   -0.37890E-03 11440   0.416E-01    0.309E-01
DAV:   5    -0.191636520300E+03    0.58791E-03   -0.32072E-03  9920   0.390E-01    0.209E-01
DAV:   6    -0.191636036297E+03    0.48400E-03   -0.11447E-03  9520   0.202E-01    0.607E-02
DAV:   7    -0.191636055400E+03   -0.19103E-04   -0.36175E-04  8160   0.113E-01
  99 F= -.19163606E+03 E0= -.19153581E+03  d E =0.134431E-01
       N       E                     dE             d eps       ncg     rms          rms(c)
DAV:   1    -0.191655339672E+03   -0.19303E-01   -0.15339E+00  8160   0.264E+00    0.258E-01
DAV:   2    -0.191660256528E+03   -0.49169E-02   -0.41282E-02 13120   0.742E-01    0.534E-01
DAV:   3    -0.191658090465E+03    0.21661E-02   -0.88929E-03 12360   0.693E-01    0.297E-01
DAV:   4    -0.191657424076E+03    0.66639E-03   -0.21976E-03 10760   0.293E-01    0.170E-01
DAV:   5    -0.191657454491E+03   -0.30416E-04   -0.18716E-03 10120   0.296E-01    0.211E-01
DAV:   6    -0.191657108118E+03    0.34637E-03   -0.10908E-03  9720   0.229E-01    0.811E-02
DAV:   7    -0.191657047736E+03    0.60382E-04   -0.29636E-04  7320   0.984E-02
 100 F= -.19165705E+03 E0= -.19155933E+03  d E =-.209923E-01
