<?xml version="1.0" encoding="ISO-8859-1"?>
<modeling>
 <generator>
  <i name="program" type="string">vasp </i>
  <i name="version" type="string">5.4.1  </i>
  <i name="subversion" type="string">05Feb16 (build Jul 05 2020 17:13:04) complex                          parallel </i>
  <i name="platform" type="string">IFC91_ompi </i>
  <i name="date" type="string">2024 04 23 </i>
  <i name="time" type="string">23:37:20 </i>
 </generator>
 <incar>
  <i type="int" name="ISTART">     0</i>
  <i type="string" name="PREC">normal</i>
  <i type="string" name="ALGO"> Normal</i>
  <i type="int" name="ISPIN">     1</i>
  <i type="int" name="ICHARG">     2</i>
  <i type="int" name="IBRION">     1</i>
  <i type="int" name="NSW">   100</i>
  <i type="int" name="ISIF">     3</i>
  <i type="int" name="ISYM">     0</i>
  <i name="SYMPREC">      0.00000001</i>
  <i name="POTIM">      0.50000000</i>
  <i type="logical" name="LREAL"> F  </i>
  <i type="logical" name="LPLANE"> F  </i>
  <i type="int" name="ISMEAR">     0</i>
  <i type="logical" name="LWAVE"> F  </i>
  <i type="logical" name="LCHARG"> F  </i>
  <v type="int" name="KPOINT_BSE">    -1     0     0     0</v>
 </incar>
 <kpoints>
  <generation param="Gamma">
   <v type="int" name="divisions">       8        8        1 </v>
   <v name="usershift">      0.00000000       0.00000000       0.00000000 </v>
   <v name="genvec1">      0.12500000       0.00000000       0.00000000 </v>
   <v name="genvec2">     -0.00000000       0.12500000       0.00000000 </v>
   <v name="genvec3">      0.00000000       0.00000000       1.00000000 </v>
   <v name="shift">      0.00000000       0.00000000       0.00000000 </v>
  </generation>
  <varray name="kpointlist" >
   <v>       0.00000000       0.00000000       0.00000000 </v>
   <v>       0.12500000       0.00000000       0.00000000 </v>
   <v>       0.25000000       0.00000000       0.00000000 </v>
   <v>       0.37500000       0.00000000       0.00000000 </v>
   <v>       0.50000000       0.00000000       0.00000000 </v>
   <v>       0.00000000       0.12500000       0.00000000 </v>
   <v>       0.12500000       0.12500000       0.00000000 </v>
   <v>       0.25000000       0.12500000       0.00000000 </v>
   <v>       0.37500000       0.12500000       0.00000000 </v>
   <v>       0.50000000       0.12500000       0.00000000 </v>
   <v>      -0.37500000       0.12500000       0.00000000 </v>
   <v>      -0.25000000       0.12500000       0.00000000 </v>
   <v>      -0.12500000       0.12500000       0.00000000 </v>
   <v>       0.00000000       0.25000000       0.00000000 </v>
   <v>       0.12500000       0.25000000       0.00000000 </v>
   <v>       0.25000000       0.25000000       0.00000000 </v>
   <v>       0.37500000       0.25000000       0.00000000 </v>
   <v>       0.50000000       0.25000000       0.00000000 </v>
   <v>      -0.37500000       0.25000000       0.00000000 </v>
   <v>      -0.25000000       0.25000000       0.00000000 </v>
   <v>      -0.12500000       0.25000000       0.00000000 </v>
   <v>      -0.00000000       0.37500000       0.00000000 </v>
   <v>       0.12500000       0.37500000       0.00000000 </v>
   <v>       0.25000000       0.37500000       0.00000000 </v>
   <v>       0.37500000       0.37500000       0.00000000 </v>
   <v>       0.50000000       0.37500000       0.00000000 </v>
   <v>      -0.37500000       0.37500000       0.00000000 </v>
   <v>      -0.25000000       0.37500000       0.00000000 </v>
   <v>      -0.12500000       0.37500000       0.00000000 </v>
   <v>       0.00000000       0.50000000       0.00000000 </v>
   <v>       0.12500000       0.50000000       0.00000000 </v>
   <v>       0.25000000       0.50000000       0.00000000 </v>
   <v>       0.37500000       0.50000000       0.00000000 </v>
   <v>       0.50000000       0.50000000       0.00000000 </v>
  </varray>
  <varray name="weights" >
   <v>       0.01562500 </v>
   <v>       0.03125000 </v>
   <v>       0.03125000 </v>
   <v>       0.03125000 </v>
   <v>       0.01562500 </v>
   <v>       0.03125000 </v>
   <v>       0.03125000 </v>
   <v>       0.03125000 </v>
   <v>       0.03125000 </v>
   <v>       0.03125000 </v>
   <v>       0.03125000 </v>
   <v>       0.03125000 </v>
   <v>       0.03125000 </v>
   <v>       0.03125000 </v>
   <v>       0.03125000 </v>
   <v>       0.03125000 </v>
   <v>       0.03125000 </v>
   <v>       0.03125000 </v>
   <v>       0.03125000 </v>
   <v>       0.03125000 </v>
   <v>       0.03125000 </v>
   <v>       0.03125000 </v>
   <v>       0.03125000 </v>
   <v>       0.03125000 </v>
   <v>       0.03125000 </v>
   <v>       0.03125000 </v>
   <v>       0.03125000 </v>
   <v>       0.03125000 </v>
   <v>       0.03125000 </v>
   <v>       0.01562500 </v>
   <v>       0.03125000 </v>
   <v>       0.03125000 </v>
   <v>       0.03125000 </v>
   <v>       0.01562500 </v>
  </varray>
 </kpoints>
 <parameters>
  <separator name="general" >
   <i type="string" name="SYSTEM">unknown system</i>
   <i type="logical" name="LCOMPAT"> F  </i>
  </separator>
  <separator name="electronic" >
   <i type="string" name="PREC">normal</i>
   <i name="ENMAX">    280.00000000</i>
   <i name="ENAUG">    373.43800000</i>
   <i name="EDIFF">      0.00010000</i>
   <i type="int" name="IALGO">    38</i>
   <i type="int" name="IWAVPR">    11</i>
   <i type="int" name="NBANDS">   120</i>
   <i name="NELECT">    159.00000000</i>
   <i type="int" name="TURBO">     0</i>
   <i type="int" name="IRESTART">     0</i>
   <i type="int" name="NREBOOT">     0</i>
   <i type="int" name="NMIN">     0</i>
   <i name="EREF">      0.00000000</i>
   <separator name="electronic smearing" >
    <i type="int" name="ISMEAR">     0</i>
    <i name="SIGMA">      0.20000000</i>
    <i name="KSPACING">      0.50000000</i>
    <i type="logical" name="KGAMMA"> T  </i>
   </separator>
   <separator name="electronic projectors" >
    <i type="logical" name="LREAL"> F  </i>
    <v name="ROPT">      0.00000000      0.00000000      0.00000000      0.00000000</v>
    <i type="int" name="LMAXPAW">  -100</i>
    <i type="int" name="LMAXMIX">     2</i>
    <i type="logical" name="NLSPLINE"> F  </i>
   </separator>
   <separator name="electronic startup" >
    <i type="int" name="ISTART">     0</i>
    <i type="int" name="ICHARG">     2</i>
    <i type="int" name="INIWAV">     1</i>
   </separator>
   <separator name="electronic spin" >
    <i type="int" name="ISPIN">     1</i>
    <i type="logical" name="LNONCOLLINEAR"> F  </i>
    <v name="MAGMOM">      1.00000000      1.00000000      1.00000000      1.00000000      1.00000000      1.00000000      1.00000000      1.00000000      1.00000000      1.00000000      1.00000000      1.00000000      1.00000000      1.00000000      1.00000000      1.00000000      1.00000000      1.00000000      1.00000000      1.00000000
      1.00000000      1.00000000      1.00000000      1.00000000      1.00000000      1.00000000      1.00000000</v>
    <i name="NUPDOWN">     -1.00000000</i>
    <i type="logical" name="LSORBIT"> F  </i>
    <v name="SAXIS">      0.00000000      0.00000000      1.00000000</v>
    <i type="logical" name="LSPIRAL"> F  </i>
    <v name="QSPIRAL">      0.00000000      0.00000000      0.00000000</v>
    <i type="logical" name="LZEROZ"> F  </i>
   </separator>
   <separator name="electronic exchange-correlation" >
    <i type="logical" name="LASPH"> F  </i>
    <i type="logical" name="LMETAGGA"> F  </i>
   </separator>
   <separator name="electronic convergence" >
    <i type="int" name="NELM">    60</i>
    <i type="int" name="NELMDL">    -5</i>
    <i type="int" name="NELMIN">     2</i>
    <i name="ENINI">    280.00000000</i>
    <separator name="electronic convergence detail" >
     <i type="logical" name="LDIAG"> T  </i>
     <i type="logical" name="LSUBROT"> F  </i>
     <i name="WEIMIN">      0.00100000</i>
     <i name="EBREAK">      0.00000021</i>
     <i name="DEPER">      0.30000000</i>
     <i type="int" name="NRMM">     4</i>
     <i name="TIME">      0.40000000</i>
    </separator>
   </separator>
   <separator name="electronic mixer" >
    <i name="AMIX">      0.40000000</i>
    <i name="BMIX">      1.00000000</i>
    <i name="AMIN">      0.10000000</i>
    <i name="AMIX_MAG">      1.60000000</i>
    <i name="BMIX_MAG">      1.00000000</i>
    <separator name="electronic mixer details" >
     <i type="int" name="IMIX">     4</i>
     <i type="logical" name="MIXFIRST"> F  </i>
     <i type="int" name="MAXMIX">   -45</i>
     <i name="WC">    100.00000000</i>
     <i type="int" name="INIMIX">     1</i>
     <i type="int" name="MIXPRE">     1</i>
     <i type="int" name="MREMOVE">     5</i>
    </separator>
   </separator>
   <separator name="electronic dipolcorrection" >
    <i type="logical" name="LDIPOL"> F  </i>
    <i type="logical" name="LMONO"> F  </i>
    <i type="int" name="IDIPOL">     0</i>
    <i name="EPSILON">      1.00000000</i>
    <v name="DIPOL">   -100.00000000   -100.00000000   -100.00000000</v>
    <i name="EFIELD">      0.00000000</i>
   </separator>
  </separator>
  <separator name="grids" >
   <i type="int" name="NGX">    42</i>
   <i type="int" name="NGY">    42</i>
   <i type="int" name="NGZ">   126</i>
   <i type="int" name="NGXF">    84</i>
   <i type="int" name="NGYF">    84</i>
   <i type="int" name="NGZF">   252</i>
   <i type="logical" name="ADDGRID"> F  </i>
  </separator>
  <separator name="ionic" >
   <i type="int" name="NSW">   100</i>
   <i type="int" name="IBRION">     1</i>
   <i type="int" name="ISIF">     3</i>
   <i name="PSTRESS">      0.00000000</i>
   <i name="EDIFFG">      0.00100000</i>
   <i type="int" name="NFREE">     0</i>
   <i name="POTIM">      0.50000000</i>
   <i name="SMASS">     -3.00000000</i>
   <i name="SCALEE">      1.00000000</i>
  </separator>
  <separator name="ionic md" >
   <i name="TEBEG">      0.00010000</i>
   <i name="TEEND">      0.00010000</i>
   <i type="int" name="NBLOCK">     1</i>
   <i type="int" name="KBLOCK">   100</i>
   <i type="int" name="NPACO">   256</i>
   <i name="APACO">     16.00000000</i>
  </separator>
  <separator name="symmetry" >
   <i type="int" name="ISYM">     0</i>
   <i name="SYMPREC">      0.00000001</i>
  </separator>
  <separator name="dos" >
   <i type="logical" name="LORBIT"> F  </i>
   <v name="RWIGS">     -1.00000000     -1.00000000     -1.00000000     -1.00000000</v>
   <i type="int" name="NEDOS">   301</i>
   <i name="EMIN">     10.00000000</i>
   <i name="EMAX">    -10.00000000</i>
   <i name="EFERMI">      0.00000000</i>
  </separator>
  <separator name="writing" >
   <i type="int" name="NWRITE">     2</i>
   <i type="logical" name="LWAVE"> F  </i>
   <i type="logical" name="LCHARG"> F  </i>
   <i type="logical" name="LPARD"> F  </i>
   <i type="logical" name="LVTOT"> F  </i>
   <i type="logical" name="LVHAR"> F  </i>
   <i type="logical" name="LELF"> F  </i>
   <i type="logical" name="LOPTICS"> F  </i>
   <v name="STM">      0.00000000      0.00000000      0.00000000      0.00000000      0.00000000      0.00000000      0.00000000</v>
  </separator>
  <separator name="performance" >
   <i type="int" name="NPAR">    40</i>
   <i type="int" name="NSIM">     4</i>
   <i type="int" name="NBLK">    -1</i>
   <i type="logical" name="LPLANE"> F  </i>
   <i type="logical" name="LSCALAPACK"> T  </i>
   <i type="logical" name="LSCAAWARE"> F  </i>
   <i type="logical" name="LSCALU"> F  </i>
   <i type="logical" name="LASYNC"> F  </i>
   <i type="logical" name="LORBITALREAL"> F  </i>
  </separator>
  <separator name="miscellaneous" >
   <i type="int" name="IDIOT">     3</i>
   <i type="logical" name="LMUSIC"> F  </i>
   <v name="POMASS">     50.94100000     95.94000000    183.85000000     32.06600000</v>
   <v name="DARWINR">      0.00000000      0.00000000      0.00000000      0.00000000</v>
   <v name="DARWINV">      1.00000000      1.00000000      1.00000000      1.00000000</v>
   <i type="logical" name="LCORR"> T  </i>
  </separator>
  <i type="logical" name="GGA_COMPAT"> T  </i>
  <i type="logical" name="LBERRY"> F  </i>
  <i type="int" name="ICORELEVEL">     0</i>
  <i type="logical" name="LDAU"> F  </i>
  <i type="int" name="I_CONSTRAINED_M">     0</i>
  <separator name="electronic exchange-correlation" >
   <i type="string" name="GGA">--</i>
   <i type="int" name="VOSKOWN">     0</i>
   <i type="logical" name="LHFCALC"> F  </i>
   <i type="string" name="PRECFOCK"></i>
   <i type="logical" name="LSYMGRAD"> F  </i>
   <i type="logical" name="LHFONE"> F  </i>
   <i type="logical" name="LRHFCALC"> F  </i>
   <i type="logical" name="LTHOMAS"> F  </i>
   <i type="logical" name="LMODELHF"> F  </i>
   <i name="ENCUT4O">     -1.00000000</i>
   <i type="int" name="EXXOEP">     0</i>
   <i type="int" name="FOURORBIT">     0</i>
   <i name="AEXX">      0.00000000</i>
   <i name="HFALPHA">      0.00000000</i>
   <i name="MCALPHA">      0.00000000</i>
   <i name="ALDAX">      1.00000000</i>
   <i name="AGGAX">      1.00000000</i>
   <i name="ALDAC">      1.00000000</i>
   <i name="AGGAC">      1.00000000</i>
   <i type="int" name="NKREDX">     1</i>
   <i type="int" name="NKREDY">     1</i>
   <i type="int" name="NKREDZ">     1</i>
   <i type="logical" name="SHIFTRED"> F  </i>
   <i type="logical" name="ODDONLY"> F  </i>
   <i type="logical" name="EVENONLY"> F  </i>
   <i type="int" name="LMAXFOCK">     0</i>
   <i type="int" name="NMAXFOCKAE">     0</i>
   <i type="logical" name="LFOCKAEDFT"> F  </i>
   <i name="HFSCREEN">      0.00000000</i>
   <i name="HFSCREENC">      0.00000000</i>
   <i type="int" name="NBANDSGWLOW">     0</i>
  </separator>
  <separator name="vdW DFT" >
   <i type="logical" name="LUSE_VDW"> F  </i>
   <i name="Zab_VDW">     -0.84910000</i>
   <i name="PARAM1">      0.12340000</i>
   <i name="PARAM2">      1.00000000</i>
   <i name="PARAM3">      0.00000000</i>
  </separator>
  <separator name="model GW" >
   <i type="int" name="MODEL_GW">     0</i>
   <i name="MODEL_EPS0">     58.26239943</i>
   <i name="MODEL_ALPHA">      1.00000000</i>
  </separator>
  <separator name="linear response parameters" >
   <i type="logical" name="LEPSILON"> F  </i>
   <i type="logical" name="LRPA"> F  </i>
   <i type="logical" name="LNABLA"> F  </i>
   <i type="logical" name="LVEL"> F  </i>
   <i type="int" name="KINTER">     0</i>
   <i name="CSHIFT">      0.10000000</i>
   <i name="OMEGAMAX">     -1.00000000</i>
   <i name="DEG_THRESHOLD">      0.00200000</i>
  </separator>
  <separator name="orbital magnetization" >
   <i type="logical" name="NUCIND"> F  </i>
   <v name="MAGPOS">      0.00000000      0.00000000      0.00000000</v>
   <i type="logical" name="LNICSALL"> T  </i>
   <i type="logical" name="ORBITALMAG"> F  </i>
   <i type="logical" name="LMAGBLOCH"> F  </i>
   <i type="logical" name="LCHIMAG"> F  </i>
   <i type="logical" name="LGAUGE"> T  </i>
   <i type="int" name="MAGATOM">     0</i>
   <v name="MAGDIPOL">      0.00000000      0.00000000      0.00000000</v>
   <v name="AVECCONST">      0.00000000      0.00000000      0.00000000</v>
  </separator>
  <separator name="response functions" >
   <i type="logical" name="LADDER"> F  </i>
   <i type="logical" name="LFXC"> F  </i>
   <i type="logical" name="LHARTREE"> T  </i>
   <i type="int" name="IBSE">     0</i>
   <v type="int" name="KPOINT">    -1     0     0     0</v>
   <i type="logical" name="LTCTE"> F  </i>
   <i type="logical" name="LTETE"> F  </i>
   <i type="logical" name="LTRIPLET"> F  </i>
   <i type="logical" name="LFXCEPS"> F  </i>
   <i type="logical" name="LFXHEG"> F  </i>
   <i type="int" name="NATURALO">     0</i>
   <i type="logical" name="L2ORDER"> F  </i>
   <i type="logical" name="LUSEW"> F  </i>
   <i name="ENCUTGW">     -2.00000000</i>
   <i name="ENCUTGWSOFT">     -2.00000000</i>
   <i name="ENCUTLF">     -1.00000000</i>
   <i type="int" name="LMAXMP2">    -1</i>
   <i name="SCISSOR">      0.00000000</i>
   <i type="int" name="NOMEGA">     0</i>
   <i type="int" name="NOMEGAR">     0</i>
   <i type="int" name="NBANDSGW">    -1</i>
   <i type="int" name="NBANDSO">    -1</i>
   <i type="int" name="NBANDSV">    -1</i>
   <i type="int" name="NELM">     1</i>
   <i type="int" name="NELMHF">     1</i>
   <i type="int" name="DIM">     3</i>
   <i type="int" name="ANTIRES">     0</i>
   <i name="OMEGAMAX">    -30.00000000</i>
   <i name="OMEGAMIN">    -30.00000000</i>
   <i name="OMEGATL">   -200.00000000</i>
   <i type="int" name="OMEGAGRID">     0</i>
   <i name="CSHIFT">     -0.10000000</i>
   <i type="logical" name="SELFENERGY"> F  </i>
   <i type="logical" name="LSPECTRAL"> F  </i>
   <i type="logical" name="LSPECTRALGW"> F  </i>
   <i type="logical" name="LSINGLES"> F  </i>
   <i type="logical" name="LFERMIGW"> F  </i>
   <i type="logical" name="ODDONLYGW"> F  </i>
   <i type="logical" name="EVENONLYGW"> F  </i>
   <i type="int" name="NKREDLFX">     1</i>
   <i type="int" name="NKREDLFY">     1</i>
   <i type="int" name="NKREDLFZ">     1</i>
   <i type="int" name="MAXMEM">  1800</i>
   <i type="int" name="TELESCOPE">     0</i>
   <i type="int" name="TAUPAR">     1</i>
   <i type="int" name="OMEGAPAR">    -1</i>
   <i name="LAMBDA">      1.00000000</i>
  </separator>
  <separator name="External order field" >
   <i name="OFIELD_KAPPA">      0.00000000</i>
   <v name="OFIELD_K">      0.00000000      0.00000000      0.00000000</v>
   <i name="OFIELD_Q6_NEAR">      0.00000000</i>
   <i name="OFIELD_Q6_FAR">      0.00000000</i>
   <i name="OFIELD_A">      0.00000000</i>
  </separator>
 </parameters>
 <atominfo>
  <atoms>      27 </atoms>
  <types>       4 </types>
  <array name="atoms" >
   <dimension dim="1">ion</dimension>
   <field type="string">element</field>
   <field type="int">atomtype</field>
   <set>
    <rc><c>V </c><c>   1</c></rc>
    <rc><c>V </c><c>   1</c></rc>
    <rc><c>V </c><c>   1</c></rc>
    <rc><c>Mo</c><c>   2</c></rc>
    <rc><c>Mo</c><c>   2</c></rc>
    <rc><c>Mo</c><c>   2</c></rc>
    <rc><c>W </c><c>   3</c></rc>
    <rc><c>W </c><c>   3</c></rc>
    <rc><c>W </c><c>   3</c></rc>
    <rc><c>S </c><c>   4</c></rc>
    <rc><c>S </c><c>   4</c></rc>
    <rc><c>S </c><c>   4</c></rc>
    <rc><c>S </c><c>   4</c></rc>
    <rc><c>S </c><c>   4</c></rc>
    <rc><c>S </c><c>   4</c></rc>
    <rc><c>S </c><c>   4</c></rc>
    <rc><c>S </c><c>   4</c></rc>
    <rc><c>S </c><c>   4</c></rc>
    <rc><c>S </c><c>   4</c></rc>
    <rc><c>S </c><c>   4</c></rc>
    <rc><c>S </c><c>   4</c></rc>
    <rc><c>S </c><c>   4</c></rc>
    <rc><c>S </c><c>   4</c></rc>
    <rc><c>S </c><c>   4</c></rc>
    <rc><c>S </c><c>   4</c></rc>
    <rc><c>S </c><c>   4</c></rc>
    <rc><c>S </c><c>   4</c></rc>
   </set>
  </array>
  <array name="atomtypes" >
   <dimension dim="1">type</dimension>
   <field type="int">atomspertype</field>
   <field type="string">element</field>
   <field>mass</field>
   <field>valence</field>
   <field type="string">pseudopotential</field>
   <set>
    <rc><c>   3</c><c>V </c><c>     50.94100000</c><c>      5.00000000</c><c> PAW_PBE V 08Apr2002                    </c></rc>
    <rc><c>   3</c><c>Mo</c><c>     95.94000000</c><c>      6.00000000</c><c> PAW_PBE Mo 08Apr2002                   </c></rc>
    <rc><c>   3</c><c>W </c><c>    183.85000000</c><c>      6.00000000</c><c> PAW_PBE W 08Apr2002                    </c></rc>
    <rc><c>  18</c><c>S </c><c>     32.06600000</c><c>      6.00000000</c><c>  PAW_PBE S 17Jan2003                   </c></rc>
   </set>
  </array>
 </atominfo>
 <structure name="initialpos" >
  <crystal>
   <varray name="basis" >
    <v>       8.66999996       5.03999989       0.00000000 </v>
    <v>      -8.66999982       5.04000013       0.00000000 </v>
    <v>       0.00000000       0.00000000      30.00000000 </v>
   </varray>
   <i name="volume">   2621.80797419 </i>
   <varray name="rec_basis" >
    <v>       0.05767013       0.09920635       0.00000000 </v>
    <v>      -0.05767013       0.09920635       0.00000000 </v>
    <v>       0.00000000       0.00000000       0.03333333 </v>
   </varray>
  </crystal>
  <varray name="positions" >
   <v>       0.33333334       0.66666669       0.00000000 </v>
   <v>       0.00000000       0.00000000       0.00000000 </v>
   <v>       1.00000000       0.33333334       0.00000000 </v>
   <v>       0.66666669       0.00000000       0.00000000 </v>
   <v>       0.66666669       0.33333334       0.00000000 </v>
   <v>       0.33333334       0.33333334       0.00000000 </v>
   <v>       0.00000000       0.66666669       0.00000000 </v>
   <v>       0.33333334       0.00000000       0.00000000 </v>
   <v>       0.66666669       0.66666669       0.00000000 </v>
   <v>       0.11068511       0.22244981       0.95539999 </v>
   <v>       0.22244981       0.11068511       0.04460000 </v>
   <v>       0.11068511       0.55578315       0.95539999 </v>
   <v>       0.22244981       0.44401845       0.04460000 </v>
   <v>       0.11068511       0.88911647       0.95539999 </v>
   <v>       0.22244981       0.77735180       0.04460000 </v>
   <v>       0.44401845       0.22244981       0.95539999 </v>
   <v>       0.55578315       0.11068511       0.04460000 </v>
   <v>       0.44401845       0.55578315       0.95539999 </v>
   <v>       0.55578315       0.44401845       0.04460000 </v>
   <v>       0.44401845       0.88911647       0.95539999 </v>
   <v>       0.55578315       0.77735180       0.04460000 </v>
   <v>       0.77735180       0.22244981       0.95539999 </v>
   <v>       0.88911647       0.11068511       0.04460000 </v>
   <v>       0.77735180       0.55578315       0.95539999 </v>
   <v>       0.88911647       0.44401845       0.04460000 </v>
   <v>       0.77735180       0.88911647       0.95539999 </v>
   <v>       0.88911647       0.77735180       0.04460000 </v>
  </varray>
 </structure>
 <calculation>
  <scstep>
   <time name="dav">   21.84   21.90</time>
   <time name="total">   21.89   21.95</time>
   <energy>
    <i name="alphaZ">     81.65567618 </i>
    <i name="ewald">  41890.23010355 </i>
    <i name="hartreedc"> -47722.86569322 </i>
    <i name="XCdc">   -242.92872168 </i>
    <i name="pawpsdc">   3467.42045192 </i>
    <i name="pawaedc">  -2871.19716117 </i>
    <i name="eentropy">     -0.53310359 </i>
    <i name="bandstr">   -237.01099263 </i>
    <i name="atom">   6761.44252427 </i>
    <i name="e_fr_energy">   1126.21308364 </i>
    <i name="e_wo_entrp">   1126.74618723 </i>
    <i name="e_0_energy">   1126.47963543 </i>
   </energy>
  </scstep>
  <scstep>
   <time name="dav">   28.31   28.37</time>
   <time name="total">   28.31   28.38</time>
   <energy>
    <i name="e_fr_energy">     -2.12408729 </i>
    <i name="e_wo_entrp">     -1.93610726 </i>
    <i name="e_0_energy">     -2.03009728 </i>
   </energy>
  </scstep>
  <scstep>
   <time name="dav">   27.71   27.78</time>
   <time name="total">   27.72   27.79</time>
   <energy>
    <i name="e_fr_energy">   -199.75988193 </i>
    <i name="e_wo_entrp">   -199.48127509 </i>
    <i name="e_0_energy">   -199.62057851 </i>
   </energy>
  </scstep>
  <scstep>
   <time name="dav">   30.00   30.07</time>
   <time name="total">   30.00   30.08</time>
   <energy>
    <i name="e_fr_energy">   -208.94377500 </i>
    <i name="e_wo_entrp">   -208.62696561 </i>
    <i name="e_0_energy">   -208.78537031 </i>
   </energy>
  </scstep>
  <scstep>
   <time name="dav">   28.79   28.86</time>
   <time name="total">   29.25   29.33</time>
   <energy>
    <i name="e_fr_energy">   -209.28815305 </i>
    <i name="e_wo_entrp">   -208.97401725 </i>
    <i name="e_0_energy">   -209.13108515 </i>
   </energy>
  </scstep>
  <scstep>
   <time name="dav">   31.59   31.67</time>
   <time name="total">   32.10   32.19</time>
   <energy>
    <i name="e_fr_energy">   -236.80747221 </i>
    <i name="e_wo_entrp">   -236.52004710 </i>
    <i name="e_0_energy">   -236.66375965 </i>
   </energy>
  </scstep>
  <scstep>
   <time name="dav">   32.43   32.50</time>
   <time name="total">   32.93   33.02</time>
   <energy>
    <i name="e_fr_energy">   -196.66477469 </i>
    <i name="e_wo_entrp">   -196.34321425 </i>
    <i name="e_0_energy">   -196.50399447 </i>
   </energy>
  </scstep>
  <scstep>
   <time name="dav">   29.35   29.42</time>
   <time name="total">   29.86   29.95</time>
   <energy>
    <i name="e_fr_energy">   -190.03086348 </i>
    <i name="e_wo_entrp">   -189.75704516 </i>
    <i name="e_0_energy">   -189.89395432 </i>
   </energy>
  </scstep>
  <scstep>
   <time name="dav">   29.16   29.23</time>
   <time name="total">   29.68   29.76</time>
   <energy>
    <i name="e_fr_energy">   -188.23979935 </i>
    <i name="e_wo_entrp">   -187.90137871 </i>
    <i name="e_0_energy">   -188.07058903 </i>
   </energy>
  </scstep>
  <scstep>
   <time name="dav">   32.56   32.63</time>
   <time name="total">   33.09   33.18</time>
   <energy>
    <i name="e_fr_energy">   -187.05653963 </i>
    <i name="e_wo_entrp">   -186.71279680 </i>
    <i name="e_0_energy">   -186.88466821 </i>
   </energy>
  </scstep>
  <scstep>
   <time name="dav">   31.11   31.19</time>
   <time name="total">   31.64   31.73</time>
   <energy>
    <i name="e_fr_energy">   -186.99927078 </i>
    <i name="e_wo_entrp">   -186.64785364 </i>
    <i name="e_0_energy">   -186.82356221 </i>
   </energy>
  </scstep>
  <scstep>
   <time name="dav">   30.67   30.75</time>
   <time name="total">   31.20   31.29</time>
   <energy>
    <i name="e_fr_energy">   -187.08435845 </i>
    <i name="e_wo_entrp">   -186.75044402 </i>
    <i name="e_0_energy">   -186.91740123 </i>
   </energy>
  </scstep>
  <scstep>
   <time name="dav">   32.03   32.11</time>
   <time name="total">   32.57   32.65</time>
   <energy>
    <i name="e_fr_energy">   -186.90897727 </i>
    <i name="e_wo_entrp">   -186.57079556 </i>
    <i name="e_0_energy">   -186.73988641 </i>
   </energy>
  </scstep>
  <scstep>
   <time name="dav">   32.29   32.36</time>
   <time name="total">   32.82   32.91</time>
   <energy>
    <i name="e_fr_energy">   -186.89793231 </i>
    <i name="e_wo_entrp">   -186.55393440 </i>
    <i name="e_0_energy">   -186.72593336 </i>
   </energy>
  </scstep>
  <scstep>
   <time name="dav">   31.65   31.73</time>
   <time name="total">   32.18   32.27</time>
   <energy>
    <i name="e_fr_energy">   -186.87233010 </i>
    <i name="e_wo_entrp">   -186.52558584 </i>
    <i name="e_0_energy">   -186.69895797 </i>
   </energy>
  </scstep>
  <scstep>
   <time name="dav">   31.40   31.48</time>
   <time name="total">   31.94   32.02</time>
   <energy>
    <i name="e_fr_energy">   -186.86785657 </i>
    <i name="e_wo_entrp">   -186.52213426 </i>
    <i name="e_0_energy">   -186.69499542 </i>
   </energy>
  </scstep>
  <scstep>
   <time name="dav">   31.79   31.87</time>
   <time name="total">   32.32   32.41</time>
   <energy>
    <i name="e_fr_energy">   -186.86608978 </i>
    <i name="e_wo_entrp">   -186.52189217 </i>
    <i name="e_0_energy">   -186.69399097 </i>
   </energy>
  </scstep>
  <scstep>
   <time name="dav">   29.05   29.12</time>
   <time name="total">   29.58   29.66</time>
   <energy>
    <i name="e_fr_energy">   -186.86542892 </i>
    <i name="e_wo_entrp">   -186.52107385 </i>
    <i name="e_0_energy">   -186.69325138 </i>
   </energy>
  </scstep>
  <scstep>
   <time name="dav">   26.02   26.09</time>
   <time name="total">   26.56   26.63</time>
   <energy>
    <i name="e_fr_energy">   -186.86530449 </i>
    <i name="e_wo_entrp">   -186.52071130 </i>
    <i name="e_0_energy">   -186.69300790 </i>
   </energy>
  </scstep>
  <scstep>
   <time name="dav">   23.73   23.78</time>
   <time name="total">   24.26   24.33</time>
   <energy>
    <i name="e_fr_energy">   -186.86614906 </i>
    <i name="e_wo_entrp">   -186.52174856 </i>
    <i name="e_0_energy">   -186.69394881 </i>
   </energy>
  </scstep>
  <scstep>
   <time name="dav">   22.21   22.26</time>
   <time name="total">   22.74   22.80</time>
   <energy>
    <i name="e_fr_energy">   -186.86683624 </i>
    <i name="e_wo_entrp">   -186.52251184 </i>
    <i name="e_0_energy">   -186.69467404 </i>
   </energy>
  </scstep>
  <scstep>
   <time name="dav">   20.72   20.77</time>
   <time name="total">   21.26   21.41</time>
   <energy>
    <i name="e_fr_energy">   -186.86785520 </i>
    <i name="e_wo_entrp">   -186.52339657 </i>
    <i name="e_0_energy">   -186.69562589 </i>
   </energy>
  </scstep>
  <scstep>
   <time name="dav">   20.38   20.43</time>
   <time name="total">   20.92   20.97</time>
   <energy>
    <i name="e_fr_energy">   -186.86901524 </i>
    <i name="e_wo_entrp">   -186.52468834 </i>
    <i name="e_0_energy">   -186.69685179 </i>
   </energy>
  </scstep>
  <scstep>
   <time name="dav">   19.17   19.22</time>
   <time name="total">   19.71   19.77</time>
   <energy>
    <i name="e_fr_energy">   -186.86958953 </i>
    <i name="e_wo_entrp">   -186.52521450 </i>
    <i name="e_0_energy">   -186.69740202 </i>
   </energy>
  </scstep>
  <scstep>
   <time name="dav">   16.46   16.50</time>
   <time name="total">   16.99   17.04</time>
   <energy>
    <i name="e_fr_energy">   -186.86995318 </i>
    <i name="e_wo_entrp">   -186.52555704 </i>
    <i name="e_0_energy">   -186.69775511 </i>
   </energy>
  </scstep>
  <scstep>
   <time name="dav">   19.15   19.19</time>
   <time name="total">   19.68   19.74</time>
   <energy>
    <i name="e_fr_energy">   -186.87019712 </i>
    <i name="e_wo_entrp">   -186.52581831 </i>
    <i name="e_0_energy">   -186.69800772 </i>
   </energy>
  </scstep>
  <scstep>
   <time name="dav">   20.23   20.28</time>
   <time name="total">   20.27   20.33</time>
   <energy>
    <i name="alphaZ">     81.65567618 </i>
    <i name="ewald">  41890.23010355 </i>
    <i name="hartreedc"> -47832.99239509 </i>
    <i name="XCdc">   -231.60402362 </i>
    <i name="pawpsdc">   4192.12467246 </i>
    <i name="pawaedc">  -3610.13963814 </i>
    <i name="eentropy">     -0.34438427 </i>
    <i name="bandstr">  -1437.24282210 </i>
    <i name="atom">   6761.44252427 </i>
    <i name="e_fr_energy">   -186.87028675 </i>
    <i name="e_wo_entrp">   -186.52590249 </i>
    <i name="e_0_energy">   -186.69809462 </i>
   </energy>
  </scstep>
  <structure>
   <crystal>
    <varray name="basis" >
     <v>       8.66999996       5.03999989       0.00000000 </v>
     <v>      -8.66999982       5.04000013       0.00000000 </v>
     <v>       0.00000000       0.00000000      30.00000000 </v>
    </varray>
    <i name="volume">   2621.80797419 </i>
    <varray name="rec_basis" >
     <v>       0.05767013       0.09920635       0.00000000 </v>
     <v>      -0.05767013       0.09920635       0.00000000 </v>
     <v>       0.00000000       0.00000000       0.03333333 </v>
    </varray>
   </crystal>
   <varray name="positions" >
    <v>       0.33333334       0.66666669       0.00000000 </v>
    <v>       0.00000000       0.00000000       0.00000000 </v>
    <v>       1.00000000       0.33333334       0.00000000 </v>
    <v>       0.66666669       0.00000000       0.00000000 </v>
    <v>       0.66666669       0.33333334       0.00000000 </v>
    <v>       0.33333334       0.33333334       0.00000000 </v>
    <v>       0.00000000       0.66666669       0.00000000 </v>
    <v>       0.33333334       0.00000000       0.00000000 </v>
    <v>       0.66666669       0.66666669       0.00000000 </v>
    <v>       0.11068511       0.22244981       0.95539999 </v>
    <v>       0.22244981       0.11068511       0.04460000 </v>
    <v>       0.11068511       0.55578315       0.95539999 </v>
    <v>       0.22244981       0.44401845       0.04460000 </v>
    <v>       0.11068511       0.88911647       0.95539999 </v>
    <v>       0.22244981       0.77735180       0.04460000 </v>
    <v>       0.44401845       0.22244981       0.95539999 </v>
    <v>       0.55578315       0.11068511       0.04460000 </v>
    <v>       0.44401845       0.55578315       0.95539999 </v>
    <v>       0.55578315       0.44401845       0.04460000 </v>
    <v>       0.44401845       0.88911647       0.95539999 </v>
    <v>       0.55578315       0.77735180       0.04460000 </v>
    <v>       0.77735180       0.22244981       0.95539999 </v>
    <v>       0.88911647       0.11068511       0.04460000 </v>
    <v>       0.77735180       0.55578315       0.95539999 </v>
    <v>       0.88911647       0.44401845       0.04460000 </v>
    <v>       0.77735180       0.88911647       0.95539999 </v>
    <v>       0.88911647       0.77735180       0.04460000 </v>
   </varray>
  </structure>
  <varray name="forces" >
   <v>       0.22559516       0.02510554      -0.06511227 </v>
   <v>      -0.28621678       0.15127842       0.08038426 </v>
   <v>       0.08295309      -0.19101552       0.01418017 </v>
   <v>      -0.25954904       0.18412980      -0.02488328 </v>
   <v>       0.01813765      -0.29351318      -0.02435955 </v>
   <v>       0.16744315       0.10928818       0.05082648 </v>
   <v>       0.09085749      -0.31426281      -0.02989657 </v>
   <v>       0.00778255       0.60790268      -0.12877369 </v>
   <v>      -0.05690472      -0.29629115       0.10910783 </v>
   <v>      -0.32106056      -0.66626906      -1.41996405 </v>
   <v>      -0.39354174      -0.72798904       2.16015508 </v>
   <v>       0.73740314       0.02209334      -1.48304402 </v>
   <v>      -0.88905638       0.00023087       1.43689414 </v>
   <v>      -0.58098043       0.00782697      -2.07049883 </v>
   <v>       0.59175667      -0.00820136       2.06505764 </v>
   <v>       0.21981829      -0.16473166      -2.93665869 </v>
   <v>      -0.19560801      -0.12769591       2.93501493 </v>
   <v>      -0.69446078       0.14268230      -2.14858138 </v>
   <v>      -0.20265740       0.18062876       2.89561767 </v>
   <v>       0.35888314      -0.73066419      -2.17328526 </v>
   <v>      -0.34681986      -0.68705396       2.14480712 </v>
   <v>       0.52181084       0.69220446      -2.15158726 </v>
   <v>       0.34612200       0.67161173       1.45090547 </v>
   <v>       0.08005961       0.12224754      -2.89126324 </v>
   <v>       0.65176304       0.15027732       2.11323546 </v>
   <v>       0.60667849       0.55425556      -2.10710778 </v>
   <v>      -0.48020860       0.58592437       2.19882962 </v>
  </varray>
  <varray name="stress" >
   <v>       7.29416621       0.09675034      -1.50664049 </v>
   <v>       0.09675043       4.46894982       0.04747982 </v>
   <v>      -1.50664052       0.04747982      30.29951912 </v>
  </varray>
  <energy>
   <i name="e_fr_energy">   -186.87028675 </i>
   <i name="e_wo_entrp">   -186.69809462 </i>
   <i name="e_0_energy">     -0.34438427 </i>
  </energy>
  <time name="totalsc">  783.80  786.00</time>
 </calculation>
 <calculation>
  <scstep>
   <time name="dav">   21.84   21.89</time>
   <time name="total">   22.38   22.44</time>
   <energy>
    <i name="alphaZ">     78.91935358 </i>
    <i name="ewald">  39378.96676229 </i>
    <i name="hartreedc"> -45336.45000020 </i>
    <i name="XCdc">   -239.06233259 </i>
    <i name="pawpsdc">   4192.10657853 </i>
    <i name="pawaedc">  -3610.12167602 </i>
    <i name="eentropy">     -0.28526209 </i>
    <i name="bandstr">  -1413.02169881 </i>
    <i name="atom">   6761.44252427 </i>
    <i name="e_fr_energy">   -187.50575104 </i>
    <i name="e_wo_entrp">   -187.22048895 </i>
    <i name="e_0_energy">   -187.36311999 </i>
   </energy>
  </scstep>
  <scstep>
   <time name="dav">   30.43   30.51</time>
   <time name="total">   30.97   31.05</time>
   <energy>
    <i name="e_fr_energy">   -189.49776613 </i>
    <i name="e_wo_entrp">   -189.16409483 </i>
    <i name="e_0_energy">   -189.33093048 </i>
   </energy>
  </scstep>
  <scstep>
   <time name="dav">   30.53   30.61</time>
   <time name="total">   31.08   31.17</time>
   <energy>
    <i name="e_fr_energy">   -189.35560590 </i>
    <i name="e_wo_entrp">   -189.07650795 </i>
    <i name="e_0_energy">   -189.21605692 </i>
   </energy>
  </scstep>
  <scstep>
   <time name="dav">   30.77   30.84</time>
   <time name="total">   31.31   31.39</time>
   <energy>
    <i name="e_fr_energy">   -188.79475380 </i>
    <i name="e_wo_entrp">   -188.50969610 </i>
    <i name="e_0_energy">   -188.65222495 </i>
   </energy>
  </scstep>
  <scstep>
   <time name="dav">   28.66   28.73</time>
   <time name="total">   29.20   29.28</time>
   <energy>
    <i name="e_fr_energy">   -188.86805861 </i>
    <i name="e_wo_entrp">   -188.57785980 </i>
    <i name="e_0_energy">   -188.72295921 </i>
   </energy>
  </scstep>
  <scstep>
   <time name="dav">   30.87   30.94</time>
   <time name="total">   31.41   31.49</time>
   <energy>
    <i name="e_fr_energy">   -188.78294914 </i>
    <i name="e_wo_entrp">   -188.49535305 </i>
    <i name="e_0_energy">   -188.63915109 </i>
   </energy>
  </scstep>
  <scstep>
   <time name="dav">   28.97   29.04</time>
   <time name="total">   29.52   29.60</time>
   <energy>
    <i name="e_fr_energy">   -188.70000739 </i>
    <i name="e_wo_entrp">   -188.41490829 </i>
    <i name="e_0_energy">   -188.55745784 </i>
   </energy>
  </scstep>
  <scstep>
   <time name="dav">   28.93   29.00</time>
   <time name="total">   29.48   29.56</time>
   <energy>
    <i name="e_fr_energy">   -188.68337052 </i>
    <i name="e_wo_entrp">   -188.39967876 </i>
    <i name="e_0_energy">   -188.54152464 </i>
   </energy>
  </scstep>
  <scstep>
   <time name="dav">   28.99   29.06</time>
   <time name="total">   29.54   29.62</time>
   <energy>
    <i name="e_fr_energy">   -188.68043851 </i>
    <i name="e_wo_entrp">   -188.39673721 </i>
    <i name="e_0_energy">   -188.53858786 </i>
   </energy>
  </scstep>
  <scstep>
   <time name="dav">   29.23   29.30</time>
   <time name="total">   29.77   29.85</time>
   <energy>
    <i name="e_fr_energy">   -188.67596220 </i>
    <i name="e_wo_entrp">   -188.39234514 </i>
    <i name="e_0_energy">   -188.53415367 </i>
   </energy>
  </scstep>
  <scstep>
   <time name="dav">   32.09   32.16</time>
   <time name="total">   32.64   32.72</time>
   <energy>
    <i name="e_fr_energy">   -188.67534745 </i>
    <i name="e_wo_entrp">   -188.39236917 </i>
    <i name="e_0_energy">   -188.53385831 </i>
   </energy>
  </scstep>
  <scstep>
   <time name="dav">   29.94   30.01</time>
   <time name="total">   30.48   30.56</time>
   <energy>
    <i name="e_fr_energy">   -188.67518537 </i>
    <i name="e_wo_entrp">   -188.39258723 </i>
    <i name="e_0_energy">   -188.53388630 </i>
   </energy>
  </scstep>
  <scstep>
   <time name="dav">   21.03   21.08</time>
   <time name="total">   21.07   21.13</time>
   <energy>
    <i name="alphaZ">     78.91935358 </i>
    <i name="ewald">  39378.96676229 </i>
    <i name="hartreedc"> -45347.21098451 </i>
    <i name="XCdc">   -237.97583230 </i>
    <i name="pawpsdc">   3950.41781108 </i>
    <i name="pawaedc">  -3364.92966594 </i>
    <i name="eentropy">     -0.28279120 </i>
    <i name="bandstr">  -1408.02239545 </i>
    <i name="atom">   6761.44252427 </i>
    <i name="e_fr_energy">   -188.67521817 </i>
    <i name="e_wo_entrp">   -188.39242697 </i>
    <i name="e_0_energy">   -188.53382257 </i>
   </energy>
  </scstep>
  <structure>
   <crystal>
    <varray name="basis" >
     <v>       8.85633233       5.10830827       0.00000000 </v>
     <v>      -8.85348070       5.10340328       0.00000000 </v>
     <v>       0.00000000       0.00000000      30.00000000 </v>
    </varray>
    <i name="volume">   2712.71232233 </i>
    <varray name="rec_basis" >
     <v>       0.05643875       0.09791102       0.00000000 </v>
     <v>      -0.05649300       0.09794255       0.00000000 </v>
     <v>       0.00000000       0.00000000       0.03333333 </v>
    </varray>
   </crystal>
   <varray name="positions" >
    <v>       0.33408114       0.66615920      -0.00010471 </v>
    <v>      -0.00007229       0.00152032       0.00012927 </v>
    <v>       0.99931659       0.33218836       0.00002280 </v>
    <v>       0.66682582       0.00160335      -0.00004001 </v>
    <v>       0.66531240       0.33187813      -0.00003917 </v>
    <v>       0.33432225       0.33339054       0.00008173 </v>
    <v>      -0.00125127       0.66490985      -0.00004808 </v>
    <v>       0.33626440       0.00288776      -0.00020708 </v>
    <v>       0.66509033       0.66540696       0.00017546 </v>
    <v>       0.10660312       0.22015430       0.95311656 </v>
    <v>       0.21787077       0.10829587       0.04807372 </v>
    <v>       0.11284242       0.55383732       0.95301512 </v>
    <v>       0.21997742       0.44649306       0.04691065 </v>
    <v>       0.10910619       0.89077031       0.95207044 </v>
    <v>       0.22405692       0.77566618       0.04792079 </v>
    <v>       0.44384162       0.22104984       0.95067758 </v>
    <v>       0.55462779       0.11061817       0.04931976 </v>
    <v>       0.44276923       0.55839813       0.95194488 </v>
    <v>       0.55608381       0.44544676       0.04925641 </v>
    <v>       0.44151998       0.88462105       0.95190516 </v>
    <v>       0.55153002       0.77502848       0.04804904 </v>
    <v>       0.78211643       0.22431092       0.95194005 </v>
    <v>       0.89329375       0.11293646       0.04693318 </v>
    <v>       0.77815961       0.55614549       0.95075058 </v>
    <v>       0.89164900       0.44292437       0.04799827 </v>
    <v>       0.78169233       0.89008124       0.95201157 </v>
    <v>       0.89058467       0.78149203       0.04813591 </v>
   </varray>
  </structure>
  <varray name="forces" >
   <v>       0.19409918       0.05821758       0.07243792 </v>
   <v>      -0.18741645       0.07122170      -0.05066477 </v>
   <v>       0.02550584      -0.15986081       0.00250559 </v>
   <v>      -0.39088401       0.07169522      -0.08571295 </v>
   <v>      -0.11005984      -0.40074206      -0.01074424 </v>
   <v>       0.41274848       0.24418398       0.08116831 </v>
   <v>      -0.07203963      -0.35047018       0.01304737 </v>
   <v>       0.02248619       0.72681183      -0.03333908 </v>
   <v>       0.11103523      -0.26462285       0.03952954 </v>
   <v>      -0.01622018      -0.02717244       0.08725561 </v>
   <v>       0.11832417      -0.05786194      -0.03320129 </v>
   <v>      -0.09382233      -0.00745808       0.12546645 </v>
   <v>      -0.03126107      -0.00774137      -0.16131823 </v>
   <v>       0.09557700       0.00152477       0.23056136 </v>
   <v>      -0.09935671      -0.00325351      -0.27127366 </v>
   <v>       0.06325450      -0.10495344      -0.27816120 </v>
   <v>      -0.06319214      -0.10214275       0.22684845 </v>
   <v>       0.00880728       0.09703305      -0.07618611 </v>
   <v>      -0.04148158       0.12101691       0.17715222 </v>
   <v>      -0.11948606      -0.05781192      -0.00470858 </v>
   <v>       0.10259634      -0.05158026      -0.05418785 </v>
   <v>       0.04064683       0.07879864      -0.07195385 </v>
   <v>      -0.00569052       0.05531730       0.03075915 </v>
   <v>      -0.07038530       0.08448422      -0.00075189 </v>
   <v>      -0.01773458       0.10277087      -0.01384794 </v>
   <v>       0.07926315      -0.05459186       0.16732926 </v>
   <v>       0.04468624      -0.06281258      -0.10800960 </v>
  </varray>
  <varray name="stress" >
   <v>     -19.90483323      -0.01817194       0.01133388 </v>
   <v>      -0.01817206     -19.50042356      -0.02029600 </v>
   <v>       0.01133389      -0.02029616      -1.74843314 </v>
  </varray>
  <energy>
   <i name="e_fr_energy">   -188.67521817 </i>
   <i name="e_wo_entrp">   -188.53382257 </i>
   <i name="e_0_energy">     -0.28279120 </i>
  </energy>
  <time name="totalsc">  420.87  422.00</time>
 </calculation>
 <calculation>
  <scstep>
   <time name="dav">   23.79   23.84</time>
   <time name="total">   24.32   24.38</time>
   <energy>
    <i name="alphaZ">     82.33974235 </i>
    <i name="ewald">  41300.34117368 </i>
    <i name="hartreedc"> -47299.13255082 </i>
    <i name="XCdc">   -233.85604750 </i>
    <i name="pawpsdc">   3949.96281129 </i>
    <i name="pawaedc">  -3364.47013753 </i>
    <i name="eentropy">     -0.23718966 </i>
    <i name="bandstr">  -1386.98492413 </i>
    <i name="atom">   6761.44252427 </i>
    <i name="e_fr_energy">   -190.59459805 </i>
    <i name="e_wo_entrp">   -190.35740839 </i>
    <i name="e_0_energy">   -190.47600322 </i>
   </energy>
  </scstep>
  <scstep>
   <time name="dav">   28.03   28.10</time>
   <time name="total">   28.56   28.63</time>
   <energy>
    <i name="e_fr_energy">   -190.55957071 </i>
    <i name="e_wo_entrp">   -190.31613470 </i>
    <i name="e_0_energy">   -190.43785271 </i>
   </energy>
  </scstep>
  <scstep>
   <time name="dav">   30.35   30.43</time>
   <time name="total">   30.88   30.96</time>
   <energy>
    <i name="e_fr_energy">   -190.07910588 </i>
    <i name="e_wo_entrp">   -189.82832313 </i>
    <i name="e_0_energy">   -189.95371450 </i>
   </energy>
  </scstep>
  <scstep>
   <time name="dav">   31.23   31.30</time>
   <time name="total">   31.76   31.85</time>
   <energy>
    <i name="e_fr_energy">   -189.87501947 </i>
    <i name="e_wo_entrp">   -189.63581046 </i>
    <i name="e_0_energy">   -189.75541497 </i>
   </energy>
  </scstep>
  <scstep>
   <time name="dav">   30.23   30.30</time>
   <time name="total">   30.76   30.84</time>
   <energy>
    <i name="e_fr_energy">   -189.91365983 </i>
    <i name="e_wo_entrp">   -189.66703962 </i>
    <i name="e_0_energy">   -189.79034973 </i>
   </energy>
  </scstep>
  <scstep>
   <time name="dav">   30.33   30.40</time>
   <time name="total">   30.87   30.95</time>
   <energy>
    <i name="e_fr_energy">   -189.77097939 </i>
    <i name="e_wo_entrp">   -189.53076863 </i>
    <i name="e_0_energy">   -189.65087401 </i>
   </energy>
  </scstep>
  <scstep>
   <time name="dav">   30.27   30.34</time>
   <time name="total">   30.80   30.88</time>
   <energy>
    <i name="e_fr_energy">   -189.76443600 </i>
    <i name="e_wo_entrp">   -189.52414392 </i>
    <i name="e_0_energy">   -189.64428996 </i>
   </energy>
  </scstep>
  <scstep>
   <time name="dav">   29.23   29.30</time>
   <time name="total">   29.77   29.85</time>
   <energy>
    <i name="e_fr_energy">   -189.76523116 </i>
    <i name="e_wo_entrp">   -189.52497179 </i>
    <i name="e_0_energy">   -189.64510148 </i>
   </energy>
  </scstep>
  <scstep>
   <time name="dav">   26.12   26.18</time>
   <time name="total">   26.65   26.72</time>
   <energy>
    <i name="e_fr_energy">   -189.76447292 </i>
    <i name="e_wo_entrp">   -189.52424380 </i>
    <i name="e_0_energy">   -189.64435836 </i>
   </energy>
  </scstep>
  <scstep>
   <time name="dav">   25.62   25.68</time>
   <time name="total">   26.15   26.22</time>
   <energy>
    <i name="e_fr_energy">   -189.76463879 </i>
    <i name="e_wo_entrp">   -189.52427288 </i>
    <i name="e_0_energy">   -189.64445583 </i>
   </energy>
  </scstep>
  <scstep>
   <time name="dav">   23.08   23.14</time>
   <time name="total">   23.61   23.68</time>
   <energy>
    <i name="e_fr_energy">   -189.76446022 </i>
    <i name="e_wo_entrp">   -189.52412239 </i>
    <i name="e_0_energy">   -189.64429131 </i>
   </energy>
  </scstep>
  <scstep>
   <time name="dav">   20.34   20.39</time>
   <time name="total">   20.37   20.43</time>
   <energy>
    <i name="alphaZ">     82.33974235 </i>
    <i name="ewald">  41300.34117368 </i>
    <i name="hartreedc"> -47272.61016064 </i>
    <i name="XCdc">   -235.24664266 </i>
    <i name="pawpsdc">   4038.77185598 </i>
    <i name="pawaedc">  -3454.47797005 </i>
    <i name="eentropy">     -0.24032008 </i>
    <i name="bandstr">  -1410.08468318 </i>
    <i name="atom">   6761.44252427 </i>
    <i name="e_fr_energy">   -189.76448032 </i>
    <i name="e_wo_entrp">   -189.52416024 </i>
    <i name="e_0_energy">   -189.64432028 </i>
   </energy>
  </scstep>
  <structure>
   <crystal>
    <varray name="basis" >
     <v>       8.66842901       5.00201259       0.00000000 </v>
     <v>      -8.66583554       4.99755235       0.00000000 </v>
     <v>       0.00000000       0.00000000      30.00000000 </v>
    </varray>
    <i name="volume">   2600.02638848 </i>
    <varray name="rec_basis" >
     <v>       0.05766348       0.09998940       0.00000000 </v>
     <v>      -0.05771494       0.10001932       0.00000000 </v>
     <v>       0.00000000       0.00000000       0.03333333 </v>
    </varray>
   </crystal>
   <varray name="positions" >
    <v>       0.33436409       0.66606978      -0.00006369 </v>
    <v>      -0.00013352       0.00181870       0.00010057 </v>
    <v>       0.99907514       0.33189788       0.00002422 </v>
    <v>       0.66657029       0.00209780      -0.00008855 </v>
    <v>       0.66454028       0.33131696      -0.00004526 </v>
    <v>       0.33512418       0.33340071       0.00012770 </v>
    <v>      -0.00190332       0.66439583      -0.00004069 </v>
    <v>       0.33749494       0.00407554      -0.00022596 </v>
    <v>       0.66475662       0.66486008       0.00019784 </v>
    <v>       0.10654237       0.22012466       0.95316597 </v>
    <v>       0.21788798       0.10808603       0.04805492 </v>
    <v>       0.11274006       0.55391495       0.95308618 </v>
    <v>       0.21993457       0.44651018       0.04681930 </v>
    <v>       0.10920037       0.89068111       0.95220101 </v>
    <v>       0.22395624       0.77575613       0.04776717 </v>
    <v>       0.44372769       0.22081449       0.95052006 </v>
    <v>       0.55439730       0.11050886       0.04944823 </v>
    <v>       0.44293908       0.55855113       0.95190174 </v>
    <v>       0.55624534       0.44568794       0.04935673 </v>
    <v>       0.44130925       0.88463954       0.95190249 </v>
    <v>       0.55154259       0.77484419       0.04801835 </v>
    <v>       0.78228648       0.22440303       0.95189930 </v>
    <v>       0.89338031       0.11303397       0.04695060 </v>
    <v>       0.77823265       0.55635362       0.95075016 </v>
    <v>       0.89180294       0.44311239       0.04799043 </v>
    <v>       0.78167752       0.88991433       0.95210633 </v>
    <v>       0.89052303       0.78134463       0.04807475 </v>
   </varray>
  </structure>
  <varray name="forces" >
   <v>       0.19719803       0.08427594       0.08623715 </v>
   <v>      -0.14106079       0.03031398      -0.07198044 </v>
   <v>      -0.00505542      -0.15399143      -0.00113550 </v>
   <v>      -0.42291733       0.02999969      -0.07775343 </v>
   <v>      -0.16466216      -0.43364320      -0.00408395 </v>
   <v>       0.48664973       0.28976430       0.06240155 </v>
   <v>      -0.13012289      -0.35216248       0.02184383 </v>
   <v>       0.02287681       0.74355818       0.00242786 </v>
   <v>       0.16619899      -0.25772177       0.00548423 </v>
   <v>      -0.04562459      -0.06715333      -0.34792499 </v>
   <v>       0.01352902      -0.11616222       0.46262349 </v>
   <v>       0.07455123      -0.01117970      -0.33930220 </v>
   <v>      -0.09563740      -0.01341344       0.27549836 </v>
   <v>      -0.03770590       0.01453994      -0.24639650 </v>
   <v>       0.02522462       0.01347957       0.19761868 </v>
   <v>       0.01027971      -0.02261597      -0.87083854 </v>
   <v>      -0.02220004      -0.02881412       0.80218442 </v>
   <v>      -0.09358336       0.02082222      -0.57991080 </v>
   <v>       0.00884315       0.05215607       0.75018250 </v>
   <v>      -0.00453074      -0.12318807      -0.51415486 </v>
   <v>      -0.02180310      -0.09716480       0.43767071 </v>
   <v>       0.06939975       0.15386334      -0.56810022 </v>
   <v>       0.02111739       0.11178833       0.48849339 </v>
   <v>      -0.03944034       0.00206330      -0.56303989 </v>
   <v>       0.09725966       0.00944938       0.48860500 </v>
   <v>       0.07281553       0.05983340      -0.30456805 </v>
   <v>      -0.04159957       0.06130288       0.40791820 </v>
  </varray>
  <varray name="stress" >
   <v>     -10.14604706      -0.02135083      -0.01395055 </v>
   <v>      -0.02135071      -9.85425184      -0.03865146 </v>
   <v>      -0.01395057      -0.03865141       6.48673315 </v>
  </varray>
  <energy>
   <i name="e_fr_energy">   -189.76448032 </i>
   <i name="e_wo_entrp">   -189.64432028 </i>
   <i name="e_0_energy">     -0.24032008 </i>
  </energy>
  <time name="totalsc">  376.54  377.55</time>
 </calculation>
 <calculation>
  <scstep>
   <time name="dav">   21.81   21.86</time>
   <time name="total">   22.33   22.38</time>
   <energy>
    <i name="alphaZ">     85.81967034 </i>
    <i name="ewald">  42832.62441889 </i>
    <i name="hartreedc"> -48849.36794174 </i>
    <i name="XCdc">   -232.95830401 </i>
    <i name="pawpsdc">   4038.81289407 </i>
    <i name="pawaedc">  -3454.51653279 </i>
    <i name="eentropy">     -0.20362527 </i>
    <i name="bandstr">  -1372.98692109 </i>
    <i name="atom">   6761.44252427 </i>
    <i name="e_fr_energy">   -191.33381733 </i>
    <i name="e_wo_entrp">   -191.13019206 </i>
    <i name="e_0_energy">   -191.23200470 </i>
   </energy>
  </scstep>
  <scstep>
   <time name="dav">   32.28   32.36</time>
   <time name="total">   32.80   32.89</time>
   <energy>
    <i name="e_fr_energy">   -191.18003855 </i>
    <i name="e_wo_entrp">   -190.97059219 </i>
    <i name="e_0_energy">   -191.07531537 </i>
   </energy>
  </scstep>
  <scstep>
   <time name="dav">   30.23   30.30</time>
   <time name="total">   30.74   30.82</time>
   <energy>
    <i name="e_fr_energy">   -191.27860556 </i>
    <i name="e_wo_entrp">   -191.05751750 </i>
    <i name="e_0_energy">   -191.16806153 </i>
   </energy>
  </scstep>
  <scstep>
   <time name="dav">   31.74   31.81</time>
   <time name="total">   32.26   32.35</time>
   <energy>
    <i name="e_fr_energy">   -190.88080179 </i>
    <i name="e_wo_entrp">   -190.67353839 </i>
    <i name="e_0_energy">   -190.77717009 </i>
   </energy>
  </scstep>
  <scstep>
   <time name="dav">   30.18   30.26</time>
   <time name="total">   30.70   30.78</time>
   <energy>
    <i name="e_fr_energy">   -190.80778308 </i>
    <i name="e_wo_entrp">   -190.59739966 </i>
    <i name="e_0_energy">   -190.70259137 </i>
   </energy>
  </scstep>
  <scstep>
   <time name="dav">   30.59   30.66</time>
   <time name="total">   31.11   31.19</time>
   <energy>
    <i name="e_fr_energy">   -190.77184324 </i>
    <i name="e_wo_entrp">   -190.56113270 </i>
    <i name="e_0_energy">   -190.66648797 </i>
   </energy>
  </scstep>
  <scstep>
   <time name="dav">   29.49   29.56</time>
   <time name="total">   30.01   30.09</time>
   <energy>
    <i name="e_fr_energy">   -190.75297240 </i>
    <i name="e_wo_entrp">   -190.54307631 </i>
    <i name="e_0_energy">   -190.64802435 </i>
   </energy>
  </scstep>
  <scstep>
   <time name="dav">   28.17   28.24</time>
   <time name="total">   28.69   28.77</time>
   <energy>
    <i name="e_fr_energy">   -190.74989928 </i>
    <i name="e_wo_entrp">   -190.53994707 </i>
    <i name="e_0_energy">   -190.64492318 </i>
   </energy>
  </scstep>
  <scstep>
   <time name="dav">   27.27   27.34</time>
   <time name="total">   27.80   27.99</time>
   <energy>
    <i name="e_fr_energy">   -190.74961978 </i>
    <i name="e_wo_entrp">   -190.53969208 </i>
    <i name="e_0_energy">   -190.64465593 </i>
   </energy>
  </scstep>
  <scstep>
   <time name="dav">   28.34   28.40</time>
   <time name="total">   28.86   28.93</time>
   <energy>
    <i name="e_fr_energy">   -190.74971041 </i>
    <i name="e_wo_entrp">   -190.53953228 </i>
    <i name="e_0_energy">   -190.64462135 </i>
   </energy>
  </scstep>
  <scstep>
   <time name="dav">   25.72   25.78</time>
   <time name="total">   26.23   26.30</time>
   <energy>
    <i name="e_fr_energy">   -190.74947989 </i>
    <i name="e_wo_entrp">   -190.53955991 </i>
    <i name="e_0_energy">   -190.64451990 </i>
   </energy>
  </scstep>
  <scstep>
   <time name="dav">   20.44   20.49</time>
   <time name="total">   20.47   20.53</time>
   <energy>
    <i name="alphaZ">     85.81967034 </i>
    <i name="ewald">  42832.62441889 </i>
    <i name="hartreedc"> -48820.75916370 </i>
    <i name="XCdc">   -234.28794677 </i>
    <i name="pawpsdc">   4063.76738795 </i>
    <i name="pawaedc">  -3479.65551153 </i>
    <i name="eentropy">     -0.20994619 </i>
    <i name="bandstr">  -1399.49090751 </i>
    <i name="atom">   6761.44252427 </i>
    <i name="e_fr_energy">   -190.74947425 </i>
    <i name="e_wo_entrp">   -190.53952806 </i>
    <i name="e_0_energy">   -190.64450115 </i>
   </energy>
  </scstep>
  <structure>
   <crystal>
    <varray name="basis" >
     <v>       8.48671658       4.90099315       0.00000000 </v>
     <v>      -8.48499806       4.89804505       0.00000000 </v>
     <v>       0.00000000       0.00000000      30.00000000 </v>
    </varray>
    <i name="volume">   2494.59712545 </i>
    <varray name="rec_basis" >
     <v>       0.05890384       0.10204050       0.00000000 </v>
     <v>      -0.05893929       0.10206117       0.00000000 </v>
     <v>       0.00000000       0.00000000       0.03333333 </v>
    </varray>
   </crystal>
   <varray name="positions" >
    <v>       0.33567327       0.66594536       0.00012650 </v>
    <v>      -0.00048850       0.00234967      -0.00006648 </v>
    <v>       0.99806349       0.33101038       0.00001878 </v>
    <v>       0.66508087       0.00375633      -0.00024271 </v>
    <v>       0.66107021       0.32919288      -0.00004805 </v>
    <v>       0.33891557       0.33346383       0.00024091 </v>
    <v>      -0.00466572       0.66274004       0.00001198 </v>
    <v>       0.34227510       0.00869064      -0.00019057 </v>
    <v>       0.66383975       0.66258324       0.00018029 </v>
    <v>       0.10581523       0.21981159       0.95207655 </v>
    <v>       0.21691360       0.10731501       0.04943318 </v>
    <v>       0.11317199       0.55332399       0.95198948 </v>
    <v>       0.21939856       0.44685030       0.04776022 </v>
    <v>       0.10899613       0.89113265       0.95128624 </v>
    <v>       0.22435249       0.77561189       0.04857415 </v>
    <v>       0.44375238       0.22091727       0.94821479 </v>
    <v>       0.55437847       0.11053257       0.05159670 </v>
    <v>       0.44239432       0.55897699       0.95027404 </v>
    <v>       0.55650444       0.44573847       0.05139563 </v>
    <v>       0.44052385       0.88355601       0.95040602 </v>
    <v>       0.55056309       0.77437976       0.04934161 </v>
    <v>       0.78372888       0.22526163       0.95030248 </v>
    <v>       0.89433577       0.11376000       0.04835007 </v>
    <v>       0.77794212       0.55625901       0.94910766 </v>
    <v>       0.89214592       0.44242186       0.04942809 </v>
    <v>       0.78259110       0.89032053       0.95107547 </v>
    <v>       0.89094206       0.78231258       0.04935686 </v>
   </varray>
  </structure>
  <varray name="forces" >
   <v>       0.22316554       0.09350217       0.08301326 </v>
   <v>      -0.09564153      -0.03177892      -0.08156357 </v>
   <v>      -0.03014381      -0.11578146      -0.00688831 </v>
   <v>      -0.44546094       0.01939158      -0.04262842 </v>
   <v>      -0.22209239      -0.41642917       0.00307148 </v>
   <v>       0.50294809       0.31924772       0.00799006 </v>
   <v>      -0.17426052      -0.40054101       0.03430112 </v>
   <v>       0.02087509       0.74052757       0.03149915 </v>
   <v>       0.23853942      -0.25627682      -0.03094082 </v>
   <v>       0.01257871       0.05672547      -0.22411656 </v>
   <v>       0.02207636       0.01802298       0.30492673 </v>
   <v>       0.04239272      -0.03002196      -0.23164918 </v>
   <v>       0.05198055      -0.02001541       0.19201070 </v>
   <v>       0.03442485       0.05661796      -0.07667347 </v>
   <v>      -0.04928374       0.04800091       0.00010153 </v>
   <v>      -0.00174941       0.03071490      -0.70339959 </v>
   <v>      -0.00537946       0.04448294       0.61738457 </v>
   <v>       0.00523224      -0.02507511      -0.39047813 </v>
   <v>       0.04565038       0.00901535       0.59838690 </v>
   <v>      -0.03082957      -0.02626751      -0.38306540 </v>
   <v>      -0.01068599       0.01204172       0.26075683 </v>
   <v>      -0.01562343       0.04781577      -0.40001916 </v>
   <v>      -0.04497339       0.01618071       0.36576136 </v>
   <v>       0.00599368      -0.09325790      -0.41354282 </v>
   <v>       0.02457840      -0.08246311       0.31987616 </v>
   <v>      -0.03562354      -0.02055685      -0.14667010 </v>
   <v>      -0.06868828       0.00617748       0.31255567 </v>
  </varray>
  <varray name="stress" >
   <v>      -5.78960088       0.07920955      -0.04017836 </v>
   <v>       0.07920942      -5.70816521       0.05371922 </v>
   <v>      -0.04017860       0.05371898       4.48949054 </v>
  </varray>
  <energy>
   <i name="e_fr_energy">   -190.74947425 </i>
   <i name="e_wo_entrp">   -190.64450115 </i>
   <i name="e_0_energy">     -0.20994619 </i>
  </energy>
  <time name="totalsc">  384.17  385.30</time>
 </calculation>
 <calculation>
  <scstep>
   <time name="dav">   21.77   21.82</time>
   <time name="total">   22.28   22.33</time>
   <energy>
    <i name="alphaZ">     90.18033400 </i>
    <i name="ewald">  44666.31879464 </i>
    <i name="hartreedc"> -50709.83792013 </i>
    <i name="XCdc">   -231.83540121 </i>
    <i name="pawpsdc">   4063.73675352 </i>
    <i name="pawaedc">  -3479.61952453 </i>
    <i name="eentropy">     -0.19664432 </i>
    <i name="bandstr">  -1352.30955892 </i>
    <i name="atom">   6761.44252427 </i>
    <i name="e_fr_energy">   -192.12064266 </i>
    <i name="e_wo_entrp">   -191.92399834 </i>
    <i name="e_0_energy">   -192.02232050 </i>
   </energy>
  </scstep>
  <scstep>
   <time name="dav">   28.19   28.26</time>
   <time name="total">   28.70   28.78</time>
   <energy>
    <i name="e_fr_energy">   -191.85328339 </i>
    <i name="e_wo_entrp">   -191.64984953 </i>
    <i name="e_0_energy">   -191.75156646 </i>
   </energy>
  </scstep>
  <scstep>
   <time name="dav">   29.47   29.54</time>
   <time name="total">   29.97   30.05</time>
   <energy>
    <i name="e_fr_energy">   -191.98484266 </i>
    <i name="e_wo_entrp">   -191.78088223 </i>
    <i name="e_0_energy">   -191.88286245 </i>
   </energy>
  </scstep>
  <scstep>
   <time name="dav">   28.58   28.65</time>
   <time name="total">   29.09   29.17</time>
   <energy>
    <i name="e_fr_energy">   -191.74778725 </i>
    <i name="e_wo_entrp">   -191.54727325 </i>
    <i name="e_0_energy">   -191.64753025 </i>
   </energy>
  </scstep>
  <scstep>
   <time name="dav">   30.24   30.31</time>
   <time name="total">   30.75   30.83</time>
   <energy>
    <i name="e_fr_energy">   -191.57769474 </i>
    <i name="e_wo_entrp">   -191.37418667 </i>
    <i name="e_0_energy">   -191.47594071 </i>
   </energy>
  </scstep>
  <scstep>
   <time name="dav">   30.39   30.47</time>
   <time name="total">   30.91   30.99</time>
   <energy>
    <i name="e_fr_energy">   -191.43581818 </i>
    <i name="e_wo_entrp">   -191.22994797 </i>
    <i name="e_0_energy">   -191.33288308 </i>
   </energy>
  </scstep>
  <scstep>
   <time name="dav">   30.28   30.36</time>
   <time name="total">   30.79   30.87</time>
   <energy>
    <i name="e_fr_energy">   -191.42819446 </i>
    <i name="e_wo_entrp">   -191.22418675 </i>
    <i name="e_0_energy">   -191.32619060 </i>
   </energy>
  </scstep>
  <scstep>
   <time name="dav">   29.97   30.04</time>
   <time name="total">   30.48   30.57</time>
   <energy>
    <i name="e_fr_energy">   -191.42597166 </i>
    <i name="e_wo_entrp">   -191.22111882 </i>
    <i name="e_0_energy">   -191.32354524 </i>
   </energy>
  </scstep>
  <scstep>
   <time name="dav">   30.65   30.72</time>
   <time name="total">   31.16   31.24</time>
   <energy>
    <i name="e_fr_energy">   -191.41926185 </i>
    <i name="e_wo_entrp">   -191.21440516 </i>
    <i name="e_0_energy">   -191.31683350 </i>
   </energy>
  </scstep>
  <scstep>
   <time name="dav">   27.68   27.74</time>
   <time name="total">   28.19   28.27</time>
   <energy>
    <i name="e_fr_energy">   -191.41956950 </i>
    <i name="e_wo_entrp">   -191.21444269 </i>
    <i name="e_0_energy">   -191.31700610 </i>
   </energy>
  </scstep>
  <scstep>
   <time name="dav">   27.93   28.00</time>
   <time name="total">   28.44   28.51</time>
   <energy>
    <i name="e_fr_energy">   -191.41941690 </i>
    <i name="e_wo_entrp">   -191.21443553 </i>
    <i name="e_0_energy">   -191.31692621 </i>
   </energy>
  </scstep>
  <scstep>
   <time name="dav">   19.77   19.82</time>
   <time name="total">   19.81   19.87</time>
   <energy>
    <i name="alphaZ">     90.18033400 </i>
    <i name="ewald">  44666.31879464 </i>
    <i name="hartreedc"> -50675.87953807 </i>
    <i name="XCdc">   -233.36281875 </i>
    <i name="pawpsdc">   4085.77710838 </i>
    <i name="pawaedc">  -3501.75565908 </i>
    <i name="eentropy">     -0.20506073 </i>
    <i name="bandstr">  -1383.93508565 </i>
    <i name="atom">   6761.44252427 </i>
    <i name="e_fr_energy">   -191.41940099 </i>
    <i name="e_wo_entrp">   -191.21434026 </i>
    <i name="e_0_energy">   -191.31687062 </i>
   </energy>
  </scstep>
  <structure>
   <crystal>
    <varray name="basis" >
     <v>       8.27909084       4.78610222       0.00000000 </v>
     <v>      -8.27297325       4.77553318       0.00000000 </v>
     <v>       0.00000000       0.00000000      30.00000000 </v>
    </varray>
    <i name="volume">   2373.97105826 </i>
    <varray name="rec_basis" >
     <v>       0.06034867       0.10454601       0.00000000 </v>
     <v>      -0.06048223       0.10462332       0.00000000 </v>
     <v>       0.00000000       0.00000000       0.03333333 </v>
    </varray>
   </crystal>
   <varray name="positions" >
    <v>       0.33845026       0.66558978       0.00047487 </v>
    <v>      -0.00154050       0.00258991      -0.00040959 </v>
    <v>       0.99635041       0.32977924      -0.00000936 </v>
    <v>       0.66201941       0.00709113      -0.00042471 </v>
    <v>       0.65420604       0.32555657      -0.00003300 </v>
    <v>       0.34660977       0.33379351       0.00028362 </v>
    <v>      -0.01081317       0.65917781       0.00015159 </v>
    <v>       0.35159535       0.01771090      -0.00004452 </v>
    <v>       0.66242002       0.65772692       0.00004211 </v>
    <v>       0.10617518       0.22020318       0.95068199 </v>
    <v>       0.21671634       0.10717037       0.05122991 </v>
    <v>       0.11343639       0.55236124       0.95054418 </v>
    <v>       0.21926645       0.44647875       0.04900598 </v>
    <v>       0.10961317       0.89184470       0.95041741 </v>
    <v>       0.22486377       0.77626415       0.04914273 </v>
    <v>       0.44419063       0.22153430       0.94471871 </v>
    <v>       0.55503008       0.11115629       0.05473990 </v>
    <v>       0.44171260       0.55875326       0.94810929 </v>
    <v>       0.55686094       0.44534881       0.05444265 </v>
    <v>       0.43984757       0.88288314       0.94829664 </v>
    <v>       0.55010271       0.77450820       0.05096752 </v>
    <v>       0.78473078       0.22622594       0.94811837 </v>
    <v>       0.89464694       0.11449371       0.05033456 </v>
    <v>       0.77676501       0.55498062       0.94681405 </v>
    <v>       0.89145060       0.44085265       0.05129723 </v>
    <v>       0.78264419       0.89069265       0.94993714 </v>
    <v>       0.89086353       0.78344670       0.05117061 </v>
   </varray>
  </structure>
  <varray name="forces" >
   <v>       0.29880001       0.10742852       0.01976296 </v>
   <v>      -0.08539985      -0.07665660      -0.01710068 </v>
   <v>      -0.02931002      -0.06857933      -0.02211935 </v>
   <v>      -0.30389218       0.07541153       0.02466303 </v>
   <v>      -0.07606264       0.06233769       0.03384516 </v>
   <v>       0.14226622       0.20405363      -0.05510461 </v>
   <v>      -0.21800097      -0.49105117       0.05978733 </v>
   <v>       0.01081596       0.29018062      -0.04809850 </v>
   <v>       0.31502589      -0.21418057       0.04834277 </v>
   <v>       0.07279684       0.16083289       0.07438079 </v>
   <v>       0.08284441       0.15840520      -0.01989611 </v>
   <v>      -0.04324954      -0.02398797       0.07199617 </v>
   <v>       0.23372658      -0.01244666      -0.04488652 </v>
   <v>       0.16478984       0.11525689       0.24485683 </v>
   <v>      -0.18528071       0.09269338      -0.33820866 </v>
   <v>      -0.00825029       0.04719254      -0.29287521 </v>
   <v>      -0.00709966       0.12204071       0.28737373 </v>
   <v>       0.10062663      -0.02484039      -0.11115785 </v>
   <v>       0.07361815       0.00406259       0.24513659 </v>
   <v>      -0.11498956       0.05529698      -0.05964566 </v>
   <v>       0.07075722       0.12401686      -0.07007192 </v>
   <v>      -0.14554898      -0.07806819      -0.06575885 </v>
   <v>      -0.06861184      -0.07011769       0.02118575 </v>
   <v>       0.02982297      -0.17333869      -0.22994945 </v>
   <v>      -0.07125815      -0.14705773       0.05949074 </v>
   <v>      -0.16236768      -0.16043993       0.12054264 </v>
   <v>      -0.07656863      -0.07844510       0.06350886 </v>
  </varray>
  <varray name="stress" >
   <v>       0.10219812       0.28335623       0.18436447 </v>
   <v>       0.28335604       0.27098320       0.29746026 </v>
   <v>       0.18436438       0.29746025      -0.57833266 </v>
  </varray>
  <energy>
   <i name="e_fr_energy">   -191.41940099 </i>
   <i name="e_wo_entrp">   -191.31687062 </i>
   <i name="e_0_energy">     -0.20506073 </i>
  </energy>
  <time name="totalsc">  382.69  383.70</time>
 </calculation>
 <calculation>
  <scstep>
   <time name="dav">   21.77   21.82</time>
   <time name="total">   22.28   22.34</time>
   <energy>
    <i name="alphaZ">     90.05317995 </i>
    <i name="ewald">  44594.08112094 </i>
    <i name="hartreedc"> -50602.84634802 </i>
    <i name="XCdc">   -233.51076355 </i>
    <i name="pawpsdc">   4085.71252985 </i>
    <i name="pawaedc">  -3501.68677618 </i>
    <i name="eentropy">     -0.20880852 </i>
    <i name="bandstr">  -1384.52522142 </i>
    <i name="atom">   6761.44252427 </i>
    <i name="e_fr_energy">   -191.48856267 </i>
    <i name="e_wo_entrp">   -191.27975416 </i>
    <i name="e_0_energy">   -191.38415842 </i>
   </energy>
  </scstep>
  <scstep>
   <time name="dav">   33.08   33.16</time>
   <time name="total">   33.60   33.68</time>
   <energy>
    <i name="e_fr_energy">   -191.55599087 </i>
    <i name="e_wo_entrp">   -191.34217012 </i>
    <i name="e_0_energy">   -191.44908049 </i>
   </energy>
  </scstep>
  <scstep>
   <time name="dav">   30.54   30.61</time>
   <time name="total">   31.04   31.13</time>
   <energy>
    <i name="e_fr_energy">   -191.50182231 </i>
    <i name="e_wo_entrp">   -191.29216619 </i>
    <i name="e_0_energy">   -191.39699425 </i>
   </energy>
  </scstep>
  <scstep>
   <time name="dav">   28.41   28.48</time>
   <time name="total">   28.92   29.00</time>
   <energy>
    <i name="e_fr_energy">   -191.50358895 </i>
    <i name="e_wo_entrp">   -191.29429246 </i>
    <i name="e_0_energy">   -191.39894070 </i>
   </energy>
  </scstep>
  <scstep>
   <time name="dav">   28.36   28.43</time>
   <time name="total">   28.87   28.94</time>
   <energy>
    <i name="e_fr_energy">   -191.49913993 </i>
    <i name="e_wo_entrp">   -191.28919715 </i>
    <i name="e_0_energy">   -191.39416854 </i>
   </energy>
  </scstep>
  <scstep>
   <time name="dav">   26.82   26.89</time>
   <time name="total">   27.34   27.41</time>
   <energy>
    <i name="e_fr_energy">   -191.49901806 </i>
    <i name="e_wo_entrp">   -191.28907516 </i>
    <i name="e_0_energy">   -191.39404661 </i>
   </energy>
  </scstep>
  <scstep>
   <time name="dav">   28.76   28.83</time>
   <time name="total">   29.26   29.34</time>
   <energy>
    <i name="e_fr_energy">   -191.49957778 </i>
    <i name="e_wo_entrp">   -191.28987225 </i>
    <i name="e_0_energy">   -191.39472501 </i>
   </energy>
  </scstep>
  <scstep>
   <time name="dav">   24.70   24.76</time>
   <time name="total">   25.22   25.29</time>
   <energy>
    <i name="e_fr_energy">   -191.49851461 </i>
    <i name="e_wo_entrp">   -191.28859079 </i>
    <i name="e_0_energy">   -191.39355270 </i>
   </energy>
  </scstep>
  <scstep>
   <time name="dav">   16.85   16.89</time>
   <time name="total">   16.88   16.93</time>
   <energy>
    <i name="alphaZ">     90.05317995 </i>
    <i name="ewald">  44594.08112094 </i>
    <i name="hartreedc"> -50604.81998181 </i>
    <i name="XCdc">   -233.44850821 </i>
    <i name="pawpsdc">   4082.98865005 </i>
    <i name="pawaedc">  -3498.92354228 </i>
    <i name="eentropy">     -0.20978843 </i>
    <i name="bandstr">  -1382.66218104 </i>
    <i name="atom">   6761.44252427 </i>
    <i name="e_fr_energy">   -191.49852656 </i>
    <i name="e_wo_entrp">   -191.28873812 </i>
    <i name="e_0_energy">   -191.39363234 </i>
   </energy>
  </scstep>
  <structure>
   <crystal>
    <varray name="basis" >
     <v>       8.28663214       4.79650378       0.00000000 </v>
     <v>      -8.27358404       4.77393286       0.00000000 </v>
     <v>       0.00000000       0.00000000      30.00000000 </v>
    </varray>
    <i name="volume">   2377.32307793 </i>
    <varray name="rec_basis" >
     <v>       0.06024338       0.10440631       0.00000000 </v>
     <v>      -0.06052821       0.10457096       0.00000000 </v>
     <v>       0.00000000       0.00000000       0.03333333 </v>
    </varray>
   </crystal>
   <varray name="positions" >
    <v>       0.33978202       0.66527337       0.00050028 </v>
    <v>      -0.00214321       0.00245252      -0.00043090 </v>
    <v>       0.99595768       0.32954467      -0.00004357 </v>
    <v>       0.66157693       0.00827471      -0.00038314 </v>
    <v>       0.65440473       0.32613659       0.00001976 </v>
    <v>       0.34789449       0.33438757       0.00019653 </v>
    <v>      -0.01374894       0.65743695       0.00024307 </v>
    <v>       0.35290658       0.01896647      -0.00012233 </v>
    <v>       0.66228277       0.65585378       0.00012013 </v>
    <v>       0.10717068       0.22078322       0.95082524 </v>
    <v>       0.21773858       0.10771815       0.05116497 </v>
    <v>       0.11318834       0.55238418       0.95068470 </v>
    <v>       0.21987286       0.44575645       0.04891145 </v>
    <v>       0.11064060       0.89192927       0.95082025 </v>
    <v>       0.22478298       0.77723942       0.04859822 </v>
    <v>       0.44439155       0.22177788       0.94432105 </v>
    <v>       0.55559797       0.11176646       0.05513449 </v>
    <v>       0.44189075       0.55834731       0.94797489 </v>
    <v>       0.55708497       0.44516740       0.05477277 </v>
    <v>       0.43980500       0.88349819       0.94824181 </v>
    <v>       0.55092535       0.77491585       0.05082656 </v>
    <v>       0.78391346       0.22623811       0.94805519 </v>
    <v>       0.89409855       0.11433037       0.05033166 </v>
    <v>       0.77601695       0.55406431       0.94649593 </v>
    <v>       0.89053526       0.44036040       0.05135541 </v>
    <v>       0.78138882       0.89035569       0.95014931 </v>
    <v>       0.89025872       0.78325516       0.05123620 </v>
   </varray>
  </structure>
  <varray name="forces" >
   <v>       0.36110983       0.11190534       0.03141533 </v>
   <v>      -0.09192370      -0.04360181      -0.04536977 </v>
   <v>      -0.01478039      -0.07526338      -0.04700128 </v>
   <v>      -0.38270382       0.09082234       0.00873461 </v>
   <v>      -0.07375964       0.03972912      -0.00052555 </v>
   <v>       0.13717166       0.22477364      -0.02542282 </v>
   <v>      -0.25121333      -0.55196113       0.03507962 </v>
   <v>       0.03643110       0.42490431       0.01377109 </v>
   <v>       0.35741631      -0.24944340       0.01200985 </v>
   <v>       0.04664644       0.09960551       0.09292286 </v>
   <v>       0.04413808       0.09555871      -0.05130400 </v>
   <v>      -0.05026188      -0.01150269       0.12020113 </v>
   <v>       0.14056696      -0.00635156      -0.06613664 </v>
   <v>       0.11642456       0.04783357       0.24991751 </v>
   <v>      -0.13474496       0.01130564      -0.36917880 </v>
   <v>       0.00427251       0.05774824      -0.18600245 </v>
   <v>      -0.03765150       0.06603927       0.17967932 </v>
   <v>       0.06293889       0.01602697      -0.11818716 </v>
   <v>       0.04214550      -0.01089234       0.20975792 </v>
   <v>      -0.05593316       0.03533848      -0.03351613 </v>
   <v>       0.06461359       0.09464859      -0.08210818 </v>
   <v>      -0.08982860      -0.03641894      -0.05257004 </v>
   <v>      -0.04383483      -0.03853738       0.01380301 </v>
   <v>       0.00274155      -0.10921683      -0.23529386 </v>
   <v>      -0.02179169      -0.08981563       0.10943233 </v>
   <v>      -0.11057643      -0.12808314       0.16754955 </v>
   <v>      -0.05761305      -0.06515148       0.06834254 </v>
  </varray>
  <varray name="stress" >
   <v>      -0.07348406       0.03578432       0.08373950 </v>
   <v>       0.03578454      -0.16839904       0.08515834 </v>
   <v>       0.08373939       0.08515854      -1.18817750 </v>
  </varray>
  <energy>
   <i name="e_fr_energy">   -191.49852656 </i>
   <i name="e_wo_entrp">   -191.39363234 </i>
   <i name="e_0_energy">     -0.20978843 </i>
  </energy>
  <time name="totalsc">  285.43  286.20</time>
 </calculation>
 <calculation>
  <scstep>
   <time name="dav">   21.78   21.83</time>
   <time name="total">   22.29   22.35</time>
   <energy>
    <i name="alphaZ">     90.09435240 </i>
    <i name="ewald">  44613.47769189 </i>
    <i name="hartreedc"> -50624.62169629 </i>
    <i name="XCdc">   -233.41942856 </i>
    <i name="pawpsdc">   4082.81843917 </i>
    <i name="pawaedc">  -3498.75158932 </i>
    <i name="eentropy">     -0.21081947 </i>
    <i name="bandstr">  -1382.37480118 </i>
    <i name="atom">   6761.44252427 </i>
    <i name="e_fr_energy">   -191.54532709 </i>
    <i name="e_wo_entrp">   -191.33450762 </i>
    <i name="e_0_energy">   -191.43991736 </i>
   </energy>
  </scstep>
  <scstep>
   <time name="dav">   33.24   33.32</time>
   <time name="total">   33.75   33.84</time>
   <energy>
    <i name="e_fr_energy">   -191.56193391 </i>
    <i name="e_wo_entrp">   -191.34774110 </i>
    <i name="e_0_energy">   -191.45483750 </i>
   </energy>
  </scstep>
  <scstep>
   <time name="dav">   30.32   30.40</time>
   <time name="total">   30.84   30.92</time>
   <energy>
    <i name="e_fr_energy">   -191.54854421 </i>
    <i name="e_wo_entrp">   -191.33736316 </i>
    <i name="e_0_energy">   -191.44295369 </i>
   </energy>
  </scstep>
  <scstep>
   <time name="dav">   27.80   27.87</time>
   <time name="total">   28.31   28.38</time>
   <energy>
    <i name="e_fr_energy">   -191.54907178 </i>
    <i name="e_wo_entrp">   -191.33803982 </i>
    <i name="e_0_energy">   -191.44355580 </i>
   </energy>
  </scstep>
  <scstep>
   <time name="dav">   27.79   27.85</time>
   <time name="total">   28.30   28.37</time>
   <energy>
    <i name="e_fr_energy">   -191.54751687 </i>
    <i name="e_wo_entrp">   -191.33596686 </i>
    <i name="e_0_energy">   -191.44174186 </i>
   </energy>
  </scstep>
  <scstep>
   <time name="dav">   25.85   25.91</time>
   <time name="total">   25.88   25.95</time>
   <energy>
    <i name="alphaZ">     90.09435240 </i>
    <i name="ewald">  44613.47769189 </i>
    <i name="hartreedc"> -50624.63672312 </i>
    <i name="XCdc">   -233.42321663 </i>
    <i name="pawpsdc">   4083.83569570 </i>
    <i name="pawaedc">  -3499.78120300 </i>
    <i name="eentropy">     -0.21153545 </i>
    <i name="bandstr">  -1382.34504719 </i>
    <i name="atom">   6761.44252427 </i>
    <i name="e_fr_energy">   -191.54746113 </i>
    <i name="e_wo_entrp">   -191.33592568 </i>
[...]
      <set comment="kpoint 31">
       <r>  -17.5069    1.0000 </r>
       <r>  -17.2591    1.0000 </r>
       <r>  -16.8971    1.0000 </r>
       <r>  -16.5366    1.0000 </r>
       <r>  -16.4513    1.0000 </r>
       <r>  -16.3928    1.0000 </r>
       <r>  -16.2251    1.0000 </r>
       <r>  -16.1856    1.0000 </r>
       <r>  -16.1324    1.0000 </r>
       <r>  -16.0099    1.0000 </r>
       <r>  -15.9567    1.0000 </r>
       <r>  -15.8864    1.0000 </r>
       <r>  -15.7424    1.0000 </r>
       <r>  -15.6927    1.0000 </r>
       <r>  -15.6550    1.0000 </r>
       <r>  -15.5448    1.0000 </r>
       <r>  -15.4975    1.0000 </r>
       <r>  -15.3924    1.0000 </r>
       <r>   -9.7554    1.0000 </r>
       <r>   -9.4605    1.0000 </r>
       <r>   -9.2714    1.0000 </r>
       <r>   -8.9026    1.0000 </r>
       <r>   -8.7981    1.0000 </r>
       <r>   -8.7171    1.0000 </r>
       <r>   -8.5910    1.0000 </r>
       <r>   -8.5055    1.0000 </r>
       <r>   -8.4283    1.0000 </r>
       <r>   -8.3365    1.0000 </r>
       <r>   -8.2632    1.0000 </r>
       <r>   -8.2244    1.0000 </r>
       <r>   -8.0989    1.0000 </r>
       <r>   -8.0719    1.0000 </r>
       <r>   -7.9642    1.0000 </r>
       <r>   -7.8915    1.0000 </r>
       <r>   -7.7665    1.0000 </r>
       <r>   -7.6225    1.0000 </r>
       <r>   -7.5066    1.0000 </r>
       <r>   -7.4370    1.0000 </r>
       <r>   -7.3467    1.0000 </r>
       <r>   -7.1758    1.0000 </r>
       <r>   -7.1413    1.0000 </r>
       <r>   -7.0416    1.0000 </r>
       <r>   -6.9368    1.0000 </r>
       <r>   -6.8931    1.0000 </r>
       <r>   -6.8150    1.0000 </r>
       <r>   -6.7821    1.0000 </r>
       <r>   -6.7385    1.0000 </r>
       <r>   -6.6737    1.0000 </r>
       <r>   -6.5523    1.0000 </r>
       <r>   -6.4681    1.0000 </r>
       <r>   -6.4086    1.0000 </r>
       <r>   -6.3706    1.0000 </r>
       <r>   -6.2667    1.0000 </r>
       <r>   -6.1783    1.0000 </r>
       <r>   -6.0796    1.0000 </r>
       <r>   -6.0390    1.0000 </r>
       <r>   -5.9400    1.0000 </r>
       <r>   -5.8613    1.0000 </r>
       <r>   -5.8544    1.0000 </r>
       <r>   -5.8195    1.0000 </r>
       <r>   -5.7212    1.0000 </r>
       <r>   -5.6953    1.0000 </r>
       <r>   -5.6307    1.0000 </r>
       <r>   -5.4730    1.0000 </r>
       <r>   -5.2501    1.0000 </r>
       <r>   -5.1612    1.0000 </r>
       <r>   -5.0141    1.0000 </r>
       <r>   -4.9119    1.0000 </r>
       <r>   -4.8481    1.0000 </r>
       <r>   -4.7196    1.0000 </r>
       <r>   -4.5744    1.0000 </r>
       <r>   -4.4587    1.0000 </r>
       <r>   -4.3410    1.0000 </r>
       <r>   -4.1556    1.0000 </r>
       <r>   -4.0505    1.0000 </r>
       <r>   -3.7712    1.0000 </r>
       <r>   -3.6967    1.0000 </r>
       <r>   -3.5119    0.9973 </r>
       <r>   -3.2841    0.8786 </r>
       <r>   -3.0518    0.3174 </r>
       <r>   -2.9815    0.1656 </r>
       <r>   -2.7676    0.0065 </r>
       <r>   -2.6983    0.0015 </r>
       <r>   -2.6435    0.0004 </r>
       <r>   -2.5550    0.0000 </r>
       <r>   -2.4761    0.0000 </r>
       <r>   -2.4403    0.0000 </r>
       <r>   -2.2404    0.0000 </r>
       <r>   -2.1371    0.0000 </r>
       <r>   -2.0638    0.0000 </r>
       <r>   -1.8584    0.0000 </r>
       <r>   -1.5617    0.0000 </r>
       <r>   -1.4684    0.0000 </r>
       <r>   -1.3359    0.0000 </r>
       <r>   -1.2585    0.0000 </r>
       <r>   -1.1150    0.0000 </r>
       <r>   -1.0515    0.0000 </r>
       <r>   -0.9208    0.0000 </r>
       <r>   -0.8841    0.0000 </r>
       <r>   -0.8268    0.0000 </r>
       <r>   -0.8019    0.0000 </r>
       <r>   -0.6638    0.0000 </r>
       <r>   -0.5854    0.0000 </r>
       <r>   -0.5606    0.0000 </r>
       <r>   -0.4464    0.0000 </r>
       <r>   -0.3865    0.0000 </r>
       <r>   -0.2243    0.0000 </r>
       <r>   -0.1484    0.0000 </r>
       <r>    0.0984    0.0000 </r>
       <r>    0.2811    0.0000 </r>
       <r>    0.4164    0.0000 </r>
       <r>    0.6334    0.0000 </r>
       <r>    0.8724    0.0000 </r>
       <r>    1.0127    0.0000 </r>
       <r>    1.1982    0.0000 </r>
       <r>    1.2870    0.0000 </r>
       <r>    1.4048    0.0000 </r>
       <r>    2.1547    0.0000 </r>
       <r>    2.2923    0.0000 </r>
       <r>    2.4116    0.0000 </r>
      </set>
      <set comment="kpoint 32">
       <r>  -17.5275    1.0000 </r>
       <r>  -17.1394    1.0000 </r>
       <r>  -17.0501    1.0000 </r>
       <r>  -16.5279    1.0000 </r>
       <r>  -16.3984    1.0000 </r>
       <r>  -16.3104    1.0000 </r>
       <r>  -16.2595    1.0000 </r>
       <r>  -16.1879    1.0000 </r>
       <r>  -16.1672    1.0000 </r>
       <r>  -16.0108    1.0000 </r>
       <r>  -15.9650    1.0000 </r>
       <r>  -15.9157    1.0000 </r>
       <r>  -15.7457    1.0000 </r>
       <r>  -15.6996    1.0000 </r>
       <r>  -15.6523    1.0000 </r>
       <r>  -15.5301    1.0000 </r>
       <r>  -15.4883    1.0000 </r>
       <r>  -15.3874    1.0000 </r>
       <r>   -9.6440    1.0000 </r>
       <r>   -9.6123    1.0000 </r>
       <r>   -9.3437    1.0000 </r>
       <r>   -8.9063    1.0000 </r>
       <r>   -8.7203    1.0000 </r>
       <r>   -8.6158    1.0000 </r>
       <r>   -8.5234    1.0000 </r>
       <r>   -8.4323    1.0000 </r>
       <r>   -8.3936    1.0000 </r>
       <r>   -8.3448    1.0000 </r>
       <r>   -8.3091    1.0000 </r>
       <r>   -8.2426    1.0000 </r>
       <r>   -8.1849    1.0000 </r>
       <r>   -8.1163    1.0000 </r>
       <r>   -8.0638    1.0000 </r>
       <r>   -7.8998    1.0000 </r>
       <r>   -7.7972    1.0000 </r>
       <r>   -7.6188    1.0000 </r>
       <r>   -7.4779    1.0000 </r>
       <r>   -7.3629    1.0000 </r>
       <r>   -7.3144    1.0000 </r>
       <r>   -7.2411    1.0000 </r>
       <r>   -7.1561    1.0000 </r>
       <r>   -7.0579    1.0000 </r>
       <r>   -6.9935    1.0000 </r>
       <r>   -6.8724    1.0000 </r>
       <r>   -6.8138    1.0000 </r>
       <r>   -6.7556    1.0000 </r>
       <r>   -6.7006    1.0000 </r>
       <r>   -6.6558    1.0000 </r>
       <r>   -6.5598    1.0000 </r>
       <r>   -6.4884    1.0000 </r>
       <r>   -6.4205    1.0000 </r>
       <r>   -6.3495    1.0000 </r>
       <r>   -6.2660    1.0000 </r>
       <r>   -6.1906    1.0000 </r>
       <r>   -6.1067    1.0000 </r>
       <r>   -6.0222    1.0000 </r>
       <r>   -5.9255    1.0000 </r>
       <r>   -5.8916    1.0000 </r>
       <r>   -5.8427    1.0000 </r>
       <r>   -5.7286    1.0000 </r>
       <r>   -5.6685    1.0000 </r>
       <r>   -5.5755    1.0000 </r>
       <r>   -5.5226    1.0000 </r>
       <r>   -5.4164    1.0000 </r>
       <r>   -5.3777    1.0000 </r>
       <r>   -5.2580    1.0000 </r>
       <r>   -5.0467    1.0000 </r>
       <r>   -5.0061    1.0000 </r>
       <r>   -4.9292    1.0000 </r>
       <r>   -4.7703    1.0000 </r>
       <r>   -4.5178    1.0000 </r>
       <r>   -4.4521    1.0000 </r>
       <r>   -4.3369    1.0000 </r>
       <r>   -4.2066    1.0000 </r>
       <r>   -4.0283    1.0000 </r>
       <r>   -3.8003    1.0000 </r>
       <r>   -3.6313    0.9999 </r>
       <r>   -3.4983    0.9963 </r>
       <r>   -3.1831    0.6751 </r>
       <r>   -3.0735    0.3739 </r>
       <r>   -2.9382    0.1006 </r>
       <r>   -2.8029    0.0127 </r>
       <r>   -2.7101    0.0019 </r>
       <r>   -2.6690    0.0007 </r>
       <r>   -2.5834    0.0001 </r>
       <r>   -2.4588    0.0000 </r>
       <r>   -2.4005    0.0000 </r>
       <r>   -2.2994    0.0000 </r>
       <r>   -2.1602    0.0000 </r>
       <r>   -2.0850    0.0000 </r>
       <r>   -1.8562    0.0000 </r>
       <r>   -1.5236    0.0000 </r>
       <r>   -1.4473    0.0000 </r>
       <r>   -1.3459    0.0000 </r>
       <r>   -1.2797    0.0000 </r>
       <r>   -1.1402    0.0000 </r>
       <r>   -1.0655    0.0000 </r>
       <r>   -0.9477    0.0000 </r>
       <r>   -0.9070    0.0000 </r>
       <r>   -0.8378    0.0000 </r>
       <r>   -0.7685    0.0000 </r>
       <r>   -0.6732    0.0000 </r>
       <r>   -0.5994    0.0000 </r>
       <r>   -0.5187    0.0000 </r>
       <r>   -0.4911    0.0000 </r>
       <r>   -0.3005    0.0000 </r>
       <r>   -0.1291    0.0000 </r>
       <r>   -0.0959    0.0000 </r>
       <r>    0.0719    0.0000 </r>
       <r>    0.2371    0.0000 </r>
       <r>    0.3412    0.0000 </r>
       <r>    0.6441    0.0000 </r>
       <r>    0.8392    0.0000 </r>
       <r>    1.0816    0.0000 </r>
       <r>    1.1680    0.0000 </r>
       <r>    1.2731    0.0000 </r>
       <r>    1.3747    0.0000 </r>
       <r>    2.1243    0.0000 </r>
       <r>    2.2619    0.0000 </r>
       <r>    2.5862    0.0000 </r>
      </set>
      <set comment="kpoint 33">
       <r>  -17.5208    1.0000 </r>
       <r>  -17.2214    1.0000 </r>
       <r>  -16.9175    1.0000 </r>
       <r>  -16.5336    1.0000 </r>
       <r>  -16.4744    1.0000 </r>
       <r>  -16.3860    1.0000 </r>
       <r>  -16.2719    1.0000 </r>
       <r>  -16.1882    1.0000 </r>
       <r>  -16.0819    1.0000 </r>
       <r>  -15.9954    1.0000 </r>
       <r>  -15.9483    1.0000 </r>
       <r>  -15.8865    1.0000 </r>
       <r>  -15.7528    1.0000 </r>
       <r>  -15.7066    1.0000 </r>
       <r>  -15.6490    1.0000 </r>
       <r>  -15.5580    1.0000 </r>
       <r>  -15.4763    1.0000 </r>
       <r>  -15.3940    1.0000 </r>
       <r>   -9.7358    1.0000 </r>
       <r>   -9.4620    1.0000 </r>
       <r>   -9.2840    1.0000 </r>
       <r>   -8.9561    1.0000 </r>
       <r>   -8.8387    1.0000 </r>
       <r>   -8.7737    1.0000 </r>
       <r>   -8.5408    1.0000 </r>
       <r>   -8.4731    1.0000 </r>
       <r>   -8.3860    1.0000 </r>
       <r>   -8.3092    1.0000 </r>
       <r>   -8.2512    1.0000 </r>
       <r>   -8.2028    1.0000 </r>
       <r>   -8.1259    1.0000 </r>
       <r>   -8.0775    1.0000 </r>
       <r>   -7.9764    1.0000 </r>
       <r>   -7.8886    1.0000 </r>
       <r>   -7.7521    1.0000 </r>
       <r>   -7.6575    1.0000 </r>
       <r>   -7.5824    1.0000 </r>
       <r>   -7.3976    1.0000 </r>
       <r>   -7.3154    1.0000 </r>
       <r>   -7.1972    1.0000 </r>
       <r>   -7.1441    1.0000 </r>
       <r>   -7.0506    1.0000 </r>
       <r>   -6.9698    1.0000 </r>
       <r>   -6.8943    1.0000 </r>
       <r>   -6.7973    1.0000 </r>
       <r>   -6.7224    1.0000 </r>
       <r>   -6.6933    1.0000 </r>
       <r>   -6.6199    1.0000 </r>
       <r>   -6.5609    1.0000 </r>
       <r>   -6.5045    1.0000 </r>
       <r>   -6.4160    1.0000 </r>
       <r>   -6.3352    1.0000 </r>
       <r>   -6.2616    1.0000 </r>
       <r>   -6.1691    1.0000 </r>
       <r>   -6.1109    1.0000 </r>
       <r>   -6.0212    1.0000 </r>
       <r>   -5.9293    1.0000 </r>
       <r>   -5.8946    1.0000 </r>
       <r>   -5.8205    1.0000 </r>
       <r>   -5.7856    1.0000 </r>
       <r>   -5.7172    1.0000 </r>
       <r>   -5.6780    1.0000 </r>
       <r>   -5.5800    1.0000 </r>
       <r>   -5.4929    1.0000 </r>
       <r>   -5.3238    1.0000 </r>
       <r>   -5.1624    1.0000 </r>
       <r>   -5.1223    1.0000 </r>
       <r>   -4.9437    1.0000 </r>
       <r>   -4.8179    1.0000 </r>
       <r>   -4.7243    1.0000 </r>
       <r>   -4.5465    1.0000 </r>
       <r>   -4.4710    1.0000 </r>
       <r>   -4.3969    1.0000 </r>
       <r>   -4.1589    1.0000 </r>
       <r>   -4.0275    1.0000 </r>
       <r>   -3.8285    1.0000 </r>
       <r>   -3.6430    0.9999 </r>
       <r>   -3.4654    0.9929 </r>
       <r>   -3.1663    0.6311 </r>
       <r>   -3.0636    0.3478 </r>
       <r>   -2.9071    0.0671 </r>
       <r>   -2.8633    0.0353 </r>
       <r>   -2.7671    0.0064 </r>
       <r>   -2.6593    0.0006 </r>
       <r>   -2.5698    0.0001 </r>
       <r>   -2.4566    0.0000 </r>
       <r>   -2.3525    0.0000 </r>
       <r>   -2.3264    0.0000 </r>
       <r>   -2.1911    0.0000 </r>
       <r>   -2.0753    0.0000 </r>
       <r>   -1.8577    0.0000 </r>
       <r>   -1.4841    0.0000 </r>
       <r>   -1.4222    0.0000 </r>
       <r>   -1.3471    0.0000 </r>
       <r>   -1.3031    0.0000 </r>
       <r>   -1.1574    0.0000 </r>
       <r>   -1.0957    0.0000 </r>
       <r>   -0.9815    0.0000 </r>
       <r>   -0.8940    0.0000 </r>
       <r>   -0.8180    0.0000 </r>
       <r>   -0.7726    0.0000 </r>
       <r>   -0.6895    0.0000 </r>
       <r>   -0.6326    0.0000 </r>
       <r>   -0.5913    0.0000 </r>
       <r>   -0.3817    0.0000 </r>
       <r>   -0.2697    0.0000 </r>
       <r>   -0.1849    0.0000 </r>
       <r>   -0.0818    0.0000 </r>
       <r>    0.0711    0.0000 </r>
       <r>    0.2249    0.0000 </r>
       <r>    0.3990    0.0000 </r>
       <r>    0.6417    0.0000 </r>
       <r>    0.8360    0.0000 </r>
       <r>    1.0582    0.0000 </r>
       <r>    1.1660    0.0000 </r>
       <r>    1.3244    0.0000 </r>
       <r>    1.3778    0.0000 </r>
       <r>    2.1571    0.0000 </r>
       <r>    2.2951    0.0000 </r>
       <r>    2.4162    0.0000 </r>
      </set>
      <set comment="kpoint 34">
       <r>  -17.5087    1.0000 </r>
       <r>  -17.2750    1.0000 </r>
       <r>  -16.7395    1.0000 </r>
       <r>  -16.6736    1.0000 </r>
       <r>  -16.5185    1.0000 </r>
       <r>  -16.3958    1.0000 </r>
       <r>  -16.2599    1.0000 </r>
       <r>  -16.1930    1.0000 </r>
       <r>  -16.0562    1.0000 </r>
       <r>  -16.0000    1.0000 </r>
       <r>  -15.9459    1.0000 </r>
       <r>  -15.8152    1.0000 </r>
       <r>  -15.7425    1.0000 </r>
       <r>  -15.7228    1.0000 </r>
       <r>  -15.6660    1.0000 </r>
       <r>  -15.5769    1.0000 </r>
       <r>  -15.4726    1.0000 </r>
       <r>  -15.4003    1.0000 </r>
       <r>   -9.7760    1.0000 </r>
       <r>   -9.3397    1.0000 </r>
       <r>   -9.1429    1.0000 </r>
       <r>   -9.0646    1.0000 </r>
       <r>   -9.0057    1.0000 </r>
       <r>   -8.8497    1.0000 </r>
       <r>   -8.5398    1.0000 </r>
       <r>   -8.4930    1.0000 </r>
       <r>   -8.3911    1.0000 </r>
       <r>   -8.3066    1.0000 </r>
       <r>   -8.2421    1.0000 </r>
       <r>   -8.1931    1.0000 </r>
       <r>   -8.1234    1.0000 </r>
       <r>   -7.9428    1.0000 </r>
       <r>   -7.9091    1.0000 </r>
       <r>   -7.8406    1.0000 </r>
       <r>   -7.8138    1.0000 </r>
       <r>   -7.6465    1.0000 </r>
       <r>   -7.5827    1.0000 </r>
       <r>   -7.4426    1.0000 </r>
       <r>   -7.3612    1.0000 </r>
       <r>   -7.2283    1.0000 </r>
       <r>   -7.1370    1.0000 </r>
       <r>   -7.0020    1.0000 </r>
       <r>   -6.9652    1.0000 </r>
       <r>   -6.8490    1.0000 </r>
       <r>   -6.7952    1.0000 </r>
       <r>   -6.7349    1.0000 </r>
       <r>   -6.6851    1.0000 </r>
       <r>   -6.6014    1.0000 </r>
       <r>   -6.5472    1.0000 </r>
       <r>   -6.4816    1.0000 </r>
       <r>   -6.3983    1.0000 </r>
       <r>   -6.3170    1.0000 </r>
       <r>   -6.2662    1.0000 </r>
       <r>   -6.1956    1.0000 </r>
       <r>   -6.1635    1.0000 </r>
       <r>   -6.0771    1.0000 </r>
       <r>   -5.8866    1.0000 </r>
       <r>   -5.8764    1.0000 </r>
       <r>   -5.8473    1.0000 </r>
       <r>   -5.8002    1.0000 </r>
       <r>   -5.7670    1.0000 </r>
       <r>   -5.6566    1.0000 </r>
       <r>   -5.5897    1.0000 </r>
       <r>   -5.5453    1.0000 </r>
       <r>   -5.4983    1.0000 </r>
       <r>   -5.0957    1.0000 </r>
       <r>   -4.9430    1.0000 </r>
       <r>   -4.9042    1.0000 </r>
       <r>   -4.8008    1.0000 </r>
       <r>   -4.7138    1.0000 </r>
       <r>   -4.5765    1.0000 </r>
       <r>   -4.4904    1.0000 </r>
       <r>   -4.3896    1.0000 </r>
       <r>   -4.1421    1.0000 </r>
       <r>   -4.0293    1.0000 </r>
       <r>   -3.8365    1.0000 </r>
       <r>   -3.6980    1.0000 </r>
       <r>   -3.4083    0.9796 </r>
       <r>   -3.2106    0.7415 </r>
       <r>   -3.0397    0.2876 </r>
       <r>   -2.9080    0.0679 </r>
       <r>   -2.8903    0.0529 </r>
       <r>   -2.7777    0.0079 </r>
       <r>   -2.6697    0.0007 </r>
       <r>   -2.5489    0.0000 </r>
       <r>   -2.4654    0.0000 </r>
       <r>   -2.3482    0.0000 </r>
       <r>   -2.3037    0.0000 </r>
       <r>   -2.2018    0.0000 </r>
       <r>   -2.0683    0.0000 </r>
       <r>   -1.8597    0.0000 </r>
       <r>   -1.4649    0.0000 </r>
       <r>   -1.4120    0.0000 </r>
       <r>   -1.3405    0.0000 </r>
       <r>   -1.3194    0.0000 </r>
       <r>   -1.1591    0.0000 </r>
       <r>   -1.1186    0.0000 </r>
       <r>   -0.9850    0.0000 </r>
       <r>   -0.8913    0.0000 </r>
       <r>   -0.8127    0.0000 </r>
       <r>   -0.7642    0.0000 </r>
       <r>   -0.7192    0.0000 </r>
       <r>   -0.6323    0.0000 </r>
       <r>   -0.6031    0.0000 </r>
       <r>   -0.3330    0.0000 </r>
       <r>   -0.2973    0.0000 </r>
       <r>   -0.2532    0.0000 </r>
       <r>   -0.0633    0.0000 </r>
       <r>    0.0626    0.0000 </r>
       <r>    0.2370    0.0000 </r>
       <r>    0.4853    0.0000 </r>
       <r>    0.6018    0.0000 </r>
       <r>    0.8446    0.0000 </r>
       <r>    1.0417    0.0000 </r>
       <r>    1.1626    0.0000 </r>
       <r>    1.3598    0.0000 </r>
       <r>    1.3901    0.0000 </r>
       <r>    2.2380    0.0000 </r>
       <r>    2.2701    0.0000 </r>
       <r>    2.3823    0.0000 </r>
      </set>
     </set>
    </set>
   </array>
  </eigenvalues>
  <separator name="orbital magnetization" >
   <v name="MAGDIPOLOUT">      0.00000000      0.00000000      0.00000000</v>
  </separator>
 </calculation>
 <structure name="finalpos" >
  <crystal>
   <varray name="basis" >
    <v>       8.31069488       4.84509965       0.00000000 </v>
    <v>      -8.28596430       4.80202377       0.00000000 </v>
    <v>       0.00000000       0.00000000      30.00000000 </v>
   </varray>
   <i name="volume">   2401.63431354 </i>
   <varray name="rec_basis" >
    <v>       0.05998445       0.10350407       0.00000000 </v>
    <v>      -0.06052253       0.10381299       0.00000000 </v>
    <v>       0.00000000       0.00000000       0.03333333 </v>
   </varray>
  </crystal>
  <varray name="positions" >
   <v>       0.34672498       0.67016090       0.00007797 </v>
   <v>      -0.00506461       0.00720784      -0.00073653 </v>
   <v>       0.97438190       0.31961969       0.00063726 </v>
   <v>       0.66369970       0.01764355      -0.00014774 </v>
   <v>       0.64716203       0.31803320       0.00031189 </v>
   <v>       0.36181237       0.34136024      -0.00045916 </v>
   <v>       0.01221415       0.67189227       0.00009229 </v>
   <v>       0.35528056       0.01933535      -0.00041672 </v>
   <v>       0.64543865       0.63848952       0.00048786 </v>
   <v>       0.10973345       0.22476727       0.95296342 </v>
   <v>       0.22082758       0.11089990       0.04994492 </v>
   <v>       0.11299177       0.54972097       0.95134538 </v>
   <v>       0.21751016       0.44110939       0.04507371 </v>
   <v>       0.11197725       0.89508979       0.95092195 </v>
   <v>       0.23065639       0.77944165       0.04966875 </v>
   <v>       0.44533361       0.22130161       0.94311347 </v>
   <v>       0.55432788       0.11131731       0.05638848 </v>
   <v>       0.44171165       0.55699472       0.94625118 </v>
   <v>       0.55922778       0.44178986       0.05691526 </v>
   <v>       0.44101706       0.88506508       0.94775661 </v>
   <v>       0.55325319       0.77594333       0.05025658 </v>
   <v>       0.77884148       0.22603628       0.94638784 </v>
   <v>       0.88982046       0.11287646       0.05123581 </v>
   <v>       0.77758849       0.55368086       0.94933768 </v>
   <v>       0.88858155       0.44177035       0.05068210 </v>
   <v>       0.77485163       0.88496058       0.95275701 </v>
   <v>       0.88831333       0.78170651       0.04915265 </v>
  </varray>
 </structure>
</modeling>
