unknown system                          
           1
     8.856332    5.108308    0.000000
    -8.853481    5.103403    0.000000
     0.000000    0.000000   30.000000
   V    Mo   W    S 
   3   3   3  18
Direct configuration=     1
   0.33333334  0.66666669  0.00000000
   0.00000000  0.00000000  0.00000000
   1.00000000  0.33333334  0.00000000
   0.66666669  0.00000000  0.00000000
   0.66666669  0.33333334  0.00000000
   0.33333334  0.33333334  0.00000000
   0.00000000  0.66666669  0.00000000
   0.33333334  0.00000000  0.00000000
   0.66666669  0.66666669  0.00000000
   0.11068511  0.22244981  0.95539999
   0.22244981  0.11068511  0.04460000
   0.11068511  0.55578315  0.95539999
   0.22244981  0.44401845  0.04460000
   0.11068511  0.88911647  0.95539999
   0.22244981  0.77735180  0.04460000
   0.44401845  0.22244981  0.95539999
   0.55578315  0.11068511  0.04460000
   0.44401845  0.55578315  0.95539999
   0.55578315  0.44401845  0.04460000
   0.44401845  0.88911647  0.95539999
   0.55578315  0.77735180  0.04460000
   0.77735180  0.22244981  0.95539999
   0.88911647  0.11068511  0.04460000
   0.77735180  0.55578315  0.95539999
   0.88911647  0.44401845  0.04460000
   0.77735180  0.88911647  0.95539999
   0.88911647  0.77735180  0.04460000
unknown system                          
           1
     8.668429    5.002013    0.000000
    -8.665836    4.997552    0.000000
     0.000000    0.000000   30.000000
   V    Mo   W    S 
   3   3   3  18
Direct configuration=     2
   0.33408114  0.66615920 -0.00010471
  -0.00007229  0.00152032  0.00012927
   0.99931659  0.33218836  0.00002280
   0.66682582  0.00160335 -0.00004001
   0.66531240  0.33187813 -0.00003917
   0.33432225  0.33339054  0.00008173
  -0.00125127  0.66490985 -0.00004808
   0.33626440  0.00288776 -0.00020708
   0.66509033  0.66540696  0.00017546
   0.10660312  0.22015430  0.95311656
   0.21787077  0.10829587  0.04807372
   0.11284242  0.55383732  0.95301512
   0.21997742  0.44649306  0.04691065
   0.10910619  0.89077031  0.95207044
   0.22405692  0.77566618  0.04792079
   0.44384162  0.22104984  0.95067758
   0.55462779  0.11061817  0.04931976
   0.44276923  0.55839813  0.95194488
   0.55608381  0.44544676  0.04925641
   0.44151998  0.88462105  0.95190516
   0.55153002  0.77502848  0.04804904
   0.78211643  0.22431092  0.95194005
   0.89329375  0.11293646  0.04693318
   0.77815961  0.55614549  0.95075058
   0.89164900  0.44292437  0.04799827
   0.78169233  0.89008124  0.95201157
   0.89058467  0.78149203  0.04813591
unknown system                          
           1
     8.486717    4.900993    0.000000
    -8.484998    4.898045    0.000000
     0.000000    0.000000   30.000000
   V    Mo   W    S 
   3   3   3  18
Direct configuration=     3
   0.33436409  0.66606978 -0.00006369
  -0.00013352  0.00181870  0.00010057
   0.99907514  0.33189788  0.00002422
   0.66657029  0.00209780 -0.00008855
   0.66454028  0.33131696 -0.00004526
   0.33512418  0.33340071  0.00012770
  -0.00190332  0.66439583 -0.00004069
   0.33749494  0.00407554 -0.00022596
   0.66475662  0.66486008  0.00019784
   0.10654237  0.22012466  0.95316597
   0.21788798  0.10808603  0.04805492
   0.11274006  0.55391495  0.95308618
   0.21993457  0.44651018  0.04681930
   0.10920037  0.89068111  0.95220101
   0.22395624  0.77575613  0.04776717
   0.44372769  0.22081449  0.95052006
   0.55439730  0.11050886  0.04944823
   0.44293908  0.55855113  0.95190174
   0.55624534  0.44568794  0.04935673
   0.44130925  0.88463954  0.95190249
   0.55154259  0.77484419  0.04801835
   0.78228648  0.22440303  0.95189930
   0.89338031  0.11303397  0.04695060
   0.77823265  0.55635362  0.95075016
   0.89180294  0.44311239  0.04799043
   0.78167752  0.88991433  0.95210633
   0.89052303  0.78134463  0.04807475
unknown system                          
           1
     8.279091    4.786102    0.000000
    -8.272973    4.775533    0.000000
     0.000000    0.000000   30.000000
   V    Mo   W    S 
   3   3   3  18
Direct configuration=     4
   0.33567327  0.66594536  0.00012650
  -0.00048850  0.00234967 -0.00006648
   0.99806349  0.33101038  0.00001878
   0.66508087  0.00375633 -0.00024271
   0.66107021  0.32919288 -0.00004805
   0.33891557  0.33346383  0.00024091
  -0.00466572  0.66274004  0.00001198
   0.34227510  0.00869064 -0.00019057
   0.66383975  0.66258324  0.00018029
   0.10581523  0.21981159  0.95207655
   0.21691360  0.10731501  0.04943318
   0.11317199  0.55332399  0.95198948
   0.21939856  0.44685030  0.04776022
   0.10899613  0.89113265  0.95128624
   0.22435249  0.77561189  0.04857415
   0.44375238  0.22091727  0.94821479
   0.55437847  0.11053257  0.05159670
   0.44239432  0.55897699  0.95027404
   0.55650444  0.44573847  0.05139563
   0.44052385  0.88355601  0.95040602
   0.55056309  0.77437976  0.04934161
   0.78372888  0.22526163  0.95030248
   0.89433577  0.11376000  0.04835007
   0.77794212  0.55625901  0.94910766
   0.89214592  0.44242186  0.04942809
   0.78259110  0.89032053  0.95107547
   0.89094206  0.78231258  0.04935686
unknown system                          
           1
     8.286632    4.796504    0.000000
    -8.273584    4.773933    0.000000
     0.000000    0.000000   30.000000
   V    Mo   W    S 
   3   3   3  18
Direct configuration=     5
   0.33845026  0.66558978  0.00047487
  -0.00154050  0.00258991 -0.00040959
   0.99635041  0.32977924 -0.00000936
   0.66201941  0.00709113 -0.00042471
   0.65420604  0.32555657 -0.00003300
   0.34660977  0.33379351  0.00028362
  -0.01081317  0.65917781  0.00015159
   0.35159535  0.01771090 -0.00004452
   0.66242002  0.65772692  0.00004211
   0.10617518  0.22020318  0.95068199
   0.21671634  0.10717037  0.05122991
   0.11343639  0.55236124  0.95054418
   0.21926645  0.44647875  0.04900598
   0.10961317  0.89184470  0.95041741
   0.22486377  0.77626415  0.04914273
   0.44419063  0.22153430  0.94471871
   0.55503008  0.11115629  0.05473990
   0.44171260  0.55875326  0.94810929
   0.55686094  0.44534881  0.05444265
   0.43984757  0.88288314  0.94829664
   0.55010271  0.77450820  0.05096752
   0.78473078  0.22622594  0.94811837
   0.89464694  0.11449371  0.05033456
   0.77676501  0.55498062  0.94681405
   0.89145060  0.44085265  0.05129723
   0.78264419  0.89069265  0.94993714
   0.89086353  0.78344670  0.05117061
unknown system                          
           1
     8.285571    4.795572    0.000000
    -8.271966    4.772040    0.000000
     0.000000    0.000000   30.000000
   V    Mo   W    S 
   3   3   3  18
Direct configuration=     6
   0.33978202  0.66527337  0.00050028
  -0.00214321  0.00245252 -0.00043090
   0.99595768  0.32954467 -0.00004357
   0.66157693  0.00827471 -0.00038314
   0.65440473  0.32613659  0.00001976
   0.34789449  0.33438757  0.00019653
  -0.01374894  0.65743695  0.00024307
   0.35290658  0.01896647 -0.00012233
   0.66228277  0.65585378  0.00012013
   0.10717068  0.22078322  0.95082524
   0.21773858  0.10771815  0.05116497
   0.11318834  0.55238418  0.95068470
   0.21987286  0.44575645  0.04891145
   0.11064060  0.89192927  0.95082025
   0.22478298  0.77723942  0.04859822
   0.44439155  0.22177788  0.94432105
   0.55559797  0.11176646  0.05513449
   0.44189075  0.55834731  0.94797489
   0.55708497  0.44516740  0.05477277
   0.43980500  0.88349819  0.94824181
   0.55092535  0.77491585  0.05082656
   0.78391346  0.22623811  0.94805519
   0.89409855  0.11433037  0.05033166
   0.77601695  0.55406431  0.94649593
   0.89053526  0.44036040  0.05135541
   0.78138882  0.89035569  0.95014931
   0.89025872  0.78325516  0.05123620
unknown system                          
           1
     8.282088    4.792757    0.000000
    -8.269871    4.771629    0.000000
     0.000000    0.000000   30.000000
   V    Mo   W    S 
   3   3   3  18
Direct configuration=     7
   0.34068624  0.66500151  0.00052956
  -0.00241816  0.00247900 -0.00047244
   0.99571674  0.32935370 -0.00008534
   0.66120256  0.00915934 -0.00037591
   0.65437060  0.32635372  0.00001971
   0.34877316  0.33479478  0.00017374
  -0.01571694  0.65628735  0.00027516
   0.35418361  0.02012742 -0.00011008
   0.66215703  0.65456017  0.00013065
   0.10752690  0.22098883  0.95090127
   0.21807721  0.10791426  0.05112794
   0.11307678  0.55242839  0.95078451
   0.22008208  0.44550827  0.04885871
   0.11096654  0.89187925  0.95103830
   0.22460173  0.77749464  0.04827293
   0.44456107  0.22193540  0.94413883
   0.55572704  0.11201597  0.05530970
   0.44203268  0.55828764  0.94785966
   0.55712473  0.44506660  0.05497363
   0.43981015  0.88368535  0.94820203
   0.55129184  0.77507712  0.05076121
   0.78366974  0.22628579  0.94799825
   0.89392106  0.11429636  0.05035303
   0.77570995  0.55374653  0.94627565
   0.89024413  0.44013642  0.05146121
   0.78085238  0.89017871  0.95029245
   0.88998361  0.78317194  0.05130554
unknown system                          
           1
     8.278152    4.788445    0.000000
    -8.268238    4.771305    0.000000
     0.000000    0.000000   30.000000
   V    Mo   W    S 
   3   3   3  18
Direct configuration=     8
   0.33987096  0.66527092  0.00050205
  -0.00223614  0.00238636 -0.00043291
   0.99593521  0.32955217 -0.00005895
   0.66142815  0.00839265 -0.00037342
   0.65416622  0.32611492  0.00000894
   0.34825472  0.33443706  0.00019134
  -0.01409415  0.65721755  0.00022583
   0.35331651  0.01935505 -0.00009778
   0.66222975  0.65556616  0.00011694
   0.10731283  0.22086120  0.95083481
   0.21786936  0.10779442  0.05117106
   0.11317444  0.55236538  0.95068262
   0.21995649  0.44566290  0.04890899
   0.11076777  0.89196154  0.95084355
   0.22479749  0.77737382  0.04856316
   0.44444719  0.22180810  0.94425238
   0.55558930  0.11179027  0.05517334
   0.44191408  0.55830974  0.94795708
   0.55709813  0.44513940  0.05483240
   0.43979775  0.88353739  0.94820734
   0.55094942  0.77492529  0.05083233
   0.78381486  0.22625346  0.94804181
   0.89403289  0.11430689  0.05035403
   0.77596067  0.55396035  0.94647258
   0.89037906  0.44027399  0.05137806
   0.78128619  0.89032875  0.95014558
   0.89019527  0.78326872  0.05126675
unknown system                          
           1
     8.268970    4.785640    0.000000
    -8.256726    4.764459    0.000000
     0.000000    0.000000   30.000000
   V    Mo   W    S 
   3   3   3  18
Direct configuration=     9
   0.33705622  0.66630601  0.00042452
  -0.00225319  0.00141501 -0.00029701
   0.99689975  0.33073742  0.00002460
   0.66165579  0.00580085 -0.00035405
   0.65297904  0.32578637 -0.00000390
   0.34793113  0.33359582  0.00019017
  -0.00945212  0.65963270  0.00009333
   0.35120034  0.01751333 -0.00008804
   0.66241435  0.65812399  0.00010451
   0.10716157  0.22075513  0.95067267
   0.21769183  0.10772775  0.05139480
   0.11350244  0.55208504  0.95027138
   0.21987541  0.44581172  0.04903786
   0.11064225  0.89231448  0.95026552
   0.22548878  0.77752731  0.04942399
   0.44426220  0.22143918  0.94431632
   0.55540027  0.11143031  0.05497400
   0.44156557  0.55829796  0.94821486
   0.55726301  0.44535640  0.05463557
   0.43957607  0.88307182  0.94808047
   0.54979400  0.77424235  0.05108088
   0.78384739  0.22628837  0.94815791
   0.89423060  0.11427762  0.05043843
   0.77639615  0.55410074  0.94696183
   0.89013146  0.44040078  0.05112853
   0.78226319  0.89057027  0.94961098
   0.89069096  0.78360573  0.05123978
unknown system                          
           1
     8.279970    4.792659    0.000000
    -8.266246    4.768919    0.000000
     0.000000    0.000000   30.000000
   V    Mo   W    S 
   3   3   3  18
Direct configuration=    10
   0.33664023  0.66689491  0.00045076
  -0.00350531  0.00077291 -0.00036399
   0.99690060  0.33075175 -0.00000993
   0.66141531  0.00562002 -0.00035508
   0.65190599  0.32537897  0.00002383
   0.34904823  0.33330659  0.00015263
  -0.00923421  0.65960280  0.00010587
   0.35215767  0.01826432 -0.00007784
   0.66259765  0.65798658  0.00008864
   0.10768585  0.22098019  0.95090459
   0.21835363  0.10814501  0.05131194
   0.11333698  0.55205298  0.95021381
   0.22029157  0.44538529  0.04889908
   0.11104752  0.89235342  0.95042838
   0.22535954  0.77803825  0.04935266
   0.44435958  0.22142543  0.94404056
   0.55566302  0.11163101  0.05502398
   0.44167510  0.55817309  0.94824267
   0.55747661  0.44551984  0.05488202
   0.43961004  0.88333906  0.94801427
   0.54980748  0.77422923  0.05104817
   0.78334389  0.22613356  0.94829969
   0.89398858  0.11413560  0.05036763
   0.77624028  0.55384301  0.94693833
   0.88962344  0.44027602  0.05109198
   0.78187081  0.89050398  0.94965878
   0.89055435  0.78347064  0.05126648
unknown system                          
           1
     8.284285    4.796100    0.000000
    -8.268994    4.769648    0.000000
     0.000000    0.000000   30.000000
   V    Mo   W    S 
   3   3   3  18
Direct configuration=    11
   0.33805217  0.66643898  0.00048482
  -0.00389536  0.00097152 -0.00041068
   0.99647674  0.33030521 -0.00004384
   0.66114665  0.00694965 -0.00034428
   0.65235457  0.32579850  0.00003727
   0.34981565  0.33394977  0.00014720
  -0.01198729  0.65804657  0.00016391
   0.35355316  0.01946184 -0.00011330
   0.66249907  0.65632715  0.00011893
   0.10793502  0.22112412  0.95098480
   0.21853971  0.10823060  0.05121961
   0.11319435  0.55217195  0.95039182
   0.22042892  0.44521950  0.04881513
   0.11126851  0.89222359  0.95074594
   0.22504280  0.77814311  0.04890561
   0.44453036  0.22162133  0.94389094
   0.55586937  0.11193030  0.05524811
   0.44185095  0.55817714  0.94808656
   0.55746827  0.44540241  0.05506530
   0.43966413  0.88354557  0.94800638
   0.55036431  0.77452182  0.05093556
   0.78322458  0.22620316  0.94819639
   0.89385267  0.11412296  0.05038115
   0.77592095  0.55359773  0.94662503
   0.88955739  0.44007899  0.05125147
   0.78122623  0.89029447  0.94987409
   0.89026059  0.78335651  0.05133596
unknown system                          
           1
     8.269758    4.784901    0.000000
    -8.259416    4.767013    0.000000
     0.000000    0.000000   30.000000
   V    Mo   W    S 
   3   3   3  18
Direct configuration=    12
   0.33873298  0.66641585  0.00051290
  -0.00488126  0.00069190 -0.00044262
   0.99627024  0.33010920 -0.00007168
   0.66088177  0.00772850 -0.00032716
   0.65226220  0.32607673  0.00005866
   0.35091699  0.33440294  0.00012766
  -0.01382357  0.65687087  0.00019334
   0.35486710  0.02047307 -0.00014692
   0.66256252  0.65515446  0.00014940
   0.10827911  0.22128804  0.95112202
   0.21886753  0.10839605  0.05110536
   0.11305489  0.55221411  0.95048144
   0.22064660  0.44498416  0.04869166
   0.11155409  0.89217489  0.95101956
   0.22482789  0.77842820  0.04860972
   0.44469197  0.22172489  0.94370692
   0.55609647  0.11220361  0.05542126
   0.44200325  0.55816458  0.94801833
   0.55756538  0.44540487  0.05525613
   0.43969551  0.88373076  0.94796358
   0.55066327  0.77464806  0.05084176
   0.78299825  0.22624409  0.94817503
   0.89371385  0.11407394  0.05038910
   0.77568351  0.55335677  0.94642108
   0.88935751  0.43990069  0.05134057
   0.78067464  0.89009277  0.94998690
   0.89005178  0.78326043  0.05139592
unknown system                          
           1
     8.270725    4.785411    0.000000
    -8.261000    4.768589    0.000000
     0.000000    0.000000   30.000000
   V    Mo   W    S 
   3   3   3  18
Direct configuration=    13
   0.33669839  0.66643896  0.00040949
  -0.00141441  0.00176344 -0.00035197
   0.99658377  0.33036849  0.00003545
   0.66159206  0.00545353 -0.00034865
   0.65208941  0.32503228 -0.00000169
   0.34787825  0.33273947  0.00022741
  -0.00847866  0.66048366  0.00007730
   0.35116885  0.01803564 -0.00006022
   0.66229103  0.65842465  0.00007176
   0.10735695  0.22087853  0.95067643
   0.21796645  0.10798658  0.05154897
   0.11345604  0.55204898  0.95017462
   0.22005068  0.44549021  0.04908506
   0.11081336  0.89240746  0.95013221
   0.22556525  0.77778355  0.04956116
   0.44420402  0.22136490  0.94414649
   0.55546404  0.11132744  0.05495621
   0.44151004  0.55808591  0.94817252
   0.55725532  0.44539234  0.05468855
   0.43954549  0.88326781  0.94806633
   0.54980270  0.77434103  0.05119446
   0.78356762  0.22609530  0.94822739
   0.89406411  0.11415351  0.05031955
   0.77640752  0.55402704  0.94706619
   0.88975548  0.44033116  0.05104233
   0.78238914  0.89081543  0.94967351
   0.89063155  0.78367716  0.05120906
unknown system                          
           1
     8.268639    4.785020    0.000000
    -8.256739    4.764437    0.000000
     0.000000    0.000000   30.000000
   V    Mo   W    S 
   3   3   3  18
Direct configuration=    14
   0.33620116  0.66649279  0.00040350
   0.00010463  0.00225793 -0.00036380
   0.99658357  0.33045660  0.00007112
   0.66147654  0.00460264 -0.00037227
   0.65171992  0.32446423 -0.00001575
   0.34713305  0.33201642  0.00021738
  -0.00656679  0.66179668  0.00007989
   0.34996172  0.01745420 -0.00003730
   0.66187162  0.65927633  0.00002615
   0.10730534  0.22090734  0.95055313
   0.21790351  0.10798648  0.05178818
   0.11354847  0.55200787  0.95009090
   0.21999934  0.44549355  0.04914537
   0.11080556  0.89254172  0.94985093
   0.22579351  0.77775758  0.04979095
   0.44407906  0.22129607  0.94412966
   0.55534777  0.11110375  0.05490281
   0.44131780  0.55794906  0.94822836
   0.55722355  0.44539788  0.05461780
   0.43944823  0.88321875  0.94810220
   0.54951301  0.77422799  0.05130592
   0.78355368  0.22599555  0.94823773
   0.89408524  0.11408421  0.05029266
   0.77654894  0.55409581  0.94724963
   0.88967442  0.44043268  0.05091595
   0.78280994  0.89103376  0.94963881
   0.89077168  0.78386660  0.05115002
unknown system                          
           1
     8.272727    4.787726    0.000000
    -8.260339    4.766297    0.000000
     0.000000    0.000000   30.000000
   V    Mo   W    S 
   3   3   3  18
Direct configuration=    15
   0.33714076  0.66639707  0.00044268
  -0.00001755  0.00238050 -0.00041737
   0.99612013  0.33013776  0.00005167
   0.66098272  0.00543061 -0.00035846
   0.65125913  0.32434734  0.00000310
   0.34838278  0.33211680  0.00018879
  -0.00804570  0.66100837  0.00014265
   0.35103476  0.01875902 -0.00006266
   0.66145422  0.65784860  0.00003821
   0.10782664  0.22119780  0.95072805
   0.21844040  0.10828771  0.05174732
   0.11334425  0.55210146  0.95024936
   0.22026305  0.44506810  0.04892577
   0.11125971  0.89255019  0.95012581
   0.22554581  0.77814677  0.04941330
   0.44425265  0.22140457  0.94388281
   0.55552374  0.11135038  0.05507639
   0.44141068  0.55780544  0.94817748
   0.55735082  0.44538748  0.05481138
   0.43939635  0.88350083  0.94810203
   0.54984250  0.77434323  0.05120436
   0.78315665  0.22595238  0.94825032
   0.89390067  0.11393572  0.05022589
   0.77629671  0.55382734  0.94713422
   0.88934530  0.44029137  0.05091544
   0.78222015  0.89080765  0.94988371
   0.89052711  0.78382997  0.05111764
unknown system                          
           1
     8.283314    4.794655    0.000000
    -8.269357    4.770513    0.000000
     0.000000    0.000000   30.000000
   V    Mo   W    S 
   3   3   3  18
Direct configuration=    16
   0.33747806  0.66636283  0.00045714
  -0.00062356  0.00219048 -0.00042703
   0.99611786  0.33012456  0.00003133
   0.66091050  0.00581504 -0.00035695
   0.65147050  0.32462804  0.00001043
   0.34873587  0.33248333  0.00017356
  -0.00903032  0.66032874  0.00015668
   0.35162926  0.01904168 -0.00007249
   0.66157422  0.65736658  0.00005345
   0.10790409  0.22122500  0.95077866
   0.21850555  0.10830585  0.05166666
   0.11330419  0.55212315  0.95029210
   0.22032455  0.44505746  0.04889276
   0.11131206  0.89249050  0.95025799
   0.22544237  0.77818835  0.04927168
   0.44432753  0.22146965  0.94384507
   0.55560480  0.11148490  0.05514286
   0.44149610  0.55785295  0.94814122
   0.55738079  0.44537385  0.05489354
   0.43943324  0.88353688  0.94808424
   0.54997965  0.77439778  0.05114933
   0.78312999  0.22600007  0.94822581
   0.89386575  0.11395479  0.05025548
   0.77618784  0.55374394  0.94700675
   0.88934270  0.44022287  0.05099050
   0.78197140  0.89069717  0.94991396
   0.89043949  0.78374803  0.05116517
unknown system                          
           1
     8.283111    4.794788    0.000000
    -8.268643    4.769761    0.000000
     0.000000    0.000000   30.000000
   V    Mo   W    S 
   3   3   3  18
Direct configuration=    17
   0.33871027  0.66620692  0.00049881
  -0.00103411  0.00223388 -0.00047814
   0.99570470  0.32985771 -0.00000795
   0.66036372  0.00692613 -0.00034413
   0.65163583  0.32498557  0.00002594
   0.34987776  0.33303580  0.00013276
  -0.01152054  0.65881264  0.00021524
   0.35310510  0.02030292 -0.00008769
   0.66134599  0.65564931  0.00008475
   0.10832802  0.22147329  0.95092266
   0.21890245  0.10852325  0.05158688
   0.11314733  0.55220132  0.95045309
   0.22055555  0.44478254  0.04872092
   0.11164426  0.89242305  0.95056296
   0.22522120  0.77849454  0.04884020
   0.44457140  0.22164453  0.94362142
   0.55576452  0.11179422  0.05535767
   0.44163222  0.55781217  0.94801699
   0.55749171  0.44529964  0.05514732
   0.43940773  0.88372534  0.94805755
   0.55036535  0.77455250  0.05103261
   0.78285951  0.22605002  0.94816649
   0.89369786  0.11388202  0.05025792
   0.77588299  0.55347656  0.94673339
   0.88913588  0.44000305  0.05112574
   0.78128938  0.89041710  0.95013900
   0.89012836  0.78364843  0.05121753
unknown system                          
           1
     8.275177    4.790063    0.000000
    -8.267531    4.776822    0.000000
     0.000000    0.000000   30.000000
   V    Mo   W    S 
   3   3   3  18
Direct configuration=    18
   0.33905315  0.66613429  0.00051063
  -0.00126626  0.00222446 -0.00049278
   0.99561202  0.32976777 -0.00002158
   0.66028469  0.00731126 -0.00034317
   0.65178201  0.32515564  0.00003066
   0.35014951  0.33324870  0.00012561
  -0.01236952  0.65827744  0.00023115
   0.35356820  0.02063616 -0.00009435
   0.66137623  0.65518389  0.00009664
   0.10839677  0.22151202  0.95097027
   0.21898257  0.10855929  0.05153150
   0.11309206  0.55221807  0.95050662
   0.22059265  0.44473869  0.04868072
   0.11169980  0.89237290  0.95067231
   0.22512862  0.77854211  0.04870636
   0.44463302  0.22169292  0.94360051
   0.55581286  0.11189308  0.05539834
   0.44170284  0.55782917  0.94798894
   0.55750564  0.44527931  0.05519430
   0.43942705  0.88377905  0.94805840
   0.55050559  0.77460953  0.05098419
   0.78282282  0.22606873  0.94815824
   0.89366116  0.11388862  0.05025479
   0.77579497  0.55342034  0.94664951
   0.88913188  0.43995559  0.05116783
   0.78109339  0.89032968  0.95020418
   0.89004074  0.78358572  0.05123009
unknown system                          
           1
     8.269294    4.786946    0.000000
    -8.258663    4.768546    0.000000
     0.000000    0.000000   30.000000
   V    Mo   W    S 
   3   3   3  18
Direct configuration=    19
   0.33456623  0.66688018  0.00039129
   0.00091729  0.00271584 -0.00031729
   0.99641484  0.33079903  0.00013755
   0.66146458  0.00346495 -0.00035847
   0.64978639  0.32268361 -0.00001981
   0.34742006  0.33093091  0.00021276
  -0.00240952  0.66356103  0.00002324
   0.34893730  0.01714401 -0.00002823
   0.66058024  0.66026528  0.00000631
   0.10756822  0.22134041  0.95065845
   0.21840225  0.10831452  0.05201212
   0.11357001  0.55167442  0.95004652
   0.21995814  0.44508406  0.04887610
   0.11114415  0.89299691  0.94954316
   0.22640560  0.77824745  0.05018635
   0.44391824  0.22099745  0.94392466
   0.55521711  0.11073529  0.05482183
   0.44093091  0.55759122  0.94840092
   0.55743510  0.44566390  0.05457685
   0.43922972  0.88322510  0.94813785
   0.54872479  0.77383726  0.05140957
   0.78346073  0.22595413  0.94850677
   0.89418281  0.11415472  0.05013765
   0.77690349  0.55414843  0.94775511
   0.88934416  0.44042574  0.05047457
   0.78316198  0.89123411  0.94950722
   0.89097964  0.78414451  0.05097684
unknown system                          
           1
     8.276476    4.791830    0.000000
    -8.266761    4.775009    0.000000
     0.000000    0.000000   30.000000
   V    Mo   W    S 
   3   3   3  18
Direct configuration=    20
   0.33422817  0.66720822  0.00037606
   0.00077270  0.00272267 -0.00034176
   0.99615142  0.33074661  0.00017304
   0.66136262  0.00312533 -0.00037480
   0.64865957  0.32185435 -0.00001698
   0.34819536  0.33057208  0.00020571
  -0.00064954  0.66459483  0.00002788
   0.34882248  0.01735433 -0.00009862
   0.65988420  0.66033863 -0.00001649
   0.10783535  0.22148244  0.95075623
   0.21868546  0.10846716  0.05200086
   0.11361828  0.55171439  0.94998263
   0.22014243  0.44488131  0.04872201
   0.11125796  0.89305857  0.94961501
   0.22648340  0.77847844  0.05024382
   0.44391183  0.22084152  0.94383764
   0.55523467  0.11067952  0.05485139
   0.44080325  0.55747640  0.94847260
   0.55762022  0.44572184  0.05456110
   0.43922747  0.88332014  0.94817415
   0.54858094  0.77379413  0.05140441
   0.78315328  0.22583647  0.94854352
   0.89407649  0.11404212  0.05010976
   0.77698589  0.55412716  0.94804466
   0.88905168  0.44050625  0.05036367
   0.78308982  0.89114992  0.94959533
   0.89102906  0.78411962  0.05078708
unknown system                          
           1
     8.278646    4.793531    0.000000
    -8.264153    4.768457    0.000000
     0.000000    0.000000   30.000000
   V    Mo   W    S 
   3   3   3  18
Direct configuration=    21
   0.33284159  0.66763783  0.00032609
   0.00113203  0.00289261 -0.00028889
   0.99605416  0.33097864  0.00023723
   0.66166090  0.00202579 -0.00035819
   0.64748239  0.32067855 -0.00000994
   0.34806268  0.32985884  0.00021513
   0.00326445  0.66659778 -0.00002039
   0.34755580  0.01648562 -0.00006875
   0.65902703  0.66153782 -0.00005144
   0.10781934  0.22158591  0.95071497
   0.21869640  0.10849406  0.05215507
   0.11381423  0.55158271  0.94979644
   0.22009863  0.44479736  0.04867253
   0.11119738  0.89334136  0.94928301
   0.22697937  0.77857579  0.05073263
   0.44375065  0.22060884  0.94375745
   0.55505644  0.11028933  0.05475782
   0.44044603  0.55731051  0.94856888
   0.55777049  0.44584236  0.05446726
   0.43915270  0.88317618  0.94814819
   0.54798244  0.77355266  0.05156808
   0.78315618  0.22579181  0.94862107
   0.89413817  0.11403272  0.05009896
   0.77733679  0.55427473  0.94849923
   0.88888932  0.44062472  0.05012010
   0.78355861  0.89134298  0.94940825
   0.89129027  0.78429696  0.05064911
unknown system                          
           1
     8.283540    4.797794    0.000000
    -8.267746    4.770465    0.000000
     0.000000    0.000000   30.000000
   V    Mo   W    S 
   3   3   3  18
Direct configuration=    22
   0.33412963  0.66776686  0.00034334
  -0.00003126  0.00265667 -0.00034610
   0.99546648  0.33055339  0.00020971
   0.66129987  0.00308509 -0.00035912
   0.64716921  0.32065151  0.00001404
   0.34967539  0.33044308  0.00017747
   0.00196363  0.66596833  0.00004475
   0.34895006  0.01762579 -0.00011751
   0.65843839  0.65987964 -0.00004697
   0.10828789  0.22174322  0.95088628
   0.21902803  0.10865919  0.05197751
   0.11374234  0.55185160  0.94987349
   0.22048096  0.44453316  0.04848106
   0.11141228  0.89320499  0.94965212
   0.22667875  0.77879141  0.05037629
   0.44397677  0.22071573  0.94354516
   0.55522684  0.11056514  0.05498365
   0.44054359  0.55729327  0.94845625
   0.55797247  0.44575878  0.05468934
   0.43927087  0.88340959  0.94810768
   0.54847258  0.77378016  0.05147112
   0.78271663  0.22575160  0.94851074
   0.89385287  0.11383398  0.05015161
   0.77710257  0.55402972  0.94841672
   0.88859522  0.44061002  0.05024076
   0.78277293  0.89097144  0.94965371
   0.89101947  0.78408110  0.05060681
unknown system                          
           1
     8.289075    4.804231    0.000000
    -8.269628    4.770577    0.000000
     0.000000    0.000000   30.000000
   V    Mo   W    S 
   3   3   3  18
Direct configuration=    23
   0.33457345  0.66797687  0.00034078
  -0.00079653  0.00255108 -0.00035985
   0.99492932  0.33029411  0.00020734
   0.66120006  0.00362696 -0.00033486
   0.64679835  0.32039651  0.00003519
   0.35066177  0.33080858  0.00014421
   0.00218668  0.66598965  0.00006204
   0.34957803  0.01800322 -0.00012369
   0.65778686  0.65897176 -0.00002706
   0.10855307  0.22189690  0.95100016
   0.21924396  0.10876793  0.05188428
   0.11376129  0.55194591  0.94990922
   0.22067845  0.44433665  0.04831859
   0.11152547  0.89328656  0.94977347
   0.22677061  0.77898215  0.05029834
   0.44410485  0.22072378  0.94339278
   0.55525167  0.11061110  0.05509586
   0.44049781  0.55721876  0.94837684
   0.55817148  0.44570668  0.05483099
   0.43932479  0.88352224  0.94806319
   0.54859906  0.77384609  0.05144788
   0.78247762  0.22577771  0.94845636
   0.89368839  0.11375144  0.05019199
   0.77703978  0.55390160  0.94846991
   0.88839743  0.44056698  0.05024833
   0.78235731  0.89076835  0.94973632
   0.89085342  0.78398487  0.05056129
unknown system                          
           1
     8.287585    4.802373    0.000000
    -8.269374    4.770859    0.000000
     0.000000    0.000000   30.000000
   V    Mo   W    S 
   3   3   3  18
Direct configuration=    24
   0.33589478  0.66834565  0.00033819
  -0.00293912  0.00227308 -0.00041178
   0.99334524  0.32930686  0.00019448
   0.66120064  0.00551982 -0.00029165
   0.64629548  0.32014275  0.00008232
   0.35306303  0.33200428  0.00005602
   0.00172352  0.66555224  0.00010542
   0.35142727  0.01908014 -0.00017683
   0.65648861  0.65630121  0.00004253
   0.10909912  0.22222454  0.95133267
   0.21976084  0.10904339  0.05155692
   0.11372468  0.55208423  0.95006816
   0.22104975  0.44382539  0.04790114
   0.11175914  0.89349277  0.95016324
   0.22698073  0.77944763  0.05002925
   0.44443629  0.22074907  0.94312629
   0.55534466  0.11082451  0.05536978
   0.44054812  0.55706280  0.94815687
   0.55860812  0.44551948  0.05517609
   0.43952891  0.88386998  0.94797160