       N       E                     dE             d eps       ncg     rms          rms(c)
DAV:   1     0.112587750488E+04    0.11259E+04   -0.35982E+04  8160   0.577E+02
DAV:   2    -0.340377027065E+01   -0.11293E+04   -0.10888E+04 11200   0.173E+02
DAV:   3    -0.199753704698E+03   -0.19635E+03   -0.18851E+03 10880   0.820E+01
DAV:   4    -0.208990889384E+03   -0.92372E+01   -0.89436E+01 12240   0.262E+01
DAV:   5    -0.209321662351E+03   -0.33077E+00   -0.32974E+00 11440   0.352E+00    0.275E+01
DAV:   6    -0.237932743182E+03   -0.28611E+02   -0.10711E+02 12600   0.601E+01    0.595E+01
DAV:   7    -0.196570125597E+03    0.41363E+02   -0.17569E+02 13480   0.153E+02    0.200E+01
DAV:   8    -0.189490070428E+03    0.70801E+01   -0.17909E+01 11960   0.127E+01    0.125E+01
DAV:   9    -0.188167994595E+03    0.13221E+01   -0.31334E+00 13440   0.624E+00    0.926E+00
DAV:  10    -0.186957944056E+03    0.12101E+01   -0.17551E+00 13400   0.771E+00    0.217E+00
DAV:  11    -0.187061348858E+03   -0.10340E+00   -0.59061E-01 13520   0.303E+00    0.387E+00
DAV:  12    -0.187003942761E+03    0.57406E-01   -0.82390E-01 12800   0.456E+00    0.369E+00
DAV:  13    -0.186887217191E+03    0.11673E+00   -0.30332E-01 13240   0.298E+00    0.187E+00
DAV:  14    -0.186850253664E+03    0.36964E-01   -0.10696E-01 13160   0.175E+00    0.900E-01
DAV:  15    -0.186848127009E+03    0.21267E-02   -0.28780E-02 12720   0.901E-01    0.817E-01
DAV:  16    -0.186842434519E+03    0.56925E-02   -0.11080E-02 13240   0.533E-01    0.273E-01
DAV:  17    -0.186841232464E+03    0.12021E-02   -0.44583E-03 12840   0.285E-01    0.182E-01
DAV:  18    -0.186841001358E+03    0.23111E-03   -0.18554E-03 11680   0.147E-01    0.131E-01
DAV:  19    -0.186840801470E+03    0.19989E-03   -0.81765E-04 11160   0.894E-02    0.584E-02
DAV:  20    -0.186841553404E+03   -0.75193E-03   -0.68551E-04  9080   0.741E-02    0.551E-02
DAV:  21    -0.186842389605E+03   -0.83620E-03   -0.24156E-04  8200   0.495E-02    0.321E-02
DAV:  22    -0.186843336386E+03   -0.94678E-03   -0.15737E-04  7600   0.383E-02    0.311E-02
DAV:  23    -0.186844488878E+03   -0.11525E-02   -0.10600E-04  7560   0.365E-02    0.131E-02
DAV:  24    -0.186845040896E+03   -0.55202E-03   -0.23900E-05  6800   0.153E-02    0.477E-03
DAV:  25    -0.186845436253E+03   -0.39536E-03   -0.16118E-05  5520   0.960E-03    0.320E-03
DAV:  26    -0.186845677915E+03   -0.24166E-03   -0.93061E-06  6840   0.702E-03    0.166E-03
DAV:  27    -0.186845766624E+03   -0.88709E-04   -0.32942E-06  7440   0.406E-03
   1 F= -.18684577E+03 E0= -.18667480E+03  d E =-.186846E+03
       N       E                     dE             d eps       ncg     rms          rms(c)
DAV:   1    -0.187499856029E+03   -0.65418E+00   -0.27222E+02  8160   0.350E+01    0.460E+00
DAV:   2    -0.189346436845E+03   -0.18466E+01   -0.19881E+01 12240   0.150E+01    0.856E+00
DAV:   3    -0.189359988250E+03   -0.13551E-01   -0.39334E+00 12400   0.120E+01    0.659E+00
DAV:   4    -0.188757375308E+03    0.60261E+00   -0.64192E-01 12520   0.477E+00    0.199E+00
DAV:   5    -0.188849993427E+03   -0.92618E-01   -0.41674E-01 11800   0.342E+00    0.488E+00
DAV:   6    -0.188755567634E+03    0.94426E-01   -0.73795E-01 12560   0.436E+00    0.269E+00
DAV:   7    -0.188676293548E+03    0.79274E-01   -0.21325E-01 12360   0.160E+00    0.102E+00
DAV:   8    -0.188661724492E+03    0.14569E-01   -0.50005E-02 11480   0.732E-01    0.650E-01
DAV:   9    -0.188656959724E+03    0.47648E-02   -0.11594E-02 12560   0.404E-01    0.399E-01
DAV:  10    -0.188657389736E+03   -0.43001E-03   -0.56555E-03 12000   0.413E-01    0.450E-01
DAV:  11    -0.188655857622E+03    0.15321E-02   -0.40354E-03 12840   0.329E-01    0.131E-01
DAV:  12    -0.188655851890E+03    0.57326E-05   -0.95871E-04 11720   0.100E-01
   2 F= -.18865585E+03 E0= -.18851712E+03  d E =-.181009E+01
       N       E                     dE             d eps       ncg     rms          rms(c)
DAV:   1    -0.190582412535E+03   -0.19266E+01   -0.31126E+01  9200   0.142E+01    0.445E+00
DAV:   2    -0.190528440727E+03    0.53972E-01   -0.27745E+00 11520   0.945E+00    0.718E+00
DAV:   3    -0.190064481324E+03    0.46396E+00   -0.12907E+00 12360   0.862E+00    0.425E+00
DAV:   4    -0.189852706157E+03    0.21178E+00   -0.68024E-01 12960   0.432E+00    0.253E+00
DAV:   5    -0.189823293960E+03    0.29412E-01   -0.36934E-01 12240   0.309E+00    0.284E+00
DAV:   6    -0.189751406614E+03    0.71887E-01   -0.16060E-01 12680   0.251E+00    0.753E-01
DAV:   7    -0.189745559755E+03    0.58469E-02   -0.15848E-02 11600   0.611E-01    0.389E-01
DAV:   8    -0.189745445430E+03    0.11433E-03   -0.58911E-03 12640   0.468E-01    0.343E-01
DAV:   9    -0.189744585123E+03    0.86031E-03   -0.21535E-03 11400   0.249E-01    0.121E-01
DAV:  10    -0.189745016765E+03   -0.43164E-03   -0.99472E-04 10720   0.106E-01    0.138E-01
DAV:  11    -0.189744709084E+03    0.30768E-03   -0.55704E-04  9400   0.843E-02    0.194E-02
DAV:  12    -0.189744731542E+03   -0.22457E-04   -0.64662E-05  7120   0.249E-02
   3 F= -.18974473E+03 E0= -.18962847E+03  d E =-.108888E+01
       N       E                     dE             d eps       ncg     rms          rms(c)
DAV:   1    -0.191299667686E+03   -0.15550E+01   -0.74222E+01  8160   0.196E+01    0.456E+00
DAV:   2    -0.191105820835E+03    0.19385E+00   -0.52544E+00 13440   0.750E+00    0.438E+00
DAV:   3    -0.191306203035E+03   -0.20038E+00   -0.14855E+00 12200   0.903E+00    0.733E+00
DAV:   4    -0.190898697248E+03    0.40751E+00   -0.16788E+00 11920   0.851E+00    0.352E+00
DAV:   5    -0.190903596416E+03   -0.48992E-02   -0.69389E-01 10960   0.544E+00    0.355E+00
DAV:   6    -0.190729007365E+03    0.17459E+00   -0.20377E-01 11480   0.313E+00    0.611E-01
DAV:   7    -0.190731620545E+03   -0.26132E-02   -0.34357E-02 12400   0.883E-01    0.731E-01
DAV:   8    -0.190728313691E+03    0.33069E-02   -0.17476E-02 11680   0.898E-01    0.534E-01
DAV:   9    -0.190725311149E+03    0.30025E-02   -0.46811E-03 11360   0.445E-01    0.150E-01
DAV:  10    -0.190725628738E+03   -0.31759E-03   -0.14552E-03 10080   0.139E-01    0.104E-01
DAV:  11    -0.190725477468E+03    0.15127E-03   -0.58438E-04  9880   0.908E-02    0.439E-02
DAV:  12    -0.190725475890E+03    0.15778E-05   -0.10309E-04  7120   0.358E-02
   4 F= -.19072548E+03 E0= -.19062788E+03  d E =-.980744E+00
       N       E                     dE             d eps       ncg     rms          rms(c)
DAV:   1    -0.192199931143E+03   -0.14745E+01   -0.17536E+02  8160   0.295E+01    0.587E+00
DAV:   2    -0.191896988070E+03    0.30294E+00   -0.98646E+00 10960   0.810E+00    0.404E+00
DAV:   3    -0.192373460286E+03   -0.47647E+00   -0.28111E+00 12200   0.109E+01    0.867E+00
DAV:   4    -0.191688524167E+03    0.68494E+00   -0.23559E+00 11600   0.110E+01    0.352E+00
DAV:   5    -0.191634333948E+03    0.54190E-01   -0.58867E-01 12240   0.566E+00    0.443E+00
DAV:   6    -0.191476200543E+03    0.15813E+00   -0.63655E-01 12320   0.525E+00    0.164E+00
DAV:   7    -0.191464933511E+03    0.11267E-01   -0.10139E-01 12440   0.188E+00    0.121E+00
DAV:   8    -0.191448794098E+03    0.16139E-01   -0.33544E-02 12280   0.139E+00    0.474E-01
DAV:   9    -0.191445984192E+03    0.28099E-02   -0.74460E-03 11320   0.494E-01    0.200E-01
DAV:  10    -0.191446118504E+03   -0.13431E-03   -0.28599E-03 11560   0.215E-01    0.104E-01
DAV:  11    -0.191446035786E+03    0.82718E-04   -0.61226E-04 10600   0.935E-02
   5 F= -.19144604E+03 E0= -.19135296E+03  d E =-.720560E+00
       N       E                     dE             d eps       ncg     rms          rms(c)
DAV:   1    -0.191519186869E+03   -0.73068E-01   -0.60892E+00  8160   0.520E+00    0.736E-01
DAV:   2    -0.191593032068E+03   -0.73845E-01   -0.31209E-01 13080   0.342E+00    0.241E+00
DAV:   3    -0.191528052131E+03    0.64980E-01   -0.11310E-01 12600   0.257E+00    0.334E-01
DAV:   4    -0.191530651398E+03   -0.25993E-02   -0.12198E-02 11520   0.740E-01    0.682E-01
DAV:   5    -0.191526398740E+03    0.42527E-02   -0.96482E-03 10920   0.703E-01    0.238E-01
DAV:   6    -0.191526715373E+03   -0.31663E-03   -0.37425E-03 11400   0.328E-01    0.277E-01
DAV:   7    -0.191526345587E+03    0.36979E-03   -0.34502E-03 11360   0.400E-01    0.231E-01
DAV:   8    -0.191525795253E+03    0.55033E-03   -0.10923E-03  9920   0.216E-01    0.414E-02
DAV:   9    -0.191525793638E+03    0.16149E-05   -0.10011E-04  6520   0.424E-02
   6 F= -.19152579E+03 E0= -.19143090E+03  d E =-.797579E-01
       N       E                     dE             d eps       ncg     rms          rms(c)
DAV:   1    -0.191626180403E+03   -0.10039E+00   -0.16512E+01  8160   0.848E+00    0.969E-01
DAV:   2    -0.191727539137E+03   -0.10136E+00   -0.46288E-01 13080   0.369E+00    0.279E+00
DAV:   3    -0.191641413259E+03    0.86126E-01   -0.18193E-01 12520   0.324E+00    0.643E-01
DAV:   4    -0.191648399762E+03   -0.69865E-02   -0.32837E-02 12000   0.123E+00    0.110E+00
DAV:   5    -0.191636843376E+03    0.11556E-01   -0.24267E-02 11800   0.110E+00    0.314E-01
DAV:   6    -0.191638343691E+03   -0.15003E-02   -0.79860E-03 11320   0.536E-01    0.481E-01
DAV:   7    -0.191636777408E+03    0.15663E-02   -0.77553E-03 11600   0.617E-01    0.288E-01
DAV:   8    -0.191635840487E+03    0.93692E-03   -0.19215E-03 10280   0.271E-01    0.555E-02
DAV:   9    -0.191635817002E+03    0.23485E-04   -0.22351E-04  7640   0.569E-02
   7 F= -.19163582E+03 E0= -.19154021E+03  d E =-.110023E+00
       N       E                     dE             d eps       ncg     rms          rms(c)
DAV:   1    -0.191665072053E+03   -0.29232E-01   -0.95358E-01  8160   0.214E+00    0.377E-01
DAV:   2    -0.191672259525E+03   -0.71875E-02   -0.49294E-02 12040   0.122E+00    0.859E-01
DAV:   3    -0.191664106968E+03    0.81526E-02   -0.17874E-02 11720   0.103E+00    0.220E-01
DAV:   4    -0.191664213272E+03   -0.10630E-03   -0.41479E-03 11880   0.391E-01    0.332E-01
DAV:   5    -0.191663456915E+03    0.75636E-03   -0.37816E-03 10880   0.442E-01    0.218E-01
DAV:   6    -0.191662968700E+03    0.48821E-03   -0.13719E-03 10360   0.223E-01    0.665E-02
DAV:   7    -0.191662956173E+03    0.12528E-04   -0.36512E-04  7720   0.107E-01
   8 F= -.19166296E+03 E0= -.19156688E+03  d E =-.271392E-01
       N       E                     dE             d eps       ncg     rms          rms(c)
DAV:   1    -0.191719049443E+03   -0.56081E-01   -0.59485E+00  8160   0.513E+00    0.547E-01
DAV:   2    -0.191746415115E+03   -0.27366E-01   -0.17135E-01 12720   0.203E+00    0.134E+00
DAV:   3    -0.191726703447E+03    0.19712E-01   -0.47604E-02 12480   0.163E+00    0.394E-01
DAV:   4    -0.191727939193E+03   -0.12357E-02   -0.98917E-03 12320   0.672E-01    0.554E-01
DAV:   5    -0.191724992483E+03    0.29467E-02   -0.67348E-03 10680   0.619E-01    0.219E-01
DAV:   6    -0.191724901174E+03    0.91309E-04   -0.23407E-03 10920   0.249E-01    0.140E-01
DAV:   7    -0.191724524534E+03    0.37664E-03   -0.90148E-04 10720   0.126E-01    0.458E-02
DAV:   8    -0.191724545793E+03   -0.21259E-04   -0.20536E-04  6680   0.924E-02
   9 F= -.19172455E+03 E0= -.19162894E+03  d E =-.615896E-01
       N       E                     dE             d eps       ncg     rms          rms(c)
DAV:   1    -0.191749274277E+03   -0.24750E-01   -0.87204E-01  8160   0.202E+00    0.298E-01
DAV:   2    -0.191754773252E+03   -0.54990E-02   -0.38445E-02 12960   0.102E+00    0.692E-01
DAV:   3    -0.191749704643E+03    0.50686E-02   -0.12341E-02 11720   0.822E-01    0.209E-01
DAV:   4    -0.191750401812E+03   -0.69717E-03   -0.42001E-03 11440   0.427E-01    0.375E-01
DAV:   5    -0.191749080221E+03    0.13216E-02   -0.30803E-03 10840   0.397E-01    0.123E-01
DAV:   6    -0.191749007300E+03    0.72921E-04   -0.82930E-04 10000   0.155E-01
  10 F= -.19174901E+03 E0= -.19165345E+03  d E =-.244615E-01
       N       E                     dE             d eps       ncg     rms          rms(c)
DAV:   1    -0.191806754059E+03   -0.57674E-01   -0.66432E+00  8160   0.548E+00    0.595E-01
DAV:   2    -0.191833880841E+03   -0.27127E-01   -0.21206E-01 12400   0.201E+00    0.136E+00
DAV:   3    -0.191817864941E+03    0.16016E-01   -0.58277E-02 12440   0.163E+00    0.575E-01
DAV:   4    -0.191819361290E+03   -0.14963E-02   -0.18528E-02 12200   0.934E-01    0.709E-01
DAV:   5    -0.191813772120E+03    0.55892E-02   -0.95806E-03 11480   0.755E-01    0.196E-01
DAV:   6    -0.191813950152E+03   -0.17803E-03   -0.33778E-03 10760   0.263E-01    0.165E-01
DAV:   7    -0.191813463899E+03    0.48625E-03   -0.13820E-03 10800   0.193E-01    0.113E-01
DAV:   8    -0.191813371355E+03    0.92544E-04   -0.38368E-04  9000   0.137E-01
  11 F= -.19181337E+03 E0= -.19171866E+03  d E =-.643641E-01
       N       E                     dE             d eps       ncg     rms          rms(c)
DAV:   1    -0.191839866374E+03   -0.26402E-01   -0.10463E+00  8160   0.223E+00    0.304E-01
DAV:   2    -0.191844239921E+03   -0.43735E-02   -0.43097E-02 12360   0.857E-01    0.614E-01
DAV:   3    -0.191841540188E+03    0.26997E-02   -0.13517E-02 12160   0.776E-01    0.337E-01
DAV:   4    -0.191841105245E+03    0.43494E-03   -0.44535E-03 11680   0.453E-01    0.292E-01
DAV:   5    -0.191840277083E+03    0.82816E-03   -0.23240E-03 10160   0.384E-01    0.147E-01
DAV:   6    -0.191840099075E+03    0.17801E-03   -0.10602E-03 10120   0.188E-01    0.846E-02
DAV:   7    -0.191840108369E+03   -0.92941E-05   -0.49891E-04  9040   0.155E-01
  12 F= -.19184011E+03 E0= -.19174555E+03  d E =-.267370E-01
       N       E                     dE             d eps       ncg     rms          rms(c)
DAV:   1    -0.191891195903E+03   -0.51097E-01   -0.50061E+00  8160   0.479E+00    0.524E-01
DAV:   2    -0.191911083522E+03   -0.19888E-01   -0.16441E-01 11240   0.158E+00    0.119E+00
DAV:   3    -0.191900775241E+03    0.10308E-01   -0.46642E-02 12440   0.141E+00    0.560E-01
DAV:   4    -0.191897963980E+03    0.28113E-02   -0.82589E-03 12120   0.524E-01    0.273E-01
DAV:   5    -0.191897243359E+03    0.72062E-03   -0.34846E-03 11400   0.403E-01    0.243E-01
DAV:   6    -0.191897462586E+03   -0.21923E-03   -0.35544E-03 11760   0.451E-01    0.261E-01
DAV:   7    -0.191896873972E+03    0.58861E-03   -0.18196E-03 10120   0.305E-01    0.171E-01
DAV:   8    -0.191896581495E+03    0.29248E-03   -0.56139E-04  8520   0.179E-01    0.351E-02
DAV:   9    -0.191896575870E+03    0.56253E-05   -0.55027E-05  6440   0.379E-02
  13 F= -.19189658E+03 E0= -.19180317E+03  d E =-.564675E-01
       N       E                     dE             d eps       ncg     rms          rms(c)
DAV:   1    -0.191916897486E+03   -0.20316E-01   -0.64165E-01  8160   0.174E+00    0.234E-01
DAV:   2    -0.191920685203E+03   -0.37877E-02   -0.27078E-02 11120   0.708E-01    0.591E-01
DAV:   3    -0.191917835140E+03    0.28501E-02   -0.95842E-03 11880   0.655E-01    0.222E-01
DAV:   4    -0.191917320139E+03    0.51500E-03   -0.14522E-03 10760   0.198E-01    0.963E-02
DAV:   5    -0.191917223292E+03    0.96847E-04   -0.64275E-04 10720   0.120E-01
  14 F= -.19191722E+03 E0= -.19182405E+03  d E =-.206474E-01
       N       E                     dE             d eps       ncg     rms          rms(c)
DAV:   1    -0.191965763033E+03   -0.48443E-01   -0.43422E+00  8160   0.449E+00    0.564E-01
DAV:   2    -0.191991613667E+03   -0.25851E-01   -0.16656E-01 11640   0.179E+00    0.151E+00
DAV:   3    -0.191972719659E+03    0.18894E-01   -0.56507E-02 12400   0.162E+00    0.490E-01
DAV:   4    -0.191971179543E+03    0.15401E-02   -0.87474E-03 11440   0.556E-01    0.411E-01
DAV:   5    -0.191969887973E+03    0.12916E-02   -0.62029E-03 12960   0.599E-01    0.297E-01
DAV:   6    -0.191969953764E+03   -0.65791E-04   -0.40963E-03 11400   0.446E-01    0.284E-01
DAV:   7    -0.191969250649E+03    0.70312E-03   -0.23428E-03 10680   0.377E-01    0.153E-01
DAV:   8    -0.191968937212E+03    0.31344E-03   -0.53538E-04  9640   0.165E-01    0.329E-02
DAV:   9    -0.191968926725E+03    0.10487E-04   -0.70207E-05  6720   0.351E-02
  15 F= -.19196893E+03 E0= -.19187669E+03  d E =-.517034E-01
       N       E                     dE             d eps       ncg     rms          rms(c)
DAV:   1    -0.192028774332E+03   -0.59837E-01   -0.10832E+01  8160   0.704E+00    0.842E-01
DAV:   2    -0.192099697275E+03   -0.70923E-01   -0.41338E-01 10880   0.291E+00    0.236E+00
DAV:   3    -0.192050487443E+03    0.49210E-01   -0.13601E-01 12280   0.260E+00    0.780E-01
DAV:   4    -0.192048963834E+03    0.15236E-02   -0.24783E-02 12120   0.114E+00    0.731E-01
DAV:   5    -0.192042595142E+03    0.63687E-02   -0.13956E-02 12440   0.951E-01    0.284E-01
DAV:   6    -0.192042351642E+03    0.24350E-03   -0.48485E-03 11920   0.369E-01    0.215E-01
DAV:   7    -0.192042184563E+03    0.16708E-03   -0.28852E-03 11760   0.353E-01    0.261E-01
DAV:   8    -0.192041503176E+03    0.68139E-03   -0.11532E-03 10040   0.268E-01    0.527E-02
DAV:   9    -0.192041478363E+03    0.24813E-04   -0.10530E-04  6000   0.534E-02
  16 F= -.19204148E+03 E0= -.19195098E+03  d E =-.725516E-01
       N       E                     dE             d eps       ncg     rms          rms(c)
DAV:   1    -0.192055245140E+03   -0.13742E-01   -0.49374E-01  8160   0.156E+00    0.263E-01
DAV:   2    -0.192058361327E+03   -0.31162E-02   -0.27236E-02 10360   0.720E-01    0.584E-01
DAV:   3    -0.192055829341E+03    0.25320E-02   -0.97618E-03 12360   0.709E-01    0.280E-01
DAV:   4    -0.192054922191E+03    0.90715E-03   -0.19838E-03 11400   0.279E-01    0.111E-01
DAV:   5    -0.192054910072E+03    0.12120E-04   -0.99552E-04 10720   0.214E-01
  17 F= -.19205491E+03 E0= -.19196413E+03  d E =-.134317E-01
       N       E                     dE             d eps       ncg     rms          rms(c)
DAV:   1    -0.192078122039E+03   -0.23200E-01   -0.17692E+00  8160   0.283E+00    0.358E-01
DAV:   2    -0.192089962539E+03   -0.11841E-01   -0.67961E-02 11080   0.120E+00    0.994E-01
DAV:   3    -0.192081183763E+03    0.87788E-02   -0.21344E-02 12360   0.108E+00    0.301E-01
DAV:   4    -0.192080852943E+03    0.33082E-03   -0.34178E-03 11280   0.396E-01    0.269E-01
DAV:   5    -0.192080090288E+03    0.76265E-03   -0.22106E-03 12160   0.379E-01    0.137E-01
DAV:   6    -0.192080274807E+03   -0.18452E-03   -0.11619E-03 10320   0.240E-01    0.180E-01
DAV:   7    -0.192080025176E+03    0.24963E-03   -0.87783E-04  9760   0.242E-01    0.987E-02
DAV:   8    -0.192079891263E+03    0.13391E-03   -0.17584E-04  6480   0.947E-02    0.151E-02
DAV:   9    -0.192079895041E+03   -0.37772E-05   -0.43158E-05  6800   0.225E-02
  18 F= -.19207990E+03 E0= -.19199032E+03  d E =-.249850E-01
       N       E                     dE             d eps       ncg     rms          rms(c)
DAV:   1    -0.192101549126E+03   -0.21658E-01   -0.19227E+00  8160   0.295E+00    0.384E-01
DAV:   2    -0.192115881104E+03   -0.14332E-01   -0.85973E-02 10520   0.148E+00    0.994E-01
DAV:   3    -0.192105717308E+03    0.10164E-01   -0.23598E-02 12480   0.120E+00    0.351E-01
DAV:   4    -0.192105601964E+03    0.11534E-03   -0.48939E-03 10880   0.534E-01    0.345E-01
DAV:   5    -0.192104337103E+03    0.12649E-02   -0.28357E-03 10560   0.422E-01    0.138E-01
DAV:   6    -0.192104260346E+03    0.76757E-04   -0.10995E-03 11080   0.166E-01    0.932E-02
DAV:   7    -0.192104306045E+03   -0.45698E-04   -0.68328E-04 10240   0.185E-01
  19 F= -.19210431E+03 E0= -.19201595E+03  d E =-.244110E-01
       N       E                     dE             d eps       ncg     rms          rms(c)
DAV:   1    -0.192112216066E+03   -0.79557E-02   -0.22515E-01  8160   0.106E+00    0.173E-01
DAV:   2    -0.192113087955E+03   -0.87189E-03   -0.10700E-02 11000   0.413E-01    0.306E-01
DAV:   3    -0.192112581270E+03    0.50668E-03   -0.35338E-03 12280   0.447E-01    0.220E-01
DAV:   4    -0.192112071308E+03    0.50996E-03   -0.10155E-03  9600   0.211E-01    0.761E-02
DAV:   5    -0.192112005142E+03    0.66166E-04   -0.38751E-04  9360   0.975E-02
  20 F= -.19211201E+03 E0= -.19202396E+03  d E =-.769910E-02
       N       E                     dE             d eps       ncg     rms          rms(c)
DAV:   1    -0.192128717099E+03   -0.16646E-01   -0.12190E+00  8160   0.237E+00    0.311E-01
DAV:   2    -0.192138314574E+03   -0.95975E-02   -0.49103E-02 11240   0.111E+00    0.832E-01
DAV:   3    -0.192130847058E+03    0.74675E-02   -0.14199E-02 12240   0.975E-01    0.254E-01
DAV:   4    -0.192131070883E+03   -0.22382E-03   -0.27931E-03 11040   0.424E-01    0.293E-01
DAV:   5    -0.192130113519E+03    0.95736E-03   -0.17295E-03 10360   0.338E-01    0.946E-02
DAV:   6    -0.192130346926E+03   -0.23341E-03   -0.86394E-04 10160   0.209E-01    0.171E-01
DAV:   7    -0.192130103917E+03    0.24301E-03   -0.66617E-04  9240   0.213E-01    0.728E-02
DAV:   8    -0.192130026788E+03    0.77128E-04   -0.11135E-04  5760   0.703E-02
  21 F= -.19213003E+03 E0= -.19204276E+03  d E =-.180216E-01
       N       E                     dE             d eps       ncg     rms          rms(c)
DAV:   1    -0.192162035970E+03   -0.31932E-01   -0.74146E+00  8160   0.585E+00    0.700E-01
DAV:   2    -0.192198438946E+03   -0.36403E-01   -0.26373E-01 11520   0.217E+00    0.146E+00
DAV:   3    -0.192177341362E+03    0.21098E-01   -0.58357E-02 12240   0.197E+00    0.668E-01
DAV:   4    -0.192176468591E+03    0.87277E-03   -0.13917E-02 11920   0.956E-01    0.636E-01
DAV:   5    -0.192172094033E+03    0.43746E-02   -0.90176E-03 11480   0.795E-01    0.238E-01
DAV:   6    -0.192172310399E+03   -0.21637E-03   -0.39023E-03 12640   0.362E-01    0.252E-01
DAV:   7    -0.192172091004E+03    0.21939E-03   -0.28502E-03 11680   0.430E-01    0.243E-01
DAV:   8    -0.192171400223E+03    0.69078E-03   -0.92041E-04 10040   0.243E-01    0.345E-02
DAV:   9    -0.192171398304E+03    0.19197E-05   -0.96505E-05  6240   0.381E-02
  22 F= -.19217140E+03 E0= -.19208551E+03  d E =-.413715E-01
       N       E                     dE             d eps       ncg     rms          rms(c)
DAV:   1    -0.192186739458E+03   -0.15339E-01   -0.12208E+00  8160   0.238E+00    0.277E-01
DAV:   2    -0.192189988269E+03   -0.32488E-02   -0.36723E-02 11240   0.648E-01    0.397E-01
DAV:   3    -0.192189093284E+03    0.89499E-03   -0.71622E-03 12040   0.682E-01    0.320E-01
DAV:   4    -0.192188400242E+03    0.69304E-03   -0.21432E-03 11480   0.390E-01    0.223E-01
DAV:   5    -0.192187949355E+03    0.45089E-03   -0.12685E-03 10160   0.315E-01    0.116E-01
DAV:   6    -0.192187874334E+03    0.75021E-04   -0.53832E-04 10440   0.137E-01
  23 F= -.19218787E+03 E0= -.19210179E+03  d E =-.164760E-01
       N       E                     dE             d eps       ncg     rms          rms(c)
DAV:   1    -0.192194772276E+03   -0.68229E-02   -0.24144E-01  8160   0.106E+00    0.135E-01
DAV:   2    -0.192195497645E+03   -0.72537E-03   -0.71665E-03 10600   0.336E-01    0.215E-01
DAV:   3    -0.192195119966E+03    0.37768E-03   -0.14731E-03 11120   0.335E-01    0.136E-01
DAV:   4    -0.192195084774E+03    0.35192E-04   -0.58697E-04  8680   0.197E-01
  24 F= -.19219508E+03 E0= -.19210877E+03  d E =-.721044E-02
       N       E                     dE             d eps       ncg     rms          rms(c)
DAV:   1    -0.192170829940E+03    0.24290E-01   -0.32035E+00  8160   0.385E+00    0.508E-01
DAV:   2    -0.192193909802E+03   -0.23080E-01   -0.10982E-01 11440   0.175E+00    0.142E+00
DAV:   3    -0.192173576020E+03    0.20334E-01   -0.43883E-02 12240   0.164E+00    0.393E-01
DAV:   4    -0.192174043536E+03   -0.46752E-03   -0.68703E-03 11520   0.643E-01    0.443E-01
DAV:   5    -0.192171768685E+03    0.22749E-02   -0.42372E-03 12040   0.568E-01    0.177E-01
DAV:   6    -0.192171989663E+03   -0.22098E-03   -0.17958E-03 11640   0.327E-01    0.232E-01
DAV:   7    -0.192171591866E+03    0.39780E-03   -0.13036E-03 10480   0.323E-01    0.130E-01
DAV:   8    -0.192171356430E+03    0.23544E-03   -0.37497E-04  9240   0.134E-01    0.236E-02
DAV:   9    -0.192171355870E+03    0.55961E-06   -0.50372E-05  6920   0.277E-02
  25 F= -.19217136E+03 E0= -.19208601E+03  d E =0.237289E-01
       N       E                     dE             d eps       ncg     rms          rms(c)
DAV:   1    -0.192127070982E+03    0.44285E-01   -0.13731E+01  8160   0.802E+00    0.102E+00
DAV:   2    -0.192203085338E+03   -0.76014E-01   -0.43813E-01 11800   0.336E+00    0.257E+00
DAV:   3    -0.192142258902E+03    0.60826E-01   -0.17572E-01 12360   0.312E+00    0.902E-01
DAV:   4    -0.192144508295E+03   -0.22494E-02   -0.37615E-02 12400   0.146E+00    0.103E+00
DAV:   5    -0.192132781667E+03    0.11727E-01   -0.22945E-02 12160   0.126E+00    0.419E-01
DAV:   6    -0.192134234228E+03   -0.14526E-02   -0.10313E-02 11760   0.802E-01    0.574E-01
DAV:   7    -0.192131443186E+03    0.27910E-02   -0.75386E-03 11760   0.730E-01    0.235E-01
DAV:   8    -0.192130518967E+03    0.92422E-03   -0.15003E-03 10480   0.229E-01    0.446E-02
DAV:   9    -0.192130512126E+03    0.68404E-05   -0.20682E-04  8680   0.483E-02
  26 F= -.19213051E+03 E0= -.19204362E+03  d E =0.408437E-01
       N       E                     dE             d eps       ncg     rms          rms(c)
DAV:   1    -0.192134671647E+03   -0.41527E-02   -0.40160E-01  8160   0.137E+00    0.193E-01
DAV:   2    -0.192136267141E+03   -0.15955E-02   -0.15204E-02 12680   0.516E-01    0.372E-01
DAV:   3    -0.192135214736E+03    0.10524E-02   -0.45878E-03 12080   0.528E-01    0.231E-01
DAV:   4    -0.192134712552E+03    0.50218E-03   -0.12226E-03  9960   0.229E-01    0.115E-01
DAV:   5    -0.192134724490E+03   -0.11938E-04   -0.88898E-04 10480   0.228E-01
  27 F= -.19213472E+03 E0= -.19204838E+03  d E =-.421236E-02
       N       E                     dE             d eps       ncg     rms          rms(c)
DAV:   1    -0.192125201507E+03    0.95110E-02   -0.24147E+00  8160   0.337E+00    0.403E-01
DAV:   2    -0.192130476408E+03   -0.52749E-02   -0.63695E-02 11240   0.964E-01    0.571E-01
DAV:   3    -0.192128901786E+03    0.15746E-02   -0.15099E-02 11960   0.980E-01    0.465E-01
DAV:   4    -0.192127260386E+03    0.16414E-02   -0.48898E-03 12000   0.556E-01    0.300E-01
DAV:   5    -0.192126451770E+03    0.80862E-03   -0.29518E-03 10480   0.457E-01    0.184E-01
DAV:   6    -0.192126262363E+03    0.18941E-03   -0.12735E-03 10480   0.236E-01    0.122E-01
DAV:   7    -0.192126231542E+03    0.30821E-04   -0.82331E-04  9760   0.203E-01
  28 F= -.19212623E+03 E0= -.19203929E+03  d E =0.849295E-02
       N       E                     dE             d eps       ncg     rms          rms(c)
DAV:   1    -0.192131843444E+03   -0.55811E-02   -0.62158E-01  8160   0.170E+00    0.197E-01
DAV:   2    -0.192134822904E+03   -0.29795E-02   -0.18440E-02 12680   0.626E-01    0.480E-01
DAV:   3    -0.192132662930E+03    0.21600E-02   -0.57444E-03 12200   0.585E-01    0.192E-01
DAV:   4    -0.192132551095E+03    0.11183E-03   -0.13048E-03  9720   0.242E-01    0.171E-01
DAV:   5    -0.192132271132E+03    0.27996E-03   -0.89503E-04 10320   0.229E-01    0.884E-02
DAV:   6    -0.192132305580E+03   -0.34448E-04   -0.43580E-04  8520   0.154E-01
  29 F= -.19213231E+03 E0= -.19204500E+03  d E =-.607404E-02
       N       E                     dE             d eps       ncg     rms          rms(c)
DAV:   1    -0.192135201697E+03   -0.29306E-02   -0.17561E-01  8160   0.901E-01    0.115E-01
DAV:   2    -0.192136223095E+03   -0.10214E-02   -0.73963E-03 11440   0.400E-01    0.250E-01
DAV:   3    -0.192135590802E+03    0.63229E-03   -0.17169E-03 12040   0.333E-01    0.109E-01
DAV:   4    -0.192135601513E+03   -0.10711E-04   -0.50063E-04  8800   0.165E-01
  30 F= -.19213560E+03 E0= -.19204788E+03  d E =-.329593E-02
       N       E                     dE             d eps       ncg     rms          rms(c)
DAV:   1    -0.192138150716E+03   -0.25599E-02   -0.12292E-01  8160   0.758E-01    0.105E-01
DAV:   2    -0.192138962244E+03   -0.81153E-03   -0.45507E-03 12480   0.302E-01    0.273E-01
DAV:   3    -0.192138291321E+03    0.67092E-03   -0.17892E-03 10960   0.297E-01    0.915E-02
DAV:   4    -0.192138208513E+03    0.82808E-04   -0.13083E-04  5920   0.713E-02
  31 F= -.19213821E+03 E0= -.19205144E+03  d E =-.260700E-02
       N       E                     dE             d eps       ncg     rms          rms(c)
DAV:   1    -0.192141885016E+03   -0.35937E-02   -0.23555E-01  8160   0.105E+00    0.150E-01
DAV:   2    -0.192144079643E+03   -0.21946E-02   -0.96859E-03 12600   0.529E-01    0.416E-01
DAV:   3    -0.192142191240E+03    0.18884E-02   -0.36823E-03 12440   0.488E-01    0.130E-01
DAV:   4    -0.192142268716E+03   -0.77476E-04   -0.82165E-04  9280   0.212E-01
  32 F= -.19214227E+03 E0= -.19205474E+03  d E =-.406020E-02
       N       E                     dE             d eps       ncg     rms          rms(c)
DAV:   1    -0.192142599743E+03   -0.40850E-03   -0.53222E-03 10920   0.224E-01    0.488E-02
DAV:   2    -0.192142817519E+03   -0.21778E-03   -0.58611E-04 10120   0.164E-01    0.155E-01
DAV:   3    -0.192142580404E+03    0.23712E-03   -0.44126E-04  8680   0.156E-01    0.340E-02
DAV:   4    -0.192142590818E+03   -0.10415E-04   -0.51692E-05  5880   0.522E-02
  33 F= -.19214259E+03 E0= -.19205603E+03  d E =-.322102E-03
       N       E                     dE             d eps       ncg     rms          rms(c)
DAV:   1    -0.192146519881E+03   -0.39395E-02   -0.25633E-01  8160   0.109E+00    0.142E-01
DAV:   2    -0.192148063338E+03   -0.15435E-02   -0.88512E-03 11680   0.454E-01    0.344E-01
DAV:   3    -0.192146855308E+03    0.12080E-02   -0.27609E-03 12200   0.425E-01    0.133E-01
DAV:   4    -0.192146860421E+03   -0.51129E-05   -0.65884E-04  9080   0.195E-01
  34 F= -.19214686E+03 E0= -.19205986E+03  d E =-.426960E-02
       N       E                     dE             d eps       ncg     rms          rms(c)
DAV:   1    -0.192146621191E+03    0.23412E-03   -0.90593E-04 10200   0.191E-01    0.612E-02
DAV:   2    -0.192147279048E+03   -0.65786E-03   -0.14123E-03 10800   0.279E-01    0.254E-01
DAV:   3    -0.192146582850E+03    0.69620E-03   -0.10676E-03  9160   0.246E-01    0.409E-02
DAV:   4    -0.192146588481E+03   -0.56313E-05   -0.61041E-05  5760   0.618E-02
  35 F= -.19214659E+03 E0= -.19206036E+03  d E =0.271940E-03
       N       E                     dE             d eps       ncg     rms          rms(c)
DAV:   1    -0.192150707273E+03   -0.41244E-02   -0.25522E-01  8160   0.109E+00    0.143E-01
DAV:   2    -0.192151940470E+03   -0.12332E-02   -0.86911E-03 11720   0.414E-01    0.307E-01
DAV:   3    -0.192151071940E+03    0.86853E-03   -0.24729E-03 12440   0.398E-01    0.144E-01
DAV:   4    -0.192151015221E+03    0.56720E-04   -0.63209E-04  9120   0.190E-01
  36 F= -.19215102E+03 E0= -.19206454E+03  d E =-.442674E-02
       N       E                     dE             d eps       ncg     rms          rms(c)
DAV:   1    -0.192149136838E+03    0.19351E-02   -0.37740E-02  8160   0.449E-01    0.739E-02
DAV:   2    -0.192150263702E+03   -0.11269E-02   -0.30533E-03 12040   0.368E-01    0.308E-01
DAV:   3    -0.192149181410E+03    0.10823E-02   -0.16356E-03 10000   0.315E-01    0.463E-02
DAV:   4    -0.192149192636E+03   -0.11226E-04   -0.87464E-05  5880   0.766E-02
  37 F= -.19214919E+03 E0= -.19206316E+03  d E =0.182259E-02
       N       E                     dE             d eps       ncg     rms          rms(c)
DAV:   1    -0.192149155613E+03    0.25797E-04   -0.24341E-02  8160   0.338E-01    0.590E-02
DAV:   2    -0.192149423855E+03   -0.26824E-03   -0.14383E-03 12000   0.197E-01    0.149E-01
DAV:   3    -0.192149178308E+03    0.24555E-03   -0.52242E-04  8720   0.183E-01    0.536E-02
DAV:   4    -0.192149184283E+03   -0.59754E-05   -0.11466E-04  5600   0.868E-02
  38 F= -.19214918E+03 E0= -.19206319E+03  d E =0.835212E-05
       N       E                     dE             d eps       ncg     rms          rms(c)
DAV:   1    -0.192153525080E+03   -0.43468E-02   -0.28041E-01  8160   0.116E+00    0.140E-01
DAV:   2    -0.192154538376E+03   -0.10133E-02   -0.83721E-03 12440   0.366E-01    0.266E-01
DAV:   3    -0.192153915661E+03    0.62271E-03   -0.22083E-03 12120   0.378E-01    0.153E-01
DAV:   4    -0.192153849684E+03    0.65977E-04   -0.69153E-04  9040   0.197E-01
  39 F= -.19215385E+03 E0= -.19206733E+03  d E =-.466540E-02
       N       E                     dE             d eps       ncg     rms          rms(c)
DAV:   1    -0.192147996322E+03    0.59193E-02   -0.38558E-01  8160   0.137E+00    0.159E-01
DAV:   2    -0.192149162444E+03   -0.11661E-02   -0.12204E-02 11520   0.391E-01    0.255E-01
DAV:   3    -0.192148662211E+03    0.50023E-03   -0.27639E-03 12080   0.413E-01    0.176E-01
DAV:   4    -0.192148448265E+03    0.21395E-03   -0.79402E-04  9120   0.218E-01    0.125E-01
DAV:   5    -0.192148288568E+03    0.15970E-03   -0.42268E-04  8600   0.176E-01    0.605E-02
DAV:   6    -0.192148287217E+03    0.13506E-05   -0.16788E-04  6200   0.886E-02
  40 F= -.19214829E+03 E0= -.19206204E+03  d E =0.556247E-02
       N       E                     dE             d eps       ncg     rms          rms(c)
DAV:   1    -0.192143197766E+03    0.50908E-02   -0.36015E-01  8160   0.129E+00    0.169E-01
DAV:   2    -0.192144768824E+03   -0.15711E-02   -0.13086E-02 11760   0.542E-01    0.322E-01
DAV:   3    -0.192143770814E+03    0.99801E-03   -0.32462E-03 12000   0.449E-01    0.150E-01
DAV:   4    -0.192143760320E+03    0.10493E-04   -0.98529E-04  9640   0.235E-01
  41 F= -.19214376E+03 E0= -.19205714E+03  d E =0.452690E-02
       N       E                     dE             d eps       ncg     rms          rms(c)
DAV:   1    -0.192134845015E+03    0.89258E-02   -0.16933E+00  8160   0.283E+00    0.383E-01
DAV:   2    -0.192135672979E+03   -0.82796E-03   -0.44117E-02 11840   0.583E-01    0.305E-01
DAV:   3    -0.192138713417E+03   -0.30404E-02   -0.11097E-02 12400   0.810E-01    0.651E-01
DAV:   4    -0.192134451500E+03    0.42619E-02   -0.73826E-03 11440   0.679E-01    0.196E-01
DAV:   5    -0.192134692577E+03   -0.24108E-03   -0.31198E-03 11560   0.364E-01    0.281E-01
DAV:   6    -0.192134079846E+03    0.61273E-03   -0.24073E-03 10800   0.353E-01    0.130E-01
DAV:   7    -0.192133929579E+03    0.15027E-03   -0.58963E-04  8960   0.166E-01    0.713E-02
DAV:   8    -0.192133877704E+03    0.51874E-04   -0.14117E-04  7440   0.995E-02
  42 F= -.19213388E+03 E0= -.19204710E+03  d E =0.988262E-02
       N       E                     dE             d eps       ncg     rms          rms(c)
DAV:   1    -0.192146891512E+03   -0.12962E-01   -0.29631E+00  8160   0.375E+00    0.484E-01
DAV:   2    -0.192157878328E+03   -0.10987E-01   -0.92650E-02 11880   0.122E+00    0.965E-01
DAV:   3    -0.192150935471E+03    0.69429E-02   -0.28661E-02 12240   0.128E+00    0.533E-01
DAV:   4    -0.192148836158E+03    0.20993E-02   -0.72028E-03 11920   0.554E-01    0.357E-01
DAV:   5    -0.192147913702E+03    0.92246E-03   -0.53205E-03 11400   0.573E-01    0.269E-01
DAV:   6    -0.192147628537E+03    0.28517E-03   -0.28346E-03 11080   0.383E-01    0.206E-01
DAV:   7    -0.192147222238E+03    0.40630E-03   -0.13101E-03 10720   0.298E-01    0.110E-01
DAV:   8    -0.192147059932E+03    0.16231E-03   -0.27021E-04  8360   0.124E-01    0.267E-02
DAV:   9    -0.192147051856E+03    0.80761E-05   -0.46971E-05  6880   0.296E-02
  43 F= -.19214705E+03 E0= -.19206096E+03  d E =-.131742E-01
       N       E                     dE             d eps       ncg     rms          rms(c)
DAV:   1    -0.192151550082E+03   -0.44901E-02   -0.32732E-01  8160   0.124E+00    0.154E-01
DAV:   2    -0.192152932137E+03   -0.13821E-02   -0.10134E-02 12320   0.428E-01    0.328E-01
DAV:   3    -0.192151999211E+03    0.93293E-03   -0.30460E-03 12720   0.424E-01    0.159E-01
DAV:   4    -0.192151936905E+03    0.62306E-04   -0.83086E-04  9800   0.206E-01
  44 F= -.19215194E+03 E0= -.19206532E+03  d E =-.488505E-02
       N       E                     dE             d eps       ncg     rms          rms(c)
DAV:   1    -0.192147738290E+03    0.42609E-02   -0.21762E-01  8160   0.106E+00    0.136E-01
DAV:   2    -0.192148695672E+03   -0.95738E-03   -0.78677E-03 11680   0.376E-01    0.256E-01
DAV:   3    -0.192148005490E+03    0.69018E-03   -0.21114E-03 11720   0.375E-01    0.127E-01
DAV:   4    -0.192147956033E+03    0.49457E-04   -0.51698E-04  8840   0.181E-01
  45 F= -.19214796E+03 E0= -.19206240E+03  d E =0.398087E-02
       N       E                     dE             d eps       ncg     rms          rms(c)
DAV:   1    -0.192149977189E+03   -0.19717E-02   -0.12447E-01  8160   0.768E-01    0.108E-01
DAV:   2    -0.192150556673E+03   -0.57948E-03   -0.52395E-03 11480   0.344E-01    0.209E-01
DAV:   3    -0.192150086581E+03    0.47009E-03   -0.12767E-03 11040   0.292E-01    0.863E-02
DAV:   4    -0.192150068655E+03    0.17926E-04   -0.30750E-04  8560   0.143E-01
  46 F= -.19215007E+03 E0= -.19206420E+03  d E =-.211262E-02
       N       E                     dE             d eps       ncg     rms          rms(c)
DAV:   1    -0.192151571398E+03   -0.14848E-02   -0.27661E-02  8160   0.382E-01    0.855E-02
DAV:   2    -0.192152353383E+03   -0.78198E-03   -0.22480E-03 11000   0.334E-01    0.287E-01
DAV:   3    -0.192151483185E+03    0.87020E-03   -0.13335E-03 10040   0.287E-01    0.598E-02
DAV:   4    -0.192151522925E+03   -0.39740E-04   -0.22362E-04  7240   0.125E-01
  47 F= -.19215152E+03 E0= -.19206579E+03  d E =-.145427E-02
       N       E                     dE             d eps       ncg     rms          rms(c)
DAV:   1    -0.192156986340E+03   -0.55032E-02   -0.31742E-01  8160   0.128E+00    0.216E-01
DAV:   2    -0.192157144210E+03   -0.15787E-03   -0.11878E-02 11480   0.407E-01    0.284E-01
DAV:   3    -0.192157192076E+03   -0.47866E-04   -0.46769E-03 11640   0.499E-01    0.307E-01
DAV:   4    -0.192156213722E+03    0.97835E-03   -0.20856E-03 10120   0.326E-01    0.116E-01
DAV:   5    -0.192156243445E+03   -0.29722E-04   -0.95097E-04  9640   0.236E-01
  48 F= -.19215624E+03 E0= -.19207019E+03  d E =-.472052E-02
       N       E                     dE             d eps       ncg     rms          rms(c)
DAV:   1    -0.192158564451E+03   -0.23507E-02   -0.84692E-02  8160   0.652E-01    0.952E-02
DAV:   2    -0.192159166629E+03   -0.60218E-03   -0.34325E-03 11640   0.332E-01    0.215E-01
DAV:   3    -0.192158646037E+03    0.52059E-03   -0.98587E-04 10520   0.272E-01    0.720E-02
DAV:   4    -0.192158669324E+03   -0.23287E-04   -0.28155E-04  8360   0.129E-01
  49 F= -.19215867E+03 E0= -.19207272E+03  d E =-.242588E-02
       N       E                     dE             d eps       ncg     rms          rms(c)
DAV:   1    -0.192162250057E+03   -0.36040E-02   -0.14858E-01  8160   0.837E-01    0.118E-01
DAV:   2    -0.192162896640E+03   -0.64658E-03   -0.47587E-03 11880   0.324E-01    0.238E-01
DAV:   3    -0.192162425305E+03    0.47133E-03   -0.14902E-03 11280   0.312E-01    0.123E-01
DAV:   4    -0.192162328789E+03    0.96516E-04   -0.36581E-04  8360   0.138E-01
  50 F= -.19216233E+03 E0= -.19207663E+03  d E =-.365947E-02
       N       E                     dE             d eps       ncg     rms          rms(c)
DAV:   1    -0.192165850916E+03   -0.34256E-02   -0.11723E-01  8160   0.761E-01    0.122E-01
DAV:   2    -0.192166632373E+03   -0.78146E-03   -0.45171E-03 12240   0.345E-01    0.279E-01
DAV:   3    -0.192165887802E+03    0.74457E-03   -0.19185E-03 10880   0.340E-01    0.109E-01
DAV:   4    -0.192165829847E+03    0.57955E-04   -0.34050E-04  8480   0.121E-01
  51 F= -.19216583E+03 E0= -.19208061E+03  d E =-.350106E-02
       N       E                     dE             d eps       ncg     rms          rms(c)
DAV:   1    -0.192161806398E+03    0.40814E-02   -0.20130E-01  8160   0.102E+00    0.192E-01
DAV:   2    -0.192165842200E+03   -0.40358E-02   -0.12846E-02 12240   0.755E-01    0.650E-01
DAV:   3    -0.192161559189E+03    0.42830E-02   -0.63306E-03 11480   0.658E-01    0.108E-01
DAV:   4    -0.192161709096E+03   -0.14991E-03   -0.99534E-04 10120   0.222E-01    0.176E-01
DAV:   5    -0.192161411999E+03    0.29710E-03   -0.76919E-04  9120   0.229E-01    0.833E-02
DAV:   6    -0.192161360624E+03    0.51375E-04   -0.25494E-04  7440   0.107E-01
  52 F= -.19216136E+03 E0= -.19207542E+03  d E =0.446922E-02
       N       E                     dE             d eps       ncg     rms          rms(c)
DAV:   1    -0.192155682327E+03    0.57297E-02   -0.35288E-01  8160   0.129E+00    0.180E-01
DAV:   2    -0.192156812337E+03   -0.11300E-02   -0.11832E-02 12080   0.469E-01    0.301E-01
DAV:   3    -0.192155992819E+03    0.81952E-03   -0.32802E-03 12360   0.436E-01    0.164E-01
DAV:   4    -0.192156132247E+03   -0.13943E-03   -0.13735E-03 10320   0.271E-01    0.213E-01
DAV:   5    -0.192155659229E+03    0.47302E-03   -0.87654E-04  9280   0.242E-01    0.609E-02
DAV:   6    -0.192155657728E+03    0.15018E-05   -0.17112E-04  6280   0.821E-02
  53 F= -.19215566E+03 E0= -.19206934E+03  d E =0.570290E-02
       N       E                     dE             d eps       ncg     rms          rms(c)
DAV:   1    -0.192154492924E+03    0.11663E-02   -0.21053E-02  8160   0.327E-01    0.570E-02
DAV:   2    -0.192154864638E+03   -0.37171E-03   -0.11190E-03 11560   0.223E-01    0.185E-01
DAV:   3    -0.192154474914E+03    0.38972E-03   -0.51347E-04  8680   0.201E-01    0.314E-02
DAV:   4    -0.192154494834E+03   -0.19919E-04   -0.57828E-05  5920   0.567E-02
  54 F= -.19215449E+03 E0= -.19206820E+03  d E =0.116289E-02
       N       E                     dE             d eps       ncg     rms          rms(c)
DAV:   1    -0.192164676082E+03   -0.10201E-01   -0.11882E+00  8160   0.236E+00    0.281E-01
DAV:   2    -0.192166580466E+03   -0.19044E-02   -0.29520E-02 10720   0.608E-01    0.329E-01
DAV:   3    -0.192166268670E+03    0.31180E-03   -0.59104E-03 12240   0.626E-01    0.312E-01
DAV:   4    -0.192165550205E+03    0.71847E-03   -0.26343E-03 12040   0.414E-01    0.226E-01
DAV:   5    -0.192165269398E+03    0.28081E-03   -0.18778E-03 10040   0.329E-01    0.170E-01
DAV:   6    -0.192165035706E+03    0.23369E-03   -0.86997E-04  9960   0.200E-01    0.754E-02
DAV:   7    -0.192165005044E+03    0.30662E-04   -0.28573E-04  9160   0.120E-01
  55 F= -.19216501E+03 E0= -.19207927E+03  d E =-.105102E-01
       N       E                     dE             d eps       ncg     rms          rms(c)
DAV:   1    -0.192167487389E+03   -0.24517E-02   -0.71975E-02  8160   0.606E-01    0.105E-01
DAV:   2    -0.192167624617E+03   -0.13723E-03   -0.40045E-03 11520   0.221E-01    0.127E-01
DAV:   3    -0.192167609463E+03    0.15154E-04   -0.99466E-04 10200   0.243E-01
  56 F= -.19216761E+03 E0= -.19208168E+03  d E =-.260442E-02
       N       E                     dE             d eps       ncg     rms          rms(c)
DAV:   1    -0.192171361185E+03   -0.37366E-02   -0.12884E-01  8160   0.795E-01    0.126E-01
DAV:   2    -0.192172525271E+03   -0.11641E-02   -0.49503E-03 12280   0.412E-01    0.327E-01
DAV:   3    -0.192171407747E+03    0.11175E-02   -0.21837E-03 10920   0.385E-01    0.111E-01
DAV:   4    -0.192171421335E+03   -0.13588E-04   -0.51826E-04  8520   0.168E-01
  57 F= -.19217142E+03 E0= -.19208549E+03  d E =-.381187E-02
       N       E                     dE             d eps       ncg     rms          rms(c)
DAV:   1    -0.192175029510E+03   -0.36218E-02   -0.12405E-01  8160   0.805E-01    0.138E-01
DAV:   2    -0.192175754157E+03   -0.72465E-03   -0.56967E-03 12320   0.369E-01    0.276E-01
DAV:   3    -0.192175024793E+03    0.72936E-03   -0.21925E-03 11440   0.374E-01    0.134E-01
DAV:   4    -0.192174884225E+03    0.14057E-03   -0.50084E-04  8880   0.154E-01    0.711E-02
DAV:   5    -0.192174811690E+03    0.72535E-04   -0.26441E-04  7080   0.100E-01
  58 F= -.19217481E+03 E0= -.19208970E+03  d E =-.339035E-02
       N       E                     dE             d eps       ncg     rms          rms(c)
DAV:   1    -0.192181634368E+03   -0.67501E-02   -0.31365E-01  8160   0.122E+00    0.163E-01
DAV:   2    -0.192182468408E+03   -0.83404E-03   -0.91284E-03 11440   0.352E-01    0.255E-01
DAV:   3    -0.192182099294E+03    0.36911E-03   -0.23953E-03 12680   0.404E-01    0.195E-01
DAV:   4    -0.192181877170E+03    0.22212E-03   -0.82370E-04 10080   0.224E-01    0.133E-01
DAV:   5    -0.192181688822E+03    0.18835E-03   -0.49702E-04  8960   0.190E-01    0.652E-02
DAV:   6    -0.192181671950E+03    0.16872E-04   -0.19905E-04  7800   0.925E-02
  59 F= -.19218167E+03 E0= -.19209656E+03  d E =-.686026E-02
       N       E                     dE             d eps       ncg     rms          rms(c)
DAV:   1    -0.192168423251E+03    0.13266E-01   -0.12993E+00  8160   0.246E+00    0.326E-01
DAV:   2    -0.192174620267E+03   -0.61970E-02   -0.39306E-02 11440   0.937E-01    0.726E-01
DAV:   3    -0.192169464366E+03    0.51559E-02   -0.13917E-02 12520   0.931E-01    0.287E-01
DAV:   4    -0.192169185048E+03    0.27932E-03   -0.26486E-03 11080   0.376E-01    0.245E-01
DAV:   5    -0.192168586888E+03    0.59816E-03   -0.18422E-03 10520   0.370E-01    0.151E-01
DAV:   6    -0.192168601681E+03   -0.14793E-04   -0.99224E-04 10360   0.238E-01
  60 F= -.19216860E+03 E0= -.19208284E+03  d E =0.130703E-01
       N       E                     dE             d eps       ncg     rms          rms(c)
DAV:   1    -0.192158142651E+03    0.10444E-01   -0.10911E+00  8160   0.226E+00    0.312E-01
DAV:   2    -0.192164150113E+03   -0.60075E-02   -0.36369E-02 11760   0.990E-01    0.705E-01
DAV:   3    -0.192159115355E+03    0.50348E-02   -0.13298E-02 12360   0.886E-01    0.263E-01
DAV:   4    -0.192159689443E+03   -0.57409E-03   -0.36589E-03 10920   0.478E-01    0.348E-01
DAV:   5    -0.192158292566E+03    0.13969E-02   -0.22190E-03 10480   0.399E-01    0.999E-02
DAV:   6    -0.192158686899E+03   -0.39433E-03   -0.96379E-04 10320   0.254E-01    0.209E-01
DAV:   7    -0.192158217991E+03    0.46891E-03   -0.61408E-04  8800   0.219E-01    0.356E-02
DAV:   8    -0.192158204042E+03    0.13949E-04   -0.55293E-05  6400   0.392E-02
  61 F= -.19215820E+03 E0= -.19207252E+03  d E =0.103976E-01
       N       E                     dE             d eps       ncg     rms          rms(c)
DAV:   1    -0.192162418795E+03   -0.42008E-02   -0.24571E-01  8160   0.107E+00    0.146E-01
DAV:   2    -0.192164248744E+03   -0.18299E-02   -0.98107E-03 10880   0.549E-01    0.379E-01
DAV:   3    -0.192162733284E+03    0.15155E-02   -0.27279E-03 11880   0.442E-01    0.115E-01
DAV:   4    -0.192162771887E+03   -0.38603E-04   -0.57005E-04  8720   0.196E-01
  62 F= -.19216277E+03 E0= -.19207672E+03  d E =-.456785E-02
       N       E                     dE             d eps       ncg     rms          rms(c)
DAV:   1    -0.192159107070E+03    0.36262E-02   -0.16351E-01  8160   0.882E-01    0.121E-01
DAV:   2    -0.192161080569E+03   -0.19735E-02   -0.71247E-03 11920   0.491E-01    0.416E-01
DAV:   3    -0.192159246599E+03    0.18340E-02   -0.33461E-03 11480   0.436E-01    0.806E-02
DAV:   4    -0.192159311885E+03   -0.65286E-04   -0.37919E-04  8600   0.151E-01
  63 F= -.19215931E+03 E0= -.19207372E+03  d E =0.346000E-02
       N       E                     dE             d eps       ncg     rms          rms(c)
DAV:   1    -0.192160618582E+03   -0.13720E-02   -0.83457E-02  8160   0.628E-01    0.811E-02
DAV:   2    -0.192160908696E+03   -0.29011E-03   -0.33342E-03 10320   0.188E-01    0.129E-01
DAV:   3    -0.192160850882E+03    0.57814E-04   -0.79568E-04  9960   0.214E-01
  64 F= -.19216085E+03 E0= -.19207590E+03  d E =-.153900E-02
       N       E                     dE             d eps       ncg     rms          rms(c)
DAV:   1    -0.192162962360E+03   -0.20537E-02   -0.84303E-02  8160   0.652E-01    0.935E-02
DAV:   2    -0.192163439153E+03   -0.47679E-03   -0.30042E-03 11640   0.270E-01    0.214E-01
DAV:   3    -0.192163001539E+03    0.43761E-03   -0.11144E-03 10040   0.263E-01    0.802E-02
DAV:   4    -0.192162946917E+03    0.54622E-04   -0.19316E-04  7640   0.885E-02
  65 F= -.19216295E+03 E0= -.19207771E+03  d E =-.209604E-02
       N       E                     dE             d eps       ncg     rms          rms(c)
DAV:   1    -0.192161575053E+03    0.14265E-02   -0.36057E-01  8160   0.132E+00    0.217E-01
DAV:   2    -0.192163124919E+03   -0.15499E-02   -0.17172E-02 10960   0.615E-01    0.392E-01
DAV:   3    -0.192161691045E+03    0.14339E-02   -0.44106E-03 11840   0.547E-01    0.201E-01
DAV:   4    -0.192161595103E+03    0.95942E-04   -0.19122E-03 10240   0.325E-01    0.207E-01
DAV:   5    -0.192161229265E+03    0.36584E-03   -0.13957E-03  9960   0.284E-01    0.116E-01
DAV:   6    -0.192161136074E+03    0.93191E-04   -0.56687E-04  9040   0.161E-01
  66 F= -.19216114E+03 E0= -.19207559E+03  d E =0.181084E-02
       N       E                     dE             d eps       ncg     rms          rms(c)
DAV:   1    -0.192169582659E+03   -0.83534E-02   -0.61194E-01  8160   0.176E+00    0.297E-01
DAV:   2    -0.192170395043E+03   -0.81238E-03   -0.21929E-02 10360   0.607E-01    0.431E-01
DAV:   3    -0.192169602968E+03    0.79208E-03   -0.76883E-03 12080   0.726E-01    0.366E-01
DAV:   4    -0.192168034585E+03    0.15684E-02   -0.29049E-03 11480   0.399E-01    0.112E-01
DAV:   5    -0.192167891539E+03    0.14305E-03   -0.12261E-03 11040   0.200E-01    0.114E-01
DAV:   6    -0.192167802546E+03    0.88993E-04   -0.60717E-04  9920   0.192E-01
  67 F= -.19216780E+03 E0= -.19208287E+03  d E =-.666647E-02
       N       E                     dE             d eps       ncg     rms          rms(c)
DAV:   1    -0.192169399573E+03   -0.15080E-02   -0.85072E-02  8160   0.644E-01    0.113E-01
DAV:   2    -0.192169623537E+03   -0.22396E-03   -0.38042E-03 10600   0.258E-01    0.187E-01
DAV:   3    -0.192169414712E+03    0.20882E-03   -0.12200E-03 10280   0.278E-01    0.137E-01
DAV:   4    -0.192169232239E+03    0.18247E-03   -0.46072E-04  8320   0.153E-01    0.601E-02
DAV:   5    -0.192169238768E+03   -0.65286E-05   -0.23960E-04  7160   0.125E-01
  68 F= -.19216924E+03 E0= -.19208411E+03  d E =-.143622E-02
       N       E                     dE             d eps       ncg     rms          rms(c)
DAV:   1    -0.192176263648E+03   -0.70314E-02   -0.48674E-01  8160   0.151E+00    0.195E-01
DAV:   2    -0.192177595496E+03   -0.13318E-02   -0.13956E-02 10640   0.528E-01    0.321E-01
DAV:   3    -0.192176684906E+03    0.91059E-03   -0.35242E-03 12320   0.473E-01    0.179E-01
DAV:   4    -0.192176611487E+03    0.73419E-04   -0.10950E-03 10280   0.270E-01    0.175E-01
DAV:   5    -0.192176322435E+03    0.28905E-03   -0.73968E-04  9880   0.244E-01    0.823E-02
DAV:   6    -0.192176274163E+03    0.48271E-04   -0.24058E-04  7720   0.104E-01
  69 F= -.19217627E+03 E0= -.19209139E+03  d E =-.703540E-02
       N       E                     dE             d eps       ncg     rms          rms(c)
DAV:   1    -0.192176504545E+03   -0.18211E-03   -0.15664E-02  8160   0.284E-01    0.687E-02
DAV:   2    -0.192177446424E+03   -0.94188E-03   -0.20563E-03 12560   0.327E-01    0.296E-01
DAV:   3    -0.192176485526E+03    0.96090E-03   -0.11481E-03 10000   0.285E-01    0.283E-02
DAV:   4    -0.192176497954E+03   -0.12429E-04   -0.45594E-05  5920   0.447E-02
  70 F= -.19217650E+03 E0= -.19209149E+03  d E =-.223791E-03
       N       E                     dE             d eps       ncg     rms          rms(c)
DAV:   1    -0.192182857077E+03   -0.63716E-02   -0.54178E-01  8160   0.158E+00    0.184E-01
DAV:   2    -0.192184236575E+03   -0.13795E-02   -0.16863E-02 11160   0.466E-01    0.253E-01
DAV:   3    -0.192183984691E+03    0.25188E-03   -0.29577E-03 11760   0.441E-01    0.223E-01
DAV:   4    -0.192183580742E+03    0.40395E-03   -0.92414E-04 10280   0.263E-01    0.131E-01
DAV:   5    -0.192183444186E+03    0.13656E-03   -0.52459E-04  8960   0.202E-01    0.834E-02
DAV:   6    -0.192183432519E+03    0.11667E-04   -0.30042E-04  8880   0.119E-01
  71 F= -.19218343E+03 E0= -.19209831E+03  d E =-.693456E-02
       N       E                     dE             d eps       ncg     rms          rms(c)
DAV:   1    -0.192187753720E+03   -0.43095E-02   -0.18210E-01  8160   0.973E-01    0.182E-01
DAV:   2    -0.192187372270E+03    0.38145E-03   -0.71514E-03 10320   0.257E-01    0.150E-01
DAV:   3    -0.192187881671E+03   -0.50940E-03   -0.22748E-03 11240   0.373E-01    0.288E-01
DAV:   4    -0.192187033329E+03    0.84834E-03   -0.17056E-03 10160   0.332E-01    0.992E-02
DAV:   5    -0.192186933566E+03    0.99763E-04   -0.50324E-04  8840   0.140E-01
  72 F= -.19218693E+03 E0= -.19210162E+03  d E =-.350105E-02
       N       E                     dE             d eps       ncg     rms          rms(c)
DAV:   1    -0.192179008338E+03    0.80250E-02   -0.90118E-01  8160   0.204E+00    0.248E-01
DAV:   2    -0.192182421220E+03   -0.34129E-02   -0.32672E-02 11560   0.716E-01    0.437E-01
DAV:   3    -0.192180706686E+03    0.17145E-02   -0.64556E-03 12120   0.640E-01    0.235E-01
DAV:   4    -0.192180465212E+03    0.24147E-03   -0.16202E-03 10400   0.335E-01    0.203E-01
DAV:   5    -0.192180045165E+03    0.42005E-03   -0.96219E-04 10080   0.282E-01    0.944E-02
DAV:   6    -0.192179991082E+03    0.54084E-04   -0.43437E-04  9440   0.122E-01
  73 F= -.19217999E+03 E0= -.19209470E+03  d E =0.694248E-02
       N       E                     dE             d eps       ncg     rms          rms(c)
DAV:   1    -0.192195513576E+03   -0.15468E-01   -0.18141E+00  8160   0.291E+00    0.388E-01
DAV:   2    -0.192202750042E+03   -0.72365E-02   -0.62202E-02 11480   0.118E+00    0.739E-01
DAV:   3    -0.192197240013E+03    0.55100E-02   -0.16170E-02 12360   0.100E+00    0.333E-01
DAV:   4    -0.192197121094E+03    0.11892E-03   -0.44304E-03 11240   0.540E-01    0.350E-01
DAV:   5    -0.192195914289E+03    0.12068E-02   -0.29427E-03 10120   0.485E-01    0.165E-01
DAV:   6    -0.192195706723E+03    0.20757E-03   -0.11230E-03 10920   0.220E-01    0.108E-01
DAV:   7    -0.192195718328E+03   -0.11605E-04   -0.55575E-04  9640   0.201E-01
  74 F= -.19219572E+03 E0= -.19211013E+03  d E =-.157272E-01
       N       E                     dE             d eps       ncg     rms          rms(c)
DAV:   1    -0.192197289274E+03   -0.15826E-02   -0.10672E-01  8160   0.713E-01    0.975E-02
DAV:   2    -0.192197767446E+03   -0.47817E-03   -0.43706E-03 12360   0.281E-01    0.184E-01
DAV:   3    -0.192197496937E+03    0.27051E-03   -0.10382E-03 11000   0.261E-01    0.106E-01
DAV:   4    -0.192197387796E+03    0.10914E-03   -0.24666E-04  8040   0.115E-01    0.489E-02
DAV:   5    -0.192197378065E+03    0.97305E-05   -0.12578E-04  6960   0.882E-02
  75 F= -.19219738E+03 E0= -.19211200E+03  d E =-.165974E-02
       N       E                     dE             d eps       ncg     rms          rms(c)
DAV:   1    -0.192208429361E+03   -0.11042E-01   -0.64162E-01  8160   0.173E+00    0.227E-01
DAV:   2    -0.192210478635E+03   -0.20493E-02   -0.18468E-02 11160   0.571E-01    0.415E-01
DAV:   3    -0.192209094588E+03    0.13840E-02   -0.54390E-03 12440   0.592E-01    0.231E-01
DAV:   4    -0.192208526272E+03    0.56832E-03   -0.10042E-03 10160   0.228E-01    0.990E-02
DAV:   5    -0.192208584898E+03   -0.58626E-04   -0.67923E-04 10200   0.226E-01
  76 F= -.19220858E+03 E0= -.19212292E+03  d E =-.112068E-01
       N       E                     dE             d eps       ncg     rms          rms(c)
DAV:   1    -0.192210399418E+03   -0.18731E-02   -0.17863E-02  8160   0.327E-01    0.781E-02
DAV:   2    -0.192211150679E+03   -0.75126E-03   -0.17260E-03 12040   0.316E-01    0.268E-01
DAV:   3    -0.192210343347E+03    0.80733E-03   -0.94585E-04 10240   0.283E-01    0.487E-02
DAV:   4    -0.192210345369E+03   -0.20225E-05   -0.89081E-05  6120   0.748E-02
  77 F= -.19221035E+03 E0= -.19212450E+03  d E =-.176047E-02
       N       E                     dE             d eps       ncg     rms          rms(c)
DAV:   1    -0.192224835422E+03   -0.14492E-01   -0.10105E+00  8160   0.216E+00    0.292E-01
DAV:   2    -0.192229280261E+03   -0.44448E-02   -0.32081E-02 11200   0.902E-01    0.586E-01
DAV:   3    -0.192225541393E+03    0.37389E-02   -0.97596E-03 12480   0.772E-01    0.232E-01
DAV:   4    -0.192225868884E+03   -0.32749E-03   -0.24218E-03 11000   0.415E-01    0.293E-01
DAV:   5    -0.192224929302E+03    0.93958E-03   -0.16726E-03 10120   0.378E-01    0.106E-01
DAV:   6    -0.192224883153E+03    0.46149E-04   -0.56739E-04 10280   0.133E-01
  78 F= -.19222488E+03 E0= -.19213857E+03  d E =-.145378E-01
       N       E                     dE             d eps       ncg     rms          rms(c)
DAV:   1    -0.192234893971E+03   -0.99647E-02   -0.47778E-01  8160   0.149E+00    0.205E-01
DAV:   2    -0.192237955378E+03   -0.30614E-02   -0.17384E-02 11240   0.657E-01    0.494E-01
DAV:   3    -0.192235353222E+03    0.26022E-02   -0.55510E-03 12360   0.594E-01    0.154E-01
DAV:   4    -0.192235387840E+03   -0.34618E-04   -0.88756E-04 10000   0.241E-01
  79 F= -.19223539E+03 E0= -.19214853E+03  d E =-.105047E-01
       N       E                     dE             d eps       ncg     rms          rms(c)
DAV:   1    -0.192233375156E+03    0.19781E-02   -0.17467E-02  8160   0.376E-01    0.730E-02
DAV:   2    -0.192234203429E+03   -0.82827E-03   -0.18928E-03 11960   0.354E-01    0.248E-01
DAV:   3    -0.192233363836E+03    0.83959E-03   -0.91111E-04 10200   0.288E-01    0.316E-02
DAV:   4    -0.192233382910E+03   -0.19074E-04   -0.60672E-05  5920   0.635E-02
  80 F= -.19223338E+03 E0= -.19214690E+03  d E =0.200493E-02
       N       E                     dE             d eps       ncg     rms          rms(c)
DAV:   1    -0.192243545991E+03   -0.10182E-01   -0.52276E-01  8160   0.156E+00    0.229E-01
DAV:   2    -0.192246786464E+03   -0.32405E-02   -0.22158E-02 10640   0.738E-01    0.509E-01
DAV:   3    -0.192243981715E+03    0.28047E-02   -0.71919E-03 12080   0.648E-01    0.183E-01
DAV:   4    -0.192244012916E+03   -0.31200E-04   -0.14037E-03  9960   0.307E-01    0.193E-01
DAV:   5    -0.192243614457E+03    0.39846E-03   -0.88307E-04  9920   0.272E-01    0.940E-02
DAV:   6    -0.192243542840E+03    0.71616E-04   -0.40184E-04  9440   0.126E-01
  81 F= -.19224354E+03 E0= -.19215663E+03  d E =-.101599E-01
       N       E                     dE             d eps       ncg     rms          rms(c)
DAV:   1    -0.192248183670E+03   -0.45692E-02   -0.11002E-01  8160   0.738E-01    0.134E-01
DAV:   2    -0.192248459501E+03   -0.27583E-03   -0.43154E-03 10880   0.288E-01    0.218E-01
DAV:   3    -0.192248107162E+03    0.35234E-03   -0.18311E-03 11200   0.340E-01    0.156E-01
DAV:   4    -0.192247854587E+03    0.25258E-03   -0.47572E-04  8560   0.171E-01    0.674E-02
DAV:   5    -0.192247844248E+03    0.10339E-04   -0.30887E-04  8960   0.145E-01
  82 F= -.19224784E+03 E0= -.19216050E+03  d E =-.430141E-02
       N       E                     dE             d eps       ncg     rms          rms(c)
DAV:   1    -0.192259194429E+03   -0.11340E-01   -0.70052E-01  8160   0.179E+00    0.240E-01
DAV:   2    -0.192263198071E+03   -0.40036E-02   -0.24622E-02 11240   0.766E-01    0.558E-01
