<?xml version="1.0" encoding="ISO-8859-1"?>
<modeling>
 <generator>
  <i name="program" type="string">vasp </i>
  <i name="version" type="string">5.4.1  </i>
  <i name="subversion" type="string">05Feb16 (build Jul 05 2020 17:13:04) complex                          parallel </i>
  <i name="platform" type="string">IFC91_ompi </i>
  <i name="date" type="string">2024 05 01 </i>
  <i name="time" type="string">07:15:30 </i>
 </generator>
 <incar>
  <i type="int" name="ISTART">     0</i>
  <i type="string" name="PREC">normal</i>
  <i type="string" name="ALGO"> Normal</i>
  <i type="int" name="ISPIN">     1</i>
  <i type="int" name="ICHARG">     2</i>
  <i type="int" name="IBRION">     1</i>
  <i type="int" name="NSW">   100</i>
  <i type="int" name="ISIF">     3</i>
  <i type="int" name="ISYM">     0</i>
  <i name="SYMPREC">      0.00000001</i>
  <i name="POTIM">      0.50000000</i>
  <i type="logical" name="LREAL"> F  </i>
  <i type="logical" name="LPLANE"> F  </i>
  <i type="int" name="ISMEAR">     0</i>
  <i type="logical" name="LWAVE"> F  </i>
  <i type="logical" name="LCHARG"> F  </i>
  <v type="int" name="KPOINT_BSE">    -1     0     0     0</v>
 </incar>
 <kpoints>
  <generation param="Gamma">
   <v type="int" name="divisions">       8        8        1 </v>
   <v name="usershift">      0.00000000       0.00000000       0.00000000 </v>
   <v name="genvec1">      0.12500000       0.00000000       0.00000000 </v>
   <v name="genvec2">     -0.00000000       0.12500000       0.00000000 </v>
   <v name="genvec3">      0.00000000       0.00000000       1.00000000 </v>
   <v name="shift">      0.00000000       0.00000000       0.00000000 </v>
  </generation>
  <varray name="kpointlist" >
   <v>       0.00000000       0.00000000       0.00000000 </v>
   <v>       0.12500000       0.00000000       0.00000000 </v>
   <v>       0.25000000       0.00000000       0.00000000 </v>
   <v>       0.37500000       0.00000000       0.00000000 </v>
   <v>       0.50000000       0.00000000       0.00000000 </v>
   <v>       0.00000000       0.12500000       0.00000000 </v>
   <v>       0.12500000       0.12500000       0.00000000 </v>
   <v>       0.25000000       0.12500000       0.00000000 </v>
   <v>       0.37500000       0.12500000       0.00000000 </v>
   <v>       0.50000000       0.12500000       0.00000000 </v>
   <v>      -0.37500000       0.12500000       0.00000000 </v>
   <v>      -0.25000000       0.12500000       0.00000000 </v>
   <v>      -0.12500000       0.12500000       0.00000000 </v>
   <v>       0.00000000       0.25000000       0.00000000 </v>
   <v>       0.12500000       0.25000000       0.00000000 </v>
   <v>       0.25000000       0.25000000       0.00000000 </v>
   <v>       0.37500000       0.25000000       0.00000000 </v>
   <v>       0.50000000       0.25000000       0.00000000 </v>
   <v>      -0.37500000       0.25000000       0.00000000 </v>
   <v>      -0.25000000       0.25000000       0.00000000 </v>
   <v>      -0.12500000       0.25000000       0.00000000 </v>
   <v>      -0.00000000       0.37500000       0.00000000 </v>
   <v>       0.12500000       0.37500000       0.00000000 </v>
   <v>       0.25000000       0.37500000       0.00000000 </v>
   <v>       0.37500000       0.37500000       0.00000000 </v>
   <v>       0.50000000       0.37500000       0.00000000 </v>
   <v>      -0.37500000       0.37500000       0.00000000 </v>
   <v>      -0.25000000       0.37500000       0.00000000 </v>
   <v>      -0.12500000       0.37500000       0.00000000 </v>
   <v>       0.00000000       0.50000000       0.00000000 </v>
   <v>       0.12500000       0.50000000       0.00000000 </v>
   <v>       0.25000000       0.50000000       0.00000000 </v>
   <v>       0.37500000       0.50000000       0.00000000 </v>
   <v>       0.50000000       0.50000000       0.00000000 </v>
  </varray>
  <varray name="weights" >
   <v>       0.01562500 </v>
   <v>       0.03125000 </v>
   <v>       0.03125000 </v>
   <v>       0.03125000 </v>
   <v>       0.01562500 </v>
   <v>       0.03125000 </v>
   <v>       0.03125000 </v>
   <v>       0.03125000 </v>
   <v>       0.03125000 </v>
   <v>       0.03125000 </v>
   <v>       0.03125000 </v>
   <v>       0.03125000 </v>
   <v>       0.03125000 </v>
   <v>       0.03125000 </v>
   <v>       0.03125000 </v>
   <v>       0.03125000 </v>
   <v>       0.03125000 </v>
   <v>       0.03125000 </v>
   <v>       0.03125000 </v>
   <v>       0.03125000 </v>
   <v>       0.03125000 </v>
   <v>       0.03125000 </v>
   <v>       0.03125000 </v>
   <v>       0.03125000 </v>
   <v>       0.03125000 </v>
   <v>       0.03125000 </v>
   <v>       0.03125000 </v>
   <v>       0.03125000 </v>
   <v>       0.03125000 </v>
   <v>       0.01562500 </v>
   <v>       0.03125000 </v>
   <v>       0.03125000 </v>
   <v>       0.03125000 </v>
   <v>       0.01562500 </v>
  </varray>
 </kpoints>
 <parameters>
  <separator name="general" >
   <i type="string" name="SYSTEM">unknown system</i>
   <i type="logical" name="LCOMPAT"> F  </i>
  </separator>
  <separator name="electronic" >
   <i type="string" name="PREC">normal</i>
   <i name="ENMAX">    280.00000000</i>
   <i name="ENAUG">    373.43800000</i>
   <i name="EDIFF">      0.00010000</i>
   <i type="int" name="IALGO">    38</i>
   <i type="int" name="IWAVPR">    11</i>
   <i type="int" name="NBANDS">   120</i>
   <i name="NELECT">    159.00000000</i>
   <i type="int" name="TURBO">     0</i>
   <i type="int" name="IRESTART">     0</i>
   <i type="int" name="NREBOOT">     0</i>
   <i type="int" name="NMIN">     0</i>
   <i name="EREF">      0.00000000</i>
   <separator name="electronic smearing" >
    <i type="int" name="ISMEAR">     0</i>
    <i name="SIGMA">      0.20000000</i>
    <i name="KSPACING">      0.50000000</i>
    <i type="logical" name="KGAMMA"> T  </i>
   </separator>
   <separator name="electronic projectors" >
    <i type="logical" name="LREAL"> F  </i>
    <v name="ROPT">      0.00000000      0.00000000      0.00000000      0.00000000</v>
    <i type="int" name="LMAXPAW">  -100</i>
    <i type="int" name="LMAXMIX">     2</i>
    <i type="logical" name="NLSPLINE"> F  </i>
   </separator>
   <separator name="electronic startup" >
    <i type="int" name="ISTART">     0</i>
    <i type="int" name="ICHARG">     2</i>
    <i type="int" name="INIWAV">     1</i>
   </separator>
   <separator name="electronic spin" >
    <i type="int" name="ISPIN">     1</i>
    <i type="logical" name="LNONCOLLINEAR"> F  </i>
    <v name="MAGMOM">      1.00000000      1.00000000      1.00000000      1.00000000      1.00000000      1.00000000      1.00000000      1.00000000      1.00000000      1.00000000      1.00000000      1.00000000      1.00000000      1.00000000      1.00000000      1.00000000      1.00000000      1.00000000      1.00000000      1.00000000
      1.00000000      1.00000000      1.00000000      1.00000000      1.00000000      1.00000000      1.00000000</v>
    <i name="NUPDOWN">     -1.00000000</i>
    <i type="logical" name="LSORBIT"> F  </i>
    <v name="SAXIS">      0.00000000      0.00000000      1.00000000</v>
    <i type="logical" name="LSPIRAL"> F  </i>
    <v name="QSPIRAL">      0.00000000      0.00000000      0.00000000</v>
    <i type="logical" name="LZEROZ"> F  </i>
   </separator>
   <separator name="electronic exchange-correlation" >
    <i type="logical" name="LASPH"> F  </i>
    <i type="logical" name="LMETAGGA"> F  </i>
   </separator>
   <separator name="electronic convergence" >
    <i type="int" name="NELM">    60</i>
    <i type="int" name="NELMDL">    -5</i>
    <i type="int" name="NELMIN">     2</i>
    <i name="ENINI">    280.00000000</i>
    <separator name="electronic convergence detail" >
     <i type="logical" name="LDIAG"> T  </i>
     <i type="logical" name="LSUBROT"> F  </i>
     <i name="WEIMIN">      0.00100000</i>
     <i name="EBREAK">      0.00000021</i>
     <i name="DEPER">      0.30000000</i>
     <i type="int" name="NRMM">     4</i>
     <i name="TIME">      0.40000000</i>
    </separator>
   </separator>
   <separator name="electronic mixer" >
    <i name="AMIX">      0.40000000</i>
    <i name="BMIX">      1.00000000</i>
    <i name="AMIN">      0.10000000</i>
    <i name="AMIX_MAG">      1.60000000</i>
    <i name="BMIX_MAG">      1.00000000</i>
    <separator name="electronic mixer details" >
     <i type="int" name="IMIX">     4</i>
     <i type="logical" name="MIXFIRST"> F  </i>
     <i type="int" name="MAXMIX">   -45</i>
     <i name="WC">    100.00000000</i>
     <i type="int" name="INIMIX">     1</i>
     <i type="int" name="MIXPRE">     1</i>
     <i type="int" name="MREMOVE">     5</i>
    </separator>
   </separator>
   <separator name="electronic dipolcorrection" >
    <i type="logical" name="LDIPOL"> F  </i>
    <i type="logical" name="LMONO"> F  </i>
    <i type="int" name="IDIPOL">     0</i>
    <i name="EPSILON">      1.00000000</i>
    <v name="DIPOL">   -100.00000000   -100.00000000   -100.00000000</v>
    <i name="EFIELD">      0.00000000</i>
   </separator>
  </separator>
  <separator name="grids" >
   <i type="int" name="NGX">    42</i>
   <i type="int" name="NGY">    42</i>
   <i type="int" name="NGZ">   126</i>
   <i type="int" name="NGXF">    84</i>
   <i type="int" name="NGYF">    84</i>
   <i type="int" name="NGZF">   252</i>
   <i type="logical" name="ADDGRID"> F  </i>
  </separator>
  <separator name="ionic" >
   <i type="int" name="NSW">   100</i>
   <i type="int" name="IBRION">     1</i>
   <i type="int" name="ISIF">     3</i>
   <i name="PSTRESS">      0.00000000</i>
   <i name="EDIFFG">      0.00100000</i>
   <i type="int" name="NFREE">     0</i>
   <i name="POTIM">      0.50000000</i>
   <i name="SMASS">     -3.00000000</i>
   <i name="SCALEE">      1.00000000</i>
  </separator>
  <separator name="ionic md" >
   <i name="TEBEG">      0.00010000</i>
   <i name="TEEND">      0.00010000</i>
   <i type="int" name="NBLOCK">     1</i>
   <i type="int" name="KBLOCK">   100</i>
   <i type="int" name="NPACO">   256</i>
   <i name="APACO">     16.00000000</i>
  </separator>
  <separator name="symmetry" >
   <i type="int" name="ISYM">     0</i>
   <i name="SYMPREC">      0.00000001</i>
  </separator>
  <separator name="dos" >
   <i type="logical" name="LORBIT"> F  </i>
   <v name="RWIGS">     -1.00000000     -1.00000000     -1.00000000     -1.00000000</v>
   <i type="int" name="NEDOS">   301</i>
   <i name="EMIN">     10.00000000</i>
   <i name="EMAX">    -10.00000000</i>
   <i name="EFERMI">      0.00000000</i>
  </separator>
  <separator name="writing" >
   <i type="int" name="NWRITE">     2</i>
   <i type="logical" name="LWAVE"> F  </i>
   <i type="logical" name="LCHARG"> F  </i>
   <i type="logical" name="LPARD"> F  </i>
   <i type="logical" name="LVTOT"> F  </i>
   <i type="logical" name="LVHAR"> F  </i>
   <i type="logical" name="LELF"> F  </i>
   <i type="logical" name="LOPTICS"> F  </i>
   <v name="STM">      0.00000000      0.00000000      0.00000000      0.00000000      0.00000000      0.00000000      0.00000000</v>
  </separator>
  <separator name="performance" >
   <i type="int" name="NPAR">    40</i>
   <i type="int" name="NSIM">     4</i>
   <i type="int" name="NBLK">    -1</i>
   <i type="logical" name="LPLANE"> F  </i>
   <i type="logical" name="LSCALAPACK"> T  </i>
   <i type="logical" name="LSCAAWARE"> F  </i>
   <i type="logical" name="LSCALU"> F  </i>
   <i type="logical" name="LASYNC"> F  </i>
   <i type="logical" name="LORBITALREAL"> F  </i>
  </separator>
  <separator name="miscellaneous" >
   <i type="int" name="IDIOT">     3</i>
   <i type="logical" name="LMUSIC"> F  </i>
   <v name="POMASS">     50.94100000     95.94000000    183.85000000     32.06600000</v>
   <v name="DARWINR">      0.00000000      0.00000000      0.00000000      0.00000000</v>
   <v name="DARWINV">      1.00000000      1.00000000      1.00000000      1.00000000</v>
   <i type="logical" name="LCORR"> T  </i>
  </separator>
  <i type="logical" name="GGA_COMPAT"> T  </i>
  <i type="logical" name="LBERRY"> F  </i>
  <i type="int" name="ICORELEVEL">     0</i>
  <i type="logical" name="LDAU"> F  </i>
  <i type="int" name="I_CONSTRAINED_M">     0</i>
  <separator name="electronic exchange-correlation" >
   <i type="string" name="GGA">--</i>
   <i type="int" name="VOSKOWN">     0</i>
   <i type="logical" name="LHFCALC"> F  </i>
   <i type="string" name="PRECFOCK"></i>
   <i type="logical" name="LSYMGRAD"> F  </i>
   <i type="logical" name="LHFONE"> F  </i>
   <i type="logical" name="LRHFCALC"> F  </i>
   <i type="logical" name="LTHOMAS"> F  </i>
   <i type="logical" name="LMODELHF"> F  </i>
   <i name="ENCUT4O">     -1.00000000</i>
   <i type="int" name="EXXOEP">     0</i>
   <i type="int" name="FOURORBIT">     0</i>
   <i name="AEXX">      0.00000000</i>
   <i name="HFALPHA">      0.00000000</i>
   <i name="MCALPHA">      0.00000000</i>
   <i name="ALDAX">      1.00000000</i>
   <i name="AGGAX">      1.00000000</i>
   <i name="ALDAC">      1.00000000</i>
   <i name="AGGAC">      1.00000000</i>
   <i type="int" name="NKREDX">     1</i>
   <i type="int" name="NKREDY">     1</i>
   <i type="int" name="NKREDZ">     1</i>
   <i type="logical" name="SHIFTRED"> F  </i>
   <i type="logical" name="ODDONLY"> F  </i>
   <i type="logical" name="EVENONLY"> F  </i>
   <i type="int" name="LMAXFOCK">     0</i>
   <i type="int" name="NMAXFOCKAE">     0</i>
   <i type="logical" name="LFOCKAEDFT"> F  </i>
   <i name="HFSCREEN">      0.00000000</i>
   <i name="HFSCREENC">      0.00000000</i>
   <i type="int" name="NBANDSGWLOW">     0</i>
  </separator>
  <separator name="vdW DFT" >
   <i type="logical" name="LUSE_VDW"> F  </i>
   <i name="Zab_VDW">     -0.84910000</i>
   <i name="PARAM1">      0.12340000</i>
   <i name="PARAM2">      1.00000000</i>
   <i name="PARAM3">      0.00000000</i>
  </separator>
  <separator name="model GW" >
   <i type="int" name="MODEL_GW">     0</i>
   <i name="MODEL_EPS0">     58.26239943</i>
   <i name="MODEL_ALPHA">      1.00000000</i>
  </separator>
  <separator name="linear response parameters" >
   <i type="logical" name="LEPSILON"> F  </i>
   <i type="logical" name="LRPA"> F  </i>
   <i type="logical" name="LNABLA"> F  </i>
   <i type="logical" name="LVEL"> F  </i>
   <i type="int" name="KINTER">     0</i>
   <i name="CSHIFT">      0.10000000</i>
   <i name="OMEGAMAX">     -1.00000000</i>
   <i name="DEG_THRESHOLD">      0.00200000</i>
  </separator>
  <separator name="orbital magnetization" >
   <i type="logical" name="NUCIND"> F  </i>
   <v name="MAGPOS">      0.00000000      0.00000000      0.00000000</v>
   <i type="logical" name="LNICSALL"> T  </i>
   <i type="logical" name="ORBITALMAG"> F  </i>
   <i type="logical" name="LMAGBLOCH"> F  </i>
   <i type="logical" name="LCHIMAG"> F  </i>
   <i type="logical" name="LGAUGE"> T  </i>
   <i type="int" name="MAGATOM">     0</i>
   <v name="MAGDIPOL">      0.00000000      0.00000000      0.00000000</v>
   <v name="AVECCONST">      0.00000000      0.00000000      0.00000000</v>
  </separator>
  <separator name="response functions" >
   <i type="logical" name="LADDER"> F  </i>
   <i type="logical" name="LFXC"> F  </i>
   <i type="logical" name="LHARTREE"> T  </i>
   <i type="int" name="IBSE">     0</i>
   <v type="int" name="KPOINT">    -1     0     0     0</v>
   <i type="logical" name="LTCTE"> F  </i>
   <i type="logical" name="LTETE"> F  </i>
   <i type="logical" name="LTRIPLET"> F  </i>
   <i type="logical" name="LFXCEPS"> F  </i>
   <i type="logical" name="LFXHEG"> F  </i>
   <i type="int" name="NATURALO">     0</i>
   <i type="logical" name="L2ORDER"> F  </i>
   <i type="logical" name="LUSEW"> F  </i>
   <i name="ENCUTGW">     -2.00000000</i>
   <i name="ENCUTGWSOFT">     -2.00000000</i>
   <i name="ENCUTLF">     -1.00000000</i>
   <i type="int" name="LMAXMP2">    -1</i>
   <i name="SCISSOR">      0.00000000</i>
   <i type="int" name="NOMEGA">     0</i>
   <i type="int" name="NOMEGAR">     0</i>
   <i type="int" name="NBANDSGW">    -1</i>
   <i type="int" name="NBANDSO">    -1</i>
   <i type="int" name="NBANDSV">    -1</i>
   <i type="int" name="NELM">     1</i>
   <i type="int" name="NELMHF">     1</i>
   <i type="int" name="DIM">     3</i>
   <i type="int" name="ANTIRES">     0</i>
   <i name="OMEGAMAX">    -30.00000000</i>
   <i name="OMEGAMIN">    -30.00000000</i>
   <i name="OMEGATL">   -200.00000000</i>
   <i type="int" name="OMEGAGRID">     0</i>
   <i name="CSHIFT">     -0.10000000</i>
   <i type="logical" name="SELFENERGY"> F  </i>
   <i type="logical" name="LSPECTRAL"> F  </i>
   <i type="logical" name="LSPECTRALGW"> F  </i>
   <i type="logical" name="LSINGLES"> F  </i>
   <i type="logical" name="LFERMIGW"> F  </i>
   <i type="logical" name="ODDONLYGW"> F  </i>
   <i type="logical" name="EVENONLYGW"> F  </i>
   <i type="int" name="NKREDLFX">     1</i>
   <i type="int" name="NKREDLFY">     1</i>
   <i type="int" name="NKREDLFZ">     1</i>
   <i type="int" name="MAXMEM">  1800</i>
   <i type="int" name="TELESCOPE">     0</i>
   <i type="int" name="TAUPAR">     1</i>
   <i type="int" name="OMEGAPAR">    -1</i>
   <i name="LAMBDA">      1.00000000</i>
  </separator>
  <separator name="External order field" >
   <i name="OFIELD_KAPPA">      0.00000000</i>
   <v name="OFIELD_K">      0.00000000      0.00000000      0.00000000</v>
   <i name="OFIELD_Q6_NEAR">      0.00000000</i>
   <i name="OFIELD_Q6_FAR">      0.00000000</i>
   <i name="OFIELD_A">      0.00000000</i>
  </separator>
 </parameters>
 <atominfo>
  <atoms>      27 </atoms>
  <types>       4 </types>
  <array name="atoms" >
   <dimension dim="1">ion</dimension>
   <field type="string">element</field>
   <field type="int">atomtype</field>
   <set>
    <rc><c>V </c><c>   1</c></rc>
    <rc><c>V </c><c>   1</c></rc>
    <rc><c>V </c><c>   1</c></rc>
    <rc><c>Mo</c><c>   2</c></rc>
    <rc><c>Mo</c><c>   2</c></rc>
    <rc><c>Mo</c><c>   2</c></rc>
    <rc><c>W </c><c>   3</c></rc>
    <rc><c>W </c><c>   3</c></rc>
    <rc><c>W </c><c>   3</c></rc>
    <rc><c>S </c><c>   4</c></rc>
    <rc><c>S </c><c>   4</c></rc>
    <rc><c>S </c><c>   4</c></rc>
    <rc><c>S </c><c>   4</c></rc>
    <rc><c>S </c><c>   4</c></rc>
    <rc><c>S </c><c>   4</c></rc>
    <rc><c>S </c><c>   4</c></rc>
    <rc><c>S </c><c>   4</c></rc>
    <rc><c>S </c><c>   4</c></rc>
    <rc><c>S </c><c>   4</c></rc>
    <rc><c>S </c><c>   4</c></rc>
    <rc><c>S </c><c>   4</c></rc>
    <rc><c>S </c><c>   4</c></rc>
    <rc><c>S </c><c>   4</c></rc>
    <rc><c>S </c><c>   4</c></rc>
    <rc><c>S </c><c>   4</c></rc>
    <rc><c>S </c><c>   4</c></rc>
    <rc><c>S </c><c>   4</c></rc>
   </set>
  </array>
  <array name="atomtypes" >
   <dimension dim="1">type</dimension>
   <field type="int">atomspertype</field>
   <field type="string">element</field>
   <field>mass</field>
   <field>valence</field>
   <field type="string">pseudopotential</field>
   <set>
    <rc><c>   3</c><c>V </c><c>     50.94100000</c><c>      5.00000000</c><c> PAW_PBE V 08Apr2002                    </c></rc>
    <rc><c>   3</c><c>Mo</c><c>     95.94000000</c><c>      6.00000000</c><c> PAW_PBE Mo 08Apr2002                   </c></rc>
    <rc><c>   3</c><c>W </c><c>    183.85000000</c><c>      6.00000000</c><c> PAW_PBE W 08Apr2002                    </c></rc>
    <rc><c>  18</c><c>S </c><c>     32.06600000</c><c>      6.00000000</c><c>  PAW_PBE S 17Jan2003                   </c></rc>
   </set>
  </array>
 </atominfo>
 <structure name="initialpos" >
  <crystal>
   <varray name="basis" >
    <v>       8.66999996       5.03999989       0.00000000 </v>
    <v>      -8.66999982       5.04000013       0.00000000 </v>
    <v>       0.00000000       0.00000000      30.00000000 </v>
   </varray>
   <i name="volume">   2621.80797419 </i>
   <varray name="rec_basis" >
    <v>       0.05767013       0.09920635       0.00000000 </v>
    <v>      -0.05767013       0.09920635       0.00000000 </v>
    <v>       0.00000000       0.00000000       0.03333333 </v>
   </varray>
  </crystal>
  <varray name="positions" >
   <v>       0.00000000       0.00000000       0.00000000 </v>
   <v>       0.66666669       0.00000000       0.00000000 </v>
   <v>       0.66666669       0.66666669       0.00000000 </v>
   <v>       0.33333334       0.33333334       0.00000000 </v>
   <v>       0.33333334       0.00000000       0.00000000 </v>
   <v>       0.00000000       0.66666669       0.00000000 </v>
   <v>       1.00000000       0.33333334       0.00000000 </v>
   <v>       0.33333334       0.66666669       0.00000000 </v>
   <v>       0.66666669       0.33333334       0.00000000 </v>
   <v>       0.11068511       0.22244981       0.95539999 </v>
   <v>       0.22244981       0.11068511       0.04460000 </v>
   <v>       0.11068511       0.55578315       0.95539999 </v>
   <v>       0.22244981       0.44401845       0.04460000 </v>
   <v>       0.11068511       0.88911647       0.95539999 </v>
   <v>       0.22244981       0.77735180       0.04460000 </v>
   <v>       0.44401845       0.22244981       0.95539999 </v>
   <v>       0.55578315       0.11068511       0.04460000 </v>
   <v>       0.44401845       0.55578315       0.95539999 </v>
   <v>       0.55578315       0.44401845       0.04460000 </v>
   <v>       0.44401845       0.88911647       0.95539999 </v>
   <v>       0.55578315       0.77735180       0.04460000 </v>
   <v>       0.77735180       0.22244981       0.95539999 </v>
   <v>       0.88911647       0.11068511       0.04460000 </v>
   <v>       0.77735180       0.55578315       0.95539999 </v>
   <v>       0.88911647       0.44401845       0.04460000 </v>
   <v>       0.77735180       0.88911647       0.95539999 </v>
   <v>       0.88911647       0.77735180       0.04460000 </v>
  </varray>
 </structure>
 <calculation>
  <scstep>
   <time name="dav">   21.93   21.99</time>
   <time name="total">   21.98   22.04</time>
   <energy>
    <i name="alphaZ">     81.65567618 </i>
    <i name="ewald">  41891.17176702 </i>
    <i name="hartreedc"> -47723.81655903 </i>
    <i name="XCdc">   -242.92509794 </i>
    <i name="pawpsdc">   3467.42045192 </i>
    <i name="pawaedc">  -2871.19716117 </i>
    <i name="eentropy">     -0.54856088 </i>
    <i name="bandstr">   -237.32553549 </i>
    <i name="atom">   6761.44252427 </i>
    <i name="e_fr_energy">   1125.87750488 </i>
    <i name="e_wo_entrp">   1126.42606576 </i>
    <i name="e_0_energy">   1126.15178532 </i>
   </energy>
  </scstep>
  <scstep>
   <time name="dav">   28.38   28.45</time>
   <time name="total">   28.38   28.46</time>
   <energy>
    <i name="e_fr_energy">     -3.40377027 </i>
    <i name="e_wo_entrp">     -3.20793111 </i>
    <i name="e_0_energy">     -3.30585069 </i>
   </energy>
  </scstep>
  <scstep>
   <time name="dav">   27.81   27.88</time>
   <time name="total">   27.81   27.88</time>
   <energy>
    <i name="e_fr_energy">   -199.75370470 </i>
    <i name="e_wo_entrp">   -199.50720167 </i>
    <i name="e_0_energy">   -199.63045318 </i>
   </energy>
  </scstep>
  <scstep>
   <time name="dav">   30.53   30.61</time>
   <time name="total">   30.53   30.62</time>
   <energy>
    <i name="e_fr_energy">   -208.99088938 </i>
    <i name="e_wo_entrp">   -208.70511856 </i>
    <i name="e_0_energy">   -208.84800397 </i>
   </energy>
  </scstep>
  <scstep>
   <time name="dav">   28.87   28.94</time>
   <time name="total">   29.34   29.41</time>
   <energy>
    <i name="e_fr_energy">   -209.32166235 </i>
    <i name="e_wo_entrp">   -209.03927224 </i>
    <i name="e_0_energy">   -209.18046730 </i>
   </energy>
  </scstep>
  <scstep>
   <time name="dav">   31.18   31.25</time>
   <time name="total">   31.67   31.76</time>
   <energy>
    <i name="e_fr_energy">   -237.93274318 </i>
    <i name="e_wo_entrp">   -237.67331556 </i>
    <i name="e_0_energy">   -237.80302937 </i>
   </energy>
  </scstep>
  <scstep>
   <time name="dav">   33.11   33.19</time>
   <time name="total">   33.61   33.70</time>
   <energy>
    <i name="e_fr_energy">   -196.57012560 </i>
    <i name="e_wo_entrp">   -196.22909721 </i>
    <i name="e_0_energy">   -196.39961140 </i>
   </energy>
  </scstep>
  <scstep>
   <time name="dav">   29.91   29.99</time>
   <time name="total">   30.42   30.50</time>
   <energy>
    <i name="e_fr_energy">   -189.49007043 </i>
    <i name="e_wo_entrp">   -189.17827490 </i>
    <i name="e_0_energy">   -189.33417267 </i>
   </energy>
  </scstep>
  <scstep>
   <time name="dav">   33.05   33.13</time>
   <time name="total">   33.56   33.65</time>
   <energy>
    <i name="e_fr_energy">   -188.16799459 </i>
    <i name="e_wo_entrp">   -187.85180097 </i>
    <i name="e_0_energy">   -188.00989778 </i>
   </energy>
  </scstep>
  <scstep>
   <time name="dav">   33.00   33.08</time>
   <time name="total">   33.53   33.61</time>
   <energy>
    <i name="e_fr_energy">   -186.95794406 </i>
    <i name="e_wo_entrp">   -186.60582138 </i>
    <i name="e_0_energy">   -186.78188272 </i>
   </energy>
  </scstep>
  <scstep>
   <time name="dav">   33.23   33.31</time>
   <time name="total">   33.76   33.86</time>
   <energy>
    <i name="e_fr_energy">   -187.06134886 </i>
    <i name="e_wo_entrp">   -186.71885768 </i>
    <i name="e_0_energy">   -186.89010327 </i>
   </energy>
  </scstep>
  <scstep>
   <time name="dav">   31.72   31.79</time>
   <time name="total">   32.25   32.33</time>
   <energy>
    <i name="e_fr_energy">   -187.00394276 </i>
    <i name="e_wo_entrp">   -186.67312124 </i>
    <i name="e_0_energy">   -186.83853200 </i>
   </energy>
  </scstep>
  <scstep>
   <time name="dav">   32.61   32.69</time>
   <time name="total">   33.14   33.23</time>
   <energy>
    <i name="e_fr_energy">   -186.88721719 </i>
    <i name="e_wo_entrp">   -186.55306284 </i>
    <i name="e_0_energy">   -186.72014001 </i>
   </energy>
  </scstep>
  <scstep>
   <time name="dav">   32.43   32.51</time>
   <time name="total">   32.96   33.05</time>
   <energy>
    <i name="e_fr_energy">   -186.85025366 </i>
    <i name="e_wo_entrp">   -186.50568269 </i>
    <i name="e_0_energy">   -186.67796817 </i>
   </energy>
  </scstep>
  <scstep>
   <time name="dav">   31.51   31.58</time>
   <time name="total">   32.04   32.12</time>
   <energy>
    <i name="e_fr_energy">   -186.84812701 </i>
    <i name="e_wo_entrp">   -186.50427754 </i>
    <i name="e_0_energy">   -186.67620227 </i>
   </energy>
  </scstep>
  <scstep>
   <time name="dav">   32.57   32.65</time>
   <time name="total">   33.11   33.19</time>
   <energy>
    <i name="e_fr_energy">   -186.84243452 </i>
    <i name="e_wo_entrp">   -186.49935471 </i>
    <i name="e_0_energy">   -186.67089462 </i>
   </energy>
  </scstep>
  <scstep>
   <time name="dav">   31.66   31.73</time>
   <time name="total">   32.19   32.28</time>
   <energy>
    <i name="e_fr_energy">   -186.84123246 </i>
    <i name="e_wo_entrp">   -186.49950231 </i>
    <i name="e_0_energy">   -186.67036739 </i>
   </energy>
  </scstep>
  <scstep>
   <time name="dav">   29.31   29.39</time>
   <time name="total">   29.84   29.93</time>
   <energy>
    <i name="e_fr_energy">   -186.84100136 </i>
    <i name="e_wo_entrp">   -186.49879703 </i>
    <i name="e_0_energy">   -186.66989920 </i>
   </energy>
  </scstep>
  <scstep>
   <time name="dav">   28.17   28.24</time>
   <time name="total">   28.70   28.78</time>
   <energy>
    <i name="e_fr_energy">   -186.84080147 </i>
    <i name="e_wo_entrp">   -186.49852268 </i>
    <i name="e_0_energy">   -186.66966208 </i>
   </energy>
  </scstep>
  <scstep>
   <time name="dav">   23.80   23.86</time>
   <time name="total">   24.33   24.40</time>
   <energy>
    <i name="e_fr_energy">   -186.84155340 </i>
    <i name="e_wo_entrp">   -186.49970430 </i>
    <i name="e_0_energy">   -186.67062885 </i>
   </energy>
  </scstep>
  <scstep>
   <time name="dav">   22.06   22.11</time>
   <time name="total">   22.59   22.65</time>
   <energy>
    <i name="e_fr_energy">   -186.84238961 </i>
    <i name="e_wo_entrp">   -186.50047861 </i>
    <i name="e_0_energy">   -186.67143411 </i>
   </energy>
  </scstep>
  <scstep>
   <time name="dav">   20.82   20.87</time>
   <time name="total">   21.35   21.41</time>
   <energy>
    <i name="e_fr_energy">   -186.84333639 </i>
    <i name="e_wo_entrp">   -186.50134688 </i>
    <i name="e_0_energy">   -186.67234163 </i>
   </energy>
  </scstep>
  <scstep>
   <time name="dav">   20.72   20.77</time>
   <time name="total">   21.25   21.31</time>
   <energy>
    <i name="e_fr_energy">   -186.84448888 </i>
    <i name="e_wo_entrp">   -186.50262603 </i>
    <i name="e_0_energy">   -186.67355745 </i>
   </energy>
  </scstep>
  <scstep>
   <time name="dav">   19.22   19.27</time>
   <time name="total">   19.75   19.81</time>
   <energy>
    <i name="e_fr_energy">   -186.84504090 </i>
    <i name="e_wo_entrp">   -186.50310600 </i>
    <i name="e_0_energy">   -186.67407345 </i>
   </energy>
  </scstep>
  <scstep>
   <time name="dav">   16.62   16.66</time>
   <time name="total">   17.15   17.20</time>
   <energy>
    <i name="e_fr_energy">   -186.84543625 </i>
    <i name="e_wo_entrp">   -186.50349036 </i>
    <i name="e_0_energy">   -186.67446330 </i>
   </energy>
  </scstep>
  <scstep>
   <time name="dav">   19.34   19.38</time>
   <time name="total">   19.87   19.92</time>
   <energy>
    <i name="e_fr_energy">   -186.84567791 </i>
    <i name="e_wo_entrp">   -186.50375009 </i>
    <i name="e_0_energy">   -186.67471400 </i>
   </energy>
  </scstep>
  <scstep>
   <time name="dav">   20.64   20.69</time>
   <time name="total">   20.67   20.73</time>
   <energy>
    <i name="alphaZ">     81.65567618 </i>
    <i name="ewald">  41891.17176702 </i>
    <i name="hartreedc"> -47833.65775446 </i>
    <i name="XCdc">   -231.60478796 </i>
    <i name="pawpsdc">   4192.08121335 </i>
    <i name="pawaedc">  -3610.08232060 </i>
    <i name="eentropy">     -0.34193435 </i>
    <i name="bandstr">  -1437.51015008 </i>
    <i name="atom">   6761.44252427 </i>
    <i name="e_fr_energy">   -186.84576662 </i>
    <i name="e_wo_entrp">   -186.50383227 </i>
    <i name="e_0_energy">   -186.67479945 </i>
   </energy>
  </scstep>
  <structure>
   <crystal>
    <varray name="basis" >
     <v>       8.66999996       5.03999989       0.00000000 </v>
     <v>      -8.66999982       5.04000013       0.00000000 </v>
     <v>       0.00000000       0.00000000      30.00000000 </v>
    </varray>
    <i name="volume">   2621.80797419 </i>
    <varray name="rec_basis" >
     <v>       0.05767013       0.09920635       0.00000000 </v>
     <v>      -0.05767013       0.09920635       0.00000000 </v>
     <v>       0.00000000       0.00000000       0.03333333 </v>
    </varray>
   </crystal>
   <varray name="positions" >
    <v>       0.00000000       0.00000000       0.00000000 </v>
    <v>       0.66666669       0.00000000       0.00000000 </v>
    <v>       0.66666669       0.66666669       0.00000000 </v>
    <v>       0.33333334       0.33333334       0.00000000 </v>
    <v>       0.33333334       0.00000000       0.00000000 </v>
    <v>       0.00000000       0.66666669       0.00000000 </v>
    <v>       1.00000000       0.33333334       0.00000000 </v>
    <v>       0.33333334       0.66666669       0.00000000 </v>
    <v>       0.66666669       0.33333334       0.00000000 </v>
    <v>       0.11068511       0.22244981       0.95539999 </v>
    <v>       0.22244981       0.11068511       0.04460000 </v>
    <v>       0.11068511       0.55578315       0.95539999 </v>
    <v>       0.22244981       0.44401845       0.04460000 </v>
    <v>       0.11068511       0.88911647       0.95539999 </v>
    <v>       0.22244981       0.77735180       0.04460000 </v>
    <v>       0.44401845       0.22244981       0.95539999 </v>
    <v>       0.55578315       0.11068511       0.04460000 </v>
    <v>       0.44401845       0.55578315       0.95539999 </v>
    <v>       0.55578315       0.44401845       0.04460000 </v>
    <v>       0.44401845       0.88911647       0.95539999 </v>
    <v>       0.55578315       0.77735180       0.04460000 </v>
    <v>       0.77735180       0.22244981       0.95539999 </v>
    <v>       0.88911647       0.11068511       0.04460000 </v>
    <v>       0.77735180       0.55578315       0.95539999 </v>
    <v>       0.88911647       0.44401845       0.04460000 </v>
    <v>       0.77735180       0.88911647       0.95539999 </v>
    <v>       0.88911647       0.77735180       0.04460000 </v>
   </varray>
  </structure>
  <varray name="forces" >
   <v>       0.34722327       0.07484145      -0.01489101 </v>
   <v>      -0.02817632      -0.10475476      -0.03678825 </v>
   <v>       0.13072685       0.05828318      -0.04131431 </v>
   <v>       0.24952263      -0.16178784       0.09012865 </v>
   <v>      -0.29322736      -0.13823118       0.12112168 </v>
   <v>      -0.03250320       0.27841783      -0.05011691 </v>
   <v>       0.09590870       0.23045004      -0.07900947 </v>
   <v>      -0.21924122      -0.07767322      -0.13445412 </v>
   <v>      -0.32431661      -0.18681429       0.14616632 </v>
   <v>       0.34681004      -0.70561290      -2.14693241 </v>
   <v>      -0.51220150      -0.68331747       2.18775863 </v>
   <v>       0.27660734       0.00359044      -2.97854221 </v>
   <v>      -0.23260388       0.00443209       2.89978898 </v>
   <v>      -0.74627244      -0.01838440      -2.13700597 </v>
   <v>       0.02810304       0.03599977       2.89475923 </v>
   <v>       0.21961067       0.15040652      -2.88722835 </v>
   <v>       0.64635039       0.15971674       2.10903524 </v>
   <v>       0.34590435       0.69901233      -2.11220928 </v>
   <v>      -0.33922737       0.68501673       2.19789827 </v>
   <v>       0.63493961       0.52698565      -2.12530077 </v>
   <v>       0.24952351       0.53232989       1.41208296 </v>
   <v>       0.48823590      -0.54665172      -2.14522694 </v>
   <v>       0.23329503      -0.52464640       1.39553020 </v>
   <v>      -0.64908953      -0.12247414      -2.10962494 </v>
   <v>      -0.07181554      -0.15781131       2.84778132 </v>
   <v>       0.06196070      -0.01222606      -0.76090672 </v>
   <v>      -0.90604708       0.00090303       1.45750016 </v>
  </varray>
  <varray name="stress" >
   <v>       7.33389519       0.09149400      -1.53691833 </v>
   <v>       0.09149399       4.41908539       0.06383006 </v>
   <v>      -1.53691828       0.06383004      30.31867000 </v>
  </varray>
  <energy>
   <i name="e_fr_energy">   -186.84576662 </i>
   <i name="e_wo_entrp">   -186.67479945 </i>
   <i name="e_0_energy">     -0.34193435 </i>
  </energy>
  <time name="totalsc">  798.09  800.26</time>
 </calculation>
 <calculation>
  <scstep>
   <time name="dav">   21.92   21.97</time>
   <time name="total">   22.46   22.52</time>
   <energy>
    <i name="alphaZ">     78.92173615 </i>
    <i name="ewald">  39379.27673300 </i>
    <i name="hartreedc"> -45336.58245452 </i>
    <i name="XCdc">   -239.06889899 </i>
    <i name="pawpsdc">   4192.06762050 </i>
    <i name="pawaedc">  -3610.06883128 </i>
    <i name="eentropy">     -0.27904039 </i>
    <i name="bandstr">  -1413.20924476 </i>
    <i name="atom">   6761.44252427 </i>
    <i name="e_fr_energy">   -187.49985603 </i>
    <i name="e_wo_entrp">   -187.22081563 </i>
    <i name="e_0_energy">   -187.36033583 </i>
   </energy>
  </scstep>
  <scstep>
   <time name="dav">   30.59   30.67</time>
   <time name="total">   31.13   31.21</time>
   <energy>
    <i name="e_fr_energy">   -189.34643684 </i>
    <i name="e_wo_entrp">   -189.02387165 </i>
    <i name="e_0_energy">   -189.18515425 </i>
   </energy>
  </scstep>
  <scstep>
   <time name="dav">   30.70   30.78</time>
   <time name="total">   31.25   31.33</time>
   <energy>
    <i name="e_fr_energy">   -189.35998825 </i>
    <i name="e_wo_entrp">   -189.10292849 </i>
    <i name="e_0_energy">   -189.23145837 </i>
   </energy>
  </scstep>
  <scstep>
   <time name="dav">   31.01   31.08</time>
   <time name="total">   31.55   31.63</time>
   <energy>
    <i name="e_fr_energy">   -188.75737531 </i>
    <i name="e_wo_entrp">   -188.47495228 </i>
    <i name="e_0_energy">   -188.61616379 </i>
   </energy>
  </scstep>
  <scstep>
   <time name="dav">   29.48   29.55</time>
   <time name="total">   30.02   30.10</time>
   <energy>
    <i name="e_fr_energy">   -188.84999343 </i>
    <i name="e_wo_entrp">   -188.56511784 </i>
    <i name="e_0_energy">   -188.70755563 </i>
   </energy>
  </scstep>
  <scstep>
   <time name="dav">   31.04   31.12</time>
   <time name="total">   31.58   31.67</time>
   <energy>
    <i name="e_fr_energy">   -188.75556763 </i>
    <i name="e_wo_entrp">   -188.47324287 </i>
    <i name="e_0_energy">   -188.61440525 </i>
   </energy>
  </scstep>
  <scstep>
   <time name="dav">   30.68   30.76</time>
   <time name="total">   31.23   31.31</time>
   <energy>
    <i name="e_fr_energy">   -188.67629355 </i>
    <i name="e_wo_entrp">   -188.39651354 </i>
    <i name="e_0_energy">   -188.53640354 </i>
   </energy>
  </scstep>
  <scstep>
   <time name="dav">   28.90   28.97</time>
   <time name="total">   29.44   29.52</time>
   <energy>
    <i name="e_fr_energy">   -188.66172449 </i>
    <i name="e_wo_entrp">   -188.38190631 </i>
    <i name="e_0_energy">   -188.52181540 </i>
   </energy>
  </scstep>
  <scstep>
   <time name="dav">   31.25   31.33</time>
   <time name="total">   31.80   31.88</time>
   <energy>
    <i name="e_fr_energy">   -188.65695972 </i>
    <i name="e_wo_entrp">   -188.37832436 </i>
    <i name="e_0_energy">   -188.51764204 </i>
   </energy>
  </scstep>
  <scstep>
   <time name="dav">   29.94   30.01</time>
   <time name="total">   30.48   30.56</time>
   <energy>
    <i name="e_fr_energy">   -188.65738974 </i>
    <i name="e_wo_entrp">   -188.37845597 </i>
    <i name="e_0_energy">   -188.51792285 </i>
   </energy>
  </scstep>
  <scstep>
   <time name="dav">   31.68   31.75</time>
   <time name="total">   32.22   32.30</time>
   <energy>
    <i name="e_fr_energy">   -188.65585762 </i>
    <i name="e_wo_entrp">   -188.37834443 </i>
    <i name="e_0_energy">   -188.51710103 </i>
   </energy>
  </scstep>
  <scstep>
   <time name="dav">   29.41   29.48</time>
   <time name="total">   29.44   29.52</time>
   <energy>
    <i name="alphaZ">     78.92173615 </i>
    <i name="ewald">  39379.27673300 </i>
    <i name="hartreedc"> -45347.61248045 </i>
    <i name="XCdc">   -237.97546013 </i>
    <i name="pawpsdc">   3952.76647155 </i>
    <i name="pawaedc">  -3367.29626068 </i>
    <i name="eentropy">     -0.27747163 </i>
    <i name="bandstr">  -1407.90164398 </i>
    <i name="atom">   6761.44252427 </i>
    <i name="e_fr_energy">   -188.65585189 </i>
    <i name="e_wo_entrp">   -188.37838026 </i>
    <i name="e_0_energy">   -188.51711608 </i>
   </energy>
  </scstep>
  <structure>
   <crystal>
    <varray name="basis" >
     <v>       8.85726199       5.10744020       0.00000000 </v>
     <v>      -8.85456529       5.10280171       0.00000000 </v>
     <v>       0.00000000       0.00000000      30.00000000 </v>
    </varray>
    <i name="volume">   2712.63042833 </i>
    <varray name="rec_basis" >
     <v>       0.05643380       0.09792597       0.00000000 </v>
     <v>      -0.05648510       0.09795579       0.00000000 </v>
     <v>       0.00000000       0.00000000       0.03333333 </v>
    </varray>
   </crystal>
   <varray name="positions" >
    <v>       0.00132422      -0.00060784      -0.00002395 </v>
    <v>       0.66608694      -0.00042296      -0.00005916 </v>
    <v>       0.66730933       0.66658193      -0.00006644 </v>
    <v>       0.33325324       0.33186482       0.00014493 </v>
    <v>       0.33185597       0.00015423       0.00019477 </v>
    <v>       0.00124207       0.66808962      -0.00008059 </v>
    <v>       1.00136976       0.33416944      -0.00012705 </v>
    <v>       0.33235164       0.66690491      -0.00021621 </v>
    <v>       0.66487030       0.33334155       0.00023505 </v>
    <v>       0.10827294       0.21810788       0.95194753 </v>
    <v>       0.21775444       0.10883979       0.04811811 </v>
    <v>       0.11147186       0.55503077       0.95061023 </v>
    <v>       0.22182388       0.44468681       0.04926312 </v>
    <v>       0.10852087       0.89110473       0.95196350 </v>
    <v>       0.22270029       0.77744590       0.04925503 </v>
    <v>       0.44534929       0.22255866       0.95075707 </v>
    <v>       0.55834580       0.10965126       0.04799151 </v>
    <v>       0.44832627       0.55816625       0.95200337 </v>
    <v>       0.55811784       0.44824071       0.04813441 </v>
    <v>       0.44830710       0.88987210       0.95198232 </v>
    <v>       0.55902509       0.77920530       0.04687075 </v>
    <v>       0.77609388       0.21847520       0.95195028 </v>
    <v>       0.88725458       0.10752510       0.04684413 </v>
    <v>       0.77495977       0.55700286       0.95200753 </v>
    <v>       0.88816138       0.44346297       0.04917948 </v>
    <v>       0.77746567       0.88888557       0.95417638 </v>
    <v>       0.88660002       0.77987689       0.04694379 </v>
   </varray>
  </structure>
  <varray name="forces" >
   <v>       0.30426120       0.12855366       0.00853081 </v>
   <v>      -0.07033237      -0.07771588      -0.00998952 </v>
   <v>       0.14328475      -0.03030732      -0.07865661 </v>
   <v>       0.32232254      -0.12110590      -0.04112137 </v>
   <v>      -0.26862176      -0.07899951       0.02988258 </v>
   <v>       0.33195779       0.30091243       0.03578313 </v>
   <v>      -0.05387853       0.46197609       0.04782467 </v>
   <v>      -0.35713439      -0.35233772      -0.05757915 </v>
   <v>      -0.32071284      -0.24317080       0.04008895 </v>
   <v>      -0.10017855      -0.06682074       0.03361785 </v>
   <v>      -0.03160327      -0.09037782       0.19719183 </v>
   <v>       0.10669576       0.01280896      -0.18769013 </v>
   <v>      -0.09805797       0.01189633      -0.00693287 </v>
   <v>      -0.07515222      -0.00077391      -0.16100492 </v>
   <v>       0.14380966       0.01790540       0.12737611 </v>
   <v>       0.06629596       0.10150665      -0.09781009 </v>
   <v>      -0.02910993       0.09850329       0.01180318 </v>
   <v>      -0.11058741       0.04969673       0.14151127 </v>
   <v>       0.10730621       0.05342317       0.09332786 </v>
   <v>       0.06541915      -0.06271884       0.05051306 </v>
   <v>      -0.04874808      -0.06339824      -0.16323446 </v>
   <v>      -0.05976819       0.07716590       0.17156721 </v>
   <v>      -0.04111395       0.06222372      -0.22668344 </v>
   <v>       0.02415492      -0.09706516       0.04043618 </v>
   <v>       0.08007152      -0.10683605      -0.11007230 </v>
   <v>       0.02837829       0.00153214       0.19656926 </v>
   <v>      -0.05895830       0.01352341      -0.08524908 </v>
  </varray>
  <varray name="stress" >
   <v>     -20.06804422       0.00547374       0.07459692 </v>
   <v>       0.00547380     -19.60693545      -0.02237526 </v>
   <v>       0.07459699      -0.02237513      -1.84937646 </v>
  </varray>
  <energy>
   <i name="e_fr_energy">   -188.65585189 </i>
   <i name="e_wo_entrp">   -188.51711608 </i>
   <i name="e_0_energy">     -0.27747163 </i>
  </energy>
  <time name="totalsc">  404.65  405.72</time>
 </calculation>
 <calculation>
  <scstep>
   <time name="dav">   24.07   24.12</time>
   <time name="total">   24.60   24.66</time>
   <energy>
    <i name="alphaZ">     82.35432743 </i>
    <i name="ewald">  41307.04247423 </i>
    <i name="hartreedc"> -47305.99582458 </i>
    <i name="XCdc">   -233.84660331 </i>
    <i name="pawpsdc">   3950.46505072 </i>
    <i name="pawaedc">  -3364.96748054 </i>
    <i name="eentropy">     -0.23199661 </i>
    <i name="bandstr">  -1386.84488414 </i>
    <i name="atom">   6761.44252427 </i>
    <i name="e_fr_energy">   -190.58241253 </i>
    <i name="e_wo_entrp">   -190.35041593 </i>
    <i name="e_0_energy">   -190.46641423 </i>
   </energy>
  </scstep>
  <scstep>
   <time name="dav">   28.91   28.98</time>
   <time name="total">   29.43   29.51</time>
   <energy>
    <i name="e_fr_energy">   -190.52844073 </i>
    <i name="e_wo_entrp">   -190.31184604 </i>
    <i name="e_0_energy">   -190.42014338 </i>
   </energy>
  </scstep>
  <scstep>
   <time name="dav">   30.63   30.70</time>
   <time name="total">   31.15   31.23</time>
   <energy>
    <i name="e_fr_energy">   -190.06448132 </i>
    <i name="e_wo_entrp">   -189.81462886 </i>
    <i name="e_0_energy">   -189.93955509 </i>
   </energy>
  </scstep>
  <scstep>
   <time name="dav">   31.97   32.04</time>
   <time name="total">   32.50   32.58</time>
   <energy>
    <i name="e_fr_energy">   -189.85270616 </i>
    <i name="e_wo_entrp">   -189.63038100 </i>
    <i name="e_0_energy">   -189.74154358 </i>
   </energy>
  </scstep>
  <scstep>
   <time name="dav">   30.34   30.41</time>
   <time name="total">   30.86   30.95</time>
   <energy>
    <i name="e_fr_energy">   -189.82329396 </i>
    <i name="e_wo_entrp">   -189.58200265 </i>
    <i name="e_0_energy">   -189.70264831 </i>
   </energy>
  </scstep>
  <scstep>
   <time name="dav">   31.39   31.47</time>
   <time name="total">   31.92   32.01</time>
   <energy>
    <i name="e_fr_energy">   -189.75140661 </i>
    <i name="e_wo_entrp">   -189.52074715 </i>
    <i name="e_0_energy">   -189.63607688 </i>
   </energy>
  </scstep>
  <scstep>
   <time name="dav">   29.06   29.13</time>
   <time name="total">   29.59   29.67</time>
   <energy>
    <i name="e_fr_energy">   -189.74555975 </i>
    <i name="e_wo_entrp">   -189.51294603 </i>
    <i name="e_0_energy">   -189.62925289 </i>
   </energy>
  </scstep>
  <scstep>
   <time name="dav">   31.25   31.33</time>
   <time name="total">   31.78   31.86</time>
   <energy>
    <i name="e_fr_energy">   -189.74544543 </i>
    <i name="e_wo_entrp">   -189.51314734 </i>
    <i name="e_0_energy">   -189.62929638 </i>
   </energy>
  </scstep>
  <scstep>
   <time name="dav">   28.62   28.69</time>
   <time name="total">   29.15   29.23</time>
   <energy>
    <i name="e_fr_energy">   -189.74458512 </i>
    <i name="e_wo_entrp">   -189.51234331 </i>
    <i name="e_0_energy">   -189.62846422 </i>
   </energy>
  </scstep>
  <scstep>
   <time name="dav">   27.22   27.29</time>
   <time name="total">   27.75   27.82</time>
   <energy>
    <i name="e_fr_energy">   -189.74501676 </i>
    <i name="e_wo_entrp">   -189.51246507 </i>
    <i name="e_0_energy">   -189.62874092 </i>
   </energy>
  </scstep>
  <scstep>
   <time name="dav">   24.50   24.56</time>
   <time name="total">   25.03   25.11</time>
   <energy>
    <i name="e_fr_energy">   -189.74470908 </i>
    <i name="e_wo_entrp">   -189.51217258 </i>
    <i name="e_0_energy">   -189.62844083 </i>
   </energy>
  </scstep>
  <scstep>
   <time name="dav">   19.94   19.99</time>
   <time name="total">   19.98   20.04</time>
   <energy>
    <i name="alphaZ">     82.35432743 </i>
    <i name="ewald">  41307.04247423 </i>
    <i name="hartreedc"> -47279.28090607 </i>
    <i name="XCdc">   -235.24508557 </i>
    <i name="pawpsdc">   4038.81623880 </i>
    <i name="pawaedc">  -3454.51377225 </i>
    <i name="eentropy">     -0.23252322 </i>
    <i name="bandstr">  -1410.12800915 </i>
    <i name="atom">   6761.44252427 </i>
    <i name="e_fr_energy">   -189.74473154 </i>
    <i name="e_wo_entrp">   -189.51220832 </i>
    <i name="e_0_energy">   -189.62846993 </i>
   </energy>
  </scstep>
  <structure>
   <crystal>
    <varray name="basis" >
     <v>       8.66857047       5.00116819       0.00000000 </v>
     <v>      -8.66587188       4.99652333       0.00000000 </v>
     <v>       0.00000000       0.00000000      30.00000000 </v>
    </varray>
    <i name="volume">   2599.56591986 </i>
    <varray name="rec_basis" >
     <v>       0.05766182       0.10000753       0.00000000 </v>
     <v>      -0.05771542       0.10003867       0.00000000 </v>
     <v>       0.00000000       0.00000000       0.03333333 </v>
    </varray>
   </crystal>
   <varray name="positions" >
    <v>       0.00182810      -0.00068562      -0.00001913 </v>
    <v>       0.66589088      -0.00048459      -0.00006480 </v>
    <v>       0.66739599       0.66639462      -0.00011083 </v>
    <v>       0.33336043       0.33135569       0.00012173 </v>
    <v>       0.33146831       0.00028012       0.00021164 </v>
    <v>       0.00205819       0.66827122      -0.00006040 </v>
    <v>       1.00208426       0.33498718      -0.00010006 </v>
    <v>       0.33142619       0.66666210      -0.00024871 </v>
    <v>       0.66416066       0.33324497       0.00025767 </v>
    <v>       0.10806643       0.21809286       0.95196651 </v>
    <v>       0.21757439       0.10872012       0.04822940 </v>
    <v>       0.11159505       0.55494997       0.95050430 </v>
    <v>       0.22174991       0.44480032       0.04925920 </v>
    <v>       0.10844778       0.89117532       0.95187263 </v>
    <v>       0.22286739       0.77733806       0.04932692 </v>
    <v>       0.44558094       0.22266361       0.95070187 </v>
    <v>       0.55848131       0.10984247       0.04799818 </v>
    <v>       0.44830300       0.55835444       0.95208324 </v>
    <v>       0.55830895       0.44822669       0.04818709 </v>
    <v>       0.44826562       0.88970552       0.95201083 </v>
    <v>       0.55887339       0.77914677       0.04677863 </v>
    <v>       0.77616472       0.21866034       0.95204711 </v>
    <v>       0.88731847       0.10766762       0.04671620 </v>
    <v>       0.77482191       0.55681878       0.95203035 </v>
    <v>       0.88806075       0.44320920       0.04911736 </v>
    <v>       0.77749532       0.88886097       0.95428733 </v>
    <v>       0.88656611       0.77995570       0.04689567 </v>
   </varray>
  </structure>
  <varray name="forces" >
   <v>       0.29897893       0.16557456       0.01475366 </v>
   <v>      -0.11534449      -0.06360230       0.00070526 </v>
   <v>       0.16966445      -0.09022094      -0.06734104 </v>
   <v>       0.34595294      -0.10110483      -0.05515473 </v>
   <v>      -0.25910916      -0.04403333       0.00045604 </v>
   <v>       0.45767297       0.28435426       0.03872530 </v>
   <v>      -0.12441808       0.53826114       0.06233651 </v>
   <v>      -0.40546778      -0.45134834      -0.02410976 </v>
   <v>      -0.31431338      -0.26174484       0.00010962 </v>
   <v>       0.01745648      -0.13337576      -0.46133806 </v>
   <v>      -0.07843371      -0.16371611       0.71054969 </v>
   <v>       0.02235060       0.00697648      -0.79483475 </v>
   <v>      -0.01280471       0.02598781       0.54555687 </v>
   <v>      -0.14600502      -0.00208218      -0.65464946 </v>
   <v>       0.06590889       0.02800187       0.68827850 </v>
   <v>       0.03721597       0.02777960      -0.65452359 </v>
   <v>       0.08578460       0.02136454       0.51437690 </v>
   <v>       0.00536174       0.11017233      -0.33823169 </v>
   <v>      -0.03374008       0.12374204       0.61559085 </v>
   <v>       0.04902750       0.07112228      -0.44512670 </v>
   <v>       0.02689091       0.05678149       0.27545486 </v>
   <v>       0.00586324      -0.03822032      -0.31241540 </v>
   <v>       0.03634552      -0.06430967       0.21002258 </v>
   <v>      -0.07514988      -0.01958522      -0.43674728 </v>
   <v>       0.03658675      -0.04690107       0.42837468 </v>
   <v>       0.03085963       0.00855266      -0.21112851 </v>
   <v>      -0.12713481       0.01157385       0.35030965 </v>
  </varray>
  <varray name="stress" >
   <v>     -10.17623905      -0.02048740       0.04850323 </v>
   <v>      -0.02048746      -9.83676887      -0.03716783 </v>
   <v>       0.04850331      -0.03716765       6.48206012 </v>
  </varray>
  <energy>
   <i name="e_fr_energy">   -189.74473154 </i>
   <i name="e_wo_entrp">   -189.62846993 </i>
   <i name="e_0_energy">     -0.23252322 </i>
  </energy>
  <time name="totalsc">  385.85  386.88</time>
 </calculation>
 <calculation>
  <scstep>
   <time name="dav">   21.89   21.95</time>
   <time name="total">   22.41   22.47</time>
   <energy>
    <i name="alphaZ">     85.80505191 </i>
    <i name="ewald">  42824.80169834 </i>
    <i name="hartreedc"> -48841.24384654 </i>
    <i name="XCdc">   -232.98345100 </i>
    <i name="pawpsdc">   4038.74928168 </i>
    <i name="pawaedc">  -3454.44289008 </i>
    <i name="eentropy">     -0.19050579 </i>
    <i name="bandstr">  -1373.23753049 </i>
    <i name="atom">   6761.44252427 </i>
    <i name="e_fr_energy">   -191.29966769 </i>
    <i name="e_wo_entrp">   -191.10916190 </i>
    <i name="e_0_energy">   -191.20441479 </i>
   </energy>
  </scstep>
  <scstep>
   <time name="dav">   33.06   33.14</time>
   <time name="total">   33.58   33.66</time>
   <energy>
    <i name="e_fr_energy">   -191.10582083 </i>
    <i name="e_wo_entrp">   -190.91664302 </i>
    <i name="e_0_energy">   -191.01123193 </i>
   </energy>
  </scstep>
  <scstep>
   <time name="dav">   30.29   30.36</time>
   <time name="total">   30.80   30.88</time>
   <energy>
    <i name="e_fr_energy">   -191.30620304 </i>
    <i name="e_wo_entrp">   -191.09133010 </i>
    <i name="e_0_energy">   -191.19876657 </i>
   </energy>
  </scstep>
  <scstep>
   <time name="dav">   29.68   29.75</time>
   <time name="total">   30.19   30.28</time>
   <energy>
    <i name="e_fr_energy">   -190.89869725 </i>
    <i name="e_wo_entrp">   -190.70003759 </i>
    <i name="e_0_energy">   -190.79936742 </i>
   </energy>
  </scstep>
  <scstep>
   <time name="dav">   27.67   27.74</time>
   <time name="total">   28.18   28.26</time>
   <energy>
    <i name="e_fr_energy">   -190.90359642 </i>
    <i name="e_wo_entrp">   -190.72016416 </i>
    <i name="e_0_energy">   -190.81188029 </i>
   </energy>
  </scstep>
  <scstep>
   <time name="dav">   28.79   28.86</time>
   <time name="total">   29.31   29.39</time>
   <energy>
    <i name="e_fr_energy">   -190.72900736 </i>
    <i name="e_wo_entrp">   -190.53366885 </i>
    <i name="e_0_energy">   -190.63133811 </i>
   </energy>
  </scstep>
  <scstep>
   <time name="dav">   30.68   30.76</time>
   <time name="total">   31.20   31.28</time>
   <energy>
    <i name="e_fr_energy">   -190.73162054 </i>
    <i name="e_wo_entrp">   -190.53652531 </i>
    <i name="e_0_energy">   -190.63407293 </i>
   </energy>
  </scstep>
  <scstep>
   <time name="dav">   29.23   29.30</time>
   <time name="total">   29.75   29.83</time>
   <energy>
    <i name="e_fr_energy">   -190.72831369 </i>
    <i name="e_wo_entrp">   -190.53349241 </i>
    <i name="e_0_energy">   -190.63090305 </i>
   </energy>
  </scstep>
  <scstep>
   <time name="dav">   28.57   28.64</time>
   <time name="total">   29.09   29.16</time>
   <energy>
    <i name="e_fr_energy">   -190.72531115 </i>
    <i name="e_wo_entrp">   -190.53030785 </i>
    <i name="e_0_energy">   -190.62780950 </i>
   </energy>
  </scstep>
  <scstep>
   <time name="dav">   25.85   25.91</time>
   <time name="total">   26.36   26.43</time>
   <energy>
    <i name="e_fr_energy">   -190.72562874 </i>
    <i name="e_wo_entrp">   -190.53051898 </i>
    <i name="e_0_energy">   -190.62807386 </i>
   </energy>
  </scstep>
  <scstep>
   <time name="dav">   25.54   25.60</time>
   <time name="total">   26.06   26.13</time>
   <energy>
    <i name="e_fr_energy">   -190.72547747 </i>
    <i name="e_wo_entrp">   -190.53033507 </i>
    <i name="e_0_energy">   -190.62790627 </i>
   </energy>
  </scstep>
  <scstep>
   <time name="dav">   20.03   20.08</time>
   <time name="total">   20.07   20.12</time>
   <energy>
    <i name="alphaZ">     85.80505191 </i>
    <i name="ewald">  42824.80169834 </i>
    <i name="hartreedc"> -48812.78929903 </i>
    <i name="XCdc">   -234.30880787 </i>
    <i name="pawpsdc">   4063.06142055 </i>
    <i name="pawaedc">  -3478.92410203 </i>
    <i name="eentropy">     -0.19520151 </i>
    <i name="bandstr">  -1399.61876053 </i>
    <i name="atom">   6761.44252427 </i>
    <i name="e_fr_energy">   -190.72547589 </i>
    <i name="e_wo_entrp">   -190.53027438 </i>
    <i name="e_0_energy">   -190.62787513 </i>
   </energy>
  </scstep>
  <structure>
   <crystal>
    <varray name="basis" >
     <v>       8.48749066       4.90110561       0.00000000 </v>
     <v>      -8.48601160       4.89856977       0.00000000 </v>
     <v>       0.00000000       0.00000000      30.00000000 </v>
    </varray>
    <i name="volume">   2495.02212469 </i>
    <varray name="rec_basis" >
     <v>       0.05890012       0.10203531       0.00000000 </v>
     <v>      -0.05893061       0.10205309       0.00000000 </v>
     <v>       0.00000000       0.00000000       0.03333333 </v>
    </varray>
   </crystal>
   <varray name="positions" >
    <v>       0.00402233      -0.00062988       0.00001655 </v>
    <v>       0.66504925      -0.00036698      -0.00005434 </v>
    <v>       0.66733298       0.66503384      -0.00024025 </v>
    <v>       0.33405795       0.32949329      -0.00000390 </v>
    <v>       0.33036054       0.00101185       0.00018780 </v>
    <v>       0.00561959       0.66817737       0.00002199 </v>
    <v>       1.00508498       0.33908656       0.00004078 </v>
    <v>       0.32683460       0.66512850      -0.00027028 </v>
    <v>       0.66135801       0.33268794       0.00022424 </v>
    <v>       0.10729963       0.21686445       0.95059780 </v>
    <v>       0.21602169       0.10786568       0.05012783 </v>
    <v>       0.11158441       0.55501891       0.94835299 </v>
    <v>       0.22202245       0.44492199       0.05085013 </v>
    <v>       0.10780486       0.89178635       0.95010614 </v>
    <v>       0.22319344       0.77741156       0.05121942 </v>
    <v>       0.44566453       0.22256204       0.94888254 </v>
    <v>       0.55889653       0.10931193       0.04948273 </v>
    <v>       0.44932504       0.55900737       0.95098137 </v>
    <v>       0.55893291       0.44949634       0.04989707 </v>
    <v>       0.44919389       0.89032758       0.95067500 </v>
    <v>       0.55972983       0.77959393       0.04771639 </v>
    <v>       0.77575534       0.21802135       0.95099493 </v>
    <v>       0.88684524       0.10671138       0.04751728 </v>
    <v>       0.77447916       0.55730070       0.95072735 </v>
    <v>       0.88798593       0.44299479       0.05045467 </v>
    <v>       0.77768073       0.88881700       0.95350839 </v>
    <v>       0.88607861       0.78057861       0.04798526 </v>
   </varray>
  </structure>
  <varray name="forces" >
   <v>       0.24902083       0.14325150       0.02357424 </v>
   <v>      -0.09735435      -0.06711287       0.02008756 </v>
   <v>       0.14835333      -0.10347843      -0.01911834 </v>
   <v>       0.43534969      -0.07758071      -0.02355942 </v>
   <v>      -0.24487508       0.04858855      -0.03181132 </v>
   <v>       0.61111525       0.28542248       0.01899805 </v>
   <v>      -0.20480051       0.61522570       0.03323606 </v>
   <v>      -0.47907543      -0.50617394       0.02411184 </v>
   <v>      -0.33741065      -0.37753437      -0.03486480 </v>
   <v>       0.01642288      -0.04313472      -0.26977956 </v>
   <v>      -0.03144135      -0.06901474       0.53022991 </v>
   <v>      -0.02598221       0.00464548      -0.72000179 </v>
   <v>       0.07070299       0.05847323       0.35596055 </v>
   <v>      -0.03228121      -0.01215896      -0.43637279 </v>
   <v>      -0.01123924       0.06909878       0.51636455 </v>
   <v>       0.01754935      -0.04412920      -0.50127053 </v>
   <v>      -0.01720386      -0.02518921       0.37447892 </v>
   <v>      -0.02377151       0.00419393      -0.17909922 </v>
   <v>      -0.04966218       0.02887156       0.46114352 </v>
   <v>      -0.01951582      -0.02106632      -0.27432122 </v>
   <v>      -0.01712447      -0.03591941       0.14285274 </v>
   <v>      -0.01176743       0.02596784      -0.14094929 </v>
   <v>       0.01350878       0.03237364       0.09519192 </v>
   <v>       0.01794181       0.03644455      -0.23305304 </v>
   <v>      -0.03543191      -0.01541449       0.25465703 </v>
   <v>       0.03997214       0.02074572      -0.21957271 </v>
   <v>       0.01900016       0.02460442       0.23288714 </v>
  </varray>
  <varray name="stress" >
   <v>      -5.85512982       0.11809948      -0.03440091 </v>
   <v>       0.11809936      -5.86711331       0.10089436 </v>
   <v>      -0.03440082       0.10089430       4.52279373 </v>
  </varray>
  <energy>
   <i name="e_fr_energy">   -190.72547589 </i>
   <i name="e_wo_entrp">   -190.62787513 </i>
   <i name="e_0_energy">     -0.19520151 </i>
  </energy>
  <time name="totalsc">  379.10  380.11</time>
 </calculation>
 <calculation>
  <scstep>
   <time name="dav">   21.90   21.95</time>
   <time name="total">   22.41   22.46</time>
   <energy>
    <i name="alphaZ">     90.27184410 </i>
    <i name="ewald">  44714.61229060 </i>
    <i name="hartreedc"> -50758.77638177 </i>
    <i name="XCdc">   -231.75151998 </i>
    <i name="pawpsdc">   4063.00900515 </i>
    <i name="pawaedc">  -3478.86833229 </i>
    <i name="eentropy">     -0.17685346 </i>
    <i name="bandstr">  -1351.96250776 </i>
    <i name="atom">   6761.44252427 </i>
    <i name="e_fr_energy">   -192.19993114 </i>
    <i name="e_wo_entrp">   -192.02307768 </i>
    <i name="e_0_energy">   -192.11150441 </i>
   </energy>
  </scstep>
  <scstep>
   <time name="dav">   27.74   27.81</time>
   <time name="total">   28.24   28.32</time>
   <energy>
    <i name="e_fr_energy">   -191.89698807 </i>
    <i name="e_wo_entrp">   -191.70426055 </i>
    <i name="e_0_energy">   -191.80062431 </i>
   </energy>
  </scstep>
  <scstep>
   <time name="dav">   30.28   30.35</time>
   <time name="total">   30.78   30.86</time>
   <energy>
    <i name="e_fr_energy">   -192.37346029 </i>
    <i name="e_wo_entrp">   -192.18945201 </i>
    <i name="e_0_energy">   -192.28145615 </i>
   </energy>
  </scstep>
  <scstep>
   <time name="dav">   29.04   29.11</time>
   <time name="total">   29.55   29.62</time>
   <energy>
    <i name="e_fr_energy">   -191.68852417 </i>
    <i name="e_wo_entrp">   -191.50781267 </i>
    <i name="e_0_energy">   -191.59816842 </i>
   </energy>
  </scstep>
  <scstep>
   <time name="dav">   30.37   30.44</time>
   <time name="total">   30.87   30.95</time>
   <energy>
    <i name="e_fr_energy">   -191.63433395 </i>
    <i name="e_wo_entrp">   -191.43770732 </i>
    <i name="e_0_energy">   -191.53602063 </i>
   </energy>
  </scstep>
  <scstep>
   <time name="dav">   30.59   30.66</time>
   <time name="total">   31.09   31.18</time>
   <energy>
    <i name="e_fr_energy">   -191.47620054 </i>
    <i name="e_wo_entrp">   -191.29107694 </i>
    <i name="e_0_energy">   -191.38363874 </i>
   </energy>
  </scstep>
  <scstep>
   <time name="dav">   30.80   30.87</time>
   <time name="total">   31.30   31.38</time>
   <energy>
    <i name="e_fr_energy">   -191.46493351 </i>
    <i name="e_wo_entrp">   -191.28233589 </i>
    <i name="e_0_energy">   -191.37363470 </i>
   </energy>
  </scstep>
  <scstep>
   <time name="dav">   30.50   30.58</time>
   <time name="total">   31.01   31.09</time>
   <energy>
    <i name="e_fr_energy">   -191.44879410 </i>
    <i name="e_wo_entrp">   -191.26220548 </i>
    <i name="e_0_energy">   -191.35549979 </i>
   </energy>
  </scstep>
  <scstep>
   <time name="dav">   28.44   28.51</time>
   <time name="total">   28.94   29.02</time>
   <energy>
    <i name="e_fr_energy">   -191.44598419 </i>
    <i name="e_wo_entrp">   -191.26039631 </i>
    <i name="e_0_energy">   -191.35319025 </i>
   </energy>
  </scstep>
  <scstep>
   <time name="dav">   29.03   29.10</time>
   <time name="total">   29.53   29.61</time>
   <energy>
    <i name="e_fr_energy">   -191.44611850 </i>
    <i name="e_wo_entrp">   -191.25998600 </i>
    <i name="e_0_energy">   -191.35305225 </i>
   </energy>
  </scstep>
  <scstep>
   <time name="dav">   27.02   27.08</time>
   <time name="total">   27.05   27.13</time>
   <energy>
    <i name="alphaZ">     90.27184410 </i>
    <i name="ewald">  44714.61229060 </i>
    <i name="hartreedc"> -50723.95721661 </i>
    <i name="XCdc">   -233.29699653 </i>
    <i name="pawpsdc">   4087.96359767 </i>
    <i name="pawaedc">  -3503.95060900 </i>
    <i name="eentropy">     -0.18614308 </i>
    <i name="bandstr">  -1384.34532722 </i>
    <i name="atom">   6761.44252427 </i>
    <i name="e_fr_energy">   -191.44603579 </i>
    <i name="e_wo_entrp">   -191.25989271 </i>
    <i name="e_0_energy">   -191.35296425 </i>
   </energy>
  </scstep>
  <structure>
   <crystal>
    <varray name="basis" >
     <v>       8.27820981       4.78370081       0.00000000 </v>
     <v>      -8.27041631       4.77022865       0.00000000 </v>
     <v>       0.00000000       0.00000000      30.00000000 </v>
    </varray>
    <i name="volume">   2371.56452347 </i>
    <varray name="rec_basis" >
     <v>       0.06034281       0.10461975       0.00000000 </v>
     <v>      -0.06051323       0.10471834       0.00000000 </v>
     <v>       0.00000000       0.00000000       0.03333333 </v>
    </varray>
   </crystal>
   <varray name="positions" >
    <v>       0.00776074      -0.00053087       0.00011314 </v>
    <v>       0.66347630      -0.00036206       0.00002695 </v>
    <v>       0.66702451       0.66247387      -0.00033204 </v>
    <v>       0.33618170       0.32548399      -0.00012982 </v>
    <v>       0.32916121       0.00331005       0.00004754 </v>
    <v>       0.01353581       0.66722861       0.00011215 </v>
    <v>       1.01129260       0.34830633       0.00020490 </v>
    <v>       0.31693471       0.66209887      -0.00016564 </v>
    <v>       0.65444292       0.33053124       0.00006265 </v>
    <v>       0.10673680       0.21566972       0.94891592 </v>
    <v>       0.21444688       0.10698799       0.05287313 </v>
    <v>       0.11134820       0.55534421       0.94480535 </v>
    <v>       0.22330134       0.44506473       0.05293580 </v>
    <v>       0.10720813       0.89210827       0.94773886 </v>
    <v>       0.22387324       0.77836500       0.05395136 </v>
    <v>       0.44511909       0.22182519       0.94622567 </v>
    <v>       0.55860673       0.10868391       0.05156707 </v>
    <v>       0.44978256       0.55935963       0.94969792 </v>
    <v>       0.55907725       0.45079379       0.05235849 </v>
    <v>       0.44937551       0.89071130       0.94898522 </v>
    <v>       0.55983644       0.77960679       0.04879866 </v>
    <v>       0.77567687       0.21785682       0.94985465 </v>
    <v>       0.88696495       0.10633381       0.04839570 </v>
    <v>       0.77493447       0.55801231       0.94920480 </v>
    <v>       0.88766009       0.44318278       0.05210905 </v>
    <v>       0.77821885       0.88879277       0.95222275 </v>
    <v>       0.88623657       0.78097541       0.04941968 </v>
   </varray>
  </structure>
  <varray name="forces" >
   <v>       0.14312199       0.01192233      -0.00902158 </v>
   <v>       0.02083092      -0.11205298      -0.01415123 </v>
   <v>       0.04585300      -0.02548699      -0.03741305 </v>
   <v>       0.37716244      -0.02256266       0.04370515 </v>
   <v>      -0.11354749       0.19317451       0.00380893 </v>
   <v>       0.37709903       0.16344833      -0.01841320 </v>
   <v>      -0.19414034       0.40158510      -0.04886297 </v>
   <v>      -0.29699142      -0.18307610       0.05531648 </v>
   <v>      -0.23255017      -0.46690188      -0.02247789 </v>
   <v>      -0.04140664       0.08580506       0.07655683 </v>
   <v>       0.03024907       0.04174611       0.15592326 </v>
   <v>      -0.04633056       0.00669173      -0.45812881 </v>
   <v>       0.15063145       0.09071496       0.06998931 </v>
   <v>       0.09883393      -0.03455742      -0.05457021 </v>
   <v>      -0.07538403       0.14119934       0.21253518 </v>
   <v>      -0.00580150      -0.10943470      -0.32565663 </v>
   <v>      -0.12934478      -0.03087914       0.09748214 </v>
   <v>      -0.13045154      -0.13353620       0.15299297 </v>
   <v>      -0.00390398      -0.08999445       0.14491006 </v>
   <v>      -0.05696186      -0.14458658       0.00880219 </v>
   <v>      -0.09438281      -0.19683085      -0.07222129 </v>
   <v>      -0.06719910       0.12289344       0.15164400 </v>
   <v>      -0.07152809       0.21989355      -0.13286542 </v>
   <v>       0.15411007       0.06121863       0.13871265 </v>
   <v>      -0.11315749      -0.02723743      -0.07289742 </v>
   <v>       0.03604711       0.01475774      -0.01501312 </v>
   <v>       0.23914281       0.02208653      -0.03068632 </v>
  </varray>
  <varray name="stress" >
   <v>       0.37607065       0.22965977      -0.01193254 </v>
   <v>       0.22965971       0.28119436       0.33258427 </v>
   <v>      -0.01193243       0.33258431      -0.23896006 </v>
  </varray>
  <energy>
   <i name="e_fr_energy">   -191.44603579 </i>
   <i name="e_wo_entrp">   -191.35296425 </i>
   <i name="e_0_energy">     -0.18614308 </i>
  </energy>
  <time name="totalsc">  362.89  363.85</time>
 </calculation>
 <calculation>
  <scstep>
   <time name="dav">   21.88   21.93</time>
   <time name="total">   22.39   22.44</time>
   <energy>
    <i name="alphaZ">     90.04925468 </i>
    <i name="ewald">  44592.25913192 </i>
    <i name="hartreedc"> -50600.00125460 </i>
    <i name="XCdc">   -233.54258455 </i>
    <i name="pawpsdc">   4088.43948428 </i>
    <i name="pawaedc">  -3504.42501404 </i>
    <i name="eentropy">     -0.18781475 </i>
    <i name="bandstr">  -1385.55291409 </i>
    <i name="atom">   6761.44252427 </i>
    <i name="e_fr_energy">   -191.51918687 </i>
    <i name="e_wo_entrp">   -191.33137212 </i>
    <i name="e_0_energy">   -191.42527949 </i>
   </energy>
  </scstep>
  <scstep>
   <time name="dav">   32.26   32.34</time>
   <time name="total">   32.76   32.85</time>
   <energy>
    <i name="e_fr_energy">   -191.59303207 </i>
    <i name="e_wo_entrp">   -191.39380976 </i>
    <i name="e_0_energy">   -191.49342091 </i>
   </energy>
  </scstep>
  <scstep>
   <time name="dav">   31.22   31.30</time>
   <time name="total">   31.73   31.81</time>
   <energy>
    <i name="e_fr_energy">   -191.52805213 </i>
    <i name="e_wo_entrp">   -191.33921698 </i>
    <i name="e_0_energy">   -191.43363455 </i>
   </energy>
  </scstep>
  <scstep>
   <time name="dav">   28.90   28.97</time>
   <time name="total">   29.40   29.48</time>
   <energy>
    <i name="e_fr_energy">   -191.53065140 </i>
    <i name="e_wo_entrp">   -191.33959377 </i>
    <i name="e_0_energy">   -191.43512259 </i>
   </energy>
  </scstep>
  <scstep>
   <time name="dav">   27.68   27.75</time>
   <time name="total">   28.18   28.26</time>
   <energy>
    <i name="e_fr_energy">   -191.52639874 </i>
    <i name="e_wo_entrp">   -191.33644540 </i>
    <i name="e_0_energy">   -191.43142207 </i>
   </energy>
  </scstep>
  <scstep>
   <time name="dav">   28.62   28.69</time>
   <time name="total">   29.12   29.20</time>
   <energy>
    <i name="e_fr_energy">   -191.52671537 </i>
    <i name="e_wo_entrp">   -191.33673684 </i>
    <i name="e_0_energy">   -191.43172611 </i>
   </energy>
  </scstep>
  <scstep>
   <time name="dav">   28.56   28.63</time>
   <time name="total">   29.07   29.14</time>
   <energy>
    <i name="e_fr_energy">   -191.52634559 </i>
    <i name="e_wo_entrp">   -191.33658970 </i>
    <i name="e_0_energy">   -191.43146765 </i>
   </energy>
  </scstep>
  <scstep>
   <time name="dav">   25.67   25.73</time>
   <time name="total">   26.17   26.24</time>
   <energy>
    <i name="e_fr_energy">   -191.52579525 </i>
    <i name="e_wo_entrp">   -191.33606116 </i>
    <i name="e_0_energy">   -191.43092821 </i>
   </energy>
  </scstep>
  <scstep>
   <time name="dav">   18.73   18.77</time>
   <time name="total">   18.77   18.82</time>
   <energy>
    <i name="alphaZ">     90.04925468 </i>
    <i name="ewald">  44592.25913192 </i>
    <i name="hartreedc"> -50603.03131302 </i>
    <i name="XCdc">   -233.43186724 </i>
    <i name="pawpsdc">   4084.48309633 </i>
    <i name="pawaedc">  -3500.41280316 </i>
    <i name="eentropy">     -0.18978440 </i>
    <i name="bandstr">  -1382.69403304 </i>
    <i name="atom">   6761.44252427 </i>
    <i name="e_fr_energy">   -191.52579364 </i>
    <i name="e_wo_entrp">   -191.33600924 </i>
    <i name="e_0_energy">   -191.43090144 </i>
   </energy>
  </scstep>
  <structure>
   <crystal>
    <varray name="basis" >
     <v>       8.29212765       4.79371472       0.00000000 </v>
     <v>      -8.27892688       4.77087967       0.00000000 </v>
     <v>       0.00000000       0.00000000      30.00000000 </v>
    </varray>
    <i name="volume">   2377.42670594 </i>
    <varray name="rec_basis" >
     <v>       0.06020223       0.10446917       0.00000000 </v>
     <v>      -0.06049038       0.10463575       0.00000000 </v>
     <v>       0.00000000       0.00000000       0.03333333 </v>
    </varray>
   </crystal>
   <varray name="positions" >
    <v>       0.00811089      -0.00087690       0.00009663 </v>
    <v>       0.66303788      -0.00096326       0.00000301 </v>
    <v>       0.66703911       0.66229673      -0.00038673 </v>
    <v>       0.33706396       0.32443186      -0.00005873 </v>
    <v>       0.32981008       0.00449674       0.00005742 </v>
    <v>       0.01515582       0.66699376       0.00008118 </v>
    <v>       1.01251824       0.35053106       0.00012487 </v>
    <v>       0.31550027       0.66212947      -0.00008368 </v>
    <v>       0.65173174       0.32898414       0.00003290 </v>
    <v>       0.10705316       0.21624132       0.94908987 </v>
    <v>       0.21478391       0.10713339       0.05302699 </v>
    <v>       0.11126004       0.55549530       0.94420994 </v>
    <v>       0.22412147       0.44507990       0.05297487 </v>
    <v>       0.10733643       0.89165299       0.94773035 </v>
    <v>       0.22432736       0.77922993       0.05419175 </v>
    <v>       0.44459269       0.22133473       0.94580930 </v>
    <v>       0.55810369       0.10892049       0.05164975 </v>
    <v>       0.44875365       0.55906720       0.94997781 </v>
    <v>       0.55862623       0.45032474       0.05250326 </v>
    <v>       0.44850501       0.89015313       0.94905517 </v>
    <v>       0.55861056       0.77891407       0.04864924 </v>
    <v>       0.77609013       0.21865164       0.95012878 </v>
    <v>       0.88782933       0.10761639       0.04815891 </v>
    <v>       0.77564767       0.55785168       0.94946966 </v>
    <v>       0.88722105       0.44335944       0.05194086 </v>
    <v>       0.77837559       0.88876405       0.95224185 </v>
    <v>       0.88700848       0.78040047       0.04932466 </v>
   </varray>
  </structure>
  <varray name="forces" >
   <v>       0.15799987      -0.02179067       0.01367646 </v>
   <v>       0.04608440      -0.14273563       0.00228316 </v>
   <v>       0.03525697       0.00190705      -0.04605258 </v>
   <v>       0.40010528      -0.03855153       0.01162579 </v>
   <v>      -0.12859131       0.20196534      -0.00960924 </v>
   <v>       0.36757563       0.23028271      -0.00361409 </v>
   <v>      -0.16303170       0.44078686       0.00341841 </v>
   <v>      -0.33702290      -0.22424990       0.01979026 </v>
   <v>      -0.23607116      -0.48767699      -0.03482983 </v>
   <v>      -0.03239181       0.06259031       0.09518457 </v>
   <v>       0.01890262       0.01172541       0.12184681 </v>
   <v>      -0.02519470       0.04805366      -0.31697010 </v>
   <v>       0.08926718       0.05460682      -0.00463572 </v>
   <v>       0.06365312      -0.00731540      -0.03376158 </v>
   <v>      -0.06304396       0.10710260       0.15147846 </v>
   <v>      -0.01185911      -0.08414418      -0.28265231 </v>
   <v>      -0.07500131      -0.02460412       0.09764374 </v>
   <v>      -0.08955090      -0.09253365       0.17675967 </v>
   <v>      -0.00018584      -0.06150406       0.11478945 </v>
   <v>      -0.04190816      -0.07917768       0.00212702 </v>
   <v>      -0.06165766      -0.12314186      -0.05784323 </v>
   <v>      -0.05903912       0.08102943       0.15506064 </v>
   <v>      -0.06344611       0.15730888      -0.17742878 </v>
   <v>       0.11433841       0.01984819       0.16205531 </v>
   <v>      -0.09257419      -0.04679635      -0.12225087 </v>
   <v>       0.02455580       0.00820269       0.01622471 </v>
   <v>       0.16283067       0.00881207      -0.05431614 </v>
  </varray>
  <varray name="stress" >
   <v>      -0.02574802       0.05168648      -0.03040953 </v>
   <v>       0.05168660      -0.13148328       0.13336221 </v>
   <v>      -0.03040945       0.13336240      -1.13000613 </v>
  </varray>
  <energy>
   <i name="e_fr_energy">   -191.52579364 </i>
   <i name="e_wo_entrp">   -191.43090144 </i>
   <i name="e_0_energy">     -0.18978440 </i>
  </energy>
  <time name="totalsc">  289.60  290.36</time>
 </calculation>
 <calculation>
  <scstep>
   <time name="dav">   21.89   21.94</time>
   <time name="total">   22.39   22.45</time>
   <energy>
    <i name="alphaZ">     90.12294729 </i>
    <i name="ewald">  44622.42033472 </i>
    <i name="hartreedc"> -50633.80178277 </i>
    <i name="XCdc">   -233.40165166 </i>
    <i name="pawpsdc">   4084.23167806 </i>
    <i name="pawaedc">  -3500.15830996 </i>
    <i name="eentropy">     -0.18718593 </i>
    <i name="bandstr">  -1382.29473442 </i>
    <i name="atom">   6761.44252427 </i>
    <i name="e_fr_energy">   -191.62618040 </i>
    <i name="e_wo_entrp">   -191.43899447 </i>
    <i name="e_0_energy">   -191.53258744 </i>
   </energy>
  </scstep>
  <scstep>
   <time name="dav">   32.26   32.34</time>
   <time name="total">   32.77   32.85</time>
   <energy>
    <i name="e_fr_energy">   -191.72753914 </i>
    <i name="e_wo_entrp">   -191.52008794 </i>
    <i name="e_0_energy">   -191.62381354 </i>
   </energy>
  </scstep>
  <scstep>
   <time name="dav">   30.96   31.03</time>
   <time name="total">   31.46   31.55</time>
   <energy>
    <i name="e_fr_energy">   -191.64141326 </i>
    <i name="e_wo_entrp">   -191.45268339 </i>
    <i name="e_0_energy">   -191.54704832 </i>
   </energy>
  </scstep>
  <scstep>
   <time name="dav">   29.97   30.05</time>
   <time name="total">   30.49   30.78</time>
   <energy>
    <i name="e_fr_energy">   -191.64839976 </i>
    <i name="e_wo_entrp">   -191.45647320 </i>
    <i name="e_0_energy">   -191.55243648 </i>
   </energy>
  </scstep>
  <scstep>
   <time name="dav">   29.48   29.55</time>
   <time name="total">   29.98   30.06</time>
   <energy>
    <i name="e_fr_energy">   -191.63684338 </i>
    <i name="e_wo_entrp">   -191.44610789 </i>
    <i name="e_0_energy">   -191.54147563 </i>
   </energy>
  </scstep>
  <scstep>
   <time name="dav">   28.50   28.57</time>
   <time name="total">   29.01   29.08</time>
   <energy>
    <i name="e_fr_energy">   -191.63834369 </i>
    <i name="e_wo_entrp">   -191.44684820 </i>
    <i name="e_0_energy">   -191.54259595 </i>
   </energy>
  </scstep>
  <scstep>
   <time name="dav">   29.07   29.14</time>
   <time name="total">   29.58   29.65</time>
   <energy>
    <i name="e_fr_energy">   -191.63677741 </i>
    <i name="e_wo_entrp">   -191.44531131 </i>
    <i name="e_0_energy">   -191.54104436 </i>
   </energy>
  </scstep>
  <scstep>
   <time name="dav">   26.42   26.48</time>
   <time name="total">   26.92   26.99</time>
   <energy>
    <i name="e_fr_energy">   -191.63584049 </i>
    <i name="e_wo_entrp">   -191.44454904 </i>
    <i name="e_0_energy">   -191.54019476 </i>
   </energy>
  </scstep>
  <scstep>
   <time name="dav">   20.95   21.00</time>
   <time name="total">   20.99   21.04</time>
   <energy>
    <i name="alphaZ">     90.12294729 </i>
    <i name="ewald">  44622.42033472 </i>
    <i name="hartreedc"> -50634.28328313 </i>
    <i name="XCdc">   -233.36596242 </i>
[...]
    <i name="e_0_energy">   -192.14679044 </i>
   </energy>
  </scstep>
  <scstep>
   <time name="dav">   17.20   17.24</time>
   <time name="total">   17.23   17.28</time>
   <energy>
    <i name="alphaZ">     88.32864348 </i>
    <i name="ewald">  43879.90926598 </i>
    <i name="hartreedc"> -49884.99020512 </i>
    <i name="XCdc">   -233.77276622 </i>
    <i name="pawpsdc">   4098.94644981 </i>
    <i name="pawaedc">  -3515.05537291 </i>
    <i name="eentropy">     -0.17296509 </i>
    <i name="bandstr">  -1386.86895711 </i>
    <i name="atom">   6761.44252427 </i>
    <i name="e_fr_energy">   -192.23338291 </i>
    <i name="e_wo_entrp">   -192.06041782 </i>
    <i name="e_0_energy">   -192.14690036 </i>
   </energy>
  </scstep>
  <structure>
   <crystal>
    <varray name="basis" >
     <v>       8.36637385       4.86034410       0.00000000 </v>
     <v>      -8.33878389       4.81234921       0.00000000 </v>
     <v>       0.00000000       0.00000000      30.00000000 </v>
    </varray>
    <i name="volume">   2423.73814982 </i>
    <varray name="rec_basis" >
     <v>       0.05956521       0.10321392       0.00000000 </v>
     <v>      -0.06015927       0.10355542       0.00000000 </v>
     <v>       0.00000000       0.00000000       0.03333333 </v>
    </varray>
   </crystal>
   <varray name="positions" >
    <v>       0.01611171      -0.01273251       0.00051005 </v>
    <v>       0.63458136      -0.01598630       0.00188288 </v>
    <v>       0.68668934       0.67393970      -0.00272639 </v>
    <v>       0.32810272       0.30723607       0.00029792 </v>
    <v>       0.33097113       0.00452861       0.00003624 </v>
    <v>       0.02986997       0.68219492      -0.00064409 </v>
    <v>       1.03651763       0.36802832      -0.00161950 </v>
    <v>       0.31608673       0.67893509       0.00019992 </v>
    <v>       0.62608634       0.30924842       0.00132857 </v>
    <v>       0.10643505       0.21486617       0.94925985 </v>
    <v>       0.21251141       0.10351847       0.05472332 </v>
    <v>       0.11981308       0.56585513       0.94204500 </v>
    <v>       0.23261950       0.45261833       0.05232227 </v>
    <v>       0.10970955       0.89178718       0.94542750 </v>
    <v>       0.22515539       0.78526445       0.05645660 </v>
    <v>       0.43780588       0.21673752       0.94373181 </v>
    <v>       0.55063603       0.10534379       0.05466812 </v>
    <v>       0.44612114       0.55842711       0.95631134 </v>
    <v>       0.55332841       0.44704309       0.05169775 </v>
    <v>       0.44706741       0.89195462       0.94672207 </v>
    <v>       0.55653010       0.77699854       0.04907986 </v>
    <v>       0.77741687       0.22098847       0.95558369 </v>
    <v>       0.88908841       0.11192580       0.04051933 </v>
    <v>       0.77753581       0.54894673       0.95261622 </v>
    <v>       0.88252427       0.44139656       0.04541967 </v>
    <v>       0.77914826       0.89146033       0.95403452 </v>
    <v>       0.88975098       0.77768985       0.05011539 </v>
   </varray>
  </structure>
  <varray name="forces" >
   <v>      -0.04140509       0.07837199      -0.03101691 </v>
   <v>      -0.02680168      -0.01195136       0.01484017 </v>
   <v>       0.18099059       0.29473703      -0.00050623 </v>
   <v>      -0.05127693      -0.15136055       0.00290242 </v>
   <v>       0.02166351      -0.02504777       0.00240549 </v>
   <v>      -0.07751960      -0.04712090      -0.01950819 </v>
   <v>       0.04244017      -0.02598818      -0.03596804 </v>
   <v>      -0.00973629       0.00028086      -0.01409078 </v>
   <v>      -0.00656759      -0.04017856       0.01721642 </v>
   <v>      -0.00454106      -0.00385673      -0.06944972 </v>
   <v>       0.01525775      -0.01970027       0.04572294 </v>
   <v>      -0.01764431      -0.01606839      -0.00910438 </v>
   <v>      -0.00825485      -0.01891454       0.02311895 </v>
   <v>       0.00564910      -0.00097911      -0.01939451 </v>
   <v>      -0.00646289      -0.04459489       0.01674127 </v>
   <v>      -0.01527644      -0.03293491       0.03210210 </v>
   <v>      -0.00785363      -0.02567729       0.02889412 </v>
   <v>       0.05348428       0.06199583       0.17888396 </v>
   <v>      -0.03299497       0.01049841      -0.06176369 </v>
   <v>      -0.00331754      -0.01738592       0.00215430 </v>
   <v>       0.01903953      -0.00181402      -0.05661124 </v>
   <v>      -0.01269573      -0.00998114       0.00664485 </v>
   <v>      -0.01817540      -0.00620266       0.00483423 </v>
   <v>       0.02368617      -0.02560163      -0.09386739 </v>
   <v>       0.00571608      -0.02356387      -0.02273970 </v>
   <v>      -0.01515586       0.05241990      -0.03243429 </v>
   <v>      -0.01224730       0.05061866       0.08999382 </v>
  </varray>
  <varray name="stress" >
   <v>      -0.07987930      -0.01472145      -0.06154228 </v>
   <v>      -0.01472160       0.03310122      -0.09902617 </v>
   <v>      -0.06154221      -0.09902605      -1.28369339 </v>
  </varray>
  <energy>
   <i name="e_fr_energy">   -192.23338291 </i>
   <i name="e_wo_entrp">   -192.14690036 </i>
   <i name="e_0_energy">     -0.17296509 </i>
  </energy>
  <time name="totalsc">  138.01  138.36</time>
 </calculation>
 <calculation>
  <scstep>
   <time name="dav">   21.75   21.80</time>
   <time name="total">   22.24   22.30</time>
   <energy>
    <i name="alphaZ">     88.41057654 </i>
    <i name="ewald">  43920.81225464 </i>
    <i name="hartreedc"> -49926.67372069 </i>
    <i name="XCdc">   -233.70092756 </i>
    <i name="pawpsdc">   4098.99183553 </i>
    <i name="pawaedc">  -3515.09998952 </i>
    <i name="eentropy">     -0.17407582 </i>
    <i name="bandstr">  -1386.25202338 </i>
    <i name="atom">   6761.44252427 </i>
    <i name="e_fr_energy">   -192.24354599 </i>
    <i name="e_wo_entrp">   -192.06947017 </i>
    <i name="e_0_energy">   -192.15650808 </i>
   </energy>
  </scstep>
  <scstep>
   <time name="dav">   26.90   26.96</time>
   <time name="total">   27.39   27.46</time>
   <energy>
    <i name="e_fr_energy">   -192.24678646 </i>
    <i name="e_wo_entrp">   -192.07492331 </i>
    <i name="e_0_energy">   -192.16085488 </i>
   </energy>
  </scstep>
  <scstep>
   <time name="dav">   29.89   29.96</time>
   <time name="total">   30.38   30.45</time>
   <energy>
    <i name="e_fr_energy">   -192.24398172 </i>
    <i name="e_wo_entrp">   -192.06969252 </i>
    <i name="e_0_energy">   -192.15683712 </i>
   </energy>
  </scstep>
  <scstep>
   <time name="dav">   25.49   25.55</time>
   <time name="total">   25.98   26.04</time>
   <energy>
    <i name="e_fr_energy">   -192.24401292 </i>
    <i name="e_wo_entrp">   -192.07036200 </i>
    <i name="e_0_energy">   -192.15718746 </i>
   </energy>
  </scstep>
  <scstep>
   <time name="dav">   25.40   25.47</time>
   <time name="total">   25.90   25.96</time>
   <energy>
    <i name="e_fr_energy">   -192.24361446 </i>
    <i name="e_wo_entrp">   -192.07026256 </i>
    <i name="e_0_energy">   -192.15693851 </i>
   </energy>
  </scstep>
  <scstep>
   <time name="dav">   24.48   24.54</time>
   <time name="total">   24.52   24.58</time>
   <energy>
    <i name="alphaZ">     88.41057654 </i>
    <i name="ewald">  43920.81225464 </i>
    <i name="hartreedc"> -49926.05964331 </i>
    <i name="XCdc">   -233.73204811 </i>
    <i name="pawpsdc">   4100.15175816 </i>
    <i name="pawaedc">  -3516.27375251 </i>
    <i name="eentropy">     -0.17382965 </i>
    <i name="bandstr">  -1386.82138287 </i>
    <i name="atom">   6761.44252427 </i>
    <i name="e_fr_energy">   -192.24354284 </i>
    <i name="e_wo_entrp">   -192.06971319 </i>
    <i name="e_0_energy">   -192.15662801 </i>
   </energy>
  </scstep>
  <structure>
   <crystal>
    <varray name="basis" >
     <v>       8.36195203       4.85898078       0.00000000 </v>
     <v>      -8.33388202       4.81014803       0.00000000 </v>
     <v>       0.00000000       0.00000000      30.00000000 </v>
    </varray>
    <i name="volume">   2421.49199027 </i>
    <varray name="rec_basis" >
     <v>       0.05959319       0.10324893       0.00000000 </v>
     <v>      -0.06019819       0.10359669       0.00000000 </v>
     <v>       0.00000000       0.00000000       0.03333333 </v>
    </varray>
   </crystal>
   <varray name="positions" >
    <v>       0.01632732      -0.01230263       0.00047012 </v>
    <v>       0.63453663      -0.01591511       0.00189997 </v>
    <v>       0.68830107       0.67465956      -0.00272098 </v>
    <v>       0.32741303       0.30675492       0.00029871 </v>
    <v>       0.33090398       0.00436608       0.00003247 </v>
    <v>       0.02949964       0.68212577      -0.00067873 </v>
    <v>       1.03649708       0.36784020      -0.00167485 </v>
    <v>       0.31599597       0.67890933       0.00017580 </v>
    <v>       0.62587574       0.30909556       0.00134452 </v>
    <v>       0.10639708       0.21487702       0.94916034 </v>
    <v>       0.21248718       0.10339726       0.05479799 </v>
    <v>       0.11970109       0.56585272       0.94202809 </v>
    <v>       0.23253291       0.45258262       0.05236601 </v>
    <v>       0.10974293       0.89175400       0.94539550 </v>
    <v>       0.22493517       0.78509857       0.05648567 </v>
    <v>       0.43764518       0.21663132       0.94378331 </v>
    <v>       0.55047983       0.10527597       0.05472124 </v>
    <v>       0.44651651       0.55858218       0.95655553 </v>
    <v>       0.55330792       0.44717191       0.05161765 </v>
    <v>       0.44694453       0.89187257       0.94671528 </v>
    <v>       0.55655350       0.77690233       0.04900818 </v>
    <v>       0.77735539       0.22100970       0.95558501 </v>
    <v>       0.88905875       0.11198207       0.04053420 </v>
    <v>       0.77749651       0.54875752       0.95247627 </v>
    <v>       0.88242457       0.44129101       0.04538998 </v>
    <v>       0.77934932       0.89171988       0.95397728 </v>
    <v>       0.88993563       0.77792209       0.05025535 </v>
   </varray>
  </structure>
  <varray name="forces" >
   <v>      -0.03443378       0.06391296      -0.02908695 </v>
   <v>      -0.02602608      -0.01448023       0.01266342 </v>
   <v>       0.17625851       0.29988370       0.00708936 </v>
   <v>      -0.07331866      -0.14905638       0.02255395 </v>
   <v>       0.03931180      -0.04393398       0.02502783 </v>
   <v>      -0.09250762      -0.03209452       0.00254345 </v>
   <v>       0.04964317      -0.01384842      -0.01430594 </v>
   <v>      -0.01221847      -0.00025634       0.00096190 </v>
   <v>       0.00646136      -0.02194309       0.03372796 </v>
   <v>      -0.00176936      -0.01010252      -0.08690526 </v>
   <v>       0.01486501      -0.02431007       0.04703678 </v>
   <v>      -0.01191754      -0.01565114      -0.01772526 </v>
   <v>      -0.01471539      -0.03184283       0.01006686 </v>
   <v>      -0.00531886      -0.00076603      -0.02339405 </v>
   <v>      -0.00351906      -0.04984191       0.00114437 </v>
   <v>      -0.01705071      -0.03582586      -0.00035351 </v>
   <v>      -0.00631621      -0.02440278       0.02082546 </v>
   <v>       0.05781547       0.06702451       0.17029323 </v>
   <v>      -0.03571389       0.01330106      -0.06046668 </v>
   <v>      -0.00248527      -0.01196812      -0.00755729 </v>
   <v>       0.02355650      -0.00066097      -0.05067010 </v>
   <v>      -0.01228080      -0.01164760      -0.00074827 </v>
   <v>      -0.01977429      -0.01207544       0.01156894 </v>
   <v>       0.01989361      -0.02205245      -0.09473437 </v>
   <v>       0.00611055      -0.02821952      -0.02282421 </v>
   <v>      -0.01199984       0.05523249      -0.03412990 </v>
   <v>      -0.01255014       0.05562548       0.07739827 </v>
  </varray>
  <varray name="stress" >
   <v>       0.21190226      -0.05538439      -0.05608465 </v>
   <v>      -0.05538423       0.29194232      -0.12625032 </v>
   <v>      -0.05608454      -0.12625040      -1.11794652 </v>
  </varray>
  <energy>
   <i name="e_fr_energy">   -192.24354284 </i>
   <i name="e_wo_entrp">   -192.15662801 </i>
   <i name="e_0_energy">     -0.17382965 </i>
  </energy>
  <time name="totalsc">  198.68  199.18</time>
 </calculation>
 <calculation>
  <scstep>
   <time name="dav">   21.74   21.80</time>
   <time name="total">   22.24   22.29</time>
   <energy>
    <i name="alphaZ">     88.33031752 </i>
    <i name="ewald">  43877.08156063 </i>
    <i name="hartreedc"> -49881.63458189 </i>
    <i name="XCdc">   -233.81978899 </i>
    <i name="pawpsdc">   4100.41563617 </i>
    <i name="pawaedc">  -3516.54122850 </i>
    <i name="eentropy">     -0.17509901 </i>
    <i name="bandstr">  -1387.34752389 </i>
    <i name="atom">   6761.44252427 </i>
    <i name="e_fr_energy">   -192.24818367 </i>
    <i name="e_wo_entrp">   -192.07308466 </i>
    <i name="e_0_energy">   -192.16063416 </i>
   </energy>
  </scstep>
  <scstep>
   <time name="dav">   27.39   27.46</time>
   <time name="total">   27.89   27.96</time>
   <energy>
    <i name="e_fr_energy">   -192.24845950 </i>
    <i name="e_wo_entrp">   -192.07377597 </i>
    <i name="e_0_energy">   -192.16111774 </i>
   </energy>
  </scstep>
  <scstep>
   <time name="dav">   28.05   28.13</time>
   <time name="total">   28.54   28.62</time>
   <energy>
    <i name="e_fr_energy">   -192.24810716 </i>
    <i name="e_wo_entrp">   -192.07339890 </i>
    <i name="e_0_energy">   -192.16075303 </i>
   </energy>
  </scstep>
  <scstep>
   <time name="dav">   22.64   22.69</time>
   <time name="total">   23.13   23.19</time>
   <energy>
    <i name="e_fr_energy">   -192.24785459 </i>
    <i name="e_wo_entrp">   -192.07277811 </i>
    <i name="e_0_energy">   -192.16031635 </i>
   </energy>
  </scstep>
  <scstep>
   <time name="dav">   23.46   23.52</time>
   <time name="total">   23.50   23.56</time>
   <energy>
    <i name="alphaZ">     88.33031752 </i>
    <i name="ewald">  43877.08156063 </i>
    <i name="hartreedc"> -49882.29212143 </i>
    <i name="XCdc">   -233.79544665 </i>
    <i name="pawpsdc">   4099.46371532 </i>
    <i name="pawaedc">  -3515.57978961 </i>
    <i name="eentropy">     -0.17468101 </i>
    <i name="bandstr">  -1386.72392330 </i>
    <i name="atom">   6761.44252427 </i>
    <i name="e_fr_energy">   -192.24784425 </i>
    <i name="e_wo_entrp">   -192.07316323 </i>
    <i name="e_0_energy">   -192.16050374 </i>
   </energy>
  </scstep>
  <structure>
   <crystal>
    <varray name="basis" >
     <v>       8.36468849       4.86066028       0.00000000 </v>
     <v>      -8.33759683       4.81351036       0.00000000 </v>
     <v>       0.00000000       0.00000000      30.00000000 </v>
    </varray>
    <i name="volume">   2423.69221505 </i>
    <varray name="rec_basis" >
     <v>       0.05958071       0.10320118       0.00000000 </v>
     <v>      -0.06016433       0.10353652       0.00000000 </v>
     <v>       0.00000000       0.00000000       0.03333333 </v>
    </varray>
   </crystal>
   <varray name="positions" >
    <v>       0.01641442      -0.01215594       0.00045309 </v>
    <v>       0.63443423      -0.01595740       0.00190935 </v>
    <v>       0.68898919       0.67503283      -0.00272382 </v>
    <v>       0.32705913       0.30655073       0.00030881 </v>
    <v>       0.33088742       0.00428136       0.00004638 </v>
    <v>       0.02934748       0.68219401      -0.00067530 </v>
    <v>       1.03652183       0.36774678      -0.00168129 </v>
    <v>       0.31604082       0.67896067       0.00017727 </v>
    <v>       0.62585157       0.30904762       0.00136442 </v>
    <v>       0.10639105       0.21485463       0.94912366 </v>
    <v>       0.21244787       0.10334826       0.05481160 </v>
    <v>       0.11966440       0.56582281       0.94202445 </v>
    <v>       0.23246901       0.45253212       0.05236382 </v>
    <v>       0.10972147       0.89176584       0.94538893 </v>
    <v>       0.22486903       0.78502185       0.05648429 </v>
    <v>       0.43756334       0.21659512       0.94378330 </v>
    <v>       0.55045765       0.10522563       0.05472230 </v>
    <v>       0.44666674       0.55861382       0.95664327 </v>
    <v>       0.55328311       0.44722028       0.05158344 </v>
    <v>       0.44695333       0.89186636       0.94672123 </v>
    <v>       0.55658388       0.77691431       0.04897689 </v>
    <v>       0.77731750       0.22097770       0.95559234 </v>
    <v>       0.88899308       0.11195363       0.04053204 </v>
    <v>       0.77747014       0.54871924       0.95243811 </v>
    <v>       0.88239996       0.44123726       0.04537737 </v>
    <v>       0.77940881       0.89181703       0.95397084 </v>
    <v>       0.89000795       0.77802791       0.05028311 </v>
   </varray>
  </structure>
  <varray name="forces" >
   <v>      -0.03720163       0.07365731      -0.02774471 </v>
   <v>      -0.01619737       0.00028853       0.00983947 </v>
   <v>       0.16874584       0.28781311       0.00341645 </v>
   <v>      -0.06020876      -0.15092548       0.01331864 </v>
   <v>       0.01802636      -0.04095447       0.01564545 </v>
   <v>      -0.06826296      -0.02630201      -0.00516893 </v>
   <v>       0.04259525      -0.00822015      -0.02151200 </v>
   <v>      -0.01737310      -0.02646504      -0.00881383 </v>
   <v>      -0.00932253      -0.03554052       0.02544114 </v>
   <v>      -0.00558670      -0.00723885      -0.07687011 </v>
   <v>       0.01895574      -0.01930493       0.04225629 </v>
   <v>      -0.01043481      -0.01256513       0.00476168 </v>
   <v>      -0.01587069      -0.02832186       0.00430612 </v>
   <v>       0.00075605       0.00027225      -0.01364394 </v>
   <v>      -0.00133761      -0.05040482      -0.00679068 </v>
   <v>      -0.01720398      -0.03290069       0.02717503 </v>
   <v>      -0.01553865      -0.02081177       0.01761480 </v>
   <v>       0.05992907       0.06063550       0.18279006 </v>
   <v>      -0.02970118       0.00721331      -0.07399767 </v>
   <v>      -0.00825032      -0.02262443      -0.00482567 </v>
   <v>       0.02720319      -0.00601025      -0.04758298 </v>
   <v>      -0.01935649      -0.00616596       0.00736153 </v>
   <v>      -0.01717313      -0.00272943       0.00855347 </v>
   <v>       0.02183639      -0.02148535      -0.08464112 </v>
   <v>       0.00893823      -0.02439142      -0.03357843 </v>
   <v>      -0.00850910       0.05349861      -0.03245721 </v>
   <v>      -0.00945709       0.05998394       0.07514715 </v>
  </varray>
  <varray name="stress" >
   <v>      -0.06382376      -0.04783364      -0.04705369 </v>
   <v>      -0.04783349       0.01433108      -0.11305115 </v>
   <v>      -0.04705354      -0.11305134      -1.49251718 </v>
  </varray>
  <energy>
   <i name="e_fr_energy">   -192.24784425 </i>
   <i name="e_wo_entrp">   -192.16050374 </i>
   <i name="e_0_energy">     -0.17468101 </i>
  </energy>
  <time name="totalsc">  167.51  167.95</time>
 </calculation>
 <calculation>
  <scstep>
   <time name="dav">   21.77   21.82</time>
   <time name="total">   22.26   22.32</time>
   <energy>
    <i name="alphaZ">     88.33975601 </i>
    <i name="ewald">  43882.25774347 </i>
    <i name="hartreedc"> -49887.53657558 </i>
    <i name="XCdc">   -233.78085138 </i>
    <i name="pawpsdc">   4099.15896443 </i>
    <i name="pawaedc">  -3515.26540668 </i>
    <i name="eentropy">     -0.17661287 </i>
    <i name="bandstr">  -1386.69873611 </i>
    <i name="atom">   6761.44252427 </i>
    <i name="e_fr_energy">   -192.25919443 </i>
    <i name="e_wo_entrp">   -192.08258156 </i>
    <i name="e_0_energy">   -192.17088799 </i>
   </energy>
  </scstep>
  <scstep>
   <time name="dav">   28.12   28.18</time>
   <time name="total">   28.61   28.68</time>
   <energy>
    <i name="e_fr_energy">   -192.26319807 </i>
    <i name="e_wo_entrp">   -192.08835676 </i>
    <i name="e_0_energy">   -192.17577742 </i>
   </energy>
  </scstep>
  <scstep>
