   27   27  100    1
  0.9710400E+02  0.1002848E-08  0.1002848E-08  0.3000000E-08  0.5000000E-15
  1.000000000000000E-004
  CAR 
 unknown system                          
    159     34    120
 
  0.0000000E+00  0.0000000E+00  0.0000000E+00  0.1562500E-01
    1      -17.832648   1.000000
    2      -16.739120   1.000000
    3      -16.644559   1.000000
    4      -16.611763   1.000000
    5      -16.538592   1.000000
    6      -16.422810   1.000000
    7      -16.373566   1.000000
    8      -16.346372   1.000000
    9      -16.190454   1.000000
   10      -16.142404   1.000000
   11      -16.079962   1.000000
   12      -15.958342   1.000000
   13      -15.941874   1.000000
   14      -15.747521   1.000000
   15      -15.561295   1.000000
   16      -15.500241   1.000000
   17      -15.255237   1.000000
   18      -15.130201   1.000000
   19       -9.307047   1.000000
   20       -9.069944   1.000000
   21       -8.843396   1.000000
   22       -8.822477   1.000000
   23       -8.767184   1.000000
   24       -8.746070   1.000000
   25       -8.744114   1.000000
   26       -8.603360   1.000000
   27       -8.578410   1.000000
   28       -8.427859   1.000000
   29       -8.406802   1.000000
   30       -8.364532   1.000000
   31       -8.304682   1.000000
   32       -8.269584   1.000000
   33       -8.172212   1.000000
   34       -8.159974   1.000000
   35       -7.758876   1.000000
   36       -7.689611   1.000000
   37       -7.685900   1.000000
   38       -7.585521   1.000000
   39       -7.511193   1.000000
   40       -7.385857   1.000000
   41       -7.218702   1.000000
   42       -7.187623   1.000000
   43       -7.128223   1.000000
   44       -6.895211   1.000000
   45       -6.805886   1.000000
   46       -6.768472   1.000000
   47       -6.758154   1.000000
   48       -6.697386   1.000000
   49       -6.628410   1.000000
   50       -6.542284   1.000000
   51       -6.531138   1.000000
   52       -6.256632   1.000000
   53       -6.210636   1.000000
   54       -6.118708   1.000000
   55       -6.058316   1.000000
   56       -6.033317   1.000000
   57       -5.940983   1.000000
   58       -5.921721   1.000000
   59       -5.836272   1.000000
   60       -5.826880   1.000000
   61       -5.635285   1.000000
   62       -5.373235   1.000000
   63       -5.330293   1.000000
   64       -5.050482   1.000000
   65       -4.986057   1.000000
   66       -4.915613   1.000000
   67       -4.803182   1.000000
   68       -4.779505   1.000000
   69       -4.762103   1.000000
   70       -4.659511   1.000000
   71       -4.623191   1.000000
   72       -4.617260   1.000000
   73       -4.518591   1.000000
   74       -4.376188   1.000000
   75       -4.326742   1.000000
   76       -3.982126   1.000000
   77       -3.758290   0.999846
   78       -3.633032   0.996756
   79       -3.505995   0.965908
   80       -3.160686   0.268316
   81       -3.137498   0.217143
   82       -2.732733   0.000134
   83       -2.717954   0.000089
   84       -2.626303   0.000005
   85       -2.494853   0.000000
   86       -2.443644   0.000000
   87       -2.245849   0.000000
   88       -2.168571   0.000000
   89       -2.157705   0.000000
   90       -1.978761   0.000000
   91       -1.969296   0.000000
   92       -1.643370   0.000000
   93       -1.392106   0.000000
   94       -1.295797   0.000000
   95       -1.234800   0.000000
   96       -0.967044   0.000000
   97       -0.904490   0.000000
   98       -0.836790   0.000000
   99       -0.834743   0.000000
  100       -0.642806   0.000000
  101       -0.642047   0.000000
  102       -0.549279   0.000000
  103       -0.255095   0.000000
  104       -0.179920   0.000000
  105       -0.127455   0.000000
  106       -0.022917   0.000000
  107       -0.012187   0.000000
  108        0.052798   0.000000
  109        0.123175   0.000000
  110        0.136168   0.000000
  111        0.188714   0.000000
  112        0.304619   0.000000
  113        0.526378   0.000000
  114        0.914401   0.000000
  115        0.949620   0.000000
  116        1.238099   0.000000
  117        1.279609   0.000000
  118        1.660637   0.000000
  119        1.849837   0.000000
  120        2.180865   0.000000
 
  0.1250000E+00  0.2775558E-16  0.0000000E+00  0.3125000E-01
    1      -17.807067   1.000000
    2      -16.779475   1.000000
    3      -16.737113   1.000000
    4      -16.602293   1.000000
    5      -16.557827   1.000000
    6      -16.442137   1.000000
    7      -16.378963   1.000000
    8      -16.281458   1.000000
    9      -16.208479   1.000000
   10      -16.083988   1.000000
   11      -16.041094   1.000000
   12      -15.989421   1.000000
   13      -15.875554   1.000000
   14      -15.742435   1.000000
   15      -15.565447   1.000000
   16      -15.504115   1.000000
   17      -15.270358   1.000000
   18      -15.137812   1.000000
   19       -9.286404   1.000000
   20       -9.183139   1.000000
   21       -9.045749   1.000000
   22       -8.968054   1.000000
   23       -8.821167   1.000000
   24       -8.721955   1.000000
   25       -8.677973   1.000000
   26       -8.578926   1.000000
   27       -8.518487   1.000000
   28       -8.471775   1.000000
   29       -8.416282   1.000000
   30       -8.355008   1.000000
   31       -8.277961   1.000000
   32       -8.088230   1.000000
   33       -8.018071   1.000000
   34       -7.985275   1.000000
   35       -7.828113   1.000000
   36       -7.719336   1.000000
   37       -7.683778   1.000000
   38       -7.526950   1.000000
   39       -7.445439   1.000000
   40       -7.368457   1.000000
   41       -7.261630   1.000000
   42       -7.200138   1.000000
   43       -7.160565   1.000000
   44       -6.927669   1.000000
   45       -6.883718   1.000000
   46       -6.824545   1.000000
   47       -6.753767   1.000000
   48       -6.654052   1.000000
   49       -6.609167   1.000000
   50       -6.544606   1.000000
   51       -6.493168   1.000000
   52       -6.266540   1.000000
   53       -6.232851   1.000000
   54       -6.124217   1.000000
   55       -6.096093   1.000000
   56       -6.044790   1.000000
   57       -5.940448   1.000000
   58       -5.869144   1.000000
   59       -5.832395   1.000000
   60       -5.700484   1.000000
   61       -5.581181   1.000000
   62       -5.403085   1.000000
   63       -5.345702   1.000000
   64       -5.129125   1.000000
   65       -5.072548   1.000000
   66       -4.980132   1.000000
   67       -4.971179   1.000000
   68       -4.879257   1.000000
   69       -4.781168   1.000000
   70       -4.689871   1.000000
   71       -4.530232   1.000000
   72       -4.419111   1.000000
   73       -4.391615   1.000000
   74       -4.362969   1.000000
   75       -4.297163   1.000000
   76       -3.900017   0.999998
   77       -3.809828   0.999964
   78       -3.713025   0.999495
   79       -3.491616   0.957476
   80       -3.397034   0.853901
   81       -2.916248   0.009479
   82       -2.793175   0.000649
   83       -2.717190   0.000087
   84       -2.639188   0.000008
   85       -2.506240   0.000000
   86       -2.457006   0.000000
   87       -2.223213   0.000000
   88       -2.125051   0.000000
   89       -2.083479   0.000000
   90       -1.980960   0.000000
   91       -1.937241   0.000000
   92       -1.646977   0.000000
   93       -1.394025   0.000000
   94       -1.305603   0.000000
   95       -1.222766   0.000000
   96       -0.976685   0.000000
   97       -0.913788   0.000000
   98       -0.835919   0.000000
   99       -0.807883   0.000000
  100       -0.708899   0.000000
  101       -0.670817   0.000000
  102       -0.604705   0.000000
  103       -0.346058   0.000000
  104       -0.292212   0.000000
  105       -0.219952   0.000000
  106       -0.127173   0.000000
  107       -0.027086   0.000000
  108       -0.005313   0.000000
  109        0.098977   0.000000
  110        0.188373   0.000000
  111        0.256100   0.000000
  112        0.454203   0.000000
  113        0.620971   0.000000
  114        0.765393   0.000000
  115        1.055866   0.000000
  116        1.236979   0.000000
  117        1.316392   0.000000
  118        1.705679   0.000000
  119        1.889416   0.000000
  120        2.216412   0.000000
 
  0.2500000E+00  0.5551115E-16  0.0000000E+00  0.3125000E-01
    1      -17.731746   1.000000
    2      -16.990516   1.000000
    3      -16.736208   1.000000
    4      -16.651553   1.000000
    5      -16.597557   1.000000
    6      -16.474326   1.000000
    7      -16.342407   1.000000
    8      -16.207141   1.000000
    9      -16.165231   1.000000
   10      -16.099179   1.000000
   11      -16.008238   1.000000
   12      -15.898735   1.000000
   13      -15.803998   1.000000
   14      -15.725303   1.000000
   15      -15.576262   1.000000
   16      -15.501358   1.000000
   17      -15.305991   1.000000
   18      -15.160077   1.000000
   19       -9.503213   1.000000
   20       -9.241298   1.000000
   21       -9.156633   1.000000
   22       -9.106726   1.000000
   23       -8.895468   1.000000
   24       -8.802912   1.000000
   25       -8.719076   1.000000
   26       -8.516235   1.000000
   27       -8.454453   1.000000
   28       -8.411312   1.000000
   29       -8.381849   1.000000
   30       -8.244121   1.000000
   31       -8.152400   1.000000
   32       -8.036039   1.000000
   33       -7.981515   1.000000
   34       -7.845910   1.000000
   35       -7.733481   1.000000
   36       -7.657772   1.000000
   37       -7.533015   1.000000
   38       -7.503933   1.000000
   39       -7.442021   1.000000
   40       -7.394273   1.000000
   41       -7.283369   1.000000
   42       -7.254725   1.000000
   43       -7.070206   1.000000
   44       -6.973517   1.000000
   45       -6.920562   1.000000
   46       -6.850887   1.000000
   47       -6.786023   1.000000
   48       -6.666460   1.000000
   49       -6.600454   1.000000
   50       -6.448471   1.000000
   51       -6.412624   1.000000
   52       -6.294209   1.000000
   53       -6.268534   1.000000
   54       -6.174633   1.000000
   55       -6.106325   1.000000
   56       -6.052626   1.000000
   57       -5.875112   1.000000
   58       -5.838524   1.000000
   59       -5.781621   1.000000
   60       -5.655424   1.000000
   61       -5.533096   1.000000
   62       -5.527721   1.000000
   63       -5.463576   1.000000
   64       -5.290453   1.000000
   65       -5.183484   1.000000
   66       -5.119777   1.000000
   67       -5.008467   1.000000
   68       -4.900232   1.000000
   69       -4.792987   1.000000
   70       -4.647696   1.000000
   71       -4.467139   1.000000
   72       -4.342470   1.000000
   73       -4.302405   1.000000
   74       -4.221831   1.000000
   75       -4.173782   1.000000
   76       -4.027507   1.000000
   77       -3.905789   0.999998
   78       -3.755047   0.999831
   79       -3.477964   0.947980
   80       -3.409226   0.872758
   81       -2.982669   0.030281
   82       -2.788402   0.000576
   83       -2.729103   0.000121
   84       -2.575442   0.000001
   85       -2.512295   0.000000
   86       -2.430812   0.000000
   87       -2.228446   0.000000
   88       -2.090282   0.000000
   89       -2.008263   0.000000
   90       -1.928174   0.000000
   91       -1.793945   0.000000
   92       -1.645112   0.000000
   93       -1.396926   0.000000
   94       -1.339623   0.000000
   95       -1.202100   0.000000
   96       -1.007834   0.000000
   97       -0.928075   0.000000
   98       -0.883199   0.000000
   99       -0.830837   0.000000
  100       -0.790791   0.000000
  101       -0.736236   0.000000
  102       -0.706224   0.000000
  103       -0.545705   0.000000
  104       -0.444585   0.000000
  105       -0.349724   0.000000
  106       -0.244194   0.000000
  107       -0.138521   0.000000
  108       -0.058041   0.000000
  109        0.065731   0.000000
  110        0.225876   0.000000
  111        0.280488   0.000000
  112        0.583363   0.000000
  113        0.685545   0.000000
  114        0.830352   0.000000
  115        1.104501   0.000000
  116        1.261607   0.000000
  117        1.418662   0.000000
  118        1.831234   0.000000
  119        2.002575   0.000000
  120        2.321928   0.000000
 
  0.3750000E+00  0.0000000E+00  0.0000000E+00  0.3125000E-01
    1      -17.613103   1.000000
    2      -17.206825   1.000000
    3      -16.740768   1.000000
    4      -16.698292   1.000000
    5      -16.600925   1.000000
    6      -16.518754   1.000000
    7      -16.302049   1.000000
    8      -16.180039   1.000000
    9      -16.130678   1.000000
   10      -16.101770   1.000000
   11      -15.930291   1.000000
   12      -15.843586   1.000000
   13      -15.778556   1.000000
   14      -15.704075   1.000000
   15      -15.612175   1.000000
   16      -15.456317   1.000000
   17      -15.336182   1.000000
   18      -15.191311   1.000000
   19       -9.731131   1.000000
   20       -9.314571   1.000000
   21       -9.262598   1.000000
   22       -9.028327   1.000000
   23       -8.950152   1.000000
   24       -8.868501   1.000000
   25       -8.688396   1.000000
   26       -8.547342   1.000000
   27       -8.452065   1.000000
   28       -8.334778   1.000000
   29       -8.300716   1.000000
   30       -8.135794   1.000000
   31       -8.104587   1.000000
   32       -8.029172   1.000000
   33       -7.981167   1.000000
   34       -7.838266   1.000000
   35       -7.700060   1.000000
   36       -7.645694   1.000000
   37       -7.582477   1.000000
   38       -7.551775   1.000000
   39       -7.442605   1.000000
   40       -7.339156   1.000000
   41       -7.165861   1.000000
   42       -7.117713   1.000000
   43       -7.041817   1.000000
   44       -6.959655   1.000000
   45       -6.896597   1.000000
   46       -6.816136   1.000000
   47       -6.766935   1.000000
   48       -6.606931   1.000000
   49       -6.487973   1.000000
   50       -6.438986   1.000000
   51       -6.321901   1.000000
   52       -6.288028   1.000000
   53       -6.216993   1.000000
   54       -6.160276   1.000000
   55       -6.111787   1.000000
   56       -6.075368   1.000000
   57       -6.005271   1.000000
   58       -5.972439   1.000000
   59       -5.832004   1.000000
   60       -5.723792   1.000000
   61       -5.680401   1.000000
   62       -5.551371   1.000000
   63       -5.476143   1.000000
   64       -5.339842   1.000000
   65       -5.207695   1.000000
   66       -5.111887   1.000000
   67       -4.994385   1.000000
   68       -4.849361   1.000000
   69       -4.795880   1.000000
   70       -4.710767   1.000000
   71       -4.543569   1.000000
   72       -4.406191   1.000000
   73       -4.287933   1.000000
   74       -4.197384   1.000000
   75       -4.077328   1.000000
   76       -4.038539   1.000000
   77       -3.893400   0.999997
   78       -3.721854   0.999596
   79       -3.496899   0.960751
   80       -3.266775   0.552605
   81       -3.122706   0.187681
   82       -2.826542   0.001438
   83       -2.674135   0.000025
   84       -2.603668   0.000003
   85       -2.472022   0.000000
   86       -2.372899   0.000000
   87       -2.208055   0.000000
   88       -2.100307   0.000000
   89       -1.943900   0.000000
   90       -1.872759   0.000000
   91       -1.674090   0.000000
   92       -1.606146   0.000000
   93       -1.394347   0.000000
   94       -1.368561   0.000000
   95       -1.197381   0.000000
   96       -1.061798   0.000000
   97       -1.031233   0.000000
   98       -0.945670   0.000000
   99       -0.888075   0.000000
  100       -0.879583   0.000000
  101       -0.797904   0.000000
  102       -0.719027   0.000000
  103       -0.636787   0.000000
  104       -0.546186   0.000000
  105       -0.447029   0.000000
  106       -0.334665   0.000000
  107       -0.279696   0.000000
  108       -0.100906   0.000000
  109        0.040624   0.000000
  110        0.214400   0.000000
  111        0.265668   0.000000
  112        0.580257   0.000000
  113        0.745655   0.000000
  114        0.996743   0.000000
  115        1.126956   0.000000
  116        1.302886   0.000000
  117        1.525476   0.000000
  118        2.019265   0.000000
  119        2.178909   0.000000
  120        2.494668   0.000000
 
  0.5000000E+00  0.1110223E-15  0.0000000E+00  0.1562500E-01
    1      -17.506893   1.000000
    2      -17.347740   1.000000
    3      -16.743326   1.000000
    4      -16.716754   1.000000
    5      -16.587248   1.000000
    6      -16.546966   1.000000
    7      -16.280130   1.000000
    8      -16.199443   1.000000
    9      -16.114652   1.000000
   10      -16.082314   1.000000
   11      -15.879443   1.000000
   12      -15.837580   1.000000
   13      -15.769268   1.000000
   14      -15.699214   1.000000
   15      -15.641866   1.000000
   16      -15.430373   1.000000
   17      -15.339483   1.000000
   18      -15.210286   1.000000
   19       -9.813264   1.000000
   20       -9.351536   1.000000
   21       -9.300902   1.000000
   22       -9.008674   1.000000
   23       -8.937142   1.000000
   24       -8.835115   1.000000
   25       -8.676309   1.000000
   26       -8.659453   1.000000
   27       -8.441982   1.000000
   28       -8.292442   1.000000
   29       -8.228045   1.000000
   30       -8.130655   1.000000
   31       -8.081536   1.000000
   32       -8.020493   1.000000
   33       -7.926603   1.000000
   34       -7.844448   1.000000
   35       -7.744631   1.000000
   36       -7.682417   1.000000
   37       -7.641562   1.000000
   38       -7.591704   1.000000
   39       -7.465097   1.000000
   40       -7.334169   1.000000
   41       -7.099070   1.000000
   42       -7.069949   1.000000
   43       -7.001820   1.000000
   44       -6.857158   1.000000
   45       -6.833364   1.000000
   46       -6.711444   1.000000
   47       -6.648120   1.000000
   48       -6.590804   1.000000
   49       -6.524630   1.000000
   50       -6.454342   1.000000
   51       -6.415860   1.000000
   52       -6.345145   1.000000
   53       -6.271356   1.000000
   54       -6.187103   1.000000
   55       -6.115891   1.000000
   56       -6.104154   1.000000
   57       -6.013017   1.000000
   58       -5.842229   1.000000
   59       -5.811292   1.000000
   60       -5.787898   1.000000
   61       -5.637831   1.000000
   62       -5.597303   1.000000
   63       -5.534053   1.000000
   64       -5.406009   1.000000
   65       -5.224160   1.000000
   66       -5.065552   1.000000
   67       -4.997202   1.000000
   68       -4.960248   1.000000
   69       -4.831328   1.000000
   70       -4.636810   1.000000
   71       -4.579563   1.000000
   72       -4.441239   1.000000
   73       -4.333463   1.000000
   74       -4.167480   1.000000
   75       -4.034545   1.000000
   76       -4.014521   1.000000
   77       -3.868702   0.999994
   78       -3.693880   0.999190
   79       -3.451068   0.924412
   80       -3.354035   0.773151
   81       -2.987819   0.032864
   82       -2.950630   0.017723
   83       -2.659062   0.000016
   84       -2.609054   0.000003
   85       -2.459099   0.000000
   86       -2.340284   0.000000
   87       -2.190683   0.000000
   88       -2.100858   0.000000
   89       -1.932281   0.000000
   90       -1.847691   0.000000
   91       -1.653475   0.000000
   92       -1.563168   0.000000
   93       -1.387259   0.000000
   94       -1.376688   0.000000
   95       -1.197940   0.000000
   96       -1.086562   0.000000
   97       -1.079097   0.000000
   98       -1.001549   0.000000
   99       -0.935784   0.000000
  100       -0.898251   0.000000
  101       -0.820684   0.000000
  102       -0.713361   0.000000
  103       -0.625461   0.000000
  104       -0.598996   0.000000
  105       -0.477970   0.000000
  106       -0.409390   0.000000
  107       -0.309346   0.000000
  108       -0.112577   0.000000
  109        0.018449   0.000000
  110        0.196180   0.000000
  111        0.270225   0.000000
  112        0.582243   0.000000
  113        0.767714   0.000000
  114        1.051690   0.000000
  115        1.137685   0.000000
  116        1.322277   0.000000
  117        1.570001   0.000000
  118        2.251196   0.000000
  119        2.264748   0.000000
  120        2.406333   0.000000
 
  0.0000000E+00  0.1250000E+00  0.0000000E+00  0.3125000E-01
    1      -17.807259   1.000000
    2      -16.801182   1.000000
    3      -16.700915   1.000000
    4      -16.635974   1.000000
    5      -16.573432   1.000000
    6      -16.387695   1.000000
    7      -16.344151   1.000000
    8      -16.320003   1.000000
    9      -16.183508   1.000000
   10      -16.130352   1.000000
   11      -16.040208   1.000000
   12      -15.933743   1.000000
   13      -15.927641   1.000000
   14      -15.738069   1.000000
   15      -15.577000   1.000000
   16      -15.513136   1.000000
   17      -15.257568   1.000000
   18      -15.133523   1.000000
   19       -9.307382   1.000000
   20       -9.255211   1.000000
   21       -8.978364   1.000000
   22       -8.923395   1.000000
   23       -8.815268   1.000000
   24       -8.777366   1.000000
   25       -8.706149   1.000000
   26       -8.519061   1.000000
   27       -8.486736   1.000000
   28       -8.404374   1.000000
   29       -8.399437   1.000000
   30       -8.295375   1.000000
   31       -8.243497   1.000000
   32       -8.222489   1.000000
   33       -8.084150   1.000000
   34       -8.070740   1.000000
   35       -7.732985   1.000000
   36       -7.648733   1.000000
   37       -7.639088   1.000000
   38       -7.596036   1.000000
   39       -7.548481   1.000000
   40       -7.409936   1.000000
   41       -7.215288   1.000000
   42       -7.211156   1.000000
   43       -7.165763   1.000000
   44       -6.983994   1.000000
   45       -6.839689   1.000000
   46       -6.758076   1.000000
   47       -6.717856   1.000000
   48       -6.680925   1.000000
   49       -6.565805   1.000000
   50       -6.481299   1.000000
   51       -6.476663   1.000000
   52       -6.310267   1.000000
   53       -6.228603   1.000000
   54       -6.205422   1.000000
   55       -6.053298   1.000000
   56       -6.045413   1.000000
   57       -6.005211   1.000000
   58       -5.875262   1.000000
   59       -5.775359   1.000000
   60       -5.749875   1.000000
   61       -5.596516   1.000000
   62       -5.470611   1.000000
   63       -5.443156   1.000000
   64       -5.138887   1.000000
   65       -5.065041   1.000000
   66       -4.916029   1.000000
   67       -4.835676   1.000000
   68       -4.795707   1.000000
   69       -4.698403   1.000000
   70       -4.637172   1.000000
   71       -4.577804   1.000000
   72       -4.532977   1.000000
   73       -4.485947   1.000000
   74       -4.332837   1.000000
   75       -4.313930   1.000000
   76       -4.047296   1.000000
   77       -3.764531   0.999870
   78       -3.702490   0.999344
   79       -3.554392   0.984845
   80       -3.127193   0.196346
   81       -3.101026   0.149221
   82       -2.699573   0.000053
   83       -2.685485   0.000035
   84       -2.621945   0.000005
   85       -2.485576   0.000000
   86       -2.434981   0.000000
   87       -2.225883   0.000000
   88       -2.140821   0.000000
   89       -2.126880   0.000000
   90       -1.975934   0.000000
   91       -1.960725   0.000000
   92       -1.633262   0.000000
   93       -1.392515   0.000000
   94       -1.299094   0.000000
   95       -1.253635   0.000000
   96       -0.979766   0.000000
   97       -0.923340   0.000000
   98       -0.823544   0.000000
   99       -0.805535   0.000000
  100       -0.708762   0.000000
  101       -0.701859   0.000000
  102       -0.640090   0.000000
  103       -0.380181   0.000000
  104       -0.330460   0.000000
  105       -0.167731   0.000000
  106       -0.081292   0.000000
  107       -0.051777   0.000000
  108        0.065533   0.000000
  109        0.129817   0.000000
  110        0.230904   0.000000
  111        0.304798   0.000000
  112        0.376112   0.000000
  113        0.641622   0.000000
  114        0.903754   0.000000
  115        0.959049   0.000000
  116        1.197156   0.000000
  117        1.213542   0.000000
  118        1.703697   0.000000
  119        1.891975   0.000000
  120        2.215845   0.000000
 
  0.1250000E+00  0.1250000E+00  0.0000000E+00  0.3125000E-01
    1      -17.756958   1.000000
    2      -16.909879   1.000000
    3      -16.805538   1.000000
    4      -16.656566   1.000000
    5      -16.527178   1.000000
    6      -16.397939   1.000000
    7      -16.361042   1.000000
    8      -16.264001   1.000000
    9      -16.194520   1.000000
   10      -16.064476   1.000000
   11      -16.000729   1.000000
   12      -15.943886   1.000000
   13      -15.843471   1.000000
   14      -15.724060   1.000000
   15      -15.596282   1.000000
   16      -15.521204   1.000000
   17      -15.274773   1.000000
   18      -15.142549   1.000000
   19       -9.450983   1.000000
   20       -9.303688   1.000000
   21       -9.155756   1.000000
   22       -9.029683   1.000000
   23       -8.841996   1.000000
   24       -8.764933   1.000000
   25       -8.660603   1.000000
   26       -8.506830   1.000000
   27       -8.447160   1.000000
   28       -8.406650   1.000000
   29       -8.365361   1.000000
   30       -8.293513   1.000000
   31       -8.151834   1.000000
   32       -8.119178   1.000000
   33       -7.973834   1.000000
   34       -7.889621   1.000000
   35       -7.802935   1.000000
   36       -7.685283   1.000000
   37       -7.615252   1.000000
   38       -7.546228   1.000000
   39       -7.427968   1.000000
   40       -7.372930   1.000000
   41       -7.274874   1.000000
   42       -7.208711   1.000000
   43       -7.157289   1.000000
   44       -6.996232   1.000000
   45       -6.851125   1.000000
   46       -6.810402   1.000000
   47       -6.777557   1.000000
   48       -6.646881   1.000000
   49       -6.571301   1.000000
   50       -6.436998   1.000000
   51       -6.393776   1.000000
   52       -6.340606   1.000000
   53       -6.261812   1.000000
   54       -6.190710   1.000000
   55       -6.109548   1.000000
   56       -6.040712   1.000000
   57       -5.989477   1.000000
   58       -5.849953   1.000000
   59       -5.800866   1.000000
   60       -5.642102   1.000000
   61       -5.560559   1.000000
   62       -5.529217   1.000000
   63       -5.489945   1.000000
   64       -5.259198   1.000000
   65       -5.145581   1.000000
   66       -5.086920   1.000000
   67       -4.879944   1.000000
   68       -4.866261   1.000000
   69       -4.731687   1.000000
   70       -4.602106   1.000000
   71       -4.499786   1.000000
   72       -4.382891   1.000000
   73       -4.350183   1.000000
   74       -4.292657   1.000000
   75       -4.269240   1.000000
   76       -4.086153   1.000000
   77       -3.914081   0.999999
   78       -3.705626   0.999393
   79       -3.537833   0.979765
   80       -3.284336   0.601188
   81       -2.898974   0.006784
   82       -2.771912   0.000380
   83       -2.677739   0.000028
   84       -2.586760   0.000001
   85       -2.494300   0.000000
   86       -2.437016   0.000000
   87       -2.164451   0.000000
   88       -2.087566   0.000000
   89       -2.032328   0.000000
   90       -1.962723   0.000000
   91       -1.929860   0.000000
   92       -1.630297   0.000000
   93       -1.397145   0.000000
   94       -1.329635   0.000000
   95       -1.253166   0.000000
   96       -1.001666   0.000000
   97       -0.938330   0.000000
   98       -0.857868   0.000000
   99       -0.809499   0.000000
  100       -0.773602   0.000000
  101       -0.744969   0.000000
  102       -0.723586   0.000000
  103       -0.551470   0.000000
  104       -0.439778   0.000000
  105       -0.267031   0.000000
  106       -0.158530   0.000000
  107       -0.079889   0.000000
  108        0.036311   0.000000
  109        0.111780   0.000000
  110        0.213311   0.000000
  111        0.406629   0.000000
  112        0.481450   0.000000
  113        0.764108   0.000000
  114        0.820706   0.000000
  115        1.025755   0.000000
  116        1.179786   0.000000
  117        1.240191   0.000000
  118        1.787477   0.000000
  119        1.970118   0.000000
  120        2.285849   0.000000
 
  0.2500000E+00  0.1250000E+00  0.0000000E+00  0.3125000E-01
    1      -17.659337   1.000000
    2      -17.095600   1.000000
    3      -16.896089   1.000000
    4      -16.643909   1.000000
    5      -16.506834   1.000000
    6      -16.457891   1.000000
    7      -16.332225   1.000000
    8      -16.195092   1.000000
    9      -16.173235   1.000000
   10      -16.076958   1.000000
   11      -15.958875   1.000000
   12      -15.870483   1.000000
   13      -15.791637   1.000000
   14      -15.705855   1.000000
   15      -15.630617   1.000000
   16      -15.488528   1.000000
   17      -15.308893   1.000000
   18      -15.162965   1.000000
   19       -9.647131   1.000000
   20       -9.441858   1.000000
   21       -9.234661   1.000000
   22       -9.065334   1.000000
   23       -8.853696   1.000000
   24       -8.718699   1.000000
   25       -8.667406   1.000000
   26       -8.475401   1.000000
   27       -8.429510   1.000000
   28       -8.379536   1.000000
   29       -8.347926   1.000000
   30       -8.231675   1.000000
   31       -8.113674   1.000000
   32       -8.034155   1.000000
   33       -7.965606   1.000000
   34       -7.936715   1.000000
   35       -7.725938   1.000000
   36       -7.657282   1.000000
   37       -7.583071   1.000000
   38       -7.494459   1.000000
   39       -7.370669   1.000000
   40       -7.336985   1.000000
   41       -7.275912   1.000000
   42       -7.201865   1.000000
   43       -7.081467   1.000000
   44       -6.941273   1.000000
   45       -6.903790   1.000000
   46       -6.779464   1.000000
   47       -6.748785   1.000000