       N       E                     dE             d eps       ncg     rms          rms(c)
DAV:   1     0.112607508441E+04    0.11261E+04   -0.35983E+04  8160   0.577E+02
DAV:   2     0.755808527199E+00   -0.11253E+04   -0.10803E+04 11080   0.173E+02
DAV:   3    -0.199538899503E+03   -0.20029E+03   -0.19212E+03 10920   0.825E+01
DAV:   4    -0.208988490371E+03   -0.94496E+01   -0.91365E+01 12280   0.263E+01
DAV:   5    -0.209305854859E+03   -0.31736E+00   -0.31640E+00 11600   0.348E+00    0.275E+01
DAV:   6    -0.237876061458E+03   -0.28570E+02   -0.10802E+02 12520   0.601E+01    0.595E+01
DAV:   7    -0.196573478310E+03    0.41303E+02   -0.17525E+02 13480   0.152E+02    0.200E+01
DAV:   8    -0.189473101272E+03    0.71004E+01   -0.17619E+01 11880   0.127E+01    0.125E+01
DAV:   9    -0.188128603555E+03    0.13445E+01   -0.30277E+00 13560   0.635E+00    0.912E+00
DAV:  10    -0.186936102791E+03    0.11925E+01   -0.17258E+00 13480   0.761E+00    0.215E+00
DAV:  11    -0.187026962130E+03   -0.90859E-01   -0.59398E-01 13520   0.260E+00    0.373E+00
DAV:  12    -0.186950641176E+03    0.76321E-01   -0.71473E-01 12760   0.392E+00    0.329E+00
DAV:  13    -0.186865285583E+03    0.85356E-01   -0.24559E-01 13200   0.297E+00    0.181E+00
DAV:  14    -0.186827218547E+03    0.38067E-01   -0.90663E-02 12920   0.163E+00    0.608E-01
DAV:  15    -0.186823421222E+03    0.37973E-02   -0.10436E-02 11600   0.347E-01    0.316E-01
DAV:  16    -0.186824475048E+03   -0.10538E-02   -0.99884E-03 12920   0.536E-01    0.591E-01
DAV:  17    -0.186821633519E+03    0.28415E-02   -0.74526E-03 12880   0.469E-01    0.210E-01
DAV:  18    -0.186821210775E+03    0.42274E-03   -0.13320E-03 11720   0.177E-01    0.654E-02
DAV:  19    -0.186821768690E+03   -0.55791E-03   -0.79806E-04 10760   0.796E-02    0.890E-02
DAV:  20    -0.186822066391E+03   -0.29770E-03   -0.38891E-04  8320   0.553E-02    0.554E-02
DAV:  21    -0.186823276819E+03   -0.12104E-02   -0.30793E-04  8680   0.598E-02    0.256E-02
DAV:  22    -0.186824067324E+03   -0.79050E-03   -0.77600E-05  6600   0.242E-02    0.245E-02
DAV:  23    -0.186824890207E+03   -0.82288E-03   -0.84682E-05  7520   0.232E-02    0.839E-03
DAV:  24    -0.186825505946E+03   -0.61574E-03   -0.24923E-05  6280   0.127E-02    0.574E-03
DAV:  25    -0.186825955444E+03   -0.44950E-03   -0.17335E-05  6040   0.111E-02    0.318E-03
DAV:  26    -0.186826130771E+03   -0.17533E-03   -0.68841E-06  6960   0.643E-03    0.174E-03
DAV:  27    -0.186826234244E+03   -0.10347E-03   -0.38521E-06  6640   0.410E-03    0.132E-03
DAV:  28    -0.186826283149E+03   -0.48904E-04   -0.21167E-06  7120   0.286E-03
   1 F= -.18682628E+03 E0= -.18665571E+03  d E =-.186826E+03
       N       E                     dE             d eps       ncg     rms          rms(c)
DAV:   1    -0.187491764421E+03   -0.66553E+00   -0.27400E+02  8160   0.351E+01    0.461E+00
DAV:   2    -0.189350111148E+03   -0.18583E+01   -0.20003E+01 12280   0.151E+01    0.844E+00
DAV:   3    -0.189347727897E+03    0.23833E-02   -0.35706E+00 12480   0.119E+01    0.660E+00
DAV:   4    -0.188742595560E+03    0.60513E+00   -0.63082E-01 12760   0.472E+00    0.170E+00
DAV:   5    -0.188725532915E+03    0.17063E-01   -0.28745E-01 10440   0.144E+00    0.193E+00
DAV:   6    -0.188691125984E+03    0.34407E-01   -0.25982E-01 12160   0.176E+00    0.168E+00
DAV:   7    -0.188699383049E+03   -0.82571E-02   -0.18127E-01 12960   0.232E+00    0.218E+00
DAV:   8    -0.188657716869E+03    0.41666E-01   -0.63520E-02 13240   0.148E+00    0.360E-01
DAV:   9    -0.188656152399E+03    0.15645E-02   -0.62113E-03 10560   0.275E-01    0.224E-01
DAV:  10    -0.188656455442E+03   -0.30304E-03   -0.39047E-03 13160   0.309E-01    0.347E-01
DAV:  11    -0.188655755053E+03    0.70039E-03   -0.32957E-03 13080   0.318E-01    0.182E-01
DAV:  12    -0.188655606859E+03    0.14819E-03   -0.84074E-04 11840   0.123E-01    0.762E-02
DAV:  13    -0.188655590648E+03    0.16211E-04   -0.18924E-04  7560   0.505E-02
   2 F= -.18865559E+03 E0= -.18851746E+03  d E =-.182931E+01
       N       E                     dE             d eps       ncg     rms          rms(c)
DAV:   1    -0.190581148251E+03   -0.19255E+01   -0.31266E+01  9280   0.142E+01    0.444E+00
DAV:   2    -0.190521693850E+03    0.59454E-01   -0.27434E+00 11760   0.939E+00    0.713E+00
DAV:   3    -0.190068413643E+03    0.45328E+00   -0.12937E+00 12400   0.859E+00    0.424E+00
DAV:   4    -0.189854594895E+03    0.21382E+00   -0.67008E-01 12960   0.429E+00    0.247E+00
DAV:   5    -0.189764368751E+03    0.90226E-01   -0.28756E-01 11640   0.195E+00    0.889E-01
DAV:   6    -0.189753331276E+03    0.11037E-01   -0.45073E-02 12080   0.102E+00    0.640E-01
DAV:   7    -0.189750857059E+03    0.24742E-02   -0.11814E-02 12240   0.620E-01    0.277E-01
DAV:   8    -0.189750328148E+03    0.52891E-03   -0.20712E-03 11800   0.198E-01    0.130E-01
DAV:   9    -0.189750806609E+03   -0.47846E-03   -0.11346E-03 11320   0.140E-01    0.173E-01
DAV:  10    -0.189750761153E+03    0.45456E-04   -0.13027E-03 10240   0.222E-01    0.188E-01
DAV:  11    -0.189750470254E+03    0.29090E-03   -0.57009E-04 10400   0.148E-01    0.315E-02
DAV:  12    -0.189750478156E+03   -0.79018E-05   -0.54723E-05  6080   0.300E-02
   3 F= -.18975048E+03 E0= -.18963471E+03  d E =-.109489E+01
       N       E                     dE             d eps       ncg     rms          rms(c)
DAV:   1    -0.191355014469E+03   -0.16045E+01   -0.78649E+01  8160   0.202E+01    0.460E+00
DAV:   2    -0.191135905959E+03    0.21911E+00   -0.53740E+00 13400   0.732E+00    0.417E+00
DAV:   3    -0.191332632448E+03   -0.19673E+00   -0.14938E+00 12240   0.901E+00    0.681E+00
DAV:   4    -0.190912061749E+03    0.42057E+00   -0.13140E+00 13000   0.793E+00    0.278E+00
DAV:   5    -0.190807905109E+03    0.10416E+00   -0.30209E-01 11000   0.249E+00    0.151E+00
DAV:   6    -0.190799110786E+03    0.87943E-02   -0.13229E-01 12720   0.241E+00    0.156E+00
DAV:   7    -0.190779692282E+03    0.19419E-01   -0.52448E-02 12000   0.152E+00    0.511E-01
DAV:   8    -0.190775476776E+03    0.42155E-02   -0.72514E-03 10200   0.399E-01    0.178E-01
DAV:   9    -0.190776277587E+03   -0.80081E-03   -0.26731E-03 12840   0.327E-01    0.315E-01
DAV:  10    -0.190775773487E+03    0.50410E-03   -0.24566E-03 11120   0.313E-01    0.129E-01
DAV:  11    -0.190775574408E+03    0.19908E-03   -0.58650E-04 10200   0.102E-01    0.459E-02
DAV:  12    -0.190775565246E+03    0.91616E-05   -0.85836E-05  7280   0.352E-02
   4 F= -.19077557E+03 E0= -.19067923E+03  d E =-.102509E+01
       N       E                     dE             d eps       ncg     rms          rms(c)
DAV:   1    -0.192209529714E+03   -0.14340E+01   -0.18444E+02  8160   0.300E+01    0.566E+00
DAV:   2    -0.191940011292E+03    0.26952E+00   -0.96056E+00 10240   0.753E+00    0.309E+00
DAV:   3    -0.191759923796E+03    0.18009E+00   -0.12372E+00 10880   0.396E+00    0.259E+00
DAV:   4    -0.191806171500E+03   -0.46248E-01   -0.60961E-01 11920   0.529E+00    0.474E+00
DAV:   5    -0.191631778726E+03    0.17439E+00   -0.70663E-01 11080   0.575E+00    0.199E+00
DAV:   6    -0.191604761235E+03    0.27017E-01   -0.15278E-01 12240   0.272E+00    0.152E+00
DAV:   7    -0.191584345938E+03    0.20415E-01   -0.68595E-02 12400   0.198E+00    0.657E-01
DAV:   8    -0.191577741257E+03    0.66047E-02   -0.11735E-02 12200   0.657E-01    0.155E-01
DAV:   9    -0.191577963004E+03   -0.22175E-03   -0.22831E-03 10960   0.173E-01    0.110E-01
DAV:  10    -0.191578231046E+03   -0.26804E-03   -0.11808E-03 11280   0.249E-01    0.184E-01
DAV:  11    -0.191577911802E+03    0.31924E-03   -0.51271E-04  9200   0.167E-01    0.273E-02
DAV:  12    -0.191577923211E+03   -0.11410E-04   -0.51281E-05  6400   0.294E-02
   5 F= -.19157792E+03 E0= -.19149165E+03  d E =-.802358E+00
       N       E                     dE             d eps       ncg     rms          rms(c)
DAV:   1    -0.191689347977E+03   -0.11144E+00   -0.94181E+00  8160   0.648E+00    0.772E-01
DAV:   2    -0.191761135275E+03   -0.71787E-01   -0.39686E-01 13040   0.327E+00    0.217E+00
DAV:   3    -0.191708734378E+03    0.52401E-01   -0.10503E-01 12560   0.249E+00    0.433E-01
DAV:   4    -0.191709686146E+03   -0.95177E-03   -0.11639E-02 11640   0.742E-01    0.654E-01
DAV:   5    -0.191705956701E+03    0.37294E-02   -0.90323E-03 11800   0.726E-01    0.266E-01
DAV:   6    -0.191705536912E+03    0.41979E-03   -0.32698E-03 11520   0.262E-01    0.116E-01
DAV:   7    -0.191705208842E+03    0.32807E-03   -0.80173E-04 11600   0.112E-01    0.376E-02
DAV:   8    -0.191705267776E+03   -0.58934E-04   -0.18843E-04  6640   0.904E-02
   6 F= -.19170527E+03 E0= -.19161996E+03  d E =-.127345E+00
       N       E                     dE             d eps       ncg     rms          rms(c)
DAV:   1    -0.191835480424E+03   -0.13027E+00   -0.17785E+01  8160   0.889E+00    0.896E-01
DAV:   2    -0.191904953321E+03   -0.69473E-01   -0.53035E-01 12400   0.307E+00    0.192E+00
DAV:   3    -0.191867025277E+03    0.37928E-01   -0.11436E-01 12520   0.256E+00    0.722E-01
DAV:   4    -0.191865686198E+03    0.13391E-02   -0.20192E-02 12240   0.101E+00    0.788E-01
DAV:   5    -0.191860219804E+03    0.54664E-02   -0.14298E-02 12440   0.943E-01    0.363E-01
DAV:   6    -0.191859561911E+03    0.65789E-03   -0.56517E-03 12480   0.374E-01    0.187E-01
DAV:   7    -0.191859110537E+03    0.45137E-03   -0.22758E-03 11560   0.274E-01    0.173E-01
DAV:   8    -0.191858868697E+03    0.24184E-03   -0.82660E-04  9400   0.212E-01    0.739E-02
DAV:   9    -0.191858811970E+03    0.56726E-04   -0.15526E-04  6280   0.764E-02
   7 F= -.19185881E+03 E0= -.19177719E+03  d E =-.153544E+00
       N       E                     dE             d eps       ncg     rms          rms(c)
DAV:   1    -0.191976129433E+03   -0.11726E+00   -0.22870E+01  8160   0.102E+01    0.105E+00
DAV:   2    -0.192052399084E+03   -0.76270E-01   -0.77222E-01 12480   0.336E+00    0.173E+00
DAV:   3    -0.192027943945E+03    0.24455E-01   -0.11507E-01 12320   0.263E+00    0.943E-01
DAV:   4    -0.192018590293E+03    0.93537E-02   -0.26906E-02 11280   0.119E+00    0.742E-01
DAV:   5    -0.192016135028E+03    0.24553E-02   -0.20231E-02 12440   0.111E+00    0.605E-01
DAV:   6    -0.192013546555E+03    0.25885E-02   -0.12382E-02 12560   0.661E-01    0.254E-01
DAV:   7    -0.192012038175E+03    0.15084E-02   -0.31932E-03 10640   0.221E-01    0.584E-02
DAV:   8    -0.192012090036E+03   -0.51860E-04   -0.46146E-04 10800   0.115E-01
   8 F= -.19201209E+03 E0= -.19193197E+03  d E =-.153278E+00
       N       E                     dE             d eps       ncg     rms          rms(c)
DAV:   1    -0.192085054503E+03   -0.73016E-01   -0.14957E+01  8160   0.821E+00    0.856E-01
DAV:   2    -0.192125687828E+03   -0.40633E-01   -0.55872E-01 12000   0.198E+00    0.609E-01
DAV:   3    -0.192133819243E+03   -0.81314E-02   -0.51892E-02 11720   0.153E+00    0.117E+00
DAV:   4    -0.192121038265E+03    0.12781E-01   -0.30333E-02 11520   0.136E+00    0.491E-01
DAV:   5    -0.192119497434E+03    0.15408E-02   -0.94311E-03 12360   0.683E-01    0.399E-01
DAV:   6    -0.192119615143E+03   -0.11771E-03   -0.75891E-03 11960   0.691E-01    0.368E-01
DAV:   7    -0.192117779848E+03    0.18353E-02   -0.35870E-03 11520   0.406E-01    0.120E-01
DAV:   8    -0.192117722281E+03    0.57567E-04   -0.58894E-04  9520   0.184E-01
   9 F= -.19211772E+03 E0= -.19203721E+03  d E =-.105632E+00
       N       E                     dE             d eps       ncg     rms          rms(c)
DAV:   1    -0.192165415765E+03   -0.47636E-01   -0.12303E+01  8160   0.750E+00    0.846E-01
DAV:   2    -0.192200554837E+03   -0.35139E-01   -0.48522E-01 11720   0.194E+00    0.853E-01
DAV:   3    -0.192211914312E+03   -0.11359E-01   -0.71960E-02 12080   0.198E+00    0.146E+00
DAV:   4    -0.192190735907E+03    0.21178E-01   -0.35685E-02 12360   0.144E+00    0.354E-01
DAV:   5    -0.192189600082E+03    0.11358E-02   -0.81498E-03 10960   0.495E-01    0.310E-01
DAV:   6    -0.192190714069E+03   -0.11140E-02   -0.71394E-03 11240   0.679E-01    0.454E-01
DAV:   7    -0.192188389009E+03    0.23251E-02   -0.39030E-03 11680   0.493E-01    0.113E-01
DAV:   8    -0.192188352489E+03    0.36519E-04   -0.59579E-04  9880   0.188E-01
  10 F= -.19218835E+03 E0= -.19210587E+03  d E =-.706302E-01
       N       E                     dE             d eps       ncg     rms          rms(c)
DAV:   1    -0.192214275541E+03   -0.25887E-01   -0.48488E+00  8160   0.466E+00    0.583E-01
DAV:   2    -0.192242219073E+03   -0.27944E-01   -0.22369E-01 12320   0.188E+00    0.116E+00
DAV:   3    -0.192228064004E+03    0.14155E-01   -0.41390E-02 11280   0.159E+00    0.528E-01
DAV:   4    -0.192227131799E+03    0.93220E-03   -0.10345E-02 12520   0.760E-01    0.469E-01
DAV:   5    -0.192224991149E+03    0.21407E-02   -0.55837E-03 11800   0.630E-01    0.228E-01
DAV:   6    -0.192224662679E+03    0.32847E-03   -0.22411E-03 12160   0.265E-01    0.121E-01
DAV:   7    -0.192224384190E+03    0.27849E-03   -0.94592E-04 10480   0.111E-01    0.301E-02
DAV:   8    -0.192224397022E+03   -0.12832E-04   -0.94436E-05  8040   0.615E-02
  11 F= -.19222440E+03 E0= -.19214194E+03  d E =-.360445E-01
       N       E                     dE             d eps       ncg     rms          rms(c)
DAV:   1    -0.192233073549E+03   -0.86894E-02   -0.39964E-01  8160   0.137E+00    0.198E-01
DAV:   2    -0.192235273611E+03   -0.22001E-02   -0.18141E-02 12040   0.561E-01    0.398E-01
DAV:   3    -0.192233828388E+03    0.14452E-02   -0.50839E-03 12640   0.559E-01    0.209E-01
DAV:   4    -0.192233459661E+03    0.36873E-03   -0.10690E-03 10320   0.240E-01    0.119E-01
DAV:   5    -0.192233377321E+03    0.82341E-04   -0.57867E-04 10200   0.208E-01
  12 F= -.19223338E+03 E0= -.19215168E+03  d E =-.898030E-02
       N       E                     dE             d eps       ncg     rms          rms(c)
DAV:   1    -0.192246712304E+03   -0.13253E-01   -0.77015E-01  8160   0.187E+00    0.271E-01
DAV:   2    -0.192252662491E+03   -0.59502E-02   -0.36729E-02 11400   0.929E-01    0.636E-01
DAV:   3    -0.192248063182E+03    0.45993E-02   -0.94051E-03 11800   0.779E-01    0.191E-01
DAV:   4    -0.192248335830E+03   -0.27265E-03   -0.19894E-03 11360   0.351E-01    0.249E-01
DAV:   5    -0.192247673114E+03    0.66272E-03   -0.13294E-03 10640   0.316E-01    0.930E-02
DAV:   6    -0.192247663281E+03    0.98331E-05   -0.48175E-04 10120   0.114E-01
  13 F= -.19224766E+03 E0= -.19216683E+03  d E =-.142860E-01
       N       E                     dE             d eps       ncg     rms          rms(c)
DAV:   1    -0.192274310956E+03   -0.26638E-01   -0.59839E+00  8160   0.522E+00    0.701E-01
DAV:   2    -0.192309590394E+03   -0.35279E-01   -0.25920E-01 11480   0.223E+00    0.141E+00
DAV:   3    -0.192286059934E+03    0.23530E-01   -0.54026E-02 12280   0.188E+00    0.485E-01
DAV:   4    -0.192285511564E+03    0.54837E-03   -0.10879E-02 12560   0.755E-01    0.498E-01
DAV:   5    -0.192283352585E+03    0.21590E-02   -0.71422E-03 12640   0.733E-01    0.293E-01
DAV:   6    -0.192282728127E+03    0.62446E-03   -0.32516E-03 11840   0.339E-01    0.137E-01
DAV:   7    -0.192282309655E+03    0.41847E-03   -0.11408E-03 10760   0.134E-01    0.381E-02
DAV:   8    -0.192282342921E+03   -0.33266E-04   -0.15418E-04  8400   0.966E-02
  14 F= -.19228234E+03 E0= -.19220521E+03  d E =-.346796E-01
       N       E                     dE             d eps       ncg     rms          rms(c)
DAV:   1    -0.192299256418E+03   -0.16947E-01   -0.86722E+00  8160   0.627E+00    0.825E-01
DAV:   2    -0.192344018899E+03   -0.44762E-01   -0.37357E-01 11480   0.248E+00    0.148E+00
DAV:   3    -0.192319052589E+03    0.24966E-01   -0.65858E-02 12040   0.214E+00    0.625E-01
DAV:   4    -0.192316130940E+03    0.29216E-02   -0.14643E-02 12560   0.877E-01    0.492E-01
DAV:   5    -0.192314395381E+03    0.17356E-02   -0.86924E-03 12680   0.809E-01    0.368E-01
DAV:   6    -0.192313353385E+03    0.10420E-02   -0.48472E-03 12320   0.459E-01    0.173E-01
DAV:   7    -0.192312696950E+03    0.65643E-03   -0.16634E-03 10960   0.168E-01    0.353E-02
DAV:   8    -0.192312706421E+03   -0.94713E-05   -0.15748E-04  8200   0.642E-02
  15 F= -.19231271E+03 E0= -.19224026E+03  d E =-.303635E-01
       N       E                     dE             d eps       ncg     rms          rms(c)
DAV:   1    -0.192318095155E+03   -0.53982E-02   -0.75499E-01  8160   0.183E+00    0.239E-01
DAV:   2    -0.192321962530E+03   -0.38674E-02   -0.37207E-02 10600   0.739E-01    0.396E-01
DAV:   3    -0.192320455332E+03    0.15072E-02   -0.50112E-03 13200   0.613E-01    0.202E-01
DAV:   4    -0.192320057545E+03    0.39779E-03   -0.11078E-03 10640   0.270E-01    0.133E-01
DAV:   5    -0.192319976762E+03    0.80783E-04   -0.66472E-04 11080   0.228E-01
  16 F= -.19231998E+03 E0= -.19224921E+03  d E =-.727034E-02
       N       E                     dE             d eps       ncg     rms          rms(c)
DAV:   1    -0.192324248452E+03   -0.41909E-02   -0.66031E-01  8160   0.172E+00    0.246E-01
DAV:   2    -0.192327580039E+03   -0.33316E-02   -0.32161E-02 10840   0.737E-01    0.409E-01
DAV:   3    -0.192325817975E+03    0.17621E-02   -0.50658E-03 12840   0.613E-01    0.186E-01
DAV:   4    -0.192325452883E+03    0.36509E-03   -0.10459E-03 10400   0.249E-01    0.125E-01
DAV:   5    -0.192325440856E+03    0.12026E-04   -0.74250E-04 10880   0.231E-01
  17 F= -.19232544E+03 E0= -.19225622E+03  d E =-.546409E-02
       N       E                     dE             d eps       ncg     rms          rms(c)
DAV:   1    -0.192328493050E+03   -0.30402E-02   -0.10361E+00  8160   0.216E+00    0.275E-01
DAV:   2    -0.192332507975E+03   -0.40149E-02   -0.49144E-02 11440   0.699E-01    0.313E-01
DAV:   3    -0.192332190955E+03    0.31702E-03   -0.54320E-03 12480   0.617E-01    0.297E-01
DAV:   4    -0.192331174560E+03    0.10164E-02   -0.19306E-03 11760   0.379E-01    0.131E-01
DAV:   5    -0.192331087085E+03    0.87474E-04   -0.85742E-04 10480   0.219E-01
  18 F= -.19233109E+03 E0= -.19226346E+03  d E =-.564623E-02
       N       E                     dE             d eps       ncg     rms          rms(c)
DAV:   1    -0.192333023340E+03   -0.18488E-02   -0.96825E-01  8160   0.210E+00    0.279E-01
DAV:   2    -0.192338595425E+03   -0.55721E-02   -0.48090E-02 12520   0.834E-01    0.489E-01
DAV:   3    -0.192335978257E+03    0.26172E-02   -0.74064E-03 12120   0.737E-01    0.232E-01
DAV:   4    -0.192335532003E+03    0.44625E-03   -0.15882E-03 10960   0.313E-01    0.156E-01
DAV:   5    -0.192335380519E+03    0.15148E-03   -0.95464E-04 11480   0.269E-01    0.126E-01
DAV:   6    -0.192335304721E+03    0.75798E-04   -0.59138E-04 10000   0.161E-01
  19 F= -.19233530E+03 E0= -.19226861E+03  d E =-.421764E-02
       N       E                     dE             d eps       ncg     rms          rms(c)
DAV:   1    -0.192336064220E+03   -0.68370E-03   -0.65710E-02  8160   0.550E-01    0.779E-02
DAV:   2    -0.192336307440E+03   -0.24322E-03   -0.34354E-03 11440   0.193E-01    0.937E-02
DAV:   3    -0.192336316334E+03   -0.88940E-05   -0.57736E-04 11040   0.200E-01
  20 F= -.19233632E+03 E0= -.19226973E+03  d E =-.101161E-02
       N       E                     dE             d eps       ncg     rms          rms(c)
DAV:   1    -0.192337313893E+03   -0.10065E-02   -0.16844E-01  8160   0.877E-01    0.134E-01
DAV:   2    -0.192338553496E+03   -0.12396E-02   -0.79675E-03 12640   0.467E-01    0.306E-01
DAV:   3    -0.192337518678E+03    0.10348E-02   -0.24320E-03 12280   0.407E-01    0.103E-01
DAV:   4    -0.192337406016E+03    0.11266E-03   -0.36977E-04  9200   0.121E-01    0.597E-02
DAV:   5    -0.192337347349E+03    0.58667E-04   -0.16665E-04  6800   0.710E-02
  21 F= -.19233735E+03 E0= -.19227070E+03  d E =-.103102E-02
       N       E                     dE             d eps       ncg     rms          rms(c)
DAV:   1    -0.192337981832E+03   -0.57582E-03   -0.61648E-02  8160   0.536E-01    0.720E-02
DAV:   2    -0.192338512023E+03   -0.53019E-03   -0.34733E-03 11880   0.248E-01    0.164E-01
DAV:   3    -0.192338189025E+03    0.32300E-03   -0.68647E-04 10360   0.226E-01    0.544E-02
DAV:   4    -0.192338173345E+03    0.15680E-04   -0.61787E-05  6000   0.695E-02
  22 F= -.19233817E+03 E0= -.19227170E+03  d E =-.825996E-03
