 vasp.5.4.1 05Feb16 (build Jul 05 2020 17:13:04) complex                        
  
 executed on           IFC91_ompi date 2024.04.27  09:23:05
 running on   40 total cores
 distrk:  each k-point on   40 cores,    1 groups
 distr:  one band on NCORES_PER_BAND=   1 cores,   40 groups


--------------------------------------------------------------------------------------------------------


 INCAR:
 POTCAR:   PAW_PBE V 08Apr2002                    
 POTCAR:   PAW_PBE Mo 08Apr2002                   
 POTCAR:   PAW_PBE W 08Apr2002                    
 POTCAR:    PAW_PBE S 17Jan2003                   

 ----------------------------------------------------------------------------- 
|                                                                             |
|           W    W    AA    RRRRR   N    N  II  N    N   GGGG   !!!           |
|           W    W   A  A   R    R  NN   N  II  NN   N  G    G  !!!           |
|           W    W  A    A  R    R  N N  N  II  N N  N  G       !!!           |
|           W WW W  AAAAAA  RRRRR   N  N N  II  N  N N  G  GGG   !            |
|           WW  WW  A    A  R   R   N   NN  II  N   NN  G    G                |
|           W    W  A    A  R    R  N    N  II  N    N   GGGG   !!!           |
|                                                                             |
|      For optimal performance we recommend to set                            |
|        NCORE= 4 - approx SQRT( number of cores)                             |
|      NCORE specifies how many cores store one orbital (NPAR=cpu/NCORE).     |
|      This setting can  greatly improve the performance of VASP for DFT.     |
|      The default, NPAR=number of cores might be grossly inefficient         |
|      on modern multi-core architectures or massively parallel machines.     |
|      Do your own testing !!!!                                               |
|      Unfortunately you need to use the default for GW and RPA calculations. |
|      (for HF NCORE is supported but not extensively tested yet)             |
|                                                                             |
 ----------------------------------------------------------------------------- 

 POTCAR:   PAW_PBE V 08Apr2002                    
   VRHFIN =V: p6 d4 s1                                                          
   LEXCH  = PE                                                                  
   EATOM  =   170.8679 eV,   12.5584 Ry                                         
                                                                                
   TITEL  = PAW_PBE V 08Apr2002                                                 
   LULTRA =        F    use ultrasoft PP ?                                      
   IUNSCR =        1    unscreen: 0-lin 1-nonlin 2-no                           
   RPACOR =    2.000    partial core radius                                     
   POMASS =   50.941; ZVAL   =    5.000    mass and valenz                      
   RCORE  =    2.700    outmost cutoff radius                                   
   RWIGS  =    2.500; RWIGS  =    1.323    wigner-seitz radius (au A)           
   ENMAX  =  192.543; ENMIN  =  144.408 eV                                      
   RCLOC  =    1.779    cutoff for local pot                                    
   LCOR   =        T    correct aug charges                                     
   LPAW   =        T    paw PP                                                  
   EAUG   =  358.662                                                            
   DEXC   =    -.034                                                            
   RMAX   =    3.323    core radius for proj-oper                               
   RAUG   =    1.300    factor for augmentation sphere                          
   RDEP   =    2.762    radius for radial grids                                 
   QCUT   =   -3.762; QGAM   =    7.524    optimization parameters              
                                                                                
   Description                                                                  
     l     E      TYP  RCUT    TYP  RCUT                                        
     2   .000     23  2.700                                                     
     2   .000     23  2.700                                                     
     0   .000     23  2.700                                                     
     0  2.000     23  2.700                                                     
     1   .000     23  2.700                                                     
     1  2.000     23  2.700                                                     
     3   .000      7   .000                                                     
  local pseudopotential read in
  partial core-charges read in
  atomic valenz-charges read in
  non local Contribution for L=           2  read in
    real space projection operators read in
  non local Contribution for L=           2  read in
    real space projection operators read in
  non local Contribution for L=           0  read in
    real space projection operators read in
  non local Contribution for L=           0  read in
    real space projection operators read in
  non local Contribution for L=           1  read in
    real space projection operators read in
  non local Contribution for L=           1  read in
    real space projection operators read in
    PAW grid and wavefunctions read in
 
   number of l-projection  operators is LMAX  =           6
   number of lm-projection operators is LMMAX =          18
 
 POTCAR:   PAW_PBE Mo 08Apr2002                   
   VRHFIN =Mo: 4p5s4d                                                           
   LEXCH  = PE                                                                  
   EATOM  =   217.5180 eV,   15.9871 Ry                                         
                                                                                
   TITEL  = PAW_PBE Mo 08Apr2002                                                
   LULTRA =        F    use ultrasoft PP ?                                      
   IUNSCR =        1    unscreen: 0-lin 1-nonlin 2-no                           
   RPACOR =    2.200    partial core radius                                     
   POMASS =   95.940; ZVAL   =    6.000    mass and valenz                      
   RCORE  =    2.750    outmost cutoff radius                                   
   RWIGS  =    2.750; RWIGS  =    1.455    wigner-seitz radius (au A)           
   ENMAX  =  224.584; ENMIN  =  168.438 eV                                      
   RCLOC  =    2.111    cutoff for local pot                                    
   LCOR   =        T    correct aug charges                                     
   LPAW   =        T    paw PP                                                  
   EAUG   =  345.278                                                            
   DEXC   =    -.088                                                            
   RMAX   =    3.077    core radius for proj-oper                               
   RAUG   =    1.300    factor for augmentation sphere                          
   RDEP   =    2.815    radius for radial grids                                 
   QCUT   =   -4.063; QGAM   =    8.126    optimization parameters              
                                                                                
   Description                                                                  
     l     E      TYP  RCUT    TYP  RCUT                                        
     2   .000     23  2.500                                                     
     2   .000     23  2.500                                                     
     0   .000     23  2.600                                                     
     0  1.000     23  2.600                                                     
     1   .400     23  2.750                                                     
     1  2.000     23  2.750                                                     
     3   .000      7   .000                                                     
  local pseudopotential read in
  partial core-charges read in
  atomic valenz-charges read in
  non local Contribution for L=           2  read in
    real space projection operators read in
  non local Contribution for L=           2  read in
    real space projection operators read in
  non local Contribution for L=           0  read in
    real space projection operators read in
  non local Contribution for L=           0  read in
    real space projection operators read in
  non local Contribution for L=           1  read in
    real space projection operators read in
  non local Contribution for L=           1  read in
    real space projection operators read in
    PAW grid and wavefunctions read in
 
   number of l-projection  operators is LMAX  =           6
   number of lm-projection operators is LMMAX =          18
 
 POTCAR:   PAW_PBE W 08Apr2002                    
   VRHFIN =W : 6s5d                                                             
   LEXCH  = PE                                                                  
   EATOM  =   204.6100 eV,   15.0384 Ry                                         
                                                                                
   TITEL  = PAW_PBE W 08Apr2002                                                 
   LULTRA =        F    use ultrasoft PP ?                                      
   IUNSCR =        1    unscreen: 0-lin 1-nonlin 2-no                           
   RPACOR =    2.330    partial core radius                                     
   POMASS =  183.850; ZVAL   =    6.000    mass and valenz                      
   RCORE  =    2.750    outmost cutoff radius                                   
   RWIGS  =    2.750; RWIGS  =    1.455    wigner-seitz radius (au A)           
   ENMAX  =  223.057; ENMIN  =  167.293 eV                                      
   RCLOC  =    2.147    cutoff for local pot                                    
   LCOR   =        T    correct aug charges                                     
   LPAW   =        T    paw PP                                                  
   EAUG   =  373.438                                                            
   DEXC   =    -.060                                                            
   RMAX   =    3.087    core radius for proj-oper                               
   RAUG   =    1.300    factor for augmentation sphere                          
   RDEP   =    2.886    radius for radial grids                                 
   QCUT   =   -4.049; QGAM   =    8.098    optimization parameters              
                                                                                
   Description                                                                  
     l     E      TYP  RCUT    TYP  RCUT                                        
     2   .000     23  2.500                                                     
     2   .000     23  2.500                                                     
     0   .000     23  2.500                                                     
     0   .000     23  2.500                                                     
     1   .200     23  2.750                                                     
     1  2.000     23  2.750                                                     
     3   .000      7   .000                                                     
  local pseudopotential read in
  partial core-charges read in
  atomic valenz-charges read in
  non local Contribution for L=           2  read in
    real space projection operators read in
  non local Contribution for L=           2  read in
    real space projection operators read in
  non local Contribution for L=           0  read in
    real space projection operators read in
  non local Contribution for L=           0  read in
    real space projection operators read in
  non local Contribution for L=           1  read in
    real space projection operators read in
  non local Contribution for L=           1  read in
    real space projection operators read in
    PAW grid and wavefunctions read in
 
   number of l-projection  operators is LMAX  =           6
   number of lm-projection operators is LMMAX =          18
 
 POTCAR:    PAW_PBE S 17Jan2003                   
   VRHFIN =S : s2p4                                                             
   LEXCH  = PE                                                                  
   EATOM  =   276.8230 eV,   20.3459 Ry                                         
                                                                                
   TITEL  = PAW_PBE S 17Jan2003                                                 
   LULTRA =        F    use ultrasoft PP ?                                      
   IUNSCR =        1    unscreen: 0-lin 1-nonlin 2-no                           
   RPACOR =    1.500    partial core radius                                     
   POMASS =   32.066; ZVAL   =    6.000    mass and valenz                      
   RCORE  =    1.900    outmost cutoff radius                                   
   RWIGS  =    2.200; RWIGS  =    1.164    wigner-seitz radius (au A)           
   ENMAX  =  280.000; ENMIN  =  194.016 eV                                      
   ICORE  =        2    local potential                                         
   LCOR   =        T    correct aug charges                                     
   LPAW   =        T    paw PP                                                  
   EAUG   =  335.092                                                            
   DEXC   =     .000                                                            
   RMAX   =    2.867    core radius for proj-oper                               
   RAUG   =    1.300    factor for augmentation sphere                          
   RDEP   =    1.954    radius for radial grids                                 
   QCUT   =   -4.360; QGAM   =    8.721    optimization parameters              
                                                                                
   Description                                                                  
     l     E      TYP  RCUT    TYP  RCUT                                        
     0   .000     23  1.900                                                     
     0   .000     23  1.900                                                     
     1   .000     23  1.900                                                     
     1   .000     23  1.900                                                     
     2   .000     23  1.900                                                     
  local pseudopotential read in
  partial core-charges read in
  atomic valenz-charges read in
  non local Contribution for L=           0  read in
    real space projection operators read in
  non local Contribution for L=           0  read in
    real space projection operators read in
  non local Contribution for L=           1  read in
    real space projection operators read in
  non local Contribution for L=           1  read in
    real space projection operators read in
    PAW grid and wavefunctions read in
 
   number of l-projection  operators is LMAX  =           4
   number of lm-projection operators is LMMAX =           8
 

 ----------------------------------------------------------------------------- 
|                                                                             |
|  ADVICE TO THIS USER RUNNING 'VASP/VAMP'   (HEAR YOUR MASTER'S VOICE ...):  |
|                                                                             |
|      You have a (more or less) 'large supercell' and for larger cells       |
|      it might be more efficient to use real space projection operators      |
|      So try LREAL= Auto  in the INCAR   file.                               |
|      Mind: If you want to do a very accurate calculations keep the          |
|      reciprocal projection scheme          (i.e. LREAL=.FALSE.)             |
|                                                                             |
 ----------------------------------------------------------------------------- 

 PAW_PBE V 08Apr2002                    :
 energy of atom  1       EATOM= -170.8679
 kinetic energy error for atom=    0.0047 (will be added to EATOM!!)
 PAW_PBE Mo 08Apr2002                   :
 energy of atom  2       EATOM= -217.5180
 kinetic energy error for atom=    0.0215 (will be added to EATOM!!)
 PAW_PBE W 08Apr2002                    :
 energy of atom  3       EATOM= -204.6100
 kinetic energy error for atom=    0.0205 (will be added to EATOM!!)
  PAW_PBE S 17Jan2003                   :
 energy of atom  4       EATOM= -276.8230
 kinetic energy error for atom=    0.0122 (will be added to EATOM!!)
 
 
 POSCAR: crystal structure from VMoWS2 with Hexag
  positions in cartesian coordinates
  No initial velocities read in
 exchange correlation table for  LEXCH =        8
   RHO(1)=    0.500       N(1)  =     2000
   RHO(2)=  100.500       N(2)  =     4000
 


--------------------------------------------------------------------------------------------------------


 ion  position               nearest neighbor table
   1  0.000  0.000  0.000-  23 2.34  14 2.34  11 2.36  10 2.36  27 2.36  26 2.36
   2  0.667  0.000  0.000-  17 2.34  26 2.34  23 2.36  22 2.36  21 2.36  20 2.36
   3  1.000  0.333  0.000-  25 2.34  10 2.34  13 2.36  12 2.36  22 2.36  23 2.36
   4  0.667  0.667  0.000-  21 2.34  24 2.34  27 2.36  26 2.36  19 2.36  18 2.36   6 3.34   9 3.34
                             5 3.34   8 3.36
   5  0.333  0.667  0.000-  15 2.34  18 2.34  20 2.36  21 2.36  13 2.36  12 2.36   7 3.34   8 3.34
                             6 3.34   4 3.34
   6  0.000  0.667  0.000-  27 2.34  12 2.34  14 2.36  15 2.36  24 2.36  25 2.36   4 3.34   5 3.34
                             7 3.36   9 3.36
   7  0.333  0.000  0.000-  11 2.34  20 2.34  17 2.36  16 2.36  15 2.36  14 2.36   5 3.34   8 3.34
                             6 3.36   9 3.36
   8  0.333  0.333  0.000-  13 2.34  16 2.34  19 2.36  18 2.36  11 2.36  10 2.36   5 3.34   7 3.34
                             9 3.34   4 3.36
   9  0.667  0.333  0.000-  19 2.34  22 2.34  25 2.36  24 2.36  17 2.36  16 2.36   4 3.34   8 3.34
                             6 3.36   7 3.36
  10  0.111  0.222  0.955-   3 2.34   1 2.36   8 2.36
  11  0.222  0.111  0.045-   7 2.34   1 2.36   8 2.36
  12  0.111  0.556  0.955-   6 2.34   3 2.36   5 2.36
  13  0.222  0.444  0.045-   8 2.34   3 2.36   5 2.36
  14  0.111  0.889  0.955-   1 2.34   6 2.36   7 2.36
  15  0.222  0.777  0.045-   5 2.34   6 2.36   7 2.36
  16  0.444  0.222  0.955-   8 2.34   7 2.36   9 2.36
  17  0.556  0.111  0.045-   2 2.34   7 2.36   9 2.36
  18  0.444  0.556  0.955-   5 2.34   8 2.36   4 2.36
  19  0.556  0.444  0.045-   9 2.34   8 2.36   4 2.36
  20  0.444  0.889  0.955-   7 2.34   5 2.36   2 2.36
  21  0.556  0.777  0.045-   4 2.34   5 2.36   2 2.36
  22  0.777  0.222  0.955-   9 2.34   2 2.36   3 2.36
  23  0.889  0.111  0.045-   1 2.34   2 2.36   3 2.36
  24  0.777  0.556  0.955-   4 2.34   9 2.36   6 2.36
  25  0.889  0.444  0.045-   3 2.34   9 2.36   6 2.36
  26  0.777  0.889  0.955-   2 2.34   4 2.36   1 2.36
  27  0.889  0.777  0.045-   6 2.34   4 2.36   1 2.36
 

IMPORTANT INFORMATION: All symmetrisations will be switched off!
NOSYMM: (Re-)initialisation of all symmetry stuff for point group C_1.

 
 
 KPOINTS: K-POINTS 	#supercell of CrS2 in hexagona

Automatic generation of k-mesh.
Space group operators:
 irot       det(A)        alpha          n_x          n_y          n_z        tau_x        tau_y        tau_z
    1     1.000000     0.000000     1.000000     0.000000     0.000000     0.000000     0.000000     0.000000
 
 Subroutine IBZKPT returns following result:
 ===========================================
 
 Found     34 irreducible k-points:
 
 Following reciprocal coordinates:
            Coordinates               Weight
  0.000000  0.000000  0.000000      1.000000
  0.125000  0.000000  0.000000      2.000000
  0.250000  0.000000  0.000000      2.000000
  0.375000  0.000000  0.000000      2.000000
  0.500000  0.000000  0.000000      1.000000
  0.000000  0.125000  0.000000      2.000000
  0.125000  0.125000  0.000000      2.000000
  0.250000  0.125000  0.000000      2.000000
  0.375000  0.125000  0.000000      2.000000
  0.500000  0.125000  0.000000      2.000000
 -0.375000  0.125000  0.000000      2.000000
 -0.250000  0.125000  0.000000      2.000000
 -0.125000  0.125000  0.000000      2.000000
  0.000000  0.250000  0.000000      2.000000
  0.125000  0.250000  0.000000      2.000000
  0.250000  0.250000  0.000000      2.000000
  0.375000  0.250000  0.000000      2.000000
  0.500000  0.250000  0.000000      2.000000
 -0.375000  0.250000  0.000000      2.000000
 -0.250000  0.250000  0.000000      2.000000
 -0.125000  0.250000  0.000000      2.000000
 -0.000000  0.375000  0.000000      2.000000
  0.125000  0.375000  0.000000      2.000000
  0.250000  0.375000  0.000000      2.000000
  0.375000  0.375000  0.000000      2.000000
  0.500000  0.375000  0.000000      2.000000
 -0.375000  0.375000  0.000000      2.000000
 -0.250000  0.375000  0.000000      2.000000
 -0.125000  0.375000  0.000000      2.000000
  0.000000  0.500000  0.000000      1.000000
  0.125000  0.500000  0.000000      2.000000
  0.250000  0.500000  0.000000      2.000000
  0.375000  0.500000  0.000000      2.000000
  0.500000  0.500000  0.000000      1.000000
 
 Following cartesian coordinates:
            Coordinates               Weight
  0.000000  0.000000  0.000000      1.000000
  0.007209  0.012401  0.000000      2.000000
  0.014418  0.024802  0.000000      2.000000
  0.021626  0.037202  0.000000      2.000000
  0.028835  0.049603  0.000000      1.000000
 -0.007209  0.012401  0.000000      2.000000
  0.000000  0.024802  0.000000      2.000000
  0.007209  0.037202  0.000000      2.000000
  0.014418  0.049603  0.000000      2.000000
  0.021626  0.062004  0.000000      2.000000
 -0.028835 -0.024802  0.000000      2.000000
 -0.021626 -0.012401  0.000000      2.000000
 -0.014418  0.000000  0.000000      2.000000
 -0.014418  0.024802  0.000000      2.000000
 -0.007209  0.037202  0.000000      2.000000
  0.000000  0.049603  0.000000      2.000000
  0.007209  0.062004  0.000000      2.000000
  0.014418  0.074405  0.000000      2.000000
 -0.036044 -0.012401  0.000000      2.000000
 -0.028835  0.000000  0.000000      2.000000
 -0.021626  0.012401  0.000000      2.000000
 -0.021626  0.037202  0.000000      2.000000
 -0.014418  0.049603  0.000000      2.000000
 -0.007209  0.062004  0.000000      2.000000
  0.000000  0.074405  0.000000      2.000000
  0.007209  0.086806  0.000000      2.000000
 -0.043253  0.000000  0.000000      2.000000
 -0.036044  0.012401  0.000000      2.000000
 -0.028835  0.024802  0.000000      2.000000
 -0.028835  0.049603  0.000000      1.000000
 -0.021626  0.062004  0.000000      2.000000
 -0.014418  0.074405  0.000000      2.000000
 -0.007209  0.086806  0.000000      2.000000
  0.000000  0.099206  0.000000      1.000000
 


--------------------------------------------------------------------------------------------------------




 Dimension of arrays:
   k-points           NKPTS =     34   k-points in BZ     NKDIM =     34   number of bands    NBANDS=    120
   number of dos      NEDOS =    301   number of ions     NIONS =     27
   non local maximal  LDIM  =      6   non local SUM 2l+1 LMDIM =     18
   total plane-waves  NPLWV = 222264
   max r-space proj   IRMAX =      1   max aug-charges    IRDMAX=   5642
   dimension x,y,z NGX =    42 NGY =   42 NGZ =  126
   dimension x,y,z NGXF=    84 NGYF=   84 NGZF=  252
   support grid    NGXF=    84 NGYF=   84 NGZF=  252
   ions per type =               3   3   3  18
 NGX,Y,Z   is equivalent  to a cutoff of   6.96,  6.96,  6.98 a.u.
 NGXF,Y,Z  is equivalent  to a cutoff of  13.92, 13.92, 13.96 a.u.


 I would recommend the setting:
   dimension x,y,z NGX =    41 NGY =   41 NGZ =  123
 SYSTEM =  unknown system                          
 POSCAR =  crystal structure from VMoWS2 with Hexag

 Startparameter for this run:
   NWRITE =      2    write-flag & timer
   PREC   = normal    normal or accurate (medium, high low for compatibility)
   ISTART =      0    job   : 0-new  1-cont  2-samecut
   ICHARG =      2    charge: 1-file 2-atom 10-const
   ISPIN  =      1    spin polarized calculation?
   LNONCOLLINEAR =      F non collinear calculations
   LSORBIT =      F    spin-orbit coupling
   INIWAV =      1    electr: 0-lowe 1-rand  2-diag
   LASPH  =      F    aspherical Exc in radial PAW
   METAGGA=      F    non-selfconsistent MetaGGA calc.

 Electronic Relaxation 1
   ENCUT  =  280.0 eV  20.58 Ry    4.54 a.u.  13.68 13.68 40.93*2*pi/ulx,y,z
   ENINI  =  280.0     initial cutoff
   ENAUG  =  373.4 eV  augmentation charge cutoff
   NELM   =     60;   NELMIN=  2; NELMDL= -5     # of ELM steps 
   EDIFF  = 0.1E-03   stopping-criterion for ELM
   LREAL  =      F    real-space projection
   NLSPLINE    = F    spline interpolate recip. space projectors
   LCOMPAT=      F    compatible to vasp.4.4
   GGA_COMPAT  = T    GGA compatible to vasp.4.4-vasp.4.6
   LMAXPAW     = -100 max onsite density
   LMAXMIX     =    2 max onsite mixed and CHGCAR
   VOSKOWN=      0    Vosko Wilk Nusair interpolation
   ROPT   =    0.00000   0.00000   0.00000   0.00000
 Ionic relaxation
   EDIFFG = 0.1E-02   stopping-criterion for IOM
   NSW    =    100    number of steps for IOM
   NBLOCK =      1;   KBLOCK =    100    inner block; outer block 
   IBRION =      1    ionic relax: 0-MD 1-quasi-New 2-CG
   NFREE  =      0    steps in history (QN), initial steepest desc. (CG)
   ISIF   =      3    stress and relaxation
   IWAVPR =     11    prediction:  0-non 1-charg 2-wave 3-comb
   ISYM   =      0    0-nonsym 1-usesym 2-fastsym
   LCORR  =      T    Harris-Foulkes like correction to forces

   POTIM  = 0.5000    time-step for ionic-motion
   TEIN   =    0.0    initial temperature
   TEBEG  =    0.0;   TEEND  =   0.0 temperature during run
   SMASS  =  -3.00    Nose mass-parameter (am)
   estimated Nose-frequenzy (Omega)   =  0.10E-29 period in steps =****** mass=  -0.230E-26a.u.
   SCALEE = 1.0000    scale energy and forces
   NPACO  =    256;   APACO  = 16.0  distance and # of slots for P.C.
   PSTRESS=    0.0 pullay stress

  Mass of Ions in am
   POMASS =  50.94 95.94183.85 32.07
  Ionic Valenz
   ZVAL   =   5.00  6.00  6.00  6.00
  Atomic Wigner-Seitz radii
   RWIGS  =  -1.00 -1.00 -1.00 -1.00
  virtual crystal weights 
   VCA    =   1.00  1.00  1.00  1.00
   NELECT =     159.0000    total number of electrons
   NUPDOWN=      -1.0000    fix difference up-down

 DOS related values:
   EMIN   =  10.00;   EMAX   =-10.00  energy-range for DOS
   EFERMI =   0.00
   ISMEAR =     0;   SIGMA  =   0.20  broadening in eV -4-tet -1-fermi 0-gaus

 Electronic relaxation 2 (details)
   IALGO  =     38    algorithm
   LDIAG  =      T    sub-space diagonalisation (order eigenvalues)
   LSUBROT=      F    optimize rotation matrix (better conditioning)
   TURBO    =      0    0=normal 1=particle mesh
   IRESTART =      0    0=no restart 2=restart with 2 vectors
   NREBOOT  =      0    no. of reboots
   NMIN     =      0    reboot dimension
   EREF     =   0.00    reference energy to select bands
   IMIX   =      4    mixing-type and parameters
     AMIX     =   0.40;   BMIX     =  1.00
     AMIX_MAG =   1.60;   BMIX_MAG =  1.00
     AMIN     =   0.10
     WC   =   100.;   INIMIX=   1;  MIXPRE=   1;  MAXMIX= -45

 Intra band minimization:
   WEIMIN = 0.0010     energy-eigenvalue tresh-hold
   EBREAK =  0.21E-06  absolut break condition
   DEPER  =   0.30     relativ break condition  

   TIME   =   0.40     timestep for ELM

  volume/ion in A,a.u.               =      97.10       655.29
  Fermi-wavevector in a.u.,A,eV,Ry     =   0.643191  1.215456  5.628665  0.413695
  Thomas-Fermi vector in A             =   1.710110
 
 Write flags
   LWAVE  =      F    write WAVECAR
   LCHARG =      F    write CHGCAR
   LVTOT  =      F    write LOCPOT, total local potential
   LVHAR  =      F    write LOCPOT, Hartree potential only
   LELF   =      F    write electronic localiz. function (ELF)
   LORBIT =      0    0 simple, 1 ext, 2 COOP (PROOUT)


 Dipole corrections
   LMONO  =      F    monopole corrections only (constant potential shift)
   LDIPOL =      F    correct potential (dipole corrections)
   IDIPOL =      0    1-x, 2-y, 3-z, 4-all directions 
   EPSILON=  1.0000000 bulk dielectric constant

 Exchange correlation treatment:
   GGA     =    --    GGA type
   LEXCH   =     8    internal setting for exchange type
   VOSKOWN=      0    Vosko Wilk Nusair interpolation
   LHFCALC =     F    Hartree Fock is set to
   LHFONE  =     F    Hartree Fock one center treatment
   AEXX    =    0.0000 exact exchange contribution

 Linear response parameters
   LEPSILON=     F    determine dielectric tensor
   LRPA    =     F    only Hartree local field effects (RPA)
   LNABLA  =     F    use nabla operator in PAW spheres
   LVEL    =     F    velocity operator in full k-point grid
   LINTERFAST=   F  fast interpolation
   KINTER  =     0    interpolate to denser k-point grid
   CSHIFT  =0.1000    complex shift for real part using Kramers Kronig
   OMEGAMAX=  -1.0    maximum frequency
   DEG_THRESHOLD= 0.2000000E-02 threshold for treating states as degnerate
   RTIME   =    0.100 relaxation time in fs

 Orbital magnetization related:
   ORBITALMAG=     F  switch on orbital magnetization
   LCHIMAG   =     F  perturbation theory with respect to B field
   DQ        =  0.001000  dq finite difference perturbation B field



--------------------------------------------------------------------------------------------------------


 quasi-Newton-method for relaxation of ions
 charge density and potential will be updated during run
 non-spin polarized calculation
 Variant of blocked Davidson
 Davidson routine will perform the subspace rotation
 perform sub-space diagonalisation
    after iterative eigenvector-optimisation
 modified Broyden-mixing scheme, WC =      100.0
 initial mixing is a Kerker type mixing with AMIX =  0.4000 and BMIX =      1.0000
 Hartree-type preconditioning will be used
 using additional bands           40
 reciprocal scheme for non local part
 use partial core corrections
 calculate Harris-corrections to forces 
   (improved forces if not selfconsistent)
 use gradient corrections 
 use of overlap-Matrix (Vanderbilt PP)
 Gauss-broadening in eV      SIGMA  =   0.20


--------------------------------------------------------------------------------------------------------


  energy-cutoff  :      280.00
  volume of cell :     2621.81
      direct lattice vectors                 reciprocal lattice vectors
     8.669999960  5.039999894  0.000000000     0.057670129  0.099206348  0.000000000
    -8.669999821  5.040000133  0.000000000    -0.057670126  0.099206350  0.000000000
     0.000000000  0.000000000 30.000000000     0.000000000  0.000000000  0.033333333

  length of vectors
    10.028484344 10.028484344 30.000000000     0.114750788  0.114750788  0.033333333


 
 k-points in units of 2pi/SCALE and weight: K-POINTS 	#supercell of CrS2 in hexagona
   0.00000000  0.00000000  0.00000000       0.016
   0.00720877  0.01240079  0.00000000       0.031
   0.01441753  0.02480159  0.00000000       0.031
   0.02162630  0.03720238  0.00000000       0.031
   0.02883506  0.04960317  0.00000000       0.016
  -0.00720877  0.01240079  0.00000000       0.031
   0.00000000  0.02480159  0.00000000       0.031
   0.00720877  0.03720238  0.00000000       0.031
   0.01441753  0.04960317  0.00000000       0.031
   0.02162630  0.06200397  0.00000000       0.031
  -0.02883506 -0.02480159  0.00000000       0.031
  -0.02162630 -0.01240079  0.00000000       0.031
  -0.01441753  0.00000000  0.00000000       0.031
  -0.01441753  0.02480159  0.00000000       0.031
  -0.00720877  0.03720238  0.00000000       0.031
   0.00000000  0.04960317  0.00000000       0.031
   0.00720877  0.06200397  0.00000000       0.031
   0.01441753  0.07440476  0.00000000       0.031
  -0.03604383 -0.01240079  0.00000000       0.031
  -0.02883506  0.00000000  0.00000000       0.031
  -0.02162630  0.01240079  0.00000000       0.031
  -0.02162630  0.03720238  0.00000000       0.031
  -0.01441753  0.04960317  0.00000000       0.031
  -0.00720877  0.06200397  0.00000000       0.031
   0.00000000  0.07440476  0.00000000       0.031
   0.00720877  0.08680556  0.00000000       0.031
  -0.04325260  0.00000000  0.00000000       0.031
  -0.03604383  0.01240079  0.00000000       0.031
  -0.02883506  0.02480159  0.00000000       0.031
  -0.02883506  0.04960317  0.00000000       0.016
  -0.02162630  0.06200397  0.00000000       0.031
  -0.01441753  0.07440476  0.00000000       0.031
  -0.00720876  0.08680556  0.00000000       0.031
   0.00000000  0.09920635  0.00000000       0.016
 
 k-points in reciprocal lattice and weights: K-POINTS 	#supercell of CrS2 in hexagona
   0.00000000  0.00000000  0.00000000       0.016
   0.12500000  0.00000000  0.00000000       0.031
   0.25000000  0.00000000  0.00000000       0.031
   0.37500000  0.00000000  0.00000000       0.031
   0.50000000  0.00000000  0.00000000       0.016
   0.00000000  0.12500000  0.00000000       0.031
   0.12500000  0.12500000  0.00000000       0.031
   0.25000000  0.12500000  0.00000000       0.031
   0.37500000  0.12500000  0.00000000       0.031
   0.50000000  0.12500000  0.00000000       0.031
  -0.37500000  0.12500000  0.00000000       0.031
  -0.25000000  0.12500000  0.00000000       0.031
  -0.12500000  0.12500000  0.00000000       0.031
   0.00000000  0.25000000  0.00000000       0.031
   0.12500000  0.25000000  0.00000000       0.031
   0.25000000  0.25000000  0.00000000       0.031
   0.37500000  0.25000000  0.00000000       0.031
   0.50000000  0.25000000  0.00000000       0.031
  -0.37500000  0.25000000  0.00000000       0.031
  -0.25000000  0.25000000  0.00000000       0.031
  -0.12500000  0.25000000  0.00000000       0.031
  -0.00000000  0.37500000  0.00000000       0.031
   0.12500000  0.37500000  0.00000000       0.031
   0.25000000  0.37500000  0.00000000       0.031
   0.37500000  0.37500000  0.00000000       0.031
   0.50000000  0.37500000  0.00000000       0.031
  -0.37500000  0.37500000  0.00000000       0.031
  -0.25000000  0.37500000  0.00000000       0.031
  -0.12500000  0.37500000  0.00000000       0.031
   0.00000000  0.50000000  0.00000000       0.016
   0.12500000  0.50000000  0.00000000       0.031
   0.25000000  0.50000000  0.00000000       0.031
   0.37500000  0.50000000  0.00000000       0.031
   0.50000000  0.50000000  0.00000000       0.016
 
 position of ions in fractional coordinates (direct lattice) 
   0.00000000  0.00000000  0.00000000
   0.66666669  0.00000000  0.00000000
   1.00000000  0.33333334  0.00000000
   0.66666669  0.66666669  0.00000000
   0.33333334  0.66666669  0.00000000
   0.00000000  0.66666669  0.00000000
   0.33333334  0.00000000  0.00000000
   0.33333334  0.33333334  0.00000000
   0.66666669  0.33333334  0.00000000
   0.11068511  0.22244981  0.95539999
   0.22244981  0.11068511  0.04460000
   0.11068511  0.55578315  0.95539999
   0.22244981  0.44401845  0.04460000
   0.11068511  0.88911647  0.95539999
   0.22244981  0.77735180  0.04460000
   0.44401845  0.22244981  0.95539999
   0.55578315  0.11068511  0.04460000
   0.44401845  0.55578315  0.95539999
   0.55578315  0.44401845  0.04460000
   0.44401845  0.88911647  0.95539999
   0.55578315  0.77735180  0.04460000
   0.77735180  0.22244981  0.95539999
   0.88911647  0.11068511  0.04460000
   0.77735180  0.55578315  0.95539999
   0.88911647  0.44401845  0.04460000
   0.77735180  0.88911647  0.95539999
   0.88911647  0.77735180  0.04460000
 
 position of ions in cartesian coordinates  (Angst):
   0.00000000  0.00000000  0.00000000
   5.78000015  3.36000003  0.00000000
   5.77999993  6.71999999  0.00000000
   0.00000009  6.72000022  0.00000000
  -2.88999998  5.04000020  0.00000000
  -5.78000005  3.36000019  0.00000000
   2.89000007  1.68000002  0.00000000
   0.00000005  3.36000011  0.00000000
   2.89000012  5.04000012  0.00000000
  -0.96899991  1.67900001 28.66199970
   0.96899995  1.67899998  1.33799996
  -3.85899993  3.35900011 28.66199970
  -1.92100007  3.35900008  1.33799996
  -6.74899970  5.03900005 28.66199970
  -4.81100010  5.03900017  1.33799996
   1.92100017  3.35900003 28.66199970
   3.85900003  3.35900000  1.33799996
  -0.96899986  5.03900012 28.66199970
   0.96900000  5.03900009  1.33799996
  -3.85899963  6.71900006 28.66199970
  -1.92100003  6.71900019  1.33799996
   4.81100024  5.03900004 28.66199970
   6.74899984  5.03899987  1.33799996
   1.92100021  6.71900014 28.66199970
   3.85899981  6.71899996  1.33799996
  -0.96899956  8.39900008 28.66199970
   0.96899979  8.39900005  1.33799996
 


--------------------------------------------------------------------------------------------------------


 k-point  1 :   0.0000 0.0000 0.0000  plane waves:   27959
 k-point  2 :   0.1250 0.0000 0.0000  plane waves:   27889
 k-point  3 :   0.2500 0.0000 0.0000  plane waves:   27875
 k-point  4 :   0.3750 0.0000 0.0000  plane waves:   27893
 k-point  5 :   0.5000 0.0000 0.0000  plane waves:   27932
 k-point  6 :   0.0000 0.1250 0.0000  plane waves:   27889
 k-point  7 :   0.1250 0.1250 0.0000  plane waves:   27906
 k-point  8 :   0.2500 0.1250 0.0000  plane waves:   27898
 k-point  9 :   0.3750 0.1250 0.0000  plane waves:   27888
 k-point 10 :   0.5000 0.1250 0.0000  plane waves:   27873
 k-point 11 :  -0.3750 0.1250 0.0000  plane waves:   27874
 k-point 12 :  -0.2500 0.1250 0.0000  plane waves:   27895
 k-point 13 :  -0.1250 0.1250 0.0000  plane waves:   27879
 k-point 14 :   0.0000 0.2500 0.0000  plane waves:   27875
 k-point 15 :   0.1250 0.2500 0.0000  plane waves:   27898
 k-point 16 :   0.2500 0.2500 0.0000  plane waves:   27920
 k-point 17 :   0.3750 0.2500 0.0000  plane waves:   27901
 k-point 18 :   0.5000 0.2500 0.0000  plane waves:   27875
 k-point 19 :  -0.3750 0.2500 0.0000  plane waves:   27894
 k-point 20 :  -0.2500 0.2500 0.0000  plane waves:   27870
 k-point 21 :  -0.1250 0.2500 0.0000  plane waves:   27895
 k-point 22 :  -0.0000 0.3750 0.0000  plane waves:   27893
 k-point 23 :   0.1250 0.3750 0.0000  plane waves:   27888
 k-point 24 :   0.2500 0.3750 0.0000  plane waves:   27901
 k-point 25 :   0.3750 0.3750 0.0000  plane waves:   27860
 k-point 26 :   0.5000 0.3750 0.0000  plane waves:   27895
 k-point 27 :  -0.3750 0.3750 0.0000  plane waves:   27858
 k-point 28 :  -0.2500 0.3750 0.0000  plane waves:   27894
 k-point 29 :  -0.1250 0.3750 0.0000  plane waves:   27874
 k-point 30 :   0.0000 0.5000 0.0000  plane waves:   27932
 k-point 31 :   0.1250 0.5000 0.0000  plane waves:   27873
 k-point 32 :   0.2500 0.5000 0.0000  plane waves:   27875
 k-point 33 :   0.3750 0.5000 0.0000  plane waves:   27895
 k-point 34 :   0.5000 0.5000 0.0000  plane waves:   27910

 maximum and minimum number of plane-waves per node :     27959    27858

 maximum number of plane-waves:     27959
 maximum index in each direction: 
   IXMAX=   14   IYMAX=   13   IZMAX=   40
   IXMIN=  -14   IYMIN=  -14   IZMIN=  -40

 WARNING: aliasing errors must be expected set NGX to  58 to avoid them
 WARNING: aliasing errors must be expected set NGY to  56 to avoid them
 WARNING: aliasing errors must be expected set NGZ to 162 to avoid them
 aliasing errors are usually negligible using standard VASP settings
 and one can safely disregard these warnings

 serial   3D FFT for wavefunctions

 total amount of memory used by VASP on root node   650782. kBytes
========================================================================

   base      :      30000. kBytes
   nonl-proj :     559647. kBytes
   fftplans  :       2414. kBytes
   grid      :      12150. kBytes
   one-center:        419. kBytes
   wavefun   :      46152. kBytes
 
     INWAV:  cpu time    0.0000: real time    0.0000
 Broyden mixing: mesh for mixing (old mesh)
   NGX = 27   NGY = 27   NGZ = 81
  (NGX  = 84   NGY  = 84   NGZ  =252)
  gives a total of  59049 points

 initial charge density was supplied:
 charge density of overlapping atoms calculated
 number of electron     159.0000000 magnetization 
 keeping initial charge density in first step


--------------------------------------------------------------------------------------------------------


 Maximum index for augmentation-charges          146 (set IRDMAX)


--------------------------------------------------------------------------------------------------------


 First call to EWALD:  gamma=   0.129
 Maximum number of real-space cells 4x 4x 2
 Maximum number of reciprocal cells 2x 2x 5

 FEWALD executed in parallel
    FEWALD:  cpu time    0.0017: real time    0.0016


----------------------------------------- Iteration    1(   1)  ---------------------------------------


    POTLOK:  cpu time    0.0363: real time    0.0371
    SETDIJ:  cpu time    0.0032: real time    0.0033
     EDDAV:  cpu time   21.8333: real time   21.8884
       DOS:  cpu time    0.0020: real time    0.0017
    --------------------------------------------
      LOOP:  cpu time   21.8808: real time   21.9378

 eigenvalue-minimisations  :  8160
 total energy-change (2. order) : 0.1126075E+04  (-0.3598330E+04)
 number of electron     159.0000000 magnetization 
 augmentation part      159.0000000 magnetization 

 Free energy of the ion-electron system (eV)
  ---------------------------------------------------
  alpha Z        PSCENC =        81.65567618
  Ewald energy   TEWEN  =     41891.17177387
  -Hartree energ DENC   =    -47723.81767266
  -exchange      EXHF   =         0.00000000
  -V(xc)+E(xc)   XCENC  =      -242.92468744
  PAW double counting   =      3467.42045192    -2871.19716117
  entropy T*S    EENTRO =        -0.53109220
  eigenvalues    EBANDS =      -237.14472836
  atomic energy  EATOM  =      6761.44252427
  Solvation  Ediel_sol  =         0.00000000
  ---------------------------------------------------
  free energy    TOTEN  =      1126.07508441 eV

  energy without entropy =     1126.60617661  energy(sigma->0) =     1126.34063051


--------------------------------------------------------------------------------------------------------




----------------------------------------- Iteration    1(   2)  ---------------------------------------


     EDDAV:  cpu time   28.0202: real time   28.0877
       DOS:  cpu time    0.0009: real time    0.0009
    --------------------------------------------
      LOOP:  cpu time   28.0215: real time   28.0975

 eigenvalue-minimisations  : 11080
 total energy-change (2. order) :-0.1125319E+04  (-0.1080325E+04)
 number of electron     159.0000000 magnetization 
 augmentation part      159.0000000 magnetization 

 Free energy of the ion-electron system (eV)
  ---------------------------------------------------
  alpha Z        PSCENC =        81.65567618
  Ewald energy   TEWEN  =     41891.17177387
  -Hartree energ DENC   =    -47723.81767266
  -exchange      EXHF   =         0.00000000
  -V(xc)+E(xc)   XCENC  =      -242.92468744
  PAW double counting   =      3467.42045192    -2871.19716117
  entropy T*S    EENTRO =        -0.18991176
  eigenvalues    EBANDS =     -1362.80518468
  atomic energy  EATOM  =      6761.44252427
  Solvation  Ediel_sol  =         0.00000000
  ---------------------------------------------------
  free energy    TOTEN  =         0.75580853 eV

  energy without entropy =        0.94572029  energy(sigma->0) =        0.85076441


--------------------------------------------------------------------------------------------------------




----------------------------------------- Iteration    1(   3)  ---------------------------------------


     EDDAV:  cpu time   27.6687: real time   27.7349
       DOS:  cpu time    0.0010: real time    0.0010
    --------------------------------------------
      LOOP:  cpu time   27.6705: real time   27.7426

 eigenvalue-minimisations  : 10920
 total energy-change (2. order) :-0.2002947E+03  (-0.1921222E+03)
 number of electron     159.0000000 magnetization 
 augmentation part      159.0000000 magnetization 

 Free energy of the ion-electron system (eV)
  ---------------------------------------------------
  alpha Z        PSCENC =        81.65567618
  Ewald energy   TEWEN  =     41891.17177387
  -Hartree energ DENC   =    -47723.81767266
  -exchange      EXHF   =         0.00000000
  -V(xc)+E(xc)   XCENC  =      -242.92468744
  PAW double counting   =      3467.42045192    -2871.19716117
  entropy T*S    EENTRO =        -0.25802294
  eigenvalues    EBANDS =     -1563.03178153
  atomic energy  EATOM  =      6761.44252427
  Solvation  Ediel_sol  =         0.00000000
  ---------------------------------------------------
  free energy    TOTEN  =      -199.53889950 eV

  energy without entropy =     -199.28087656  energy(sigma->0) =     -199.40988803


--------------------------------------------------------------------------------------------------------




----------------------------------------- Iteration    1(   4)  ---------------------------------------


     EDDAV:  cpu time   30.4862: real time   30.5593
       DOS:  cpu time    0.0002: real time    0.0010
    --------------------------------------------
      LOOP:  cpu time   30.4884: real time   30.5679

 eigenvalue-minimisations  : 12280
 total energy-change (2. order) :-0.9449591E+01  (-0.9136487E+01)
 number of electron     159.0000000 magnetization 
 augmentation part      159.0000000 magnetization 

 Free energy of the ion-electron system (eV)
  ---------------------------------------------------
  alpha Z        PSCENC =        81.65567618
  Ewald energy   TEWEN  =     41891.17177387
  -Hartree energ DENC   =    -47723.81767266
  -exchange      EXHF   =         0.00000000
  -V(xc)+E(xc)   XCENC  =      -242.92468744
  PAW double counting   =      3467.42045192    -2871.19716117
  entropy T*S    EENTRO =        -0.29145955
  eigenvalues    EBANDS =     -1572.44793579
  atomic energy  EATOM  =      6761.44252427
  Solvation  Ediel_sol  =         0.00000000
  ---------------------------------------------------
  free energy    TOTEN  =      -208.98849037 eV

  energy without entropy =     -208.69703082  energy(sigma->0) =     -208.84276060


--------------------------------------------------------------------------------------------------------




----------------------------------------- Iteration    1(   5)  ---------------------------------------


     EDDAV:  cpu time   29.0969: real time   29.1673
       DOS:  cpu time    0.0010: real time    0.0010
    CHARGE:  cpu time    0.4627: real time    0.4639
    MIXING:  cpu time    0.0017: real time    0.0018
    --------------------------------------------
      LOOP:  cpu time   29.5635: real time   29.6419

 eigenvalue-minimisations  : 11600
 total energy-change (2. order) :-0.3173645E+00  (-0.3164032E+00)
 number of electron     159.0000110 magnetization 
 augmentation part       -9.8057659 magnetization 

 Broyden mixing:
  rms(total) = 0.27510E+01    rms(broyden)= 0.27505E+01
  rms(prec ) = 0.29368E+01
  weight for this iteration     100.00

 Free energy of the ion-electron system (eV)
  ---------------------------------------------------
  alpha Z        PSCENC =        81.65567618
  Ewald energy   TEWEN  =     41891.17177387
  -Hartree energ DENC   =    -47723.81767266
  -exchange      EXHF   =         0.00000000
  -V(xc)+E(xc)   XCENC  =      -242.92468744
  PAW double counting   =      3467.42045192    -2871.19716117
  entropy T*S    EENTRO =        -0.28809829
  eigenvalues    EBANDS =     -1572.76866154
  atomic energy  EATOM  =      6761.44252427
  Solvation  Ediel_sol  =         0.00000000
  ---------------------------------------------------
  free energy    TOTEN  =      -209.30585486 eV

  energy without entropy =     -209.01775657  energy(sigma->0) =     -209.16180571


--------------------------------------------------------------------------------------------------------




----------------------------------------- Iteration    1(   6)  ---------------------------------------


    POTLOK:  cpu time    0.0336: real time    0.0340
    SETDIJ:  cpu time    0.0026: real time    0.0026
     EDDAV:  cpu time   30.7954: real time   30.8690
       DOS:  cpu time    0.0010: real time    0.0010
    CHARGE:  cpu time    0.4552: real time    0.4563
    MIXING:  cpu time    0.0016: real time    0.0018
    --------------------------------------------
      LOOP:  cpu time   31.2907: real time   31.3730

 eigenvalue-minimisations  : 12520
 total energy-change (2. order) :-0.2857021E+02  (-0.1080247E+02)
 number of electron     159.0000107 magnetization 
 augmentation part        7.0802926 magnetization 

 Broyden mixing:
  rms(total) = 0.59492E+01    rms(broyden)= 0.59486E+01
  rms(prec ) = 0.65605E+01
  weight for this iteration     100.00

 eigenvalues of (default mixing * dielectric matrix)
  average eigenvalue GAMMA=   0.2937
  0.2937

 Free energy of the ion-electron system (eV)
  ---------------------------------------------------
  alpha Z        PSCENC =        81.65567618
  Ewald energy   TEWEN  =     41891.17177387
  -Hartree energ DENC   =    -47702.23853204
  -exchange      EXHF   =         0.00000000
  -V(xc)+E(xc)   XCENC  =      -233.61766231
  PAW double counting   =      3676.50091625    -3082.59225481
  entropy T*S    EENTRO =        -0.25239997
  eigenvalues    EBANDS =     -1629.94610291
  atomic energy  EATOM  =      6761.44252427
  Solvation  Ediel_sol  =         0.00000000
  ---------------------------------------------------
  free energy    TOTEN  =      -237.87606146 eV

  energy without entropy =     -237.62366149  energy(sigma->0) =     -237.74986148


--------------------------------------------------------------------------------------------------------




----------------------------------------- Iteration    1(   7)  ---------------------------------------


    POTLOK:  cpu time    0.0322: real time    0.0324
    SETDIJ:  cpu time    0.0024: real time    0.0024
     EDDAV:  cpu time   32.9406: real time   33.0195
       DOS:  cpu time    0.0010: real time    0.0010
    CHARGE:  cpu time    0.4672: real time    0.4684
    MIXING:  cpu time    0.0012: real time    0.0012
    --------------------------------------------
      LOOP:  cpu time   33.4458: real time   33.5341

 eigenvalue-minimisations  : 13480
 total energy-change (2. order) : 0.4130258E+02  (-0.1752460E+02)
 number of electron     159.0000088 magnetization 
 augmentation part       -6.2614668 magnetization 

 Broyden mixing:
  rms(total) = 0.20022E+01    rms(broyden)= 0.20002E+01
  rms(prec ) = 0.22239E+01
  weight for this iteration     100.00

 eigenvalues of (default mixing * dielectric matrix)
  average eigenvalue GAMMA=   0.5520
  0.8928  0.2112

 Free energy of the ion-electron system (eV)
  ---------------------------------------------------
  alpha Z        PSCENC =        81.65567618
  Ewald energy   TEWEN  =     41891.17177387
  -Hartree energ DENC   =    -47739.23850453
  -exchange      EXHF   =         0.00000000
  -V(xc)+E(xc)   XCENC  =      -234.98950340
  PAW double counting   =      3763.76124122    -3177.79622849
  entropy T*S    EENTRO =        -0.35583243
  eigenvalues    EBANDS =     -1542.22462500
  atomic energy  EATOM  =      6761.44252427
  Solvation  Ediel_sol  =         0.00000000
  ---------------------------------------------------
  free energy    TOTEN  =      -196.57347831 eV

  energy without entropy =     -196.21764588  energy(sigma->0) =     -196.39556209


--------------------------------------------------------------------------------------------------------




----------------------------------------- Iteration    1(   8)  ---------------------------------------


    POTLOK:  cpu time    0.0316: real time    0.0317
    SETDIJ:  cpu time    0.0025: real time    0.0025
     EDDAV:  cpu time   29.5439: real time   29.6146
       DOS:  cpu time    0.0011: real time    0.0011
    CHARGE:  cpu time    0.4738: real time    0.4749
    MIXING:  cpu time    0.0012: real time    0.0012
    --------------------------------------------
      LOOP:  cpu time   30.0549: real time   30.1354

 eigenvalue-minimisations  : 11880
 total energy-change (2. order) : 0.7100377E+01  (-0.1761896E+01)
 number of electron     159.0000095 magnetization 
 augmentation part       -6.3737564 magnetization 

 Broyden mixing:
  rms(total) = 0.12525E+01    rms(broyden)= 0.12522E+01
  rms(prec ) = 0.13529E+01
  weight for this iteration     100.00

 eigenvalues of (default mixing * dielectric matrix)
  average eigenvalue GAMMA=   0.5860
  1.1352  0.2312  0.3917

 Free energy of the ion-electron system (eV)
  ---------------------------------------------------
  alpha Z        PSCENC =        81.65567618
  Ewald energy   TEWEN  =     41891.17177387
  -Hartree energ DENC   =    -47762.34334184
  -exchange      EXHF   =         0.00000000
  -V(xc)+E(xc)   XCENC  =      -235.00647027
  PAW double counting   =      3907.04806460    -3322.71236884
  entropy T*S    EENTRO =        -0.31146982
  eigenvalues    EBANDS =     -1510.41748942
  atomic energy  EATOM  =      6761.44252427
  Solvation  Ediel_sol  =         0.00000000
  ---------------------------------------------------
  free energy    TOTEN  =      -189.47310127 eV

  energy without entropy =     -189.16163145  energy(sigma->0) =     -189.31736636


--------------------------------------------------------------------------------------------------------




----------------------------------------- Iteration    1(   9)  ---------------------------------------


    POTLOK:  cpu time    0.0302: real time    0.0302
    SETDIJ:  cpu time    0.0023: real time    0.0023
     EDDAV:  cpu time   33.1241: real time   33.2040
       DOS:  cpu time    0.0010: real time    0.0010
    CHARGE:  cpu time    0.4815: real time    0.4827
    MIXING:  cpu time    0.0012: real time    0.0012
    --------------------------------------------
      LOOP:  cpu time   33.6413: real time   33.7304

 eigenvalue-minimisations  : 13560
 total energy-change (2. order) : 0.1344498E+01  (-0.3027655E+00)
 number of electron     159.0000091 magnetization 
 augmentation part       -5.5505732 magnetization 

 Broyden mixing:
  rms(total) = 0.91197E+00    rms(broyden)= 0.91174E+00
  rms(prec ) = 0.98925E+00
  weight for this iteration     100.00

 eigenvalues of (default mixing * dielectric matrix)
  average eigenvalue GAMMA=   0.7416
  1.8141  0.6218  0.2201  0.3103

 Free energy of the ion-electron system (eV)
  ---------------------------------------------------
  alpha Z        PSCENC =        81.65567618
  Ewald energy   TEWEN  =     41891.17177387
  -Hartree energ DENC   =    -47766.98412151
  -exchange      EXHF   =         0.00000000
  -V(xc)+E(xc)   XCENC  =      -234.11187863
  PAW double counting   =      3977.09054417    -3393.62683357
  entropy T*S    EENTRO =        -0.32115150
  eigenvalues    EBANDS =     -1504.44513682
  atomic energy  EATOM  =      6761.44252427
  Solvation  Ediel_sol  =         0.00000000
  ---------------------------------------------------
  free energy    TOTEN  =      -188.12860355 eV

  energy without entropy =     -187.80745205  energy(sigma->0) =     -187.96802780


--------------------------------------------------------------------------------------------------------




----------------------------------------- Iteration    1(  10)  ---------------------------------------


    POTLOK:  cpu time    0.0332: real time    0.0335
    SETDIJ:  cpu time    0.0025: real time    0.0025
     EDDAV:  cpu time   32.9137: real time   32.9924
       DOS:  cpu time    0.0011: real time    0.0011
    CHARGE:  cpu time    0.4931: real time    0.4943
    MIXING:  cpu time    0.0013: real time    0.0013
    --------------------------------------------
      LOOP:  cpu time   33.4462: real time   33.5345

 eigenvalue-minimisations  : 13480
 total energy-change (2. order) : 0.1192501E+01  (-0.1725788E+00)
 number of electron     159.0000092 magnetization 
 augmentation part       -4.2540629 magnetization 

 Broyden mixing:
  rms(total) = 0.21520E+00    rms(broyden)= 0.21462E+00
  rms(prec ) = 0.22711E+00
  weight for this iteration     100.00

 eigenvalues of (default mixing * dielectric matrix)
  average eigenvalue GAMMA=   0.8384
  1.8543  1.1871  0.6410  0.2205  0.2890

 Free energy of the ion-electron system (eV)
  ---------------------------------------------------
  alpha Z        PSCENC =        81.65567618
  Ewald energy   TEWEN  =     41891.17177387
  -Hartree energ DENC   =    -47780.20468861
  -exchange      EXHF   =         0.00000000
  -V(xc)+E(xc)   XCENC  =      -232.57376549
  PAW double counting   =      4105.42418750    -3523.56708983
  entropy T*S    EENTRO =        -0.35108747
  eigenvalues    EBANDS =     -1489.93363321
  atomic energy  EATOM  =      6761.44252427
  Solvation  Ediel_sol  =         0.00000000
  ---------------------------------------------------
  free energy    TOTEN  =      -186.93610279 eV

  energy without entropy =     -186.58501532  energy(sigma->0) =     -186.76055906


--------------------------------------------------------------------------------------------------------




----------------------------------------- Iteration    1(  11)  ---------------------------------------


    POTLOK:  cpu time    0.0314: real time    0.0317
    SETDIJ:  cpu time    0.0023: real time    0.0024
     EDDAV:  cpu time   32.9704: real time   33.0498
       DOS:  cpu time    0.0010: real time    0.0010
    CHARGE:  cpu time    0.4949: real time    0.4961
    MIXING:  cpu time    0.0013: real time    0.0013
    --------------------------------------------
      LOOP:  cpu time   33.5026: real time   33.5917

 eigenvalue-minimisations  : 13520
 total energy-change (2. order) :-0.9085934E-01  (-0.5939770E-01)
 number of electron     159.0000090 magnetization 
 augmentation part       -4.4466090 magnetization 

 Broyden mixing:
  rms(total) = 0.37332E+00    rms(broyden)= 0.37309E+00
  rms(prec ) = 0.41311E+00
  weight for this iteration     100.00

 eigenvalues of (default mixing * dielectric matrix)
  average eigenvalue GAMMA=   0.8519
  1.8570  1.8570  0.6389  0.2184  0.2848  0.2553

 Free energy of the ion-electron system (eV)
  ---------------------------------------------------
  alpha Z        PSCENC =        81.65567618
  Ewald energy   TEWEN  =     41891.17177387
  -Hartree energ DENC   =    -47790.09911545
  -exchange      EXHF   =         0.00000000
  -V(xc)+E(xc)   XCENC  =      -232.24426819
  PAW double counting   =      4151.62720211    -3569.88716969
  entropy T*S    EENTRO =        -0.33800143
  eigenvalues    EBANDS =     -1480.35558380
  atomic energy  EATOM  =      6761.44252427
  Solvation  Ediel_sol  =         0.00000000
  ---------------------------------------------------
  free energy    TOTEN  =      -187.02696213 eV

  energy without entropy =     -186.68896070  energy(sigma->0) =     -186.85796142


--------------------------------------------------------------------------------------------------------




----------------------------------------- Iteration    1(  12)  ---------------------------------------


    POTLOK:  cpu time    0.0314: real time    0.0315
    SETDIJ:  cpu time    0.0025: real time    0.0025
     EDDAV:  cpu time   31.3879: real time   31.4629
       DOS:  cpu time    0.0010: real time    0.0010
    CHARGE:  cpu time    0.4919: real time    0.4931
    MIXING:  cpu time    0.0014: real time    0.0014
    --------------------------------------------
      LOOP:  cpu time   31.9170: real time   32.0016

 eigenvalue-minimisations  : 12760
 total energy-change (2. order) : 0.7632095E-01  (-0.7147293E-01)
 number of electron     159.0000088 magnetization 
 augmentation part       -4.4529561 magnetization 

 Broyden mixing:
  rms(total) = 0.32878E+00    rms(broyden)= 0.32857E+00
  rms(prec ) = 0.36437E+00
  weight for this iteration     100.00

 eigenvalues of (default mixing * dielectric matrix)
  average eigenvalue GAMMA=   0.8062
  1.9631  1.9631  0.6385  0.3969  0.2984  0.2197  0.1636

 Free energy of the ion-electron system (eV)
  ---------------------------------------------------
  alpha Z        PSCENC =        81.65567618
  Ewald energy   TEWEN  =     41891.17177387
  -Hartree energ DENC   =    -47797.26154239
  -exchange      EXHF   =         0.00000000
  -V(xc)+E(xc)   XCENC  =      -232.04351297
  PAW double counting   =      4179.24376726    -3597.48638431
  entropy T*S    EENTRO =        -0.33239379
  eigenvalues    EBANDS =     -1473.34054929
  atomic energy  EATOM  =      6761.44252427
  Solvation  Ediel_sol  =         0.00000000
  ---------------------------------------------------
  free energy    TOTEN  =      -186.95064118 eV

  energy without entropy =     -186.61824739  energy(sigma->0) =     -186.78444428


--------------------------------------------------------------------------------------------------------




----------------------------------------- Iteration    1(  13)  ---------------------------------------


    POTLOK:  cpu time    0.0312: real time    0.0313
    SETDIJ:  cpu time    0.0023: real time    0.0023
     EDDAV:  cpu time   32.2341: real time   32.3116
       DOS:  cpu time    0.0010: real time    0.0010
    CHARGE:  cpu time    0.4972: real time    0.4984
    MIXING:  cpu time    0.0014: real time    0.0014
    --------------------------------------------
      LOOP:  cpu time   32.7682: real time   32.8555

 eigenvalue-minimisations  : 13200
 total energy-change (2. order) : 0.8535559E-01  (-0.2455870E-01)
 number of electron     159.0000088 magnetization 
 augmentation part       -4.3745256 magnetization 

 Broyden mixing:
  rms(total) = 0.18118E+00    rms(broyden)= 0.18104E+00
  rms(prec ) = 0.20333E+00
  weight for this iteration     100.00

 eigenvalues of (default mixing * dielectric matrix)
  average eigenvalue GAMMA=   0.7914
  2.2278  1.7373  0.8111  0.6357  0.2994  0.2200  0.2564  0.1431

 Free energy of the ion-electron system (eV)
  ---------------------------------------------------
  alpha Z        PSCENC =        81.65567618
  Ewald energy   TEWEN  =     41891.17177387
  -Hartree energ DENC   =    -47800.41424126
  -exchange      EXHF   =         0.00000000
  -V(xc)+E(xc)   XCENC  =      -231.95991600
  PAW double counting   =      4187.88893353    -3606.10092595
  entropy T*S    EENTRO =        -0.33535599
  eigenvalues    EBANDS =     -1470.21375423
  atomic energy  EATOM  =      6761.44252427
  Solvation  Ediel_sol  =         0.00000000
  ---------------------------------------------------
  free energy    TOTEN  =      -186.86528558 eV

  energy without entropy =     -186.52992960  energy(sigma->0) =     -186.69760759


--------------------------------------------------------------------------------------------------------




----------------------------------------- Iteration    1(  14)  ---------------------------------------


    POTLOK:  cpu time    0.0307: real time    0.0311
    SETDIJ:  cpu time    0.0024: real time    0.0024
     EDDAV:  cpu time   31.7351: real time   31.8109
       DOS:  cpu time    0.0010: real time    0.0010
    CHARGE:  cpu time    0.4957: real time    0.4969
    MIXING:  cpu time    0.0016: real time    0.0016
    --------------------------------------------
      LOOP:  cpu time   32.2677: real time   32.3521

 eigenvalue-minimisations  : 12920
 total energy-change (2. order) : 0.3806704E-01  (-0.9066305E-02)
 number of electron     159.0000089 magnetization 
 augmentation part       -4.1394010 magnetization 

 Broyden mixing:
  rms(total) = 0.60751E-01    rms(broyden)= 0.60558E-01
  rms(prec ) = 0.68543E-01
  weight for this iteration     100.00

 eigenvalues of (default mixing * dielectric matrix)
  average eigenvalue GAMMA=   0.7798
  2.2350  1.7989  0.9577  0.5842  0.5304  0.2982  0.2203  0.2521  0.1414

 Free energy of the ion-electron system (eV)
  ---------------------------------------------------
  alpha Z        PSCENC =        81.65567618
  Ewald energy   TEWEN  =     41891.17177387
  -Hartree energ DENC   =    -47804.05347728
  -exchange      EXHF   =         0.00000000
  -V(xc)+E(xc)   XCENC  =      -231.87489865
  PAW double counting   =      4191.90651727    -3610.06017822
  entropy T*S    EENTRO =        -0.34340502
  eigenvalues    EBANDS =     -1466.67175096
  atomic energy  EATOM  =      6761.44252427
  Solvation  Ediel_sol  =         0.00000000
  ---------------------------------------------------
  free energy    TOTEN  =      -186.82721855 eV

  energy without entropy =     -186.48381353  energy(sigma->0) =     -186.65551604


--------------------------------------------------------------------------------------------------------




----------------------------------------- Iteration    1(  15)  ---------------------------------------


    POTLOK:  cpu time    0.0316: real time    0.0316
    SETDIJ:  cpu time    0.0025: real time    0.0025
     EDDAV:  cpu time   28.9782: real time   29.0477
       DOS:  cpu time    0.0011: real time    0.0011
    CHARGE:  cpu time    0.4962: real time    0.4974
    MIXING:  cpu time    0.0016: real time    0.0016
    --------------------------------------------
      LOOP:  cpu time   29.5124: real time   29.5921

 eigenvalue-minimisations  : 11600
 total energy-change (2. order) : 0.3797324E-02  (-0.1043618E-02)
 number of electron     159.0000089 magnetization 
 augmentation part       -4.1626615 magnetization 

 Broyden mixing:
  rms(total) = 0.31562E-01    rms(broyden)= 0.31543E-01
  rms(prec ) = 0.36500E-01
  weight for this iteration     100.00

 eigenvalues of (default mixing * dielectric matrix)
  average eigenvalue GAMMA=   0.8213
  2.2952  2.0099  1.2639  0.6832  0.6832  0.3674  0.2983  0.2203  0.2500  0.1415

 Free energy of the ion-electron system (eV)
  ---------------------------------------------------
  alpha Z        PSCENC =        81.65567618
  Ewald energy   TEWEN  =     41891.17177387
  -Hartree energ DENC   =    -47806.92523997
  -exchange      EXHF   =         0.00000000
  -V(xc)+E(xc)   XCENC  =      -231.83231537
  PAW double counting   =      4193.04752958    -3611.16040760
  entropy T*S    EENTRO =        -0.34227750
  eigenvalues    EBANDS =     -1463.88068469
  atomic energy  EATOM  =      6761.44252427
  Solvation  Ediel_sol  =         0.00000000
  ---------------------------------------------------
  free energy    TOTEN  =      -186.82342122 eV

  energy without entropy =     -186.48114373  energy(sigma->0) =     -186.65228247


--------------------------------------------------------------------------------------------------------




----------------------------------------- Iteration    1(  16)  ---------------------------------------


    POTLOK:  cpu time    0.0326: real time    0.0327
    SETDIJ:  cpu time    0.0023: real time    0.0024
     EDDAV:  cpu time   31.6892: real time   31.7655
       DOS:  cpu time    0.0010: real time    0.0010
    CHARGE:  cpu time    0.4960: real time    0.4972
    MIXING:  cpu time    0.0017: real time    0.0017
    --------------------------------------------
      LOOP:  cpu time   32.2238: real time   32.3091

 eigenvalue-minimisations  : 12920
 total energy-change (2. order) :-0.1053826E-02  (-0.9988447E-03)
 number of electron     159.0000089 magnetization 
 augmentation part       -4.2036673 magnetization 

 Broyden mixing:
  rms(total) = 0.59104E-01    rms(broyden)= 0.59080E-01
  rms(prec ) = 0.65725E-01
  weight for this iteration     100.00

 eigenvalues of (default mixing * dielectric matrix)
  average eigenvalue GAMMA=   0.8008
  2.4132  2.1300  1.3930  0.7627  0.6556  0.4022  0.2986  0.2203  0.2506  0.1412
  0.1412

 Free energy of the ion-electron system (eV)
  ---------------------------------------------------
  alpha Z        PSCENC =        81.65567618
  Ewald energy   TEWEN  =     41891.17177387
  -Hartree energ DENC   =    -47811.67933262
  -exchange      EXHF   =         0.00000000
  -V(xc)+E(xc)   XCENC  =      -231.76957804
  PAW double counting   =      4194.57387199    -3612.63530405
  entropy T*S    EENTRO =        -0.34116170
  eigenvalues    EBANDS =     -1459.24294495
  atomic energy  EATOM  =      6761.44252427
  Solvation  Ediel_sol  =         0.00000000
  ---------------------------------------------------
  free energy    TOTEN  =      -186.82447505 eV

  energy without entropy =     -186.48331335  energy(sigma->0) =     -186.65389420


--------------------------------------------------------------------------------------------------------




----------------------------------------- Iteration    1(  17)  ---------------------------------------


    POTLOK:  cpu time    0.0309: real time    0.0312
    SETDIJ:  cpu time    0.0025: real time    0.0025
     EDDAV:  cpu time   31.6196: real time   31.6951
       DOS:  cpu time    0.0011: real time    0.0011
    CHARGE:  cpu time    0.4930: real time    0.4942
    MIXING:  cpu time    0.0018: real time    0.0018
    --------------------------------------------
      LOOP:  cpu time   32.1501: real time   32.2354

 eigenvalue-minimisations  : 12880
 total energy-change (2. order) : 0.2841529E-02  (-0.7452647E-03)
 number of electron     159.0000089 magnetization 
 augmentation part       -4.2147812 magnetization 

 Broyden mixing:
  rms(total) = 0.20957E-01    rms(broyden)= 0.20914E-01
  rms(prec ) = 0.24353E-01
  weight for this iteration     100.00

 eigenvalues of (default mixing * dielectric matrix)
  average eigenvalue GAMMA=   0.8203
  2.3045  2.3045  1.3542  1.1508  0.6591  0.6591  0.3770  0.2976  0.2203  0.2504
  0.1415  0.1245

 Free energy of the ion-electron system (eV)
  ---------------------------------------------------
  alpha Z        PSCENC =        81.65567618
  Ewald energy   TEWEN  =     41891.17177387
  -Hartree energ DENC   =    -47813.89167767
  -exchange      EXHF   =         0.00000000
  -V(xc)+E(xc)   XCENC  =      -231.74207900
  PAW double counting   =      4195.06914523    -3613.10956684
  entropy T*S    EENTRO =        -0.34092922
  eigenvalues    EBANDS =     -1457.07650034
  atomic energy  EATOM  =      6761.44252427
  Solvation  Ediel_sol  =         0.00000000
  ---------------------------------------------------
  free energy    TOTEN  =      -186.82163352 eV

  energy without entropy =     -186.48070430  energy(sigma->0) =     -186.65116891


--------------------------------------------------------------------------------------------------------




----------------------------------------- Iteration    1(  18)  ---------------------------------------


    POTLOK:  cpu time    0.0293: real time    0.0306
    SETDIJ:  cpu time    0.0023: real time    0.0023
     EDDAV:  cpu time   29.1612: real time   29.2314
       DOS:  cpu time    0.0002: real time    0.0010
    CHARGE:  cpu time    0.4959: real time    0.4971
    MIXING:  cpu time    0.0019: real time    0.0019
    --------------------------------------------
      LOOP:  cpu time   29.6939: real time   29.7741

 eigenvalue-minimisations  : 11720
 total energy-change (2. order) : 0.4227441E-03  (-0.1332040E-03)
 number of electron     159.0000089 magnetization 
 augmentation part       -4.1862289 magnetization 

 Broyden mixing:
  rms(total) = 0.65396E-02    rms(broyden)= 0.65253E-02
  rms(prec ) = 0.94238E-02
  weight for this iteration     100.00

 eigenvalues of (default mixing * dielectric matrix)
  average eigenvalue GAMMA=   0.8769
  2.4804  2.4804  1.5312  1.2582  0.9605  0.6397  0.6397  0.3749  0.2977  0.2203
  0.2504  0.1415  0.1243

 Free energy of the ion-electron system (eV)
  ---------------------------------------------------
  alpha Z        PSCENC =        81.65567618
  Ewald energy   TEWEN  =     41891.17177387
  -Hartree energ DENC   =    -47817.22933406
  -exchange      EXHF   =         0.00000000
  -V(xc)+E(xc)   XCENC  =      -231.71038013
  PAW double counting   =      4194.68651897    -3612.70650249
  entropy T*S    EENTRO =        -0.34157433
  eigenvalues    EBANDS =     -1453.78991305
  atomic energy  EATOM  =      6761.44252427
  Solvation  Ediel_sol  =         0.00000000
  ---------------------------------------------------
  free energy    TOTEN  =      -186.82121078 eV

  energy without entropy =     -186.47963644  energy(sigma->0) =     -186.65042361


--------------------------------------------------------------------------------------------------------




----------------------------------------- Iteration    1(  19)  ---------------------------------------


    POTLOK:  cpu time    0.0309: real time    0.0310
    SETDIJ:  cpu time    0.0023: real time    0.0023
     EDDAV:  cpu time   27.1290: real time   27.1938
       DOS:  cpu time    0.0010: real time    0.0010
    CHARGE:  cpu time    0.4969: real time    0.4981
    MIXING:  cpu time    0.0019: real time    0.0019
    --------------------------------------------
      LOOP:  cpu time   27.6630: real time   27.7372

 eigenvalue-minimisations  : 10760
 total energy-change (2. order) :-0.5579148E-03  (-0.7980557E-04)
 number of electron     159.0000089 magnetization 
 augmentation part       -4.1957865 magnetization 

 Broyden mixing:
  rms(total) = 0.89049E-02    rms(broyden)= 0.88981E-02
  rms(prec ) = 0.10996E-01
  weight for this iteration     100.00

 eigenvalues of (default mixing * dielectric matrix)
  average eigenvalue GAMMA=   0.8742
  2.6284  2.6284  1.6471  1.3299  1.0131  0.6461  0.6461  0.3753  0.2202  0.2505
  0.2978  0.2899  0.1415  0.1243

 Free energy of the ion-electron system (eV)
  ---------------------------------------------------
  alpha Z        PSCENC =        81.65567618
  Ewald energy   TEWEN  =     41891.17177387
  -Hartree energ DENC   =    -47821.96005966
  -exchange      EXHF   =         0.00000000
  -V(xc)+E(xc)   XCENC  =      -231.67117749
  PAW double counting   =      4193.60804644    -3611.60967957
  entropy T*S    EENTRO =        -0.34118993
  eigenvalues    EBANDS =     -1449.11768281
  atomic energy  EATOM  =      6761.44252427
  Solvation  Ediel_sol  =         0.00000000
  ---------------------------------------------------
  free energy    TOTEN  =      -186.82176869 eV

  energy without entropy =     -186.48057876  energy(sigma->0) =     -186.65117373


--------------------------------------------------------------------------------------------------------




----------------------------------------- Iteration    1(  20)  ---------------------------------------


    POTLOK:  cpu time    0.0319: real time    0.0320
    SETDIJ:  cpu time    0.0025: real time    0.0025
     EDDAV:  cpu time   22.1926: real time   22.2460
       DOS:  cpu time    0.0010: real time    0.0010
    CHARGE:  cpu time    0.4959: real time    0.4971
    MIXING:  cpu time    0.0020: real time    0.0020
    --------------------------------------------
      LOOP:  cpu time   22.7269: real time   22.7895

 eigenvalue-minimisations  :  8320
 total energy-change (2. order) :-0.2977014E-03  (-0.3889063E-04)
 number of electron     159.0000089 magnetization 
 augmentation part       -4.1977755 magnetization 

 Broyden mixing:
  rms(total) = 0.55443E-02    rms(broyden)= 0.55366E-02
  rms(prec ) = 0.70068E-02
  weight for this iteration     100.00

 eigenvalues of (default mixing * dielectric matrix)
  average eigenvalue GAMMA=   0.9526
  3.2754  2.5184  1.7965  1.7386  1.0048  1.0048  0.6437  0.6437  0.3753  0.2977
  0.2203  0.1415  0.2505  0.2533  0.1243

 Free energy of the ion-electron system (eV)
  ---------------------------------------------------
  alpha Z        PSCENC =        81.65567618
  Ewald energy   TEWEN  =     41891.17177387
  -Hartree energ DENC   =    -47824.33676340
  -exchange      EXHF   =         0.00000000
  -V(xc)+E(xc)   XCENC  =      -231.65254599
  PAW double counting   =      4193.10762197    -3611.10253809
  entropy T*S    EENTRO =        -0.34106396
  eigenvalues    EBANDS =     -1446.76675124
  atomic energy  EATOM  =      6761.44252427
  Solvation  Ediel_sol  =         0.00000000
  ---------------------------------------------------
  free energy    TOTEN  =      -186.82206639 eV

  energy without entropy =     -186.48100243  energy(sigma->0) =     -186.65153441


--------------------------------------------------------------------------------------------------------




----------------------------------------- Iteration    1(  21)  ---------------------------------------


    POTLOK:  cpu time    0.0306: real time    0.0319
    SETDIJ:  cpu time    0.0023: real time    0.0023
     EDDAV:  cpu time   22.8337: real time   22.8884
       DOS:  cpu time    0.0010: real time    0.0010
    CHARGE:  cpu time    0.4971: real time    0.4983
    MIXING:  cpu time    0.0019: real time    0.0019
    --------------------------------------------
      LOOP:  cpu time   23.3688: real time   23.4329

 eigenvalue-minimisations  :  8680
 total energy-change (2. order) :-0.1210428E-02  (-0.3079289E-04)
 number of electron     159.0000089 magnetization 
 augmentation part       -4.1892139 magnetization 

 Broyden mixing:
  rms(total) = 0.25574E-02    rms(broyden)= 0.25532E-02
  rms(prec ) = 0.34139E-02
  weight for this iteration     100.00

 eigenvalues of (default mixing * dielectric matrix)
  average eigenvalue GAMMA=   0.9928
  3.7455  2.4870  2.1345  1.6728  1.0821  1.0821  0.7483  0.6351  0.6351  0.3753
  0.2977  0.2203  0.1415  0.2505  0.2527  0.1243

 Free energy of the ion-electron system (eV)
  ---------------------------------------------------
  alpha Z        PSCENC =        81.65567618
  Ewald energy   TEWEN  =     41891.17177387
  -Hartree energ DENC   =    -47828.40381223
  -exchange      EXHF   =         0.00000000
  -V(xc)+E(xc)   XCENC  =      -231.62476180
  PAW double counting   =      4192.47513930    -3610.46787055
  entropy T*S    EENTRO =        -0.34117666
  eigenvalues    EBANDS =     -1442.73076919
  atomic energy  EATOM  =      6761.44252427
  Solvation  Ediel_sol  =         0.00000000
  ---------------------------------------------------
  free energy    TOTEN  =      -186.82327682 eV

  energy without entropy =     -186.48210016  energy(sigma->0) =     -186.65268849


--------------------------------------------------------------------------------------------------------




----------------------------------------- Iteration    1(  22)  ---------------------------------------


    POTLOK:  cpu time    0.0307: real time    0.0311
    SETDIJ:  cpu time    0.0024: real time    0.0024
     EDDAV:  cpu time   18.6778: real time   18.7228
       DOS:  cpu time    0.0010: real time    0.0010
    CHARGE:  cpu time    0.4962: real time    0.4974
    MIXING:  cpu time    0.0021: real time    0.0021
    --------------------------------------------
      LOOP:  cpu time   19.2114: real time   19.2663

 eigenvalue-minimisations  :  6600
 total energy-change (2. order) :-0.7905042E-03  (-0.7759991E-05)
 number of electron     159.0000089 magnetization 
 augmentation part       -4.1897015 magnetization 

 Broyden mixing:
  rms(total) = 0.24461E-02    rms(broyden)= 0.24442E-02
  rms(prec ) = 0.30526E-02
  weight for this iteration     100.00

 eigenvalues of (default mixing * dielectric matrix)
  average eigenvalue GAMMA=   1.0670
  4.7656  2.4862  2.4862  1.6516  1.3817  1.0477  0.9889  0.6402  0.6402  0.3753
  0.3894  0.2977  0.2203  0.2505  0.2526  0.1415  0.1243

 Free energy of the ion-electron system (eV)
  ---------------------------------------------------
  alpha Z        PSCENC =        81.65567618
  Ewald energy   TEWEN  =     41891.17177387
  -Hartree energ DENC   =    -47830.20861084
[...]
    104      -0.5521      0.00000
    105      -0.4539      0.00000
    106      -0.3624      0.00000
    107      -0.2807      0.00000
    108      -0.1145      0.00000
    109       0.0379      0.00000
    110       0.1548      0.00000
    111       0.3618      0.00000
    112       0.5860      0.00000
    113       0.7506      0.00000
    114       0.9961      0.00000
    115       1.1343      0.00000
    116       1.2800      0.00000
    117       1.5051      0.00000
    118       2.1576      0.00000
    119       2.3175      0.00000
    120       2.4245      0.00000

 k-point    34 :       0.5000    0.5000    0.0000
  band No.  band energies     occupation 
      1     -17.5053      2.00000
      2     -17.3492      2.00000
      3     -16.7442      2.00000
      4     -16.7168      2.00000
      5     -16.5815      2.00000
      6     -16.5540      2.00000
      7     -16.2775      2.00000
      8     -16.1979      2.00000
      9     -16.1194      2.00000
     10     -16.0821      2.00000
     11     -15.8785      2.00000
     12     -15.8365      2.00000
     13     -15.7709      2.00000
     14     -15.6973      2.00000
     15     -15.6411      2.00000
     16     -15.4311      2.00000
     17     -15.3391      2.00000
     18     -15.2103      2.00000
     19      -9.8138      2.00000
     20      -9.3526      2.00000
     21      -9.3033      2.00000
     22      -9.0064      2.00000
     23      -8.9386      2.00000
     24      -8.8308      2.00000
     25      -8.6806      2.00000
     26      -8.6631      2.00000
     27      -8.4391      2.00000
     28      -8.2916      2.00000
     29      -8.2272      2.00000
     30      -8.1316      2.00000
     31      -8.0825      2.00000
     32      -8.0106      2.00000
     33      -7.9208      2.00000
     34      -7.8465      2.00000
     35      -7.7482      2.00000
     36      -7.6823      2.00000
     37      -7.6432      2.00000
     38      -7.6001      2.00000
     39      -7.4692      2.00000
     40      -7.3377      2.00000
     41      -7.0909      2.00000
     42      -7.0748      2.00000
     43      -7.0000      2.00000
     44      -6.8545      2.00000
     45      -6.8234      2.00000
     46      -6.7145      2.00000
     47      -6.6529      2.00000
     48      -6.5902      2.00000
     49      -6.5234      2.00000
     50      -6.4618      2.00000
     51      -6.4131      2.00000
     52      -6.3456      2.00000
     53      -6.2711      2.00000
     54      -6.1833      2.00000
     55      -6.1105      2.00000
     56      -6.0949      2.00000
     57      -6.0104      2.00000
     58      -5.8476      2.00000
     59      -5.8181      2.00000
     60      -5.7927      2.00000
     61      -5.6292      2.00000
     62      -5.5969      2.00000
     63      -5.5326      2.00000
     64      -5.4083      2.00000
     65      -5.2233      2.00000
     66      -5.0706      2.00000
     67      -4.9990      2.00000
     68      -4.9527      2.00000
     69      -4.8322      2.00000
     70      -4.6312      2.00000
     71      -4.5818      2.00000
     72      -4.4532      2.00000
     73      -4.3325      2.00000
     74      -4.1784      2.00000
     75      -4.0349      2.00000
     76      -4.0131      2.00000
     77      -3.8576      1.99998
     78      -3.6856      1.99802
     79      -3.4849      1.90594
     80      -3.3275      1.42558
     81      -2.9890      0.06693
     82      -2.9556      0.03862
     83      -2.6594      0.00003
     84      -2.6110      0.00001
     85      -2.4606      0.00000
     86      -2.3359      0.00000
     87      -2.1897      0.00000
     88      -2.1020      0.00000
     89      -1.9237      0.00000
     90      -1.8464      0.00000
     91      -1.6622      0.00000
     92      -1.5717      0.00000
     93      -1.3913      0.00000
     94      -1.3626      0.00000
     95      -1.1987      0.00000
     96      -1.0933      0.00000
     97      -1.0716      0.00000
     98      -0.9992      0.00000
     99      -0.9301      0.00000
    100      -0.8947      0.00000
    101      -0.8247      0.00000
    102      -0.7103      0.00000
    103      -0.6347      0.00000
    104      -0.6028      0.00000
    105      -0.4835      0.00000
    106      -0.4072      0.00000
    107      -0.2949      0.00000
    108      -0.1237      0.00000
    109       0.0213      0.00000
    110       0.1956      0.00000
    111       0.2739      0.00000
    112       0.5856      0.00000
    113       0.7706      0.00000
    114       1.0417      0.00000
    115       1.1396      0.00000
    116       1.3264      0.00000
    117       1.5674      0.00000
    118       2.2519      0.00000
    119       2.2661      0.00000
    120       2.4056      0.00000


--------------------------------------------------------------------------------------------------------


 soft charge-density along one line, spin component           1
         0         1         2         3         4         5         6         7         8         9
 total charge-density along one line
 
 pseudopotential strength for first ion, spin component:           1
 -7.220  -0.012   0.024  -0.010  -0.001   0.674   0.003  -0.007
 -0.012  -7.129  -0.004  -0.018   0.011   0.003   0.646   0.001
  0.024  -0.004  -7.079  -0.005  -0.006  -0.007   0.001   0.633
 -0.010  -0.018  -0.005  -7.120   0.003   0.003   0.005   0.001
 -0.001   0.011  -0.006   0.003  -7.219   0.000  -0.003   0.002
  0.674   0.003  -0.007   0.003   0.000   0.333  -0.000   0.002
  0.003   0.646   0.001   0.005  -0.003  -0.000   0.341  -0.001
 -0.007   0.001   0.633   0.001   0.002   0.002  -0.001   0.344
  0.003   0.005   0.001   0.644  -0.000  -0.001  -0.001  -0.000
  0.000  -0.003   0.002  -0.000   0.674  -0.000   0.001  -0.001
  0.007   0.003  -0.021   0.002  -0.002  -0.002  -0.001   0.005
  0.002   0.001  -0.007   0.001  -0.000  -0.001  -0.000   0.002
  0.004   0.004   0.001  -0.003   0.005   0.000  -0.001   0.001
 -0.003  -0.009   0.002   0.006  -0.001   0.000   0.000  -0.001
 -0.006  -0.003  -0.001   0.001   0.004  -0.000   0.000  -0.000
  0.003   0.002  -0.000  -0.003   0.003  -0.001  -0.000   0.000
 -0.003  -0.007   0.000   0.005  -0.001   0.000   0.001  -0.000
 -0.003  -0.003  -0.001  -0.000   0.003   0.000   0.000   0.000
 total augmentation occupancy for first ion, spin component:           1
  0.806   0.156   0.050   0.002  -0.034   0.436   0.225   0.004   0.001  -0.008  -0.032   0.001  -0.012  -0.063  -0.003  -0.002
  0.156   1.070  -0.036   0.013   0.021   0.222   0.637  -0.036   0.007   0.005  -0.008  -0.004   0.046  -0.079  -0.060   0.002
  0.050  -0.036   0.855  -0.001  -0.013   0.002  -0.036   0.344   0.021  -0.001   0.149   0.005  -0.073   0.001   0.037  -0.003
  0.002   0.013  -0.001   1.074  -0.149   0.001   0.007   0.021   0.653  -0.202   0.016   0.002  -0.071   0.030  -0.009  -0.002
 -0.034   0.021  -0.013  -0.149   0.829  -0.008   0.006  -0.002  -0.205   0.442  -0.015   0.002  -0.020  -0.025  -0.008  -0.002
  0.436   0.222   0.002   0.001  -0.008   0.375   0.225  -0.004  -0.001   0.005   0.011   0.001   0.014  -0.066  -0.026  -0.001
  0.225   0.637  -0.036   0.007   0.006   0.225   0.574  -0.024   0.000   0.008  -0.026  -0.004   0.047  -0.090  -0.065   0.004
  0.004  -0.036   0.344   0.021  -0.002  -0.004  -0.024   0.275   0.014  -0.005   0.041   0.009  -0.020   0.005   0.012  -0.004
  0.001   0.007   0.021   0.653  -0.205  -0.001   0.000   0.014   0.579  -0.209   0.033   0.004  -0.062   0.048  -0.023  -0.005
 -0.008   0.005  -0.001  -0.202   0.442   0.005   0.008  -0.005  -0.209   0.364   0.009   0.001   0.027  -0.038   0.010  -0.000
 -0.032  -0.008   0.149   0.016  -0.015   0.011  -0.026   0.041   0.033   0.009   1.390   0.138  -0.045   0.022   0.007  -0.002
  0.001  -0.004   0.005   0.002   0.002   0.001  -0.004   0.009   0.004   0.001   0.138   0.026  -0.009   0.001   0.005  -0.001
 -0.012   0.046  -0.073  -0.071  -0.020   0.014   0.047  -0.020  -0.062   0.027  -0.045  -0.009   0.356  -0.006  -0.007   0.026
 -0.063  -0.079   0.001   0.030  -0.025  -0.066  -0.090   0.005   0.048  -0.038   0.022   0.001  -0.006   0.421   0.009   0.000
 -0.003  -0.060   0.037  -0.009  -0.008  -0.026  -0.065   0.012  -0.023   0.010   0.007   0.005  -0.007   0.009   0.352   0.000
 -0.002   0.002  -0.003  -0.002  -0.002  -0.001   0.004  -0.004  -0.005  -0.000  -0.002  -0.001   0.026   0.000   0.000   0.003
 -0.003   0.001   0.000  -0.001  -0.001  -0.005  -0.005   0.000   0.002  -0.003   0.001   0.000   0.000   0.029   0.000  -0.000
  0.003  -0.002   0.002  -0.000  -0.002   0.001  -0.005   0.003  -0.002  -0.001   0.001   0.000   0.000   0.000   0.027   0.000


------------------------ aborting loop because EDIFF is reached ----------------------------------------


    CHARGE:  cpu time    0.4536: real time    0.4546
    FORLOC:  cpu time    0.0064: real time    0.0064
    FORNL :  cpu time    5.3995: real time    5.4124
    STRESS:  cpu time   32.3555: real time   32.4329
    FORCOR:  cpu time    0.0334: real time    0.0337
    FORHAR:  cpu time    0.0123: real time    0.0124
    MIXING:  cpu time    0.0010: real time    0.0010
    OFIELD:  cpu time    0.0000: real time    0.0000

  FORCE on cell =-STRESS in cart. coord.  units (eV):
  Direction    XX          YY          ZZ          XY          YZ          ZX
  --------------------------------------------------------------------------------------
  Alpha Z    89.47760    89.47760    89.47760
  Ewald   49339.92972 49293.32012-54255.76157    39.46646   -21.72493    12.14295
  Hartree 50045.52672 50015.88450-49676.50311    25.27301   -12.14388     6.93283
  E(xc)    -609.57246  -610.63469  -617.85694     0.92245     0.95714    -0.54129
  Local  ************************101369.74588   -57.87494    42.03261   -23.73454
  n-local  1213.53037  1215.42852  1248.73829    -1.65214     2.30445    -1.42834
  augment  -213.33821  -212.84599  -214.64975    -0.46816    -1.00138     0.57169
  Kinetic  2008.23296  2014.84810  2054.79839    -5.65792   -10.23491     5.94701
  Fock        0.00000     0.00000     0.00000     0.00000     0.00000     0.00000
  -------------------------------------------------------------------------------------
  Total      -0.21414    -0.19668    -2.01121     0.00877     0.18909    -0.10969
  in kB      -0.14340    -0.13171    -1.34678     0.00587     0.12662    -0.07345
  external pressure =       -0.54 kB  Pullay stress =        0.00 kB


 VOLUME and BASIS-vectors are now :
 -----------------------------------------------------------------------------
  energy-cutoff  :      280.00
  volume of cell :     2392.62
      direct lattice vectors                 reciprocal lattice vectors
     8.288768801  4.787777892  0.000000000     0.060467828  0.104181139  0.000000000
    -8.308847189  4.822542208  0.000000000    -0.060031933  0.103929385  0.000000000
     0.000000000  0.000000000 30.000000000     0.000000000  0.000000000  0.033333333

  length of vectors
     9.572173493  9.606969083 30.000000000     0.120457744  0.120021456  0.033333333


 FORCES acting on ions
    electron-ion (+dipol)            ewald-force                    non-local-force                 convergence-correction
 -----------------------------------------------------------------------------------------------
   0.128E+02 -.204E+02 0.161E+02   -.139E+02 0.216E+02 -.159E+02   0.104E+01 -.118E+01 -.232E+00   -.326E-01 -.113E-02 -.266E-01
   0.113E+02 -.220E+02 0.164E+02   -.118E+02 0.234E+02 -.161E+02   0.498E+00 -.147E+01 -.222E+00   -.851E-02 0.267E-01 -.291E-01
   -.131E+02 0.230E+02 -.141E+02   0.139E+02 -.243E+02 0.138E+02   -.759E+00 0.133E+01 0.273E+00   -.131E-02 -.244E-01 0.274E-01
   0.498E+01 -.122E+02 0.327E+01   -.489E+01 0.120E+02 -.325E+01   -.101E+00 0.179E+00 -.133E-01   -.237E-01 0.850E-02 -.512E-02
   -.554E+01 -.233E+01 0.198E+01   0.533E+01 0.224E+01 -.200E+01   0.245E+00 0.934E-01 0.257E-01   0.140E-02 0.994E-02 -.488E-04
   0.636E+01 0.449E+01 0.212E+01   -.616E+01 -.431E+01 -.214E+01   -.215E+00 -.156E+00 0.293E-01   0.237E-01 -.178E-01 0.464E-02
   0.175E+02 -.298E+02 0.197E+02   -.179E+02 0.305E+02 -.196E+02   0.384E+00 -.657E+00 -.167E+00   0.174E-01 0.282E-01 -.779E-02
   -.145E+02 0.300E+02 -.236E+02   0.149E+02 -.309E+02 0.234E+02   -.317E+00 0.835E+00 0.213E+00   -.928E-02 -.222E-01 0.620E-02
   -.185E+02 0.268E+02 -.240E+02   0.190E+02 -.275E+02 0.238E+02   -.591E+00 0.715E+00 0.225E+00   0.427E-01 -.474E-02 0.995E-02
   -.570E+01 0.130E+02 0.488E+03   0.550E+01 -.133E+02 -.493E+03   0.241E+00 0.256E+00 0.487E+01   -.497E-01 -.130E-01 0.909E-02
   0.750E+01 -.555E+01 -.496E+03   -.737E+01 0.493E+01 0.501E+03   -.123E+00 0.597E+00 -.505E+01   -.228E-02 0.105E-01 0.154E-01
   -.855E+01 0.151E+02 0.606E+03   0.919E+01 -.163E+02 -.609E+03   -.658E+00 0.124E+01 0.318E+01   0.192E-01 -.469E-01 0.372E-02
   -.106E+02 0.216E+02 -.606E+03   0.109E+02 -.224E+02 0.610E+03   -.278E+00 0.823E+00 -.366E+01   -.275E-01 -.613E-01 -.195E-01
   0.176E+02 -.178E+02 0.610E+03   -.180E+02 0.185E+02 -.614E+03   0.493E+00 -.656E+00 0.366E+01   -.283E-02 0.137E-01 -.890E-02
   0.758E+01 -.128E+02 -.620E+03   -.830E+01 0.139E+02 0.624E+03   0.715E+00 -.113E+01 -.347E+01   0.172E-02 0.174E-02 0.177E-01
   -.639E+01 0.107E+02 0.505E+03   0.619E+01 -.104E+02 -.510E+03   0.186E+00 -.297E+00 0.524E+01   0.231E-01 -.368E-02 -.110E-01
   0.151E+01 -.963E+01 -.496E+03   -.107E+01 0.921E+01 0.501E+03   -.469E+00 0.398E+00 -.505E+01   0.374E-01 0.131E-01 -.218E-01
   -.313E+01 0.988E+01 0.614E+03   0.405E+01 -.109E+02 -.617E+03   -.916E+00 0.101E+01 0.349E+01   -.461E-02 0.156E-01 -.219E-01
   -.113E+02 0.185E+02 -.633E+03   0.115E+02 -.189E+02 0.637E+03   -.206E+00 0.356E+00 -.404E+01   0.149E-01 0.252E-02 0.641E-02
   0.736E+01 -.239E+02 0.611E+03   -.769E+01 0.247E+02 -.614E+03   0.322E+00 -.766E+00 0.364E+01   0.145E-01 0.517E-01 0.286E-01
   0.542E+01 -.152E+02 -.591E+03   -.622E+01 0.169E+02 0.594E+03   0.823E+00 -.168E+01 -.310E+01   -.195E-01 0.405E-01 -.220E-01
   -.803E+01 0.110E+02 0.487E+03   0.835E+01 -.109E+02 -.492E+03   -.355E+00 -.941E-01 0.486E+01   0.400E-01 -.594E-02 0.379E-01
   0.367E+01 -.656E+01 -.479E+03   -.349E+01 0.633E+01 0.484E+03   -.112E+00 0.214E+00 -.457E+01   -.584E-01 0.107E-01 -.309E-01
   -.673E+01 0.678E+01 0.611E+03   0.721E+01 -.810E+01 -.614E+03   -.491E+00 0.132E+01 0.350E+01   0.676E-02 -.541E-02 -.175E-01
   -.128E+02 0.201E+02 -.606E+03   0.133E+02 -.207E+02 0.610E+03   -.570E+00 0.640E+00 -.367E+01   0.586E-01 -.203E-01 -.325E-01
   0.111E+02 -.206E+02 0.587E+03   -.116E+02 0.216E+02 -.590E+03   0.591E+00 -.101E+01 0.323E+01   -.579E-01 0.708E-02 0.305E-01
   0.981E+01 -.114E+02 -.588E+03   -.109E+02 0.131E+02 0.591E+03   0.104E+01 -.163E+01 -.309E+01   -.320E-02 -.102E-01 0.243E-01
 -----------------------------------------------------------------------------------------------
   -.410E+00 0.728E+00 -.732E-01   -.426E-13 0.338E-13 0.000E+00   0.413E+00 -.736E+00 0.109E+00   0.486E-04 0.342E-02 -.325E-01
 
 
 POSITION                                       TOTAL-FORCE (eV/Angst)
 -----------------------------------------------------------------------------------
      0.14964     -0.24848     -0.05785        -0.003060     -0.001669     -0.029058
      5.66337      2.93661     -0.05951        -0.001080      0.017151     -0.027244
      5.38449      6.62906      0.05367        -0.000396      0.006885      0.027459
      0.01121      6.33457     -0.00962        -0.027436     -0.035660      0.002329
     -2.81880      4.78851     -0.00598         0.033435      0.011378      0.007233
     -5.48590      3.24701     -0.00626         0.003773      0.007011      0.006504
      2.93070      1.30771     -0.06341        -0.003283      0.001657     -0.016119
     -0.15315      3.49396      0.07237         0.000438     -0.006278      0.013977
      2.57559      5.07289      0.07330        -0.002602     -0.000520      0.017987
     -0.93498      1.59857     28.71914        -0.009251     -0.000896      0.007909
      0.91162      1.58753      1.30748         0.000589     -0.014173     -0.009865
     -3.67440      3.17750     28.37642         0.009118     -0.007680      0.027585
     -1.88882      3.19420      1.65807        -0.006246      0.017797      0.015715
     -6.47632      4.78192     28.33131         0.006838     -0.004645     -0.018342
     -4.59845      4.77864      1.66465        -0.001083      0.012219     -0.003433
      1.84140      3.19344     28.67134         0.002160      0.000402      0.007241
      3.69576      3.19641      1.30855         0.007778     -0.004641     -0.005482
     -0.96214      4.83648     28.35004         0.007613     -0.021427     -0.006949
      0.87725      4.86006      1.74397        -0.006296     -0.000701      0.013248
     -3.66353      6.40743     28.32954         0.001233     -0.005940     -0.020701
     -1.87076      6.42622      1.57783        -0.001130      0.021557      0.006885
      4.60860      4.80103     28.72115        -0.002191      0.014910      0.009984
      6.45057      4.77922      1.25506         0.006880     -0.003276     -0.011658
      1.81607      6.44661     28.35800         0.001904     -0.008942      0.016766
      3.70457      6.42685      1.65793        -0.013572      0.017676      0.013430
     -0.94495      8.01780     28.40209         0.013267     -0.019150     -0.027255
      0.89922      8.02273      1.57070        -0.017401      0.006955     -0.018146
 -----------------------------------------------------------------------------------
    total drift:                                0.003063     -0.004264      0.003172


--------------------------------------------------------------------------------------------------------



  FREE ENERGIE OF THE ION-ELECTRON SYSTEM (eV)
  ---------------------------------------------------
  free  energy   TOTEN  =      -192.33817335 eV

  energy  without entropy=     -192.20523413  energy(sigma->0) =     -192.27170374
 
 d Force = 0.8933298E-03[ 0.817E-03, 0.970E-03]  d Energy = 0.8259957E-03 0.673E-04
 d Force =-0.2786585E+01[-0.278E+01,-0.279E+01]  d Ewald  =-0.5768319E+01 0.298E+01


--------------------------------------------------------------------------------------------------------


    POTLOK:  cpu time    0.0341: real time    0.0342


--------------------------------------------------------------------------------------------------------


 Quasi-Newton relaxation of ions (Broydens 2nd method)
  g(Force)  = 0.721E-03   g(Stress)= 0.151E-03

 retain information from N=  1 steps
 eigenvalues of (default step * inverse Hessian matrix)
  average eigenvalue of G=   0.1160
 eigenvalue spectrum of G is  0.1160


--------------------------------------------------------------------------------------------------------


  
 reached required accuracy - stopping structural energy minimisation
     LOOP+:  cpu time  134.7798: real time  135.1172
    4ORBIT:  cpu time    0.0000: real time    0.0000

 total amount of memory used by VASP on root node   650782. kBytes
========================================================================

   base      :      30000. kBytes
   nonl-proj :     559647. kBytes
   fftplans  :       2414. kBytes
   grid      :      12150. kBytes
   one-center:        419. kBytes
   wavefun   :      46152. kBytes
 
  
  
 General timing and accounting informations for this job:
 ========================================================
  
                  Total CPU time used (sec):     6095.612
                            User time (sec):     6070.066
                          System time (sec):       25.546
                         Elapsed time (sec):     6111.959
  
                   Maximum memory used (kb):      734284.
                   Average memory used (kb):           0.
  
                          Minor page faults:      1007408
                          Major page faults:            5
                 Voluntary context switches:         5107
