unknown system                          
           1
     8.852021    5.102903    0.000000
    -8.855834    5.109462    0.000000
     0.000000    0.000000   30.000000
   V    Mo   W    S 
   3   3   3  18
Direct configuration=     1
   0.00000000  0.00000000  0.00000000
   0.66666669  0.00000000  0.00000000
   1.00000000  0.33333334  0.00000000
   0.66666669  0.66666669  0.00000000
   0.33333334  0.66666669  0.00000000
   0.00000000  0.66666669  0.00000000
   0.33333334  0.00000000  0.00000000
   0.33333334  0.33333334  0.00000000
   0.66666669  0.33333334  0.00000000
   0.11068511  0.22244981  0.95539999
   0.22244981  0.11068511  0.04460000
   0.11068511  0.55578315  0.95539999
   0.22244981  0.44401845  0.04460000
   0.11068511  0.88911647  0.95539999
   0.22244981  0.77735180  0.04460000
   0.44401845  0.22244981  0.95539999
   0.55578315  0.11068511  0.04460000
   0.44401845  0.55578315  0.95539999
   0.55578315  0.44401845  0.04460000
   0.44401845  0.88911647  0.95539999
   0.55578315  0.77735180  0.04460000
   0.77735180  0.22244981  0.95539999
   0.88911647  0.11068511  0.04460000
   0.77735180  0.55578315  0.95539999
   0.88911647  0.44401845  0.04460000
   0.77735180  0.88911647  0.95539999
   0.88911647  0.77735180  0.04460000
unknown system                          
           1
     8.664296    4.997003    0.000000
    -8.667768    5.002975    0.000000
     0.000000    0.000000   30.000000
   V    Mo   W    S 
   3   3   3  18
Direct configuration=     2
  -0.00161687 -0.00173152  0.00006994
   0.66657249 -0.00180252  0.00005502
   1.00065307  0.33464643  0.00001061
   0.66664887  0.66674646  0.00021136
   0.33332614  0.66669462 -0.00018639
   0.00005062  0.66670092 -0.00019001
   0.33181000 -0.00316223 -0.00020789
   0.33414401  0.33614435  0.00013398
   0.66851090  0.33603510  0.00010970
   0.10751140  0.22057906  0.95315236
   0.21851022  0.10938794  0.04801688
   0.10886109  0.55108710  0.95194679
   0.21809244  0.44157453  0.04808022
   0.10963516  0.89166370  0.95195176
   0.22257210  0.77860912  0.04924671
   0.44429006  0.22184848  0.95079592
   0.55749032  0.10915466  0.04795234
   0.44381039  0.55459975  0.95074042
   0.55498268  0.44346771  0.04938974
   0.44826619  0.89142112  0.95187552
   0.55774801  0.78209426  0.04804202
   0.77940604  0.22034589  0.95307780
   0.88889098  0.11079035  0.04582919
   0.77739430  0.55459657  0.95074890
   0.89012389  0.44134219  0.04800955
   0.77967660  0.89327940  0.95310157
   0.89085334  0.78210103  0.04803588
unknown system                          
           1
     8.483299    4.897697    0.000000
    -8.485409    4.901316    0.000000
     0.000000    0.000000   30.000000
   V    Mo   W    S 
   3   3   3  18
Direct configuration=     3
  -0.00198679 -0.00229509  0.00012293
   0.66637078 -0.00236863  0.00010323
   1.00088053  0.33508750 -0.00004439
   0.66627472  0.66601035  0.00024463
   0.33330603  0.66679858 -0.00020446
   0.00017747  0.66680896 -0.00020737
   0.33119182 -0.00439618 -0.00017780
   0.33495834  0.33730053  0.00010257
   0.66885489  0.33718140  0.00007651
   0.10765956  0.22064029  0.95328423
   0.21869209  0.10946117  0.04786754
   0.10876439  0.55092509  0.95189320
   0.21810260  0.44139041  0.04810904
   0.10980452  0.89180620  0.95188570
   0.22269529  0.77883608  0.04930131
   0.44426809  0.22185500  0.95094642
   0.55740305  0.10926604  0.04781570
   0.44368968  0.55437659  0.95066264
   0.55489848  0.44325484  0.04949489
   0.44825561  0.89159417  0.95182018
   0.55784478  0.78224666  0.04807430
   0.77933463  0.22044464  0.95322238
   0.88887095  0.11079294  0.04571306
   0.77727406  0.55437675  0.95067266
   0.88993264  0.44118823  0.04804725
   0.77975665  0.89338059  0.95310751
   0.89093958  0.78225134  0.04806607
unknown system                          
           1
     8.270948    4.775055    0.000000
    -8.281668    4.793587    0.000000
     0.000000    0.000000   30.000000
   V    Mo   W    S 
   3   3   3  18
Direct configuration=     4
  -0.00285802 -0.00452996  0.00027868
   0.66496213 -0.00459822  0.00025332
   1.00187999  0.33705513 -0.00025321
   0.66417933  0.66185543  0.00027596
   0.33318692  0.66740383 -0.00019072
   0.00089437  0.66742366 -0.00019209
   0.32874085 -0.00926095  0.00001641
   0.33899558  0.34199362 -0.00004961
   0.66953263  0.34185134 -0.00007090
   0.10671598  0.22005582  0.95249403
   0.21803725  0.10916918  0.04869101
   0.10804820  0.54957855  0.95025800
   0.21699612  0.44087861  0.04969820
   0.10912586  0.89228290  0.95012251
   0.22263906  0.77866085  0.05114179
   0.44412160  0.22174154  0.94997947
   0.55783335  0.10908475  0.04867684
   0.44378638  0.55457488  0.94873369
   0.55497026  0.44326339  0.05164978
   0.44950516  0.89217334  0.95008872
   0.55852161  0.78349251  0.04960070
   0.77977107  0.21996543  0.95247319
   0.88883756  0.11091701  0.04647482
   0.77733428  0.55459496  0.94874873
   0.89052822  0.44078022  0.04966459
   0.78033848  0.89433413  0.95184800
   0.89159026  0.78347252  0.04958798
unknown system                          
           1
     8.265862    4.772520    0.000000
    -8.286088    4.807519    0.000000
     0.000000    0.000000   30.000000
   V    Mo   W    S 
   3   3   3  18
Direct configuration=     5
  -0.00453772 -0.00887929  0.00039390
   0.66223499 -0.00895554  0.00037180
   1.00353226  0.34033187 -0.00054632
   0.65954357  0.65266088  0.00014130
   0.33273003  0.66896080 -0.00007762
   0.00292814  0.66900728 -0.00008005
   0.32313504 -0.02041730  0.00020927
   0.34767657  0.35213123 -0.00018682
   0.67097407  0.35197121 -0.00020510
   0.10644903  0.21982731  0.95169879
   0.21783640  0.10948394  0.04933430
   0.10762657  0.54870542  0.94794351
   0.21627284  0.44090478  0.05172193
   0.10811663  0.89224960  0.94764492
   0.22190787  0.77717983  0.05386633
   0.44380101  0.22116218  0.94920450
   0.55830208  0.10947174  0.04934926
   0.44434108  0.55606761  0.94596370
   0.55525853  0.44382526  0.05508851
   0.45066407  0.89221956  0.94763235
   0.55910564  0.78404497  0.05164228
   0.77997751  0.21982123  0.95170545
   0.88882388  0.11112721  0.04765402
   0.77828557  0.55608769  0.94598711
   0.89120408  0.44089329  0.05170766
   0.78047495  0.89431822  0.95020638
   0.89154974  0.78401345  0.05162853
unknown system                          
           1
     8.262922    4.770884    0.000000
    -8.284299    4.807876    0.000000
     0.000000    0.000000   30.000000
   V    Mo   W    S 
   3   3   3  18
Direct configuration=     6
  -0.00591782 -0.01090223  0.00042385
   0.66158961 -0.01096907  0.00040289
   1.00402048  0.34132070 -0.00057453
   0.65910113  0.65175249 -0.00006739
   0.33213918  0.66928798 -0.00006284
   0.00384615  0.66932831 -0.00006145
   0.32139360 -0.02389335  0.00003368
   0.34978170  0.35502153  0.00000182
   0.67175508  0.35490911 -0.00001542
   0.10785867  0.22057006  0.95198473
   0.21897848  0.11024653  0.04878644
   0.10790560  0.54924409  0.94775530
   0.21683761  0.44129705  0.05179609
   0.10809452  0.89175213  0.94741789
   0.22121775  0.77579766  0.05442513
   0.44348106  0.22049165  0.94975004
   0.55790204  0.11020790  0.04879484
   0.44464878  0.55727929  0.94557952
   0.55535883  0.44405070  0.05571093
   0.45021048  0.89172475  0.94740455
   0.55905054  0.78316170  0.05170975
   0.77930783  0.22055044  0.95198876
   0.88875385  0.11097096  0.04760133
   0.77918916  0.55728931  0.94560341
   0.89104301  0.44128512  0.05177523
   0.77995810  0.89330562  0.95014008
   0.89070903  0.78313400  0.05169527
unknown system                          
           1
     8.267959    4.773877    0.000000
    -8.298311    4.826414    0.000000
     0.000000    0.000000   30.000000
   V    Mo   W    S 
   3   3   3  18
Direct configuration=     7
  -0.00819704 -0.01394144  0.00051719
   0.66068147 -0.01412527  0.00049745
   1.00472801  0.34276599 -0.00073338
   0.65847966  0.65056959 -0.00020718
   0.33112485  0.66961791 -0.00003577
   0.00517990  0.66952841 -0.00003443
   0.31894785 -0.02891267  0.00002391
   0.35270535  0.35944463  0.00005744
   0.67326360  0.35937163  0.00004270
   0.10934303  0.22130218  0.95250144
   0.22027125  0.11106685  0.04796926
   0.10811719  0.54965500  0.94753344
   0.21727723  0.44174768  0.05197935
   0.10782570  0.89105784  0.94708889
   0.22063162  0.77463170  0.05496604
   0.44310971  0.21971997  0.95058524
   0.55743897  0.11100212  0.04796614
   0.44480541  0.55827914  0.94523416
   0.55581928  0.44499302  0.05637622
   0.44984890  0.89105340  0.94708101
   0.55895095  0.78244229  0.05176851
   0.77853656  0.22123765  0.95251749
   0.88861742  0.11075176  0.04739235
   0.78005160  0.55828844  0.94525666
   0.89105249  0.44173882  0.05195847
   0.77955516  0.89257323  0.94993006
   0.89004833  0.78235459  0.05176723
unknown system                          
           1
     8.266994    4.773341    0.000000
    -8.303647    4.836792    0.000000
     0.000000    0.000000   30.000000
   V    Mo   W    S 
   3   3   3  18
Direct configuration=     8
  -0.01120557 -0.01800923  0.00056943
   0.65957468 -0.01821603  0.00054101
   1.00574558  0.34479529 -0.00087094
   0.65840337  0.65041577 -0.00043145
   0.32954693  0.66956935 -0.00001027
   0.00669757  0.66946282 -0.00001343
   0.31645932 -0.03385914 -0.00021476
   0.35555470  0.36414968  0.00031116
   0.67513454  0.36412228  0.00029465
   0.11100437  0.22206946  0.95320719
   0.22170734  0.11199973  0.04689208
   0.10836707  0.55011940  0.94722959
   0.21764060  0.44213445  0.05218723
   0.10749486  0.89026690  0.94678124
   0.21979749  0.77296118  0.05567952
   0.44263069  0.21872478  0.95166696
   0.55693887  0.11194726  0.04689298
   0.44512597  0.55971458  0.94480403
   0.55644506  0.44628044  0.05703421
   0.44942821  0.89026576  0.94675412
   0.55865595  0.78154719  0.05190188
   0.77763856  0.22199605  0.95322763
   0.88843801  0.11040041  0.04705381
   0.78117891  0.55973728  0.94482785
   0.89107400  0.44211532  0.05217097
   0.77927954  0.89202255  0.94962872
   0.88945782  0.78148092  0.05188449
unknown system                          
           1
     8.279415    4.780592    0.000000
    -8.316714    4.845162    0.000000
     0.000000    0.000000   30.000000
   V    Mo   W    S 
   3   3   3  18
Direct configuration=     9
  -0.01375090 -0.02170642  0.00054088
   0.65821369 -0.02208427  0.00050502
   1.00695097  0.34719153 -0.00093400
   0.65909033  0.65187691 -0.00065084
   0.32785914  0.66897936  0.00000691
   0.00779978  0.66874660  0.00000736
   0.31523694 -0.03644179 -0.00052166
   0.35681424  0.36711338  0.00058630
   0.67686672  0.36711386  0.00058241
   0.11212839  0.22252424  0.95400184
   0.22270853  0.11273275  0.04579408
   0.10856121  0.55049525  0.94691447
   0.21762568  0.44231812  0.05240070
   0.10697914  0.88941961  0.94659308
   0.21918006  0.77173807  0.05609736
   0.44227496  0.21798819  0.95280923
   0.55670591  0.11268724  0.04578875
   0.44547413  0.56089260  0.94461540
   0.55736427  0.44811658  0.05736657
   0.44913343  0.88943042  0.94656331
   0.55807684  0.78082114  0.05204527
   0.77694163  0.22241172  0.95403842
   0.88816349  0.10992816  0.04654329
   0.78202971  0.56093828  0.94463612
   0.89126879  0.44230946  0.05238629
   0.77922727  0.89196806  0.94925637
   0.88929008  0.78070542  0.05202697
unknown system                          
           1
     8.277676    4.779741    0.000000
    -8.315558    4.845323    0.000000
     0.000000    0.000000   30.000000
   V    Mo   W    S 
   3   3   3  18
Direct configuration=    10
  -0.01581580 -0.02525587  0.00044158
   0.65682804 -0.02544149  0.00038593
   1.00838657  0.35001467 -0.00086208
   0.65987516  0.65341071 -0.00074169
   0.32630545  0.66811323  0.00001265
   0.00852191  0.66805227 -0.00000156
   0.31396249 -0.03878479 -0.00076352
   0.35785118  0.36983927  0.00084179
   0.67857216  0.36985643  0.00082853
   0.11275068  0.22260665  0.95472504
   0.22327255  0.11331187  0.04486700
   0.10876663  0.55085420  0.94651984
   0.21736865  0.44243922  0.05270679
   0.10635363  0.88853503  0.94638041
   0.21887561  0.77111729  0.05632776
   0.44206441  0.21752827  0.95378880
   0.55671790  0.11330733  0.04488253
   0.44567577  0.56172205  0.94454063
   0.55838364  0.45020168  0.05756699
   0.44885906  0.88852529  0.94631140
   0.55728592  0.77999478  0.05224444
   0.77642592  0.22253184  0.95475978
   0.88793932  0.10943380  0.04597716
   0.78266243  0.56179906  0.94457183
   0.89165930  0.44241860  0.05270211
   0.77933459  0.89206767  0.94880689
   0.88933130  0.78001538  0.05217887
unknown system                          
           1
     8.282479    4.782555    0.000000
    -8.319159    4.846056    0.000000
     0.000000    0.000000   30.000000
   V    Mo   W    S 
   3   3   3  18
Direct configuration=    11
  -0.01667721 -0.02734652  0.00025513
   0.65563887 -0.02746169  0.00021115
   1.00963570  0.35246599 -0.00070016
   0.66052279  0.65474718 -0.00076802
   0.32545944  0.66745101 -0.00001303
   0.00875085  0.66746201 -0.00002156
   0.31354048 -0.03959057 -0.00100912
   0.35803796  0.37106239  0.00105162
   0.67960134  0.37107489  0.00105454
   0.11277988  0.22247280  0.95523208
   0.22331444  0.11345818  0.04433831
   0.10888334  0.55107759  0.94623798
   0.21707192  0.44244761  0.05295428
   0.10597448  0.88789792  0.94624765
   0.21876914  0.77091484  0.05634816
   0.44211081  0.21760579  0.95439166
   0.55680148  0.11346943  0.04435779
   0.44585240  0.56217781  0.94460222
   0.55913401  0.45170111  0.05759363
   0.44853183  0.88786196  0.94618395
   0.55657934  0.77938841  0.05236066
   0.77629030  0.22243768  0.95526021
   0.88778316  0.10906544  0.04546445
   0.78295812  0.56228442  0.94462633
   0.89196896  0.44243758  0.05294325
   0.77945621  0.89221369  0.94850078
   0.88944445  0.77943750  0.05229599
unknown system                          
           1
     8.282454    4.782560    0.000000
    -8.317635    4.843467    0.000000
     0.000000    0.000000   30.000000
   V    Mo   W    S 
   3   3   3  18
Direct configuration=    12
  -0.01644867 -0.02751421  0.00014924
   0.65526054 -0.02763437  0.00011456
   1.01004650  0.35327872 -0.00057204
   0.66073462  0.65519616 -0.00072797
   0.32560420  0.66734657 -0.00002601
   0.00851405  0.66734893 -0.00003172
   0.31372242 -0.03924326 -0.00104540
   0.35763310  0.37082159  0.00110589
   0.67977141  0.37085188  0.00110518
   0.11244525  0.22227780  0.95529898
   0.22304659  0.11326434  0.04437356
   0.10885584  0.55103975  0.94616102
   0.21693604  0.44241147  0.05306490
   0.10594239  0.88778794  0.94616910
   0.21886544  0.77110758  0.05626225
   0.44226820  0.21791972  0.95437859
   0.55686318  0.11326589  0.04439000
   0.44588617  0.56213151  0.94465514
   0.55923289  0.45190257  0.05758123
   0.44843673  0.88774856  0.94612404
   0.55641086  0.77934001  0.05236853
   0.77643937  0.22225455  0.95532613
   0.88777700  0.10903716  0.04528746
   0.78287518  0.56222526  0.94468311
   0.89207695  0.44241220  0.05304950
   0.77948103  0.89228344  0.94843338
   0.88953716  0.77935271  0.05232124
unknown system                          
           1
     8.282521    4.782561    0.000000
    -8.315980    4.840484    0.000000
     0.000000    0.000000   30.000000
   V    Mo   W    S 
   3   3   3  18
Direct configuration=    13
  -0.01648392 -0.02823519  0.00001383
   0.65458831 -0.02835609 -0.00001866
   1.01074006  0.35465698 -0.00042065
   0.66094497  0.65565482 -0.00069347
   0.32553332  0.66712669 -0.00004574
   0.00838344  0.66712372 -0.00005046
   0.31365940 -0.03936588 -0.00112682
   0.35745568  0.37110781  0.00119808
   0.68024014  0.37114670  0.00119549
   0.11220695  0.22215049  0.95548464
   0.22288343  0.11311587  0.04428242
   0.10886072  0.55105914  0.94606282
   0.21682754  0.44243929  0.05321593
   0.10591032  0.88755091  0.94606424
   0.21893710  0.77124734  0.05618353
   0.44242196  0.21822348  0.95451277
   0.55687251  0.11311408  0.04429713
   0.44594593  0.56214190  0.94472285
   0.55943439  0.45231332  0.05757570
   0.44823098  0.88751025  0.94602812
   0.55614736  0.77918699  0.05239254
   0.77655703  0.22213219  0.95551332
   0.88775253  0.10898559  0.04500438
   0.78282730  0.56223394  0.94475543
   0.89222282  0.44245048  0.05319809
   0.77948536  0.89232433  0.94830249
   0.88962880  0.77917533  0.05235192
unknown system                          
           1
     8.283791    4.783475    0.000000
    -8.313597    4.835074    0.000000
     0.000000    0.000000   30.000000
   V    Mo   W    S 
   3   3   3  18
Direct configuration=    14
  -0.01672173 -0.03036376 -0.00037972
   0.65263570 -0.03057318 -0.00041556
   1.01252742  0.35822566  0.00003922
   0.66153989  0.65703269 -0.00059924
   0.32591891  0.66683512 -0.00010437
   0.00777023  0.66673836 -0.00010522
   0.31370310 -0.03935677 -0.00139551
   0.35681378  0.37161307  0.00148858
   0.68140242  0.37165892  0.00149252
   0.11153933  0.22184444  0.95598384
   0.22239920  0.11261574  0.04408177
   0.10886796  0.55109168  0.94576681
   0.21667621  0.44259243  0.05370081
   0.10594712  0.88701770  0.94571112
   0.21909100  0.77154600  0.05603688
   0.44286370  0.21910192  0.95483669
   0.55686822  0.11259238  0.04408340
   0.44613661  0.56214816  0.94483389
   0.55981614  0.45307762  0.05761863
   0.44770577  0.88699433  0.94569287
   0.55565344  0.77897972  0.05246494
   0.77690748  0.22178218  0.95602850
   0.88767113  0.10890117  0.04417792
   0.78265527  0.56225599  0.94487956
   0.89254763  0.44263371  0.05367854
   0.77942890  0.89236874  0.94796527
   0.88984962  0.77886044  0.05243777
unknown system                          
           1
     8.284403    4.784036    0.000000
    -8.310941    4.829976    0.000000
     0.000000    0.000000   30.000000
   V    Mo   W    S 
   3   3   3  18
Direct configuration=    15
  -0.01693071 -0.03302190 -0.00088918
   0.65037085 -0.03299808 -0.00094098
   1.01465943  0.36250076  0.00059457
   0.66209598  0.65830841 -0.00049806
   0.32616668  0.66635326 -0.00016665
   0.00717892  0.66639963 -0.00017846
   0.31340178 -0.03979116 -0.00161928
   0.35596062  0.37233244  0.00182053
   0.68298355  0.37239284  0.00181910
   0.11076229  0.22155647  0.95661684
   0.22178653  0.11193912  0.04383038
   0.10894157  0.55120102  0.94553279
   0.21677076  0.44306739  0.05429748
   0.10599874  0.88645120  0.94523442
   0.21930220  0.77193949  0.05580468
   0.44340076  0.22015734  0.95522240
   0.55679354  0.11194906  0.04384230
   0.44630167  0.56202088  0.94493331
   0.56010300  0.45368832  0.05774044
   0.44707440  0.88642821  0.94519095
   0.55518060  0.77870523  0.05263277
   0.77742015  0.22153421  0.95666174
   0.88773830  0.10897978  0.04316562
   0.78236485  0.56217453  0.94500648
   0.89295841  0.44310702  0.05428221
   0.77935522  0.89218872  0.94750856
   0.89007434  0.77865024  0.05255494
unknown system                          
           1
     8.283696    4.783728    0.000000
    -8.307331    4.824644    0.000000
     0.000000    0.000000   30.000000
   V    Mo   W    S 
   3   3   3  18
Direct configuration=    16
  -0.01688147 -0.03350268 -0.00107945
   0.64985293 -0.03348829 -0.00110143
   1.01500420  0.36318580  0.00082027
   0.66196704  0.65823456 -0.00043034
   0.32644749  0.66635409 -0.00019426
   0.00698877  0.66640916 -0.00019530
   0.31341317 -0.03981374 -0.00175603
   0.35574702  0.37247433  0.00191882
   0.68332529  0.37253821  0.00193543
   0.11052923  0.22159697  0.95679397
   0.22155902  0.11163815  0.04378381
   0.10899357  0.55129237  0.94554279
   0.21702495  0.44347595  0.05449171
   0.10616077  0.88634564  0.94505977
   0.21931561  0.77195929  0.05577973
   0.44354176  0.22044060  0.95534220
   0.55670343  0.11165430  0.04379260
   0.44628923  0.56184436  0.94494439
   0.56000411  0.45348898  0.05777248
   0.44676348  0.88632757  0.94503534
   0.55527237  0.77881210  0.05264718
   0.77770647  0.22161329  0.95682942
   0.88787380  0.10919834  0.04284635
   0.78221036  0.56203138  0.94501574
   0.89311445  0.44352465  0.05447013
   0.77922762  0.89187434  0.94735408
   0.89005981  0.77870474  0.05258051
unknown system                          
           1
     8.285360    4.784734    0.000000
    -8.306333    4.821040    0.000000
     0.000000    0.000000   30.000000
   V    Mo   W    S 
   3   3   3  18
Direct configuration=    17
  -0.01681556 -0.03393128 -0.00126637
   0.64931379 -0.03398115 -0.00128813
   1.01542672  0.36405113  0.00103071
   0.66185883  0.65820768 -0.00040209
   0.32667489  0.66635151 -0.00020137
   0.00682619  0.66633718 -0.00020029
   0.31338193 -0.03994650 -0.00181802
   0.35550721  0.37255872  0.00203366
   0.68367037  0.37266877  0.00204049
   0.11034122  0.22165850  0.95694563
   0.22137550  0.11137855  0.04373751
   0.10900161  0.55130500  0.94554699
   0.21725587  0.44381983  0.05467659
   0.10626827  0.88621706  0.94487808
   0.21938937  0.77208903  0.05570853
   0.44368361  0.22072185  0.95543924
   0.55663321  0.11138437  0.04374465
   0.44629886  0.56170819  0.94495131
   0.55992613  0.45335681  0.05783932
   0.44656392  0.88621606  0.94486540
   0.55533748  0.77891505  0.05266972
   0.77794730  0.22166160  0.95698635
   0.88793737  0.10935297  0.04256688
   0.78205911  0.56189858  0.94504597
   0.89324599  0.44388768  0.05465765
   0.77904298  0.89158344  0.94720898
   0.89006229  0.77874383  0.05260251
unknown system                          
           1
     8.286401    4.785446    0.000000
    -8.305930    4.819252    0.000000
     0.000000    0.000000   30.000000
   V    Mo   W    S 
   3   3   3  18
Direct configuration=    18
  -0.01670655 -0.03427976 -0.00150958
   0.64876793 -0.03441375 -0.00154734
   1.01583117  0.36491623  0.00131364
   0.66155719  0.65797552 -0.00036822
   0.32708744  0.66640580 -0.00021094
   0.00660870  0.66627104 -0.00020934
   0.31340640 -0.04001516 -0.00192457
   0.35521633  0.37256192  0.00217547
   0.68398770  0.37270891  0.00218150
   0.11015833  0.22185652  0.95709173
   0.22112598  0.11100929  0.04371016
   0.10897280  0.55122975  0.94560419
   0.21764565  0.44434793  0.05492409
   0.10646052  0.88608367  0.94464233
   0.21948047  0.77223758  0.05565365
   0.44383869  0.22101867  0.95553469
   0.55654311  0.11101562  0.04371699
   0.44622727  0.56142535  0.94494391
   0.55973590  0.45300000  0.05796433
   0.44633041  0.88611472  0.94463141
   0.55558292  0.77920015  0.05268429
   0.77830152  0.22182226  0.95714439
   0.88802124  0.10959272  0.04225922
   0.78185433  0.56166052  0.94507642
   0.89340083  0.44444378  0.05490798
   0.77871654  0.89107513  0.94701496
   0.89006160  0.77895004  0.05259455
unknown system                          
           1
     8.287617    4.786422    0.000000
    -8.307316    4.820525    0.000000
     0.000000    0.000000   30.000000
   V    Mo   W    S 
   3   3   3  18
Direct configuration=    19
  -0.01669379 -0.03462199 -0.00174168
   0.64837979 -0.03472126 -0.00179509
   1.01616070  0.36563740  0.00160366
   0.66117182  0.65774340 -0.00032488
   0.32759781  0.66653128 -0.00020856
   0.00648003  0.66636941 -0.00021868
   0.31341915 -0.04004752 -0.00204587
   0.35494421  0.37250581  0.00230651
   0.68419985  0.37266605  0.00232925
   0.11004869  0.22212194  0.95721625
   0.22084566  0.11061389  0.04366966
   0.10890919  0.55104604  0.94570038
   0.21808820  0.44488089  0.05514390
   0.10661885  0.88593096  0.94447214
   0.21960238  0.77243518  0.05557971
   0.44397005  0.22125797  0.95562997
   0.55647108  0.11064177  0.04368445
   0.44601905  0.56097635  0.94496909
   0.55951985  0.45260291  0.05807127
   0.44610111  0.88599455  0.94442768
   0.55595154  0.77964592  0.05263970
   0.77865448  0.22207022  0.95727738
   0.88805212  0.10970868  0.04198974
   0.78164987  0.56133837  0.94514225
   0.89351289  0.44500698  0.05513884
   0.77840950  0.89052051  0.94684930
   0.89013040  0.77935877  0.05249354
unknown system                          
           1
     8.289067    4.787778    0.000000
    -8.309248    4.822719    0.000000
     0.000000    0.000000   30.000000
   V    Mo   W    S 
   3   3   3  18
Direct configuration=    20
  -0.01673482 -0.03470185 -0.00179866
   0.64835765 -0.03476150 -0.00185282
   1.01620718  0.36573035  0.00166687
   0.66106804  0.65773834 -0.00032299
   0.32781486  0.66659374 -0.00020884
   0.00644026  0.66644921 -0.00021960
   0.31342817 -0.04003008 -0.00206526
   0.35487195  0.37246689  0.00233944
   0.68424464  0.37265823  0.00236281
   0.11001446  0.22216758  0.95724526
   0.22074553  0.11050068  0.04365168
   0.10888759  0.55097088  0.94573639
   0.21820706  0.44501561  0.05519632
   0.10661537  0.88589354  0.94443304
   0.21965017  0.77250546  0.05555922
   0.44399591  0.22129554  0.95564996
   0.55646432  0.11054569  0.04367274
   0.44595330  0.56084324  0.94497583
   0.55947516  0.45253426  0.05809555
   0.44606019  0.88595341  0.94438124
   0.55606681  0.77977633  0.05262742
   0.77873586  0.22214170  0.95730619
   0.88805109  0.10968673  0.04193147
   0.78157500  0.56123854  0.94516970
   0.89353221  0.44514734  0.05519313
   0.77834561  0.89036540  0.94681609
   0.89014087  0.77948920  0.05245771
unknown system                          
           1
     8.288769    4.787778    0.000000
    -8.308847    4.822542    0.000000
     0.000000    0.000000   30.000000
   V    Mo   W    S 
   3   3   3  18
Direct configuration=    21
  -0.01680900 -0.03477771 -0.00188092
   0.64834464 -0.03482538 -0.00193193
   1.01616953  0.36564585  0.00174466
   0.66083136  0.65773357 -0.00031978
   0.32826286  0.66687824 -0.00020739
   0.00651037  0.66673149 -0.00021483
   0.31344450 -0.04005777 -0.00209181
   0.35481017  0.37236101  0.00238815
   0.68421677  0.37261586  0.00241671
   0.11002105  0.22221665  0.95727512
   0.22060768  0.11036686  0.04361131
   0.10887564  0.55090533  0.94580814
   0.21843448  0.44521330  0.05524492
   0.10658482  0.88581700  0.94440781
   0.21972529  0.77261849  0.05551017
   0.44402292  0.22133123  0.95568458
   0.55648184  0.11042120  0.04363861
   0.44579774  0.56059341  0.94499172
   0.55941238  0.45246099  0.05811163
   0.44603083  0.88588949  0.94435469
   0.55624217  0.78002385  0.05259833
   0.77877504  0.22221584  0.95733995
   0.88797795  0.10953265  0.04187670
   0.78149389  0.56107253  0.94522377
   0.89352492  0.44537689  0.05524013
   0.77824465  0.89017642  0.94678062
   0.89017997  0.77967718  0.05239884
unknown system                          
           1
     8.288769    4.787778    0.000000
    -8.308847    4.822542    0.000000
     0.000000    0.000000   30.000000
   V    Mo   W    S 
   3   3   3  18
Direct configuration=    22
  -0.01683865 -0.03480802 -0.00192830
   0.64839054 -0.03478304 -0.00198368
   1.01621118  0.36571276  0.00178891
   0.66062060  0.65767456 -0.00032082
   0.32842587  0.66688458 -0.00019918
   0.00655617  0.66678862 -0.00020874
   0.31345228 -0.04002584 -0.00211374
   0.35474341  0.37231871  0.00241222
   0.68424004  0.37260512  0.00244347
   0.11000464  0.22226689  0.95730474
   0.22051460  0.11026450  0.04358279
   0.10885215  0.55081687  0.94588062
   0.21856279  0.44536133  0.05526908
   0.10657632  0.88576780  0.94437716
   0.21978534  0.77269492  0.05548832
   0.44404096  0.22134925  0.95571144
   0.55647995  0.11033669  0.04361828
   0.44569197  0.56041142  0.94500134
   0.55937191  0.45244017  0.05813244
   0.44600839  0.88584935  0.94431798
   0.55637018  0.78017870  0.05259439
   0.77884866  0.22230473  0.95737152
   0.88795715  0.10946154  0.04183538
   0.78142853  0.56096991  0.94526664
   0.89356374  0.44554583  0.05526442
   0.77816486  0.89001231  0.94673641
   0.89019086  0.77981478  0.05235683
