   27   27  100    1
  0.9710400E+02  0.1002848E-08  0.1002848E-08  0.3000000E-08  0.5000000E-15
  1.000000000000000E-004
  CAR 
 unknown system                          
    159     34    120
 
  0.0000000E+00  0.0000000E+00  0.0000000E+00  0.1562500E-01
    1      -17.785959   1.000000
    2      -16.694720   1.000000
    3      -16.598392   1.000000
    4      -16.586000   1.000000
    5      -16.493611   1.000000
    6      -16.478815   1.000000
    7      -16.412211   1.000000
    8      -16.353438   1.000000
    9      -16.133189   1.000000
   10      -16.127819   1.000000
   11      -16.097565   1.000000
   12      -16.018086   1.000000
   13      -15.886511   1.000000
   14      -15.664999   1.000000
   15      -15.637742   1.000000
   16      -15.528253   1.000000
   17      -15.319046   1.000000
   18      -15.271314   1.000000
   19       -9.213050   1.000000
   20       -8.963688   1.000000
   21       -8.935002   1.000000
   22       -8.825415   1.000000
   23       -8.742981   1.000000
   24       -8.713000   1.000000
   25       -8.650651   1.000000
   26       -8.603202   1.000000
   27       -8.501955   1.000000
   28       -8.440299   1.000000
   29       -8.380066   1.000000
   30       -8.348573   1.000000
   31       -8.315687   1.000000
   32       -8.172333   1.000000
   33       -7.995546   1.000000
   34       -7.979139   1.000000
   35       -7.862952   1.000000
   36       -7.796987   1.000000
   37       -7.777547   1.000000
   38       -7.539989   1.000000
   39       -7.408105   1.000000
   40       -7.390260   1.000000
   41       -7.344251   1.000000
   42       -7.275167   1.000000
   43       -7.103665   1.000000
   44       -6.967664   1.000000
   45       -6.833118   1.000000
   46       -6.792391   1.000000
   47       -6.737560   1.000000
   48       -6.587527   1.000000
   49       -6.570248   1.000000
   50       -6.508072   1.000000
   51       -6.429142   1.000000
   52       -6.386428   1.000000
   53       -6.292107   1.000000
   54       -6.286520   1.000000
   55       -6.236493   1.000000
   56       -6.204291   1.000000
   57       -6.041316   1.000000
   58       -5.934175   1.000000
   59       -5.706646   1.000000
   60       -5.569256   1.000000
   61       -5.532113   1.000000
   62       -5.432195   1.000000
   63       -5.310516   1.000000
   64       -5.181899   1.000000
   65       -5.137570   1.000000
   66       -5.022265   1.000000
   67       -4.995000   1.000000
   68       -4.844492   1.000000
   69       -4.813591   1.000000
   70       -4.740852   1.000000
   71       -4.654059   1.000000
   72       -4.577903   1.000000
   73       -4.478282   1.000000
   74       -4.192530   1.000000
   75       -4.160639   1.000000
   76       -4.054148   1.000000
   77       -3.740693   0.999637
   78       -3.544904   0.976979
   79       -3.528573   0.969914
   80       -3.427024   0.877273
   81       -3.319434   0.655676
   82       -2.886239   0.003879
   83       -2.639832   0.000005
   84       -2.587197   0.000001
   85       -2.451966   0.000000
   86       -2.421806   0.000000
   87       -2.256805   0.000000
   88       -2.176922   0.000000
   89       -2.157475   0.000000
   90       -2.028750   0.000000
   91       -1.978503   0.000000
   92       -1.872342   0.000000
   93       -1.454646   0.000000
   94       -1.235262   0.000000
   95       -1.120841   0.000000
   96       -1.057892   0.000000
   97       -0.999234   0.000000
   98       -0.853283   0.000000
   99       -0.719970   0.000000
  100       -0.684302   0.000000
  101       -0.663284   0.000000
  102       -0.449304   0.000000
  103       -0.411288   0.000000
  104       -0.390345   0.000000
  105       -0.278145   0.000000
  106       -0.108995   0.000000
  107       -0.085434   0.000000
  108        0.024035   0.000000
  109        0.052697   0.000000
  110        0.191741   0.000000
  111        0.312014   0.000000
  112        0.405182   0.000000
  113        0.718905   0.000000
  114        0.864406   0.000000
  115        0.987054   0.000000
  116        1.089466   0.000000
  117        1.147857   0.000000
  118        1.628346   0.000000
  119        1.823055   0.000000
  120        2.132026   0.000000
 
  0.1250000E+00  0.2775558E-16  0.0000000E+00  0.3125000E-01
    1      -17.760968   1.000000
    2      -16.768365   1.000000
    3      -16.651861   1.000000
    4      -16.622998   1.000000
    5      -16.549236   1.000000
    6      -16.416622   1.000000
    7      -16.357544   1.000000
    8      -16.312363   1.000000
    9      -16.186404   1.000000
   10      -16.115168   1.000000
   11      -16.036441   1.000000
   12      -15.967151   1.000000
   13      -15.882742   1.000000
   14      -15.684974   1.000000
   15      -15.632126   1.000000
   16      -15.527437   1.000000
   17      -15.321895   1.000000
   18      -15.282176   1.000000
   19       -9.231592   1.000000
   20       -9.112674   1.000000
   21       -8.990703   1.000000
   22       -8.951299   1.000000
   23       -8.783053   1.000000
   24       -8.727867   1.000000
   25       -8.646962   1.000000
   26       -8.585911   1.000000
   27       -8.488539   1.000000
   28       -8.399500   1.000000
   29       -8.379537   1.000000
   30       -8.329168   1.000000
   31       -8.164147   1.000000
   32       -8.057813   1.000000
   33       -7.983460   1.000000
   34       -7.930413   1.000000
   35       -7.805840   1.000000
   36       -7.737818   1.000000
   37       -7.674378   1.000000
   38       -7.555480   1.000000
   39       -7.531106   1.000000
   40       -7.386459   1.000000
   41       -7.312637   1.000000
   42       -7.229822   1.000000
   43       -7.112536   1.000000
   44       -6.981132   1.000000
   45       -6.928517   1.000000
   46       -6.843165   1.000000
   47       -6.734590   1.000000
   48       -6.602204   1.000000
   49       -6.492805   1.000000
   50       -6.471486   1.000000
   51       -6.423257   1.000000
   52       -6.396778   1.000000
   53       -6.328276   1.000000
   54       -6.279848   1.000000
   55       -6.227954   1.000000
   56       -6.198116   1.000000
   57       -5.992458   1.000000
   58       -5.946572   1.000000
   59       -5.688690   1.000000
   60       -5.611990   1.000000
   61       -5.544303   1.000000
   62       -5.441059   1.000000
   63       -5.358882   1.000000
   64       -5.239420   1.000000
   65       -5.156276   1.000000
   66       -5.026358   1.000000
   67       -4.996695   1.000000
   68       -4.927862   1.000000
   69       -4.801789   1.000000
   70       -4.732855   1.000000
   71       -4.703770   1.000000
   72       -4.506350   1.000000
   73       -4.432479   1.000000
   74       -4.176715   1.000000
   75       -4.051249   1.000000
   76       -4.034569   1.000000
   77       -3.834272   0.999973
   78       -3.755967   0.999756
   79       -3.542151   0.975896
   80       -3.326920   0.674949
   81       -3.193991   0.313368
   82       -2.858416   0.002124
   83       -2.621798   0.000003
   84       -2.607898   0.000002
   85       -2.453205   0.000000
   86       -2.386128   0.000000
   87       -2.261785   0.000000
   88       -2.164290   0.000000
   89       -2.138868   0.000000
   90       -2.023157   0.000000
   91       -2.001752   0.000000
   92       -1.855398   0.000000
   93       -1.449280   0.000000
   94       -1.229700   0.000000
   95       -1.123521   0.000000
   96       -1.045967   0.000000
   97       -0.998146   0.000000
   98       -0.875090   0.000000
   99       -0.778252   0.000000
  100       -0.738373   0.000000
  101       -0.685266   0.000000
  102       -0.558437   0.000000
  103       -0.473363   0.000000
  104       -0.422020   0.000000
  105       -0.334651   0.000000
  106       -0.129636   0.000000
  107       -0.094696   0.000000
  108        0.007066   0.000000
  109        0.056971   0.000000
  110        0.224795   0.000000
  111        0.401828   0.000000
  112        0.495287   0.000000
  113        0.728460   0.000000
  114        0.834565   0.000000
  115        0.984186   0.000000
  116        1.096480   0.000000
  117        1.120782   0.000000
  118        1.672434   0.000000
  119        1.861100   0.000000
  120        2.167111   0.000000
 
  0.2500000E+00  0.5551115E-16  0.0000000E+00  0.3125000E-01
    1      -17.687219   1.000000
    2      -16.972706   1.000000
    3      -16.686889   1.000000
    4      -16.658071   1.000000
    5      -16.600229   1.000000
    6      -16.377718   1.000000
    7      -16.288295   1.000000
    8      -16.271331   1.000000
    9      -16.188705   1.000000
   10      -16.093139   1.000000
   11      -15.984687   1.000000
   12      -15.896606   1.000000
   13      -15.827305   1.000000
   14      -15.719810   1.000000
   15      -15.628195   1.000000
   16      -15.529201   1.000000
   17      -15.353995   1.000000
   18      -15.285057   1.000000
   19       -9.480625   1.000000
   20       -9.181174   1.000000
   21       -9.074404   1.000000
   22       -9.046332   1.000000
   23       -8.875528   1.000000
   24       -8.796181   1.000000
   25       -8.647326   1.000000
   26       -8.559618   1.000000
   27       -8.438939   1.000000
   28       -8.367747   1.000000
   29       -8.261940   1.000000
   30       -8.191837   1.000000
   31       -8.151954   1.000000
   32       -8.038190   1.000000
   33       -7.869793   1.000000
   34       -7.842356   1.000000
   35       -7.773132   1.000000
   36       -7.660820   1.000000
   37       -7.586839   1.000000
   38       -7.523513   1.000000
   39       -7.430519   1.000000
   40       -7.401417   1.000000
   41       -7.274153   1.000000
   42       -7.156916   1.000000
   43       -7.070985   1.000000
   44       -7.041507   1.000000
   45       -6.962390   1.000000
   46       -6.829811   1.000000
   47       -6.745693   1.000000
   48       -6.670299   1.000000
   49       -6.553869   1.000000
   50       -6.466013   1.000000
   51       -6.408452   1.000000
   52       -6.378558   1.000000
   53       -6.327988   1.000000
   54       -6.214168   1.000000
   55       -6.180457   1.000000
   56       -6.116019   1.000000
   57       -6.011965   1.000000
   58       -5.868571   1.000000
   59       -5.791957   1.000000
   60       -5.683065   1.000000
   61       -5.665562   1.000000
   62       -5.590764   1.000000
   63       -5.405580   1.000000
   64       -5.322424   1.000000
   65       -5.207720   1.000000
   66       -5.065354   1.000000
   67       -5.027971   1.000000
   68       -4.954608   1.000000
   69       -4.851607   1.000000
   70       -4.642594   1.000000
   71       -4.605310   1.000000
   72       -4.422709   1.000000
   73       -4.335801   1.000000
   74       -4.269005   1.000000
   75       -4.128211   1.000000
   76       -4.029799   1.000000
   77       -3.957325   1.000000
   78       -3.775115   0.999854
   79       -3.536079   0.973357
   80       -3.181490   0.282739
   81       -3.056586   0.072430
   82       -2.808414   0.000657
   83       -2.640417   0.000005
   84       -2.557136   0.000000
   85       -2.458712   0.000000
   86       -2.368774   0.000000
   87       -2.286980   0.000000
   88       -2.124038   0.000000
   89       -2.110815   0.000000
   90       -2.057845   0.000000
   91       -1.957344   0.000000
   92       -1.786423   0.000000
   93       -1.448242   0.000000
   94       -1.235895   0.000000
   95       -1.144163   0.000000
   96       -1.035333   0.000000
   97       -0.985463   0.000000
   98       -0.976732   0.000000
   99       -0.910891   0.000000
  100       -0.847495   0.000000
  101       -0.754811   0.000000
  102       -0.688929   0.000000
  103       -0.597992   0.000000
  104       -0.480465   0.000000
  105       -0.411846   0.000000
  106       -0.179666   0.000000
  107       -0.093466   0.000000
  108       -0.086776   0.000000
  109        0.047134   0.000000
  110        0.261733   0.000000
  111        0.517772   0.000000
  112        0.606089   0.000000
  113        0.757116   0.000000
  114        0.830754   0.000000
  115        0.986121   0.000000
  116        1.068606   0.000000
  117        1.159008   0.000000
  118        1.794787   0.000000
  119        1.971041   0.000000
  120        2.271123   0.000000
 
  0.3750000E+00  0.0000000E+00  0.0000000E+00  0.3125000E-01
    1      -17.569866   1.000000
    2      -17.186151   1.000000
    3      -16.729984   1.000000
    4      -16.673518   1.000000
    5      -16.613832   1.000000
    6      -16.379201   1.000000
    7      -16.270466   1.000000
    8      -16.250372   1.000000
    9      -16.124296   1.000000
   10      -16.057335   1.000000
   11      -15.954162   1.000000
   12      -15.887999   1.000000
   13      -15.776164   1.000000
   14      -15.704587   1.000000
   15      -15.630679   1.000000
   16      -15.527311   1.000000
   17      -15.417377   1.000000
   18      -15.267846   1.000000
   19       -9.692326   1.000000
   20       -9.297742   1.000000
   21       -9.133076   1.000000
   22       -9.046263   1.000000
   23       -8.888516   1.000000
   24       -8.845365   1.000000
   25       -8.606971   1.000000
   26       -8.484248   1.000000
   27       -8.424566   1.000000
   28       -8.288542   1.000000
   29       -8.250316   1.000000
   30       -8.228348   1.000000
   31       -8.088084   1.000000
   32       -8.038501   1.000000
   33       -7.899262   1.000000
   34       -7.855197   1.000000
   35       -7.773786   1.000000
   36       -7.687242   1.000000
   37       -7.507382   1.000000
   38       -7.470674   1.000000
   39       -7.350891   1.000000
   40       -7.251368   1.000000
   41       -7.186301   1.000000
   42       -7.145825   1.000000
   43       -7.067702   1.000000
   44       -6.942945   1.000000
   45       -6.868872   1.000000
   46       -6.804737   1.000000
   47       -6.754104   1.000000
   48       -6.600044   1.000000
   49       -6.537951   1.000000
   50       -6.491776   1.000000
   51       -6.411574   1.000000
   52       -6.353312   1.000000
   53       -6.288288   1.000000
   54       -6.201115   1.000000
   55       -6.158938   1.000000
   56       -6.096968   1.000000
   57       -5.942271   1.000000
   58       -5.917441   1.000000
   59       -5.888989   1.000000
   60       -5.862712   1.000000
   61       -5.784932   1.000000
   62       -5.702962   1.000000
   63       -5.633696   1.000000
   64       -5.321744   1.000000
   65       -5.170229   1.000000
   66       -5.076792   1.000000
   67       -5.036989   1.000000
   68       -4.959601   1.000000
   69       -4.834147   1.000000
   70       -4.715431   1.000000
   71       -4.543129   1.000000
   72       -4.450710   1.000000
   73       -4.339824   1.000000
   74       -4.273441   1.000000
   75       -4.230206   1.000000
   76       -4.046708   1.000000
   77       -3.918377   0.999998
   78       -3.666591   0.997851
   79       -3.543003   0.976236
   80       -3.035855   0.054300
   81       -2.950006   0.013498
   82       -2.796592   0.000490
   83       -2.623940   0.000003
   84       -2.533042   0.000000
   85       -2.468427   0.000000
   86       -2.420709   0.000000
   87       -2.258956   0.000000
   88       -2.162365   0.000000
   89       -2.067045   0.000000
   90       -2.017959   0.000000
   91       -1.931105   0.000000
   92       -1.645621   0.000000
   93       -1.462008   0.000000
   94       -1.278163   0.000000
   95       -1.199767   0.000000
   96       -1.121116   0.000000
   97       -1.081734   0.000000
   98       -1.024859   0.000000
   99       -0.949909   0.000000
  100       -0.932738   0.000000
  101       -0.814898   0.000000
  102       -0.741477   0.000000
  103       -0.670957   0.000000
  104       -0.527696   0.000000
  105       -0.442297   0.000000
  106       -0.214616   0.000000
  107       -0.197639   0.000000
  108       -0.121506   0.000000
  109       -0.007080   0.000000
  110        0.261415   0.000000
  111        0.575208   0.000000
  112        0.634824   0.000000
  113        0.780276   0.000000
  114        0.867610   0.000000
  115        1.004826   0.000000
  116        1.058028   0.000000
  117        1.260034   0.000000
  118        1.977615   0.000000
  119        2.143592   0.000000
  120        2.440370   0.000000
 
  0.5000000E+00  0.1110223E-15  0.0000000E+00  0.1562500E-01
    1      -17.457632   1.000000
    2      -17.332324   1.000000
    3      -16.745299   1.000000
    4      -16.682884   1.000000
    5      -16.612693   1.000000
    6      -16.384487   1.000000
    7      -16.270916   1.000000
    8      -16.244125   1.000000
    9      -16.073824   1.000000
   10      -16.031475   1.000000
   11      -15.992565   1.000000
   12      -15.826179   1.000000
   13      -15.817516   1.000000
   14      -15.675041   1.000000
   15      -15.630171   1.000000
   16      -15.505662   1.000000
   17      -15.468987   1.000000
   18      -15.257585   1.000000
   19       -9.768854   1.000000
   20       -9.340726   1.000000
   21       -9.164225   1.000000
   22       -9.062855   1.000000
   23       -8.871081   1.000000
   24       -8.820663   1.000000
   25       -8.590345   1.000000
   26       -8.493002   1.000000
   27       -8.378669   1.000000
   28       -8.343050   1.000000
   29       -8.237550   1.000000
   30       -8.149367   1.000000
   31       -8.129676   1.000000
   32       -8.043445   1.000000
   33       -7.893208   1.000000
   34       -7.816374   1.000000
   35       -7.804438   1.000000
   36       -7.782047   1.000000
   37       -7.515817   1.000000
   38       -7.448221   1.000000
   39       -7.278208   1.000000
   40       -7.261500   1.000000
   41       -7.123108   1.000000
   42       -7.026938   1.000000
   43       -7.009541   1.000000
   44       -6.911373   1.000000
   45       -6.892241   1.000000
   46       -6.799444   1.000000
   47       -6.744282   1.000000
   48       -6.572499   1.000000
   49       -6.541001   1.000000
   50       -6.434374   1.000000
   51       -6.376313   1.000000
   52       -6.347753   1.000000
   53       -6.265291   1.000000
   54       -6.156501   1.000000
   55       -6.152388   1.000000
   56       -6.120683   1.000000
   57       -6.103547   1.000000
   58       -5.979674   1.000000
   59       -5.920628   1.000000
   60       -5.852917   1.000000
   61       -5.829666   1.000000
   62       -5.716243   1.000000
   63       -5.566415   1.000000
   64       -5.357616   1.000000
   65       -5.307669   1.000000
   66       -5.107910   1.000000
   67       -5.091564   1.000000
   68       -4.938530   1.000000
   69       -4.785154   1.000000
   70       -4.753233   1.000000
   71       -4.509843   1.000000
   72       -4.465271   1.000000
   73       -4.380517   1.000000
   74       -4.267953   1.000000
   75       -4.212676   1.000000
   76       -4.041762   1.000000
   77       -3.881278   0.999994
   78       -3.626622   0.994957
   79       -3.559220   0.981969
   80       -2.949328   0.013333
   81       -2.909192   0.006207
   82       -2.816383   0.000799
   83       -2.583510   0.000001
   84       -2.563824   0.000000
   85       -2.472846   0.000000
   86       -2.453238   0.000000
   87       -2.230494   0.000000
   88       -2.176790   0.000000
   89       -2.046637   0.000000
   90       -1.990518   0.000000
   91       -1.936318   0.000000
   92       -1.562825   0.000000
   93       -1.460279   0.000000
   94       -1.319248   0.000000
   95       -1.249003   0.000000
   96       -1.149819   0.000000
   97       -1.132263   0.000000
   98       -1.086038   0.000000
   99       -0.951117   0.000000
  100       -0.930809   0.000000
  101       -0.825096   0.000000
  102       -0.776436   0.000000
  103       -0.676135   0.000000
  104       -0.531667   0.000000
  105       -0.470389   0.000000
  106       -0.243001   0.000000
  107       -0.219415   0.000000
  108       -0.145802   0.000000
  109       -0.036856   0.000000
  110        0.256414   0.000000
  111        0.577299   0.000000
  112        0.652982   0.000000
  113        0.790710   0.000000
  114        0.869425   0.000000
  115        1.031782   0.000000
  116        1.052557   0.000000
  117        1.309691   0.000000
  118        2.184183   0.000000
  119        2.242602   0.000000
  120        2.364279   0.000000
 
  0.0000000E+00  0.1250000E+00  0.0000000E+00  0.3125000E-01
    1      -17.760887   1.000000
    2      -16.773392   1.000000
    3      -16.674620   1.000000
    4      -16.603707   1.000000
    5      -16.517820   1.000000
    6      -16.435452   1.000000
    7      -16.371464   1.000000
    8      -16.292990   1.000000
    9      -16.196814   1.000000
   10      -16.112262   1.000000
   11      -16.033747   1.000000
   12      -15.985905   1.000000
   13      -15.862057   1.000000
   14      -15.681905   1.000000
   15      -15.638356   1.000000
   16      -15.534212   1.000000
   17      -15.325544   1.000000
   18      -15.276013   1.000000
   19       -9.212247   1.000000
   20       -9.131673   1.000000
   21       -8.993975   1.000000
   22       -8.931231   1.000000
   23       -8.776197   1.000000
   24       -8.718219   1.000000
   25       -8.684156   1.000000
   26       -8.549527   1.000000
   27       -8.486681   1.000000
   28       -8.448221   1.000000
   29       -8.393491   1.000000
   30       -8.263624   1.000000
   31       -8.200913   1.000000
   32       -8.064284   1.000000
   33       -7.977885   1.000000
   34       -7.890826   1.000000
   35       -7.824206   1.000000
   36       -7.749525   1.000000
   37       -7.711214   1.000000
   38       -7.570901   1.000000
   39       -7.481641   1.000000
   40       -7.383911   1.000000
   41       -7.293777   1.000000
   42       -7.238857   1.000000
   43       -7.143359   1.000000
   44       -7.013958   1.000000
   45       -6.876128   1.000000
   46       -6.824207   1.000000
   47       -6.754534   1.000000
   48       -6.625239   1.000000
   49       -6.546753   1.000000
   50       -6.453352   1.000000
   51       -6.436513   1.000000
   52       -6.385896   1.000000
   53       -6.335801   1.000000
   54       -6.267577   1.000000
   55       -6.215798   1.000000
   56       -6.174312   1.000000
   57       -5.967103   1.000000
   58       -5.946353   1.000000
   59       -5.711281   1.000000
   60       -5.572750   1.000000
   61       -5.556513   1.000000
   62       -5.440847   1.000000
   63       -5.313229   1.000000
   64       -5.293056   1.000000
   65       -5.202370   1.000000
   66       -5.082734   1.000000
   67       -5.014439   1.000000
   68       -4.856185   1.000000
   69       -4.817374   1.000000
   70       -4.710662   1.000000
   71       -4.608762   1.000000
   72       -4.492161   1.000000
   73       -4.451010   1.000000
   74       -4.174774   1.000000
   75       -4.075901   1.000000
   76       -4.040422   1.000000
   77       -3.901074   0.999997
   78       -3.702481   0.999062
   79       -3.479499   0.937303
   80       -3.423563   0.872229
   81       -3.183948   0.288645
   82       -2.855156   0.001974
   83       -2.631411   0.000004
   84       -2.592185   0.000001
   85       -2.439105   0.000000
   86       -2.410986   0.000000
   87       -2.242040   0.000000
   88       -2.168023   0.000000
   89       -2.137923   0.000000
   90       -2.026620   0.000000
   91       -1.971702   0.000000
   92       -1.876812   0.000000
   93       -1.455903   0.000000
   94       -1.245288   0.000000
   95       -1.112819   0.000000
   96       -1.054869   0.000000
   97       -0.992529   0.000000
   98       -0.866146   0.000000
   99       -0.776559   0.000000
  100       -0.733272   0.000000
  101       -0.668360   0.000000
  102       -0.517085   0.000000
  103       -0.487855   0.000000
  104       -0.438873   0.000000
  105       -0.314590   0.000000
  106       -0.183834   0.000000
  107       -0.137524   0.000000
  108       -0.018259   0.000000
  109        0.092791   0.000000
  110        0.201858   0.000000
  111        0.383807   0.000000
  112        0.488019   0.000000
  113        0.687760   0.000000
  114        0.858184   0.000000
  115        1.017854   0.000000
  116        1.094922   0.000000
  117        1.185815   0.000000
  118        1.672388   0.000000
  119        1.862402   0.000000
  120        2.166991   0.000000
 
  0.1250000E+00  0.1250000E+00  0.0000000E+00  0.3125000E-01
    1      -17.710726   1.000000
    2      -16.904498   1.000000
    3      -16.757994   1.000000
    4      -16.627576   1.000000
    5      -16.500844   1.000000
    6      -16.406466   1.000000
    7      -16.314652   1.000000
    8      -16.286290   1.000000
    9      -16.188353   1.000000
   10      -16.107411   1.000000
   11      -16.005872   1.000000
   12      -15.908380   1.000000
   13      -15.839964   1.000000
   14      -15.705929   1.000000
   15      -15.636074   1.000000
   16      -15.531019   1.000000
   17      -15.337680   1.000000
   18      -15.288065   1.000000
   19       -9.379841   1.000000
   20       -9.209429   1.000000
   21       -9.102606   1.000000
   22       -9.022901   1.000000
   23       -8.796257   1.000000
   24       -8.702907   1.000000
   25       -8.667291   1.000000
   26       -8.563006   1.000000
   27       -8.455555   1.000000
   28       -8.388849   1.000000
   29       -8.315239   1.000000
   30       -8.248012   1.000000
   31       -8.130101   1.000000
   32       -8.063218   1.000000
   33       -7.919050   1.000000
   34       -7.827935   1.000000
   35       -7.766984   1.000000
   36       -7.691503   1.000000
   37       -7.644396   1.000000
   38       -7.494336   1.000000
   39       -7.441981   1.000000
   40       -7.354485   1.000000
   41       -7.310574   1.000000
   42       -7.224871   1.000000
   43       -7.131351   1.000000
   44       -7.020883   1.000000
   45       -6.954716   1.000000
   46       -6.839293   1.000000
   47       -6.759936   1.000000
   48       -6.622079   1.000000
   49       -6.572769   1.000000
   50       -6.467477   1.000000
   51       -6.428070   1.000000
   52       -6.364856   1.000000
   53       -6.311320   1.000000
   54       -6.235926   1.000000
   55       -6.178858   1.000000
   56       -6.153716   1.000000
   57       -6.005001   1.000000
   58       -5.890348   1.000000
   59       -5.753433   1.000000
   60       -5.681297   1.000000
   61       -5.583422   1.000000
   62       -5.478931   1.000000
   63       -5.413044   1.000000
   64       -5.286796   1.000000
   65       -5.231606   1.000000
   66       -5.110517   1.000000
   67       -5.053565   1.000000
   68       -4.940068   1.000000
   69       -4.780436   1.000000
   70       -4.685209   1.000000
   71       -4.595653   1.000000
   72       -4.428267   1.000000
   73       -4.370272   1.000000
   74       -4.166737   1.000000
   75       -4.152403   1.000000
   76       -4.034958   1.000000
   77       -3.915989   0.999998
   78       -3.826256   0.999966
   79       -3.496484   0.950796
   80       -3.316303   0.647487
   81       -3.053640   0.069602
   82       -2.814062   0.000755
   83       -2.637203   0.000005
   84       -2.584159   0.000001
   85       -2.441424   0.000000
   86       -2.379591   0.000000
   87       -2.269278   0.000000
   88       -2.133148   0.000000
   89       -2.095323   0.000000
   90       -2.060388   0.000000
   91       -1.960506   0.000000
   92       -1.835156   0.000000
   93       -1.452118   0.000000
   94       -1.248256   0.000000
   95       -1.123004   0.000000
   96       -1.045062   0.000000
   97       -0.977396   0.000000
   98       -0.930610   0.000000
   99       -0.863739   0.000000
  100       -0.802936   0.000000
  101       -0.702885   0.000000
  102       -0.667068   0.000000
  103       -0.550551   0.000000
  104       -0.504124   0.000000
  105       -0.398345   0.000000
  106       -0.194581   0.000000
  107       -0.163158   0.000000
  108       -0.047953   0.000000
  109        0.074521   0.000000
  110        0.247364   0.000000
  111        0.446691   0.000000
  112        0.580800   0.000000
  113        0.755373   0.000000
  114        0.858847   0.000000
  115        1.016607   0.000000
  116        1.056808   0.000000
  117        1.183135   0.000000
  118        1.755938   0.000000
  119        1.935903   0.000000
  120        2.236613   0.000000
 
  0.2500000E+00  0.1250000E+00  0.0000000E+00  0.3125000E-01
    1      -17.613896   1.000000
    2      -17.085378   1.000000
    3      -16.862357   1.000000
    4      -16.621679   1.000000
    5      -16.500484   1.000000
    6      -16.368365   1.000000
    7      -16.300798   1.000000
    8      -16.261832   1.000000
    9      -16.146879   1.000000
   10      -16.089385   1.000000
   11      -15.958524   1.000000
   12      -15.896149   1.000000
   13      -15.787161   1.000000
   14      -15.721233   1.000000
   15      -15.624207   1.000000
   16      -15.528536   1.000000
   17      -15.384996   1.000000
   18      -15.277986   1.000000
   19       -9.598966   1.000000
   20       -9.361689   1.000000
   21       -9.173565   1.000000
   22       -9.016859   1.000000
   23       -8.818823   1.000000
   24       -8.729321   1.000000
   25       -8.608073   1.000000
   26       -8.505281   1.000000
   27       -8.412225   1.000000
   28       -8.320159   1.000000
   29       -8.285311   1.000000
   30       -8.208801   1.000000
   31       -8.128001   1.000000
   32       -8.055492   1.000000
   33       -7.941745   1.000000
   34       -7.890313   1.000000
   35       -7.783321   1.000000
   36       -7.621139   1.000000
   37       -7.524312   1.000000
   38       -7.459402   1.000000
   39       -7.400805   1.000000
   40       -7.293063   1.000000
   41       -7.223135   1.000000
   42       -7.155528   1.000000
   43       -7.047394   1.000000
   44       -6.981439   1.000000
   45       -6.896276   1.000000
   46       -6.798498   1.000000
   47       -6.743251   1.000000