       N       E                     dE             d eps       ncg     rms          rms(c)
DAV:   1     0.112624852671E+04    0.11262E+04   -0.35981E+04  8160   0.577E+02
DAV:   2    -0.321231704846E+01   -0.11295E+04   -0.10880E+04 11440   0.173E+02
DAV:   3    -0.199830411611E+03   -0.19662E+03   -0.18917E+03 10880   0.821E+01
DAV:   4    -0.208935596286E+03   -0.91052E+01   -0.88496E+01 12400   0.262E+01
DAV:   5    -0.209225333573E+03   -0.28974E+00   -0.28890E+00 11320   0.329E+00    0.274E+01
DAV:   6    -0.236382287851E+03   -0.27157E+02   -0.11180E+02 12600   0.602E+01    0.592E+01
DAV:   7    -0.196824839573E+03    0.39557E+02   -0.17569E+02 13240   0.151E+02    0.206E+01
DAV:   8    -0.190300016672E+03    0.65248E+01   -0.21173E+01 11720   0.135E+01    0.140E+01
DAV:   9    -0.188296485950E+03    0.20035E+01   -0.37466E+00 12240   0.644E+00    0.935E+00
DAV:  10    -0.187100667747E+03    0.11958E+01   -0.17505E+00 13200   0.770E+00    0.325E+00
DAV:  11    -0.187014609770E+03    0.86058E-01   -0.66242E-01 12320   0.235E+00    0.243E+00
DAV:  12    -0.186974191685E+03    0.40418E-01   -0.37760E-01 12760   0.254E+00    0.273E+00
DAV:  13    -0.186929907683E+03    0.44284E-01   -0.19296E-01 13240   0.280E+00    0.205E+00
DAV:  14    -0.186892072080E+03    0.37836E-01   -0.95828E-02 13080   0.183E+00    0.618E-01
DAV:  15    -0.186887591662E+03    0.44804E-02   -0.15840E-02 11840   0.441E-01    0.504E-01
DAV:  16    -0.186887516729E+03    0.74933E-04   -0.11231E-02 13240   0.536E-01    0.604E-01
DAV:  17    -0.186885039878E+03    0.24769E-02   -0.10332E-02 12760   0.538E-01    0.278E-01
DAV:  18    -0.186883990835E+03    0.10490E-02   -0.25636E-03 12680   0.222E-01    0.187E-01
DAV:  19    -0.186883788352E+03    0.20248E-03   -0.87414E-04 11000   0.149E-01    0.479E-02
DAV:  20    -0.186884652124E+03   -0.86377E-03   -0.84791E-04  9160   0.591E-02    0.464E-02
DAV:  21    -0.186885408199E+03   -0.75608E-03   -0.22943E-04  8240   0.513E-02    0.334E-02
DAV:  22    -0.186886260844E+03   -0.85264E-03   -0.11923E-04  7240   0.317E-02    0.383E-02
DAV:  23    -0.186887504840E+03   -0.12440E-02   -0.15393E-04  7440   0.482E-02    0.220E-02
DAV:  24    -0.186888040307E+03   -0.53547E-03   -0.29702E-05  6840   0.233E-02    0.516E-03
DAV:  25    -0.186888447280E+03   -0.40697E-03   -0.20620E-05  5440   0.101E-02    0.519E-03
DAV:  26    -0.186888685328E+03   -0.23805E-03   -0.92413E-06  6880   0.798E-03    0.164E-03
DAV:  27    -0.186888771194E+03   -0.85867E-04   -0.31532E-06  7200   0.387E-03
   1 F= -.18688877E+03 E0= -.18671738E+03  d E =-.186889E+03
       N       E                     dE             d eps       ncg     rms          rms(c)
DAV:   1    -0.187544140670E+03   -0.65546E+00   -0.27353E+02  8160   0.352E+01    0.470E+00
DAV:   2    -0.189651435582E+03   -0.21073E+01   -0.20592E+01 12320   0.160E+01    0.103E+01
DAV:   3    -0.189341438822E+03    0.31000E+00   -0.45721E+00 12400   0.127E+01    0.619E+00
DAV:   4    -0.188806422201E+03    0.53502E+00   -0.57731E-01 12520   0.429E+00    0.187E+00
DAV:   5    -0.188958670766E+03   -0.15225E+00   -0.52314E-01 12360   0.371E+00    0.588E+00
DAV:   6    -0.188779361587E+03    0.17931E+00   -0.85431E-01 12840   0.448E+00    0.215E+00
DAV:   7    -0.188765918995E+03    0.13443E-01   -0.20563E-01 11640   0.227E+00    0.225E+00
DAV:   8    -0.188735930231E+03    0.29989E-01   -0.12744E-01 13000   0.213E+00    0.147E+00
DAV:   9    -0.188715986134E+03    0.19944E-01   -0.35910E-02 12360   0.950E-01    0.341E-01
DAV:  10    -0.188715274007E+03    0.71213E-03   -0.45764E-03 10840   0.224E-01    0.197E-01
DAV:  11    -0.188714764854E+03    0.50915E-03   -0.25212E-03 12600   0.163E-01    0.101E-01
DAV:  12    -0.188714908421E+03   -0.14357E-03   -0.78840E-04 11720   0.838E-02    0.891E-02
DAV:  13    -0.188714842101E+03    0.66319E-04   -0.25115E-04  7920   0.579E-02
   2 F= -.18871484E+03 E0= -.18857532E+03  d E =-.182607E+01
       N       E                     dE             d eps       ncg     rms          rms(c)
DAV:   1    -0.190645794153E+03   -0.19309E+01   -0.31670E+01  9080   0.143E+01    0.442E+00
DAV:   2    -0.190564731583E+03    0.81063E-01   -0.27497E+00 11120   0.928E+00    0.704E+00
DAV:   3    -0.190135616811E+03    0.42911E+00   -0.13625E+00 12320   0.856E+00    0.427E+00
DAV:   4    -0.189923213744E+03    0.21240E+00   -0.76154E-01 12800   0.437E+00    0.253E+00
DAV:   5    -0.189899992443E+03    0.23221E-01   -0.37912E-01 12240   0.307E+00    0.281E+00
DAV:   6    -0.189825937710E+03    0.74055E-01   -0.15559E-01 12360   0.251E+00    0.856E-01
DAV:   7    -0.189817293609E+03    0.86441E-02   -0.17673E-02 11760   0.629E-01    0.246E-01
DAV:   8    -0.189818316982E+03   -0.10234E-02   -0.50533E-03 12520   0.393E-01    0.402E-01
DAV:   9    -0.189817190193E+03    0.11268E-02   -0.27219E-03 11240   0.331E-01    0.138E-01
DAV:  10    -0.189817453217E+03   -0.26302E-03   -0.92230E-04 10120   0.122E-01    0.128E-01
DAV:  11    -0.189817237881E+03    0.21534E-03   -0.45097E-04  8600   0.765E-02    0.206E-02
DAV:  12    -0.189817260849E+03   -0.22968E-04   -0.76855E-05  6920   0.289E-02
   3 F= -.18981726E+03 E0= -.18969786E+03  d E =-.110242E+01
       N       E                     dE             d eps       ncg     rms          rms(c)
DAV:   1    -0.191415399063E+03   -0.15982E+01   -0.82487E+01  8160   0.206E+01    0.459E+00
DAV:   2    -0.191225892042E+03    0.18951E+00   -0.54482E+00 13160   0.749E+00    0.439E+00
DAV:   3    -0.191375638280E+03   -0.14975E+00   -0.16033E+00 12240   0.895E+00    0.657E+00
DAV:   4    -0.190998377845E+03    0.37726E+00   -0.13953E+00 12320   0.777E+00    0.299E+00
DAV:   5    -0.190920686047E+03    0.77692E-01   -0.39189E-01 12400   0.345E+00    0.252E+00
DAV:   6    -0.190869098229E+03    0.51588E-01   -0.21001E-01 12400   0.305E+00    0.160E+00
DAV:   7    -0.190846224357E+03    0.22874E-01   -0.61274E-02 12640   0.138E+00    0.418E-01
DAV:   8    -0.190844485682E+03    0.17387E-02   -0.85235E-03 11520   0.453E-01    0.349E-01
DAV:   9    -0.190843669403E+03    0.81628E-03   -0.27867E-03 10840   0.352E-01    0.176E-01
DAV:  10    -0.190843889076E+03   -0.21967E-03   -0.13619E-03 11240   0.161E-01    0.113E-01
DAV:  11    -0.190843701161E+03    0.18791E-03   -0.59732E-04 10360   0.887E-02    0.434E-02
DAV:  12    -0.190843708064E+03   -0.69030E-05   -0.10242E-04  7000   0.394E-02
   4 F= -.19084371E+03 E0= -.19073574E+03  d E =-.102645E+01
       N       E                     dE             d eps       ncg     rms          rms(c)
DAV:   1    -0.192145056398E+03   -0.13014E+01   -0.17163E+02  8160   0.290E+01    0.547E+00
DAV:   2    -0.191923616457E+03    0.22144E+00   -0.90970E+00 10880   0.769E+00    0.341E+00
DAV:   3    -0.191798603591E+03    0.12501E+00   -0.14608E+00 11840   0.609E+00    0.369E+00
DAV:   4    -0.191820978507E+03   -0.22375E-01   -0.10786E+00 12320   0.756E+00    0.435E+00
DAV:   5    -0.191551678940E+03    0.26930E+00   -0.43847E-01 12360   0.453E+00    0.812E-01
DAV:   6    -0.191541857881E+03    0.98211E-02   -0.79876E-02 11280   0.114E+00    0.523E-01
DAV:   7    -0.191545637750E+03   -0.37799E-02   -0.34597E-02 11880   0.109E+00    0.963E-01
DAV:   8    -0.191537327515E+03    0.83102E-02   -0.18482E-02 11600   0.827E-01    0.170E-01
DAV:   9    -0.191537849284E+03   -0.52177E-03   -0.24588E-03 11480   0.239E-01    0.231E-01
DAV:  10    -0.191537736667E+03    0.11262E-03   -0.26502E-03 11120   0.330E-01    0.214E-01
DAV:  11    -0.191537366857E+03    0.36981E-03   -0.10867E-03 10080   0.192E-01    0.544E-02
DAV:  12    -0.191537336267E+03    0.30589E-04   -0.11663E-04  6000   0.452E-02
   5 F= -.19153734E+03 E0= -.19142675E+03  d E =-.693628E+00
       N       E                     dE             d eps       ncg     rms          rms(c)
DAV:   1    -0.191610855320E+03   -0.73488E-01   -0.52857E+00  8160   0.486E+00    0.639E-01
DAV:   2    -0.191663206712E+03   -0.52351E-01   -0.28026E-01 13440   0.274E+00    0.205E+00
DAV:   3    -0.191622156846E+03    0.41050E-01   -0.98040E-02 12520   0.206E+00    0.458E-01
DAV:   4    -0.191625077051E+03   -0.29202E-02   -0.21507E-02 10280   0.918E-01    0.765E-01
DAV:   5    -0.191619160210E+03    0.59168E-02   -0.13258E-02 11120   0.742E-01    0.231E-01
DAV:   6    -0.191619902041E+03   -0.74183E-03   -0.52921E-03 11120   0.387E-01    0.382E-01
DAV:   7    -0.191618947752E+03    0.95429E-03   -0.46461E-03 11200   0.440E-01    0.217E-01
DAV:   8    -0.191618446392E+03    0.50136E-03   -0.10006E-03  9880   0.174E-01    0.337E-02
DAV:   9    -0.191618456428E+03   -0.10036E-04   -0.97899E-05  6400   0.345E-02
   6 F= -.19161846E+03 E0= -.19150693E+03  d E =-.811202E-01
       N       E                     dE             d eps       ncg     rms          rms(c)
DAV:   1    -0.191691766620E+03   -0.73320E-01   -0.53737E+00  8160   0.488E+00    0.541E-01
DAV:   2    -0.191726359376E+03   -0.34593E-01   -0.17941E-01 13040   0.190E+00    0.170E+00
DAV:   3    -0.191699049836E+03    0.27310E-01   -0.78494E-02 12480   0.178E+00    0.493E-01
DAV:   4    -0.191699618830E+03   -0.56899E-03   -0.15615E-02 11000   0.749E-01    0.563E-01
DAV:   5    -0.191696376186E+03    0.32426E-02   -0.79682E-03 11160   0.606E-01    0.202E-01
DAV:   6    -0.191696437658E+03   -0.61472E-04   -0.30439E-03 11440   0.290E-01    0.257E-01
DAV:   7    -0.191696444415E+03   -0.67573E-05   -0.34485E-03 10560   0.377E-01    0.264E-01
DAV:   8    -0.191695760861E+03    0.68355E-03   -0.12358E-03  9200   0.212E-01    0.282E-02
DAV:   9    -0.191695785201E+03   -0.24340E-04   -0.85866E-05  5960   0.331E-02
   7 F= -.19169579E+03 E0= -.19158440E+03  d E =-.773288E-01
       N       E                     dE             d eps       ncg     rms          rms(c)
DAV:   1    -0.191763544914E+03   -0.67784E-01   -0.43802E+00  8160   0.444E+00    0.547E-01
DAV:   2    -0.191807055954E+03   -0.43511E-01   -0.19227E-01 11720   0.233E+00    0.204E+00
DAV:   3    -0.191769322963E+03    0.37733E-01   -0.93578E-02 12440   0.192E+00    0.396E-01
DAV:   4    -0.191770746232E+03   -0.14233E-02   -0.13402E-02 11440   0.743E-01    0.565E-01
DAV:   5    -0.191767480630E+03    0.32656E-02   -0.82353E-03 11080   0.609E-01    0.230E-01
DAV:   6    -0.191768176335E+03   -0.69571E-03   -0.45106E-03 11720   0.404E-01    0.385E-01
DAV:   7    -0.191767121994E+03    0.10543E-02   -0.36586E-03 11280   0.395E-01    0.148E-01
DAV:   8    -0.191766808552E+03    0.31344E-03   -0.61522E-04  9760   0.121E-01    0.211E-02
DAV:   9    -0.191766821138E+03   -0.12586E-04   -0.65711E-05  6840   0.259E-02
   8 F= -.19176682E+03 E0= -.19165676E+03  d E =-.710359E-01
       N       E                     dE             d eps       ncg     rms          rms(c)
DAV:   1    -0.191905442484E+03   -0.13863E+00   -0.34590E+01  8160   0.125E+01    0.144E+00
DAV:   2    -0.192195241635E+03   -0.28980E+00   -0.13613E+00 11440   0.577E+00    0.540E+00
DAV:   3    -0.191960544589E+03    0.23470E+00   -0.72763E-01 12320   0.516E+00    0.112E+00
DAV:   4    -0.191973400753E+03   -0.12856E-01   -0.95719E-02 12200   0.202E+00    0.178E+00
DAV:   5    -0.191943293107E+03    0.30108E-01   -0.67457E-02 11360   0.173E+00    0.654E-01
DAV:   6    -0.191944674260E+03   -0.13812E-02   -0.22990E-02 11800   0.102E+00    0.790E-01
DAV:   7    -0.191939982991E+03    0.46913E-02   -0.19560E-02 11720   0.104E+00    0.385E-01
DAV:   8    -0.191937510936E+03    0.24721E-02   -0.39850E-03 11160   0.360E-01    0.616E-02
DAV:   9    -0.191937539939E+03   -0.29003E-04   -0.56738E-04 10200   0.724E-02
   9 F= -.19193754E+03 E0= -.19183379E+03  d E =-.170719E+00
       N       E                     dE             d eps       ncg     rms          rms(c)
DAV:   1    -0.191975541267E+03   -0.38030E-01   -0.23689E+00  8160   0.331E+00    0.480E-01
DAV:   2    -0.191994693084E+03   -0.19152E-01   -0.11753E-01 12200   0.164E+00    0.136E+00
DAV:   3    -0.191978698006E+03    0.15995E-01   -0.44469E-02 12320   0.140E+00    0.388E-01
DAV:   4    -0.191979470134E+03   -0.77213E-03   -0.96589E-03 12240   0.676E-01    0.538E-01
DAV:   5    -0.191977075517E+03    0.23946E-02   -0.81948E-03 11200   0.628E-01    0.305E-01
DAV:   6    -0.191977388013E+03   -0.31250E-03   -0.40494E-03 11520   0.442E-01    0.354E-01
DAV:   7    -0.191976193913E+03    0.11941E-02   -0.24165E-03 10920   0.357E-01    0.683E-02
DAV:   8    -0.191976131354E+03    0.62559E-04   -0.16709E-04  6160   0.659E-02
  10 F= -.19197613E+03 E0= -.19187338E+03  d E =-.385914E-01
       N       E                     dE             d eps       ncg     rms          rms(c)
DAV:   1    -0.192031247515E+03   -0.55054E-01   -0.89069E+00  8160   0.629E+00    0.689E-01
DAV:   2    -0.192087633685E+03   -0.56386E-01   -0.29683E-01 11760   0.254E+00    0.222E+00
DAV:   3    -0.192045222627E+03    0.42411E-01   -0.11219E-01 12320   0.223E+00    0.556E-01
DAV:   4    -0.192048546623E+03   -0.33240E-02   -0.18994E-02 11240   0.910E-01    0.882E-01
DAV:   5    -0.192041563223E+03    0.69834E-02   -0.14111E-02 10840   0.841E-01    0.284E-01
DAV:   6    -0.192041543207E+03    0.20015E-04   -0.36912E-03 12160   0.333E-01    0.237E-01
DAV:   7    -0.192041103703E+03    0.43950E-03   -0.25608E-03 11880   0.389E-01    0.178E-01
DAV:   8    -0.192040687664E+03    0.41604E-03   -0.70055E-04  9600   0.193E-01    0.300E-02
DAV:   9    -0.192040688638E+03   -0.97406E-06   -0.10084E-04  6800   0.374E-02
  11 F= -.19204069E+03 E0= -.19194069E+03  d E =-.645573E-01
       N       E                     dE             d eps       ncg     rms          rms(c)
DAV:   1    -0.192054908557E+03   -0.14221E-01   -0.60494E-01  8160   0.165E+00    0.173E-01
DAV:   2    -0.192055862360E+03   -0.95380E-03   -0.15167E-02 13320   0.426E-01    0.216E-01
DAV:   3    -0.192055761269E+03    0.10109E-03   -0.25754E-03 12280   0.370E-01    0.209E-01
DAV:   4    -0.192055449539E+03    0.31173E-03   -0.13931E-03  9960   0.248E-01    0.163E-01
DAV:   5    -0.192055379802E+03    0.69737E-04   -0.10511E-03  9120   0.227E-01    0.146E-01
DAV:   6    -0.192055222948E+03    0.15685E-03   -0.55932E-04  8720   0.151E-01    0.721E-02
DAV:   7    -0.192055230743E+03   -0.77946E-05   -0.25181E-04  8360   0.122E-01
  12 F= -.19205523E+03 E0= -.19195563E+03  d E =-.145421E-01
       N       E                     dE             d eps       ncg     rms          rms(c)
DAV:   1    -0.192057596628E+03   -0.23737E-02   -0.12304E-02  8160   0.247E-01    0.285E-02
DAV:   2    -0.192057657533E+03   -0.60905E-04   -0.36798E-04  9920   0.797E-02
  13 F= -.19205766E+03 E0= -.19195803E+03  d E =-.242679E-02
       N       E                     dE             d eps       ncg     rms          rms(c)
DAV:   1    -0.192086131584E+03   -0.28535E-01   -0.19561E+00  8160   0.293E+00    0.290E-01
DAV:   2    -0.192092241154E+03   -0.61096E-02   -0.50582E-02 11520   0.816E-01    0.627E-01
DAV:   3    -0.192089288714E+03    0.29524E-02   -0.12168E-02 12440   0.760E-01    0.316E-01
DAV:   4    -0.192089073852E+03    0.21486E-03   -0.31348E-03 11480   0.376E-01    0.301E-01
DAV:   5    -0.192088369860E+03    0.70399E-03   -0.22742E-03  9920   0.347E-01    0.167E-01
DAV:   6    -0.192088604708E+03   -0.23485E-03   -0.12619E-03 10360   0.258E-01    0.207E-01
DAV:   7    -0.192088164197E+03    0.44051E-03   -0.84739E-04 10040   0.234E-01    0.503E-02
DAV:   8    -0.192088126907E+03    0.37290E-04   -0.78555E-05  5920   0.528E-02
  14 F= -.19208813E+03 E0= -.19199021E+03  d E =-.304694E-01
       N       E                     dE             d eps       ncg     rms          rms(c)
DAV:   1    -0.192079862136E+03    0.83021E-02   -0.17547E-01  8160   0.895E-01    0.117E-01
DAV:   2    -0.192080340244E+03   -0.47811E-03   -0.68100E-03 11480   0.279E-01    0.189E-01
DAV:   3    -0.192080352171E+03   -0.11927E-04   -0.19192E-03 10400   0.292E-01    0.208E-01
DAV:   4    -0.192079934400E+03    0.41777E-03   -0.66923E-04  8160   0.170E-01    0.479E-02
DAV:   5    -0.192079996314E+03   -0.61914E-04   -0.25817E-04  7040   0.120E-01
  15 F= -.19208000E+03 E0= -.19198158E+03  d E =0.813059E-02
       N       E                     dE             d eps       ncg     rms          rms(c)
DAV:   1    -0.192110486004E+03   -0.30552E-01   -0.20144E+00  8160   0.301E+00    0.311E-01
DAV:   2    -0.192115780168E+03   -0.52942E-02   -0.50641E-02 11600   0.867E-01    0.602E-01
DAV:   3    -0.192113098076E+03    0.26821E-02   -0.11354E-02 12560   0.783E-01    0.320E-01
DAV:   4    -0.192111967502E+03    0.11306E-02   -0.24107E-03 11400   0.314E-01    0.124E-01
DAV:   5    -0.192112045521E+03   -0.78020E-04   -0.14291E-03 11960   0.224E-01    0.187E-01
DAV:   6    -0.192111967179E+03    0.78342E-04   -0.14530E-03 10240   0.278E-01    0.171E-01
DAV:   7    -0.192111790083E+03    0.17710E-03   -0.69210E-04  8320   0.182E-01    0.108E-01
DAV:   8    -0.192111671231E+03    0.11885E-03   -0.18327E-04  6440   0.110E-01    0.180E-02
DAV:   9    -0.192111673169E+03   -0.19375E-05   -0.28980E-05  6800   0.241E-02
  16 F= -.19211167E+03 E0= -.19201486E+03  d E =-.316769E-01
       N       E                     dE             d eps       ncg     rms          rms(c)
DAV:   1    -0.192137222558E+03   -0.25551E-01   -0.13256E+00  8160   0.243E+00    0.230E-01
DAV:   2    -0.192139403818E+03   -0.21813E-02   -0.32805E-02 11800   0.523E-01    0.219E-01
DAV:   3    -0.192140404514E+03   -0.10007E-02   -0.47241E-03 12200   0.488E-01    0.402E-01
DAV:   4    -0.192139049219E+03    0.13553E-02   -0.29550E-03 10160   0.395E-01    0.184E-01
DAV:   5    -0.192138919714E+03    0.12951E-03   -0.11223E-03  9600   0.249E-01    0.150E-01
DAV:   6    -0.192138800548E+03    0.11917E-03   -0.74433E-04 10400   0.183E-01    0.890E-02
DAV:   7    -0.192138785584E+03    0.14964E-04   -0.38215E-04  8760   0.153E-01
  17 F= -.19213879E+03 E0= -.19204338E+03  d E =-.271124E-01
       N       E                     dE             d eps       ncg     rms          rms(c)
DAV:   1    -0.192133282320E+03    0.55182E-02   -0.55686E-02  8160   0.520E-01    0.680E-02
DAV:   2    -0.192133617318E+03   -0.33500E-03   -0.23154E-03 11480   0.216E-01    0.161E-01
DAV:   3    -0.192133365127E+03    0.25219E-03   -0.58391E-04  8800   0.187E-01    0.643E-02
DAV:   4    -0.192133398815E+03   -0.33688E-04   -0.20534E-04  6680   0.107E-01
  18 F= -.19213340E+03 E0= -.19203762E+03  d E =0.538677E-02
       N       E                     dE             d eps       ncg     rms          rms(c)
DAV:   1    -0.192116873683E+03    0.16491E-01   -0.53588E-01  8160   0.157E+00    0.176E-01
DAV:   2    -0.192118820443E+03   -0.19468E-02   -0.15684E-02 12520   0.510E-01    0.391E-01
DAV:   3    -0.192117697376E+03    0.11231E-02   -0.42071E-03 11720   0.448E-01    0.188E-01
DAV:   4    -0.192117676051E+03    0.21325E-04   -0.11467E-03  9840   0.230E-01    0.195E-01
DAV:   5    -0.192117364950E+03    0.31110E-03   -0.81183E-04  8840   0.228E-01    0.943E-02
DAV:   6    -0.192117372127E+03   -0.71773E-05   -0.36773E-04  8560   0.116E-01
  19 F= -.19211737E+03 E0= -.19202081E+03  d E =0.160267E-01
       N       E                     dE             d eps       ncg     rms          rms(c)
DAV:   1    -0.192142348757E+03   -0.24984E-01   -0.16576E+00  8160   0.271E+00    0.250E-01
DAV:   2    -0.192144974196E+03   -0.26254E-02   -0.41467E-02 11880   0.573E-01    0.194E-01
DAV:   3    -0.192146031621E+03   -0.10574E-02   -0.48915E-03 11200   0.458E-01    0.414E-01
DAV:   4    -0.192144508283E+03    0.15233E-02   -0.29199E-03 10360   0.406E-01    0.152E-01
DAV:   5    -0.192144653902E+03   -0.14562E-03   -0.13072E-03  9680   0.239E-01    0.205E-01
DAV:   6    -0.192144348713E+03    0.30519E-03   -0.11157E-03 10160   0.242E-01    0.998E-02
DAV:   7    -0.192144314973E+03    0.33739E-04   -0.40083E-04  8480   0.146E-01
  20 F= -.19214431E+03 E0= -.19204893E+03  d E =-.269428E-01
       N       E                     dE             d eps       ncg     rms          rms(c)
DAV:   1    -0.192155214712E+03   -0.10866E-01   -0.22872E-01  8160   0.105E+00    0.131E-01
DAV:   2    -0.192155603390E+03   -0.38868E-03   -0.67735E-03 11640   0.251E-01    0.167E-01
DAV:   3    -0.192155808976E+03   -0.20559E-03   -0.18884E-03 11000   0.300E-01    0.240E-01
DAV:   4    -0.192155319517E+03    0.48946E-03   -0.91997E-04  8640   0.208E-01    0.759E-02
DAV:   5    -0.192155342887E+03   -0.23370E-04   -0.33104E-04  8120   0.136E-01
  21 F= -.19215534E+03 E0= -.19206114E+03  d E =-.110279E-01
       N       E                     dE             d eps       ncg     rms          rms(c)
DAV:   1    -0.192126093100E+03    0.29226E-01   -0.15362E+00  8160   0.266E+00    0.286E-01
DAV:   2    -0.192130767806E+03   -0.46747E-02   -0.41959E-02 12160   0.734E-01    0.574E-01
DAV:   3    -0.192128646820E+03    0.21210E-02   -0.96667E-03 12120   0.707E-01    0.354E-01
DAV:   4    -0.192128022610E+03    0.62421E-03   -0.35288E-03 10960   0.377E-01    0.255E-01
DAV:   5    -0.192127647795E+03    0.37482E-03   -0.22341E-03  9600   0.353E-01    0.195E-01
DAV:   6    -0.192127350012E+03    0.29778E-03   -0.10926E-03 10080   0.222E-01    0.896E-02
DAV:   7    -0.192127365579E+03   -0.15566E-04   -0.48029E-04  9160   0.164E-01
  22 F= -.19212737E+03 E0= -.19203105E+03  d E =0.279773E-01
       N       E                     dE             d eps       ncg     rms          rms(c)
DAV:   1    -0.192122428822E+03    0.49212E-02   -0.11183E+00  8160   0.229E+00    0.285E-01
DAV:   2    -0.192124233992E+03   -0.18052E-02   -0.25639E-02 12480   0.574E-01    0.441E-01
DAV:   3    -0.192124074956E+03    0.15904E-03   -0.97588E-03 11360   0.661E-01    0.434E-01
DAV:   4    -0.192122701142E+03    0.13738E-02   -0.39675E-03 11440   0.407E-01    0.223E-01
DAV:   5    -0.192122457707E+03    0.24343E-03   -0.19190E-03 10040   0.332E-01    0.197E-01
DAV:   6    -0.192122184182E+03    0.27353E-03   -0.10252E-03 10000   0.229E-01    0.102E-01
DAV:   7    -0.192122141236E+03    0.42945E-04   -0.44033E-04  9160   0.167E-01
  23 F= -.19212214E+03 E0= -.19202470E+03  d E =0.522434E-02
       N       E                     dE             d eps       ncg     rms          rms(c)
DAV:   1    -0.192154325606E+03   -0.32141E-01   -0.27988E+00  8160   0.363E+00    0.426E-01
DAV:   2    -0.192158861544E+03   -0.45359E-02   -0.81769E-02 11720   0.909E-01    0.507E-01
DAV:   3    -0.192160302498E+03   -0.14410E-02   -0.15552E-02 12000   0.938E-01    0.635E-01
DAV:   4    -0.192156475062E+03    0.38274E-02   -0.79286E-03 11800   0.659E-01    0.320E-01
DAV:   5    -0.192156611105E+03   -0.13604E-03   -0.48872E-03 10160   0.494E-01    0.365E-01
DAV:   6    -0.192155736211E+03    0.87489E-03   -0.34777E-03 11080   0.392E-01    0.192E-01
DAV:   7    -0.192155491798E+03    0.24441E-03   -0.12726E-03  9840   0.279E-01    0.122E-01
DAV:   8    -0.192155294089E+03    0.19771E-03   -0.29535E-04  8680   0.129E-01    0.237E-02
DAV:   9    -0.192155287090E+03    0.69984E-05   -0.39954E-05  6440   0.258E-02
  24 F= -.19215529E+03 E0= -.19205952E+03  d E =-.331459E-01
       N       E                     dE             d eps       ncg     rms          rms(c)
DAV:   1    -0.192174093523E+03   -0.18799E-01   -0.95576E-01  8160   0.207E+00    0.201E-01
DAV:   2    -0.192176206187E+03   -0.21127E-02   -0.25487E-02 11200   0.494E-01    0.295E-01
DAV:   3    -0.192176293815E+03   -0.87628E-04   -0.42165E-03 12520   0.463E-01    0.316E-01
DAV:   4    -0.192175423576E+03    0.87024E-03   -0.16713E-03  9760   0.277E-01    0.122E-01
DAV:   5    -0.192175489486E+03   -0.65910E-04   -0.81257E-04  9400   0.216E-01
  25 F= -.19217549E+03 E0= -.19208010E+03  d E =-.202024E-01
       N       E                     dE             d eps       ncg     rms          rms(c)
DAV:   1    -0.192179621868E+03   -0.41983E-02   -0.10193E-01  8160   0.736E-01    0.139E-01
DAV:   2    -0.192181056201E+03   -0.14343E-02   -0.57827E-03 11240   0.519E-01    0.370E-01
DAV:   3    -0.192179442701E+03    0.16135E-02   -0.23562E-03 10360   0.417E-01    0.894E-02
DAV:   4    -0.192179520350E+03   -0.77649E-04   -0.54858E-04  8360   0.168E-01
  26 F= -.19217952E+03 E0= -.19208502E+03  d E =-.403086E-02
       N       E                     dE             d eps       ncg     rms          rms(c)
DAV:   1    -0.192201250933E+03   -0.21808E-01   -0.16188E+00  8160   0.277E+00    0.418E-01
DAV:   2    -0.192208070532E+03   -0.68196E-02   -0.65322E-02 12400   0.126E+00    0.819E-01
DAV:   3    -0.192201236681E+03    0.68339E-02   -0.16799E-02 12200   0.104E+00    0.282E-01
DAV:   4    -0.192200631504E+03    0.60518E-03   -0.40364E-03 12240   0.403E-01    0.316E-01
DAV:   5    -0.192200220325E+03    0.41118E-03   -0.36478E-03 11960   0.497E-01    0.279E-01
DAV:   6    -0.192199569478E+03    0.65085E-03   -0.19358E-03 11120   0.294E-01    0.142E-01
DAV:   7    -0.192199547435E+03    0.22043E-04   -0.95887E-04  9000   0.219E-01
  27 F= -.19219955E+03 E0= -.19210504E+03  d E =-.200271E-01
       N       E                     dE             d eps       ncg     rms          rms(c)
DAV:   1    -0.192220679138E+03   -0.21110E-01   -0.10321E+00  8160   0.218E+00    0.279E-01
DAV:   2    -0.192224979694E+03   -0.43006E-02   -0.36876E-02 11480   0.842E-01    0.588E-01
DAV:   3    -0.192222385989E+03    0.25937E-02   -0.90081E-03 12280   0.703E-01    0.311E-01
DAV:   4    -0.192222197546E+03    0.18844E-03   -0.32808E-03 11280   0.427E-01    0.292E-01
DAV:   5    -0.192221431552E+03    0.76599E-03   -0.19715E-03 10040   0.361E-01    0.135E-01
DAV:   6    -0.192221264544E+03    0.16701E-03   -0.73953E-04 10280   0.148E-01    0.651E-02
DAV:   7    -0.192221301030E+03   -0.36487E-04   -0.31507E-04  9360   0.141E-01
  28 F= -.19222130E+03 E0= -.19212939E+03  d E =-.217536E-01
       N       E                     dE             d eps       ncg     rms          rms(c)
DAV:   1    -0.192237787083E+03   -0.16523E-01   -0.60797E-01  8160   0.168E+00    0.194E-01
DAV:   2    -0.192239684474E+03   -0.18974E-02   -0.19594E-02 11240   0.481E-01    0.344E-01
DAV:   3    -0.192239182000E+03    0.50247E-03   -0.41991E-03 12360   0.469E-01    0.266E-01
DAV:   4    -0.192238545595E+03    0.63641E-03   -0.12520E-03  9640   0.233E-01    0.871E-02
DAV:   5    -0.192238518741E+03    0.26854E-04   -0.46395E-04  9800   0.148E-01
  29 F= -.19223852E+03 E0= -.19214787E+03  d E =-.172177E-01
       N       E                     dE             d eps       ncg     rms          rms(c)
DAV:   1    -0.192228504863E+03    0.10041E-01   -0.19193E-01  8160   0.949E-01    0.125E-01
DAV:   2    -0.192230537207E+03   -0.20323E-02   -0.82459E-03 11360   0.462E-01    0.399E-01
DAV:   3    -0.192228817217E+03    0.17200E-02   -0.27949E-03 10640   0.415E-01    0.114E-01
DAV:   4    -0.192228832525E+03   -0.15309E-04   -0.57817E-04  8280   0.164E-01
  30 F= -.19222883E+03 E0= -.19213668E+03  d E =0.968622E-02
       N       E                     dE             d eps       ncg     rms          rms(c)
DAV:   1    -0.192257578486E+03   -0.28761E-01   -0.19163E+00  8160   0.298E+00    0.338E-01
DAV:   2    -0.192263302234E+03   -0.57237E-02   -0.63411E-02 11520   0.885E-01    0.582E-01
DAV:   3    -0.192262019223E+03    0.12830E-02   -0.12117E-02 12280   0.815E-01    0.455E-01
DAV:   4    -0.192260052309E+03    0.19669E-02   -0.36706E-03 11240   0.429E-01    0.180E-01
DAV:   5    -0.192260150638E+03   -0.98330E-04   -0.17445E-03 10600   0.351E-01    0.212E-01
DAV:   6    -0.192259669679E+03    0.48096E-03   -0.12001E-03 11400   0.249E-01    0.612E-02
DAV:   7    -0.192259593307E+03    0.76372E-04   -0.17288E-04  6720   0.656E-02
  31 F= -.19225959E+03 E0= -.19216997E+03  d E =-.307608E-01
       N       E                     dE             d eps       ncg     rms          rms(c)
DAV:   1    -0.192273451771E+03   -0.13782E-01   -0.38755E-01  8160   0.134E+00    0.166E-01
DAV:   2    -0.192274971658E+03   -0.15199E-02   -0.13199E-02 11360   0.480E-01    0.328E-01
DAV:   3    -0.192274187478E+03    0.78418E-03   -0.29337E-03 12280   0.420E-01    0.187E-01
DAV:   4    -0.192274137411E+03    0.50067E-04   -0.10808E-03  9640   0.253E-01    0.172E-01
DAV:   5    -0.192273848718E+03    0.28869E-03   -0.62115E-04  8360   0.211E-01    0.720E-02
DAV:   6    -0.192273824280E+03    0.24438E-04   -0.20131E-04  7120   0.800E-02
  32 F= -.19227382E+03 E0= -.19218557E+03  d E =-.142310E-01
       N       E                     dE             d eps       ncg     rms          rms(c)
DAV:   1    -0.192296596977E+03   -0.22748E-01   -0.10672E+00  8160   0.222E+00    0.270E-01
DAV:   2    -0.192301545776E+03   -0.49488E-02   -0.35182E-02 11160   0.787E-01    0.591E-01
DAV:   3    -0.192298376283E+03    0.31695E-02   -0.84224E-03 11760   0.716E-01    0.259E-01
DAV:   4    -0.192298360574E+03    0.15709E-04   -0.23727E-03 11240   0.363E-01    0.269E-01
DAV:   5    -0.192297692486E+03    0.66809E-03   -0.14555E-03 10160   0.315E-01    0.121E-01
DAV:   6    -0.192297736597E+03   -0.44111E-04   -0.64199E-04 10040   0.192E-01
  33 F= -.19229774E+03 E0= -.19221157E+03  d E =-.239123E-01
       N       E                     dE             d eps       ncg     rms          rms(c)
DAV:   1    -0.192301330980E+03   -0.36385E-02   -0.26657E-02  8160   0.429E-01    0.108E-01
DAV:   2    -0.192302886924E+03   -0.15559E-02   -0.36287E-03 12400   0.448E-01    0.375E-01
DAV:   3    -0.192301242498E+03    0.16444E-02   -0.19722E-03  9920   0.395E-01    0.771E-02
DAV:   4    -0.192301271669E+03   -0.29171E-04   -0.26163E-04  8080   0.121E-01
  34 F= -.19230127E+03 E0= -.19221531E+03  d E =-.353507E-02
       N       E                     dE             d eps       ncg     rms          rms(c)
DAV:   1    -0.192327003655E+03   -0.25761E-01   -0.13412E+00  8160   0.249E+00    0.326E-01
DAV:   2    -0.192336667046E+03   -0.96634E-02   -0.48002E-02 11360   0.110E+00    0.888E-01
DAV:   3    -0.192328558428E+03    0.81086E-02   -0.14233E-02 11720   0.973E-01    0.230E-01
DAV:   4    -0.192328770877E+03   -0.21245E-03   -0.23606E-03 11360   0.350E-01    0.302E-01
DAV:   5    -0.192327944494E+03    0.82638E-03   -0.17287E-03 10280   0.350E-01    0.127E-01
DAV:   6    -0.192327991693E+03   -0.47199E-04   -0.67927E-04 10080   0.190E-01
  35 F= -.19232799E+03 E0= -.19224437E+03  d E =-.267200E-01
       N       E                     dE             d eps       ncg     rms          rms(c)
DAV:   1    -0.192355080879E+03   -0.27136E-01   -0.15014E+00  8160   0.265E+00    0.342E-01
DAV:   2    -0.192364070549E+03   -0.89897E-02   -0.50876E-02 11160   0.108E+00    0.814E-01
DAV:   3    -0.192357064297E+03    0.70063E-02   -0.13273E-02 11720   0.952E-01    0.272E-01
DAV:   4    -0.192357733189E+03   -0.66889E-03   -0.38242E-03 11480   0.491E-01    0.381E-01
DAV:   5    -0.192356214472E+03    0.15187E-02   -0.23678E-03 11080   0.415E-01    0.113E-01
DAV:   6    -0.192356349115E+03   -0.13464E-03   -0.81143E-04 10120   0.194E-01    0.144E-01
DAV:   7    -0.192356230268E+03    0.11885E-03   -0.65430E-04  9720   0.226E-01    0.108E-01
DAV:   8    -0.192356078938E+03    0.15133E-03   -0.19000E-04  7520   0.106E-01    0.121E-02
DAV:   9    -0.192356085019E+03   -0.60812E-05   -0.30097E-05  6640   0.192E-02
  36 F= -.19235609E+03 E0= -.19227450E+03  d E =-.280933E-01
       N       E                     dE             d eps       ncg     rms          rms(c)
DAV:   1    -0.192369717556E+03   -0.13639E-01   -0.36350E-01  8160   0.130E+00    0.168E-01
DAV:   2    -0.192371667218E+03   -0.19497E-02   -0.12079E-02 11040   0.508E-01    0.391E-01
DAV:   3    -0.192370188186E+03    0.14790E-02   -0.34343E-03 11920   0.475E-01    0.152E-01
DAV:   4    -0.192370136206E+03    0.51980E-04   -0.79812E-04  9560   0.204E-01
  37 F= -.19237014E+03 E0= -.19228933E+03  d E =-.140512E-01
       N       E                     dE             d eps       ncg     rms          rms(c)
DAV:   1    -0.192351370824E+03    0.18817E-01   -0.77333E-01  8160   0.195E+00    0.286E-01
DAV:   2    -0.192356884284E+03   -0.55135E-02   -0.28758E-02 12360   0.873E-01    0.716E-01
DAV:   3    -0.192351755022E+03    0.51293E-02   -0.10774E-02 11720   0.869E-01    0.244E-01
DAV:   4    -0.192351632718E+03    0.12230E-03   -0.20780E-03 10960   0.333E-01    0.249E-01
DAV:   5    -0.192351061499E+03    0.57122E-03   -0.13900E-03 10240   0.316E-01    0.125E-01
DAV:   6    -0.192351035974E+03    0.25526E-04   -0.61504E-04  9040   0.185E-01
  38 F= -.19235104E+03 E0= -.19226942E+03  d E =0.191002E-01
       N       E                     dE             d eps       ncg     rms          rms(c)
DAV:   1    -0.192399312284E+03   -0.48251E-01   -0.45312E+00  8160   0.467E+00    0.632E-01
DAV:   2    -0.192411655275E+03   -0.12343E-01   -0.14159E-01 11040   0.147E+00    0.101E+00
DAV:   3    -0.192405119814E+03    0.65355E-02   -0.40477E-02 12200   0.162E+00    0.760E-01
DAV:   4    -0.192399386363E+03    0.57335E-02   -0.13061E-02 12240   0.828E-01    0.331E-01
DAV:   5    -0.192399439781E+03   -0.53418E-04   -0.67764E-03 11880   0.625E-01    0.446E-01
DAV:   6    -0.192397818294E+03    0.16215E-02   -0.45543E-03 11160   0.553E-01    0.212E-01
DAV:   7    -0.192397425978E+03    0.39232E-03   -0.13405E-03 11040   0.268E-01    0.119E-01
DAV:   8    -0.192397305479E+03    0.12050E-03   -0.41843E-04  9440   0.180E-01    0.681E-02
DAV:   9    -0.192397239442E+03    0.66036E-04   -0.87046E-05  6800   0.701E-02
  39 F= -.19239724E+03 E0= -.19231796E+03  d E =-.462035E-01
       N       E                     dE             d eps       ncg     rms          rms(c)
DAV:   1    -0.192407150347E+03   -0.98449E-02   -0.21779E-01  8160   0.103E+00    0.189E-01
DAV:   2    -0.192409162919E+03   -0.20126E-02   -0.11946E-02 10240   0.635E-01    0.454E-01
DAV:   3    -0.192406980846E+03    0.21821E-02   -0.38476E-03 11720   0.525E-01    0.137E-01
DAV:   4    -0.192407075201E+03   -0.94355E-04   -0.10916E-03  9600   0.264E-01    0.187E-01
DAV:   5    -0.192406763942E+03    0.31126E-03   -0.83666E-04  9600   0.246E-01    0.971E-02
DAV:   6    -0.192406686627E+03    0.77314E-04   -0.33672E-04  8520   0.115E-01
  40 F= -.19240669E+03 E0= -.19232825E+03  d E =-.944719E-02
       N       E                     dE             d eps       ncg     rms          rms(c)
DAV:   1    -0.192430357435E+03   -0.23593E-01   -0.13868E+00  8160   0.254E+00    0.331E-01
DAV:   2    -0.192438217137E+03   -0.78597E-02   -0.46040E-02 11400   0.104E+00    0.770E-01
DAV:   3    -0.192431985316E+03    0.62318E-02   -0.12654E-02 11680   0.940E-01    0.271E-01
DAV:   4    -0.192431954153E+03    0.31162E-04   -0.29852E-03 11520   0.405E-01    0.278E-01
DAV:   5    -0.192431163521E+03    0.79063E-03   -0.17934E-03 10280   0.363E-01    0.134E-01
DAV:   6    -0.192431110274E+03    0.53247E-04   -0.72736E-04 10240   0.190E-01
  41 F= -.19243111E+03 E0= -.19235386E+03  d E =-.244236E-01
       N       E                     dE             d eps       ncg     rms          rms(c)
DAV:   1    -0.192474209012E+03   -0.43045E-01   -0.31311E+01  8360   0.124E+01    0.143E+00
DAV:   2    -0.192584718715E+03   -0.11051E+00   -0.10014E+00 11640   0.391E+00    0.243E+00
DAV:   3    -0.192526058209E+03    0.58661E-01   -0.19625E-01 12160   0.360E+00    0.133E+00
DAV:   4    -0.192512277161E+03    0.13781E-01   -0.56273E-02 12440   0.179E+00    0.933E-01
DAV:   5    -0.192505124496E+03    0.71527E-02   -0.29515E-02 11600   0.152E+00    0.682E-01
DAV:   6    -0.192500975156E+03    0.41493E-02   -0.15252E-02 12120   0.894E-01    0.344E-01
DAV:   7    -0.192498952891E+03    0.20223E-02   -0.49053E-03 11680   0.374E-01    0.162E-01
DAV:   8    -0.192498873985E+03    0.78906E-04   -0.13798E-03 11040   0.287E-01    0.157E-01
DAV:   9    -0.192498608909E+03    0.26508E-03   -0.46735E-04  9640   0.162E-01    0.455E-02
DAV:  10    -0.192498566208E+03    0.42700E-04   -0.14820E-04  6520   0.447E-02
  42 F= -.19249857E+03 E0= -.19242410E+03  d E =-.674559E-01
       N       E                     dE             d eps       ncg     rms          rms(c)
DAV:   1    -0.192499058088E+03   -0.44918E-03   -0.10860E+00  8160   0.225E+00    0.349E-01
DAV:   2    -0.192513515829E+03   -0.14458E-01   -0.45743E-02 11920   0.144E+00    0.115E+00
DAV:   3    -0.192499167379E+03    0.14348E-01   -0.21943E-02 11800   0.127E+00    0.191E-01
DAV:   4    -0.192499339735E+03   -0.17236E-03   -0.22709E-03 11400   0.320E-01    0.250E-01
DAV:   5    -0.192498714427E+03    0.62531E-03   -0.16730E-03 10280   0.337E-01    0.135E-01
DAV:   6    -0.192498626139E+03    0.88288E-04   -0.66141E-04 10400   0.187E-01
  43 F= -.19249863E+03 E0= -.19242406E+03  d E =-.599307E-04
       N       E                     dE             d eps       ncg     rms          rms(c)
DAV:   1    -0.192504314422E+03   -0.56000E-02   -0.24630E+00  8160   0.336E+00    0.409E-01
DAV:   2    -0.192514739472E+03   -0.10425E-01   -0.86943E-02 11160   0.119E+00    0.772E-01
DAV:   3    -0.192509152521E+03    0.55870E-02   -0.21343E-02 12200   0.117E+00    0.424E-01
DAV:   4    -0.192507352369E+03    0.18002E-02   -0.47449E-03 11520   0.493E-01    0.194E-01
DAV:   5    -0.192506969577E+03    0.38279E-03   -0.17560E-03 12120   0.333E-01    0.173E-01
DAV:   6    -0.192506817083E+03    0.15249E-03   -0.12240E-03 10560   0.289E-01    0.128E-01
DAV:   7    -0.192506614203E+03    0.20288E-03   -0.50865E-04  9880   0.141E-01    0.466E-02
DAV:   8    -0.192506606348E+03    0.78550E-05   -0.97445E-05  6800   0.816E-02
  44 F= -.19250661E+03 E0= -.19243229E+03  d E =-.798021E-02
       N       E                     dE             d eps       ncg     rms          rms(c)
DAV:   1    -0.192507076101E+03   -0.46190E-03   -0.11070E-01  8160   0.726E-01    0.107E-01
DAV:   2    -0.192507744276E+03   -0.66817E-03   -0.44978E-03 12720   0.324E-01    0.237E-01
DAV:   3    -0.192507170628E+03    0.57365E-03   -0.14382E-03 11040   0.315E-01    0.944E-02
DAV:   4    -0.192507081224E+03    0.89405E-04   -0.23909E-04  7160   0.104E-01
  45 F= -.19250708E+03 E0= -.19243303E+03  d E =-.474876E-03
       N       E                     dE             d eps       ncg     rms          rms(c)
DAV:   1    -0.192507978751E+03   -0.80812E-03   -0.92313E-02  8160   0.645E-01    0.978E-02
DAV:   2    -0.192509028992E+03   -0.10502E-02   -0.53697E-03 11920   0.392E-01    0.270E-01
DAV:   3    -0.192508154915E+03    0.87408E-03   -0.13817E-03 10800   0.308E-01    0.583E-02
DAV:   4    -0.192508184236E+03   -0.29320E-04   -0.19877E-04  8120   0.115E-01
  46 F= -.19250818E+03 E0= -.19243413E+03  d E =-.110301E-02
       N       E                     dE             d eps       ncg     rms          rms(c)
DAV:   1    -0.192508605994E+03   -0.45108E-03   -0.15107E-02  8160   0.281E-01    0.473E-02
DAV:   2    -0.192508753302E+03   -0.14731E-03   -0.69795E-04 10520   0.159E-01    0.113E-01
DAV:   3    -0.192508599552E+03    0.15375E-03   -0.22652E-04  8760   0.138E-01    0.324E-02
DAV:   4    -0.192508604793E+03   -0.52406E-05   -0.51337E-05  5920   0.588E-02
  47 F= -.19250860E+03 E0= -.19243464E+03  d E =-.420557E-03
       N       E                     dE             d eps       ncg     rms          rms(c)
DAV:   1    -0.192509912346E+03   -0.13128E-02   -0.11731E-01  8160   0.773E-01    0.135E-01
DAV:   2    -0.192509937051E+03   -0.24705E-04   -0.57243E-03 11320   0.247E-01    0.129E-01
DAV:   3    -0.192510060025E+03   -0.12297E-03   -0.12489E-03 10320   0.293E-01    0.183E-01
DAV:   4    -0.192509682652E+03    0.37737E-03   -0.68214E-04  9080   0.230E-01    0.768E-02
DAV:   5    -0.192509692846E+03   -0.10194E-04   -0.34792E-04  8280   0.139E-01
  48 F= -.19250969E+03 E0= -.19243527E+03  d E =-.108805E-02
       N       E                     dE             d eps       ncg     rms          rms(c)
DAV:   1    -0.192510155411E+03   -0.47276E-03   -0.70521E-02  8160   0.567E-01    0.680E-02
DAV:   2    -0.192510366079E+03   -0.21067E-03   -0.29863E-03 13600   0.176E-01    0.707E-02
DAV:   3    -0.192510407026E+03   -0.40948E-04   -0.35352E-04  9840   0.150E-01
  49 F= -.19251041E+03 E0= -.19243615E+03  d E =-.714181E-03
