<?xml version="1.0" encoding="ISO-8859-1"?>
<modeling>
 <generator>
  <i name="program" type="string">vasp </i>
  <i name="version" type="string">5.4.1  </i>
  <i name="subversion" type="string">05Feb16 (build Jul 05 2020 17:13:04) complex                          parallel </i>
  <i name="platform" type="string">IFC91_ompi </i>
  <i name="date" type="string">2024 04 24 </i>
  <i name="time" type="string">15:35:24 </i>
 </generator>
 <incar>
  <i type="int" name="ISTART">     0</i>
  <i type="string" name="PREC">normal</i>
  <i type="string" name="ALGO"> Normal</i>
  <i type="int" name="ISPIN">     1</i>
  <i type="int" name="ICHARG">     2</i>
  <i type="int" name="IBRION">     1</i>
  <i type="int" name="NSW">   100</i>
  <i type="int" name="ISIF">     3</i>
  <i type="int" name="ISYM">     0</i>
  <i name="SYMPREC">      0.00000001</i>
  <i name="POTIM">      0.50000000</i>
  <i type="logical" name="LREAL"> F  </i>
  <i type="logical" name="LPLANE"> F  </i>
  <i type="int" name="ISMEAR">     0</i>
  <i type="logical" name="LWAVE"> F  </i>
  <i type="logical" name="LCHARG"> F  </i>
  <v type="int" name="KPOINT_BSE">    -1     0     0     0</v>
 </incar>
 <kpoints>
  <generation param="Gamma">
   <v type="int" name="divisions">       8        8        1 </v>
   <v name="usershift">      0.00000000       0.00000000       0.00000000 </v>
   <v name="genvec1">      0.12500000       0.00000000       0.00000000 </v>
   <v name="genvec2">     -0.00000000       0.12500000       0.00000000 </v>
   <v name="genvec3">      0.00000000       0.00000000       1.00000000 </v>
   <v name="shift">      0.00000000       0.00000000       0.00000000 </v>
  </generation>
  <varray name="kpointlist" >
   <v>       0.00000000       0.00000000       0.00000000 </v>
   <v>       0.12500000       0.00000000       0.00000000 </v>
   <v>       0.25000000       0.00000000       0.00000000 </v>
   <v>       0.37500000       0.00000000       0.00000000 </v>
   <v>       0.50000000       0.00000000       0.00000000 </v>
   <v>       0.00000000       0.12500000       0.00000000 </v>
   <v>       0.12500000       0.12500000       0.00000000 </v>
   <v>       0.25000000       0.12500000       0.00000000 </v>
   <v>       0.37500000       0.12500000       0.00000000 </v>
   <v>       0.50000000       0.12500000       0.00000000 </v>
   <v>      -0.37500000       0.12500000       0.00000000 </v>
   <v>      -0.25000000       0.12500000       0.00000000 </v>
   <v>      -0.12500000       0.12500000       0.00000000 </v>
   <v>       0.00000000       0.25000000       0.00000000 </v>
   <v>       0.12500000       0.25000000       0.00000000 </v>
   <v>       0.25000000       0.25000000       0.00000000 </v>
   <v>       0.37500000       0.25000000       0.00000000 </v>
   <v>       0.50000000       0.25000000       0.00000000 </v>
   <v>      -0.37500000       0.25000000       0.00000000 </v>
   <v>      -0.25000000       0.25000000       0.00000000 </v>
   <v>      -0.12500000       0.25000000       0.00000000 </v>
   <v>      -0.00000000       0.37500000       0.00000000 </v>
   <v>       0.12500000       0.37500000       0.00000000 </v>
   <v>       0.25000000       0.37500000       0.00000000 </v>
   <v>       0.37500000       0.37500000       0.00000000 </v>
   <v>       0.50000000       0.37500000       0.00000000 </v>
   <v>      -0.37500000       0.37500000       0.00000000 </v>
   <v>      -0.25000000       0.37500000       0.00000000 </v>
   <v>      -0.12500000       0.37500000       0.00000000 </v>
   <v>       0.00000000       0.50000000       0.00000000 </v>
   <v>       0.12500000       0.50000000       0.00000000 </v>
   <v>       0.25000000       0.50000000       0.00000000 </v>
   <v>       0.37500000       0.50000000       0.00000000 </v>
   <v>       0.50000000       0.50000000       0.00000000 </v>
  </varray>
  <varray name="weights" >
   <v>       0.01562500 </v>
   <v>       0.03125000 </v>
   <v>       0.03125000 </v>
   <v>       0.03125000 </v>
   <v>       0.01562500 </v>
   <v>       0.03125000 </v>
   <v>       0.03125000 </v>
   <v>       0.03125000 </v>
   <v>       0.03125000 </v>
   <v>       0.03125000 </v>
   <v>       0.03125000 </v>
   <v>       0.03125000 </v>
   <v>       0.03125000 </v>
   <v>       0.03125000 </v>
   <v>       0.03125000 </v>
   <v>       0.03125000 </v>
   <v>       0.03125000 </v>
   <v>       0.03125000 </v>
   <v>       0.03125000 </v>
   <v>       0.03125000 </v>
   <v>       0.03125000 </v>
   <v>       0.03125000 </v>
   <v>       0.03125000 </v>
   <v>       0.03125000 </v>
   <v>       0.03125000 </v>
   <v>       0.03125000 </v>
   <v>       0.03125000 </v>
   <v>       0.03125000 </v>
   <v>       0.03125000 </v>
   <v>       0.01562500 </v>
   <v>       0.03125000 </v>
   <v>       0.03125000 </v>
   <v>       0.03125000 </v>
   <v>       0.01562500 </v>
  </varray>
 </kpoints>
 <parameters>
  <separator name="general" >
   <i type="string" name="SYSTEM">unknown system</i>
   <i type="logical" name="LCOMPAT"> F  </i>
  </separator>
  <separator name="electronic" >
   <i type="string" name="PREC">normal</i>
   <i name="ENMAX">    280.00000000</i>
   <i name="ENAUG">    373.43800000</i>
   <i name="EDIFF">      0.00010000</i>
   <i type="int" name="IALGO">    38</i>
   <i type="int" name="IWAVPR">    11</i>
   <i type="int" name="NBANDS">   120</i>
   <i name="NELECT">    159.00000000</i>
   <i type="int" name="TURBO">     0</i>
   <i type="int" name="IRESTART">     0</i>
   <i type="int" name="NREBOOT">     0</i>
   <i type="int" name="NMIN">     0</i>
   <i name="EREF">      0.00000000</i>
   <separator name="electronic smearing" >
    <i type="int" name="ISMEAR">     0</i>
    <i name="SIGMA">      0.20000000</i>
    <i name="KSPACING">      0.50000000</i>
    <i type="logical" name="KGAMMA"> T  </i>
   </separator>
   <separator name="electronic projectors" >
    <i type="logical" name="LREAL"> F  </i>
    <v name="ROPT">      0.00000000      0.00000000      0.00000000      0.00000000</v>
    <i type="int" name="LMAXPAW">  -100</i>
    <i type="int" name="LMAXMIX">     2</i>
    <i type="logical" name="NLSPLINE"> F  </i>
   </separator>
   <separator name="electronic startup" >
    <i type="int" name="ISTART">     0</i>
    <i type="int" name="ICHARG">     2</i>
    <i type="int" name="INIWAV">     1</i>
   </separator>
   <separator name="electronic spin" >
    <i type="int" name="ISPIN">     1</i>
    <i type="logical" name="LNONCOLLINEAR"> F  </i>
    <v name="MAGMOM">      1.00000000      1.00000000      1.00000000      1.00000000      1.00000000      1.00000000      1.00000000      1.00000000      1.00000000      1.00000000      1.00000000      1.00000000      1.00000000      1.00000000      1.00000000      1.00000000      1.00000000      1.00000000      1.00000000      1.00000000
      1.00000000      1.00000000      1.00000000      1.00000000      1.00000000      1.00000000      1.00000000</v>
    <i name="NUPDOWN">     -1.00000000</i>
    <i type="logical" name="LSORBIT"> F  </i>
    <v name="SAXIS">      0.00000000      0.00000000      1.00000000</v>
    <i type="logical" name="LSPIRAL"> F  </i>
    <v name="QSPIRAL">      0.00000000      0.00000000      0.00000000</v>
    <i type="logical" name="LZEROZ"> F  </i>
   </separator>
   <separator name="electronic exchange-correlation" >
    <i type="logical" name="LASPH"> F  </i>
    <i type="logical" name="LMETAGGA"> F  </i>
   </separator>
   <separator name="electronic convergence" >
    <i type="int" name="NELM">    60</i>
    <i type="int" name="NELMDL">    -5</i>
    <i type="int" name="NELMIN">     2</i>
    <i name="ENINI">    280.00000000</i>
    <separator name="electronic convergence detail" >
     <i type="logical" name="LDIAG"> T  </i>
     <i type="logical" name="LSUBROT"> F  </i>
     <i name="WEIMIN">      0.00100000</i>
     <i name="EBREAK">      0.00000021</i>
     <i name="DEPER">      0.30000000</i>
     <i type="int" name="NRMM">     4</i>
     <i name="TIME">      0.40000000</i>
    </separator>
   </separator>
   <separator name="electronic mixer" >
    <i name="AMIX">      0.40000000</i>
    <i name="BMIX">      1.00000000</i>
    <i name="AMIN">      0.10000000</i>
    <i name="AMIX_MAG">      1.60000000</i>
    <i name="BMIX_MAG">      1.00000000</i>
    <separator name="electronic mixer details" >
     <i type="int" name="IMIX">     4</i>
     <i type="logical" name="MIXFIRST"> F  </i>
     <i type="int" name="MAXMIX">   -45</i>
     <i name="WC">    100.00000000</i>
     <i type="int" name="INIMIX">     1</i>
     <i type="int" name="MIXPRE">     1</i>
     <i type="int" name="MREMOVE">     5</i>
    </separator>
   </separator>
   <separator name="electronic dipolcorrection" >
    <i type="logical" name="LDIPOL"> F  </i>
    <i type="logical" name="LMONO"> F  </i>
    <i type="int" name="IDIPOL">     0</i>
    <i name="EPSILON">      1.00000000</i>
    <v name="DIPOL">   -100.00000000   -100.00000000   -100.00000000</v>
    <i name="EFIELD">      0.00000000</i>
   </separator>
  </separator>
  <separator name="grids" >
   <i type="int" name="NGX">    42</i>
   <i type="int" name="NGY">    42</i>
   <i type="int" name="NGZ">   126</i>
   <i type="int" name="NGXF">    84</i>
   <i type="int" name="NGYF">    84</i>
   <i type="int" name="NGZF">   252</i>
   <i type="logical" name="ADDGRID"> F  </i>
  </separator>
  <separator name="ionic" >
   <i type="int" name="NSW">   100</i>
   <i type="int" name="IBRION">     1</i>
   <i type="int" name="ISIF">     3</i>
   <i name="PSTRESS">      0.00000000</i>
   <i name="EDIFFG">      0.00100000</i>
   <i type="int" name="NFREE">     0</i>
   <i name="POTIM">      0.50000000</i>
   <i name="SMASS">     -3.00000000</i>
   <i name="SCALEE">      1.00000000</i>
  </separator>
  <separator name="ionic md" >
   <i name="TEBEG">      0.00010000</i>
   <i name="TEEND">      0.00010000</i>
   <i type="int" name="NBLOCK">     1</i>
   <i type="int" name="KBLOCK">   100</i>
   <i type="int" name="NPACO">   256</i>
   <i name="APACO">     16.00000000</i>
  </separator>
  <separator name="symmetry" >
   <i type="int" name="ISYM">     0</i>
   <i name="SYMPREC">      0.00000001</i>
  </separator>
  <separator name="dos" >
   <i type="logical" name="LORBIT"> F  </i>
   <v name="RWIGS">     -1.00000000     -1.00000000     -1.00000000     -1.00000000</v>
   <i type="int" name="NEDOS">   301</i>
   <i name="EMIN">     10.00000000</i>
   <i name="EMAX">    -10.00000000</i>
   <i name="EFERMI">      0.00000000</i>
  </separator>
  <separator name="writing" >
   <i type="int" name="NWRITE">     2</i>
   <i type="logical" name="LWAVE"> F  </i>
   <i type="logical" name="LCHARG"> F  </i>
   <i type="logical" name="LPARD"> F  </i>
   <i type="logical" name="LVTOT"> F  </i>
   <i type="logical" name="LVHAR"> F  </i>
   <i type="logical" name="LELF"> F  </i>
   <i type="logical" name="LOPTICS"> F  </i>
   <v name="STM">      0.00000000      0.00000000      0.00000000      0.00000000      0.00000000      0.00000000      0.00000000</v>
  </separator>
  <separator name="performance" >
   <i type="int" name="NPAR">    40</i>
   <i type="int" name="NSIM">     4</i>
   <i type="int" name="NBLK">    -1</i>
   <i type="logical" name="LPLANE"> F  </i>
   <i type="logical" name="LSCALAPACK"> T  </i>
   <i type="logical" name="LSCAAWARE"> F  </i>
   <i type="logical" name="LSCALU"> F  </i>
   <i type="logical" name="LASYNC"> F  </i>
   <i type="logical" name="LORBITALREAL"> F  </i>
  </separator>
  <separator name="miscellaneous" >
   <i type="int" name="IDIOT">     3</i>
   <i type="logical" name="LMUSIC"> F  </i>
   <v name="POMASS">     50.94100000     95.94000000    183.85000000     32.06600000</v>
   <v name="DARWINR">      0.00000000      0.00000000      0.00000000      0.00000000</v>
   <v name="DARWINV">      1.00000000      1.00000000      1.00000000      1.00000000</v>
   <i type="logical" name="LCORR"> T  </i>
  </separator>
  <i type="logical" name="GGA_COMPAT"> T  </i>
  <i type="logical" name="LBERRY"> F  </i>
  <i type="int" name="ICORELEVEL">     0</i>
  <i type="logical" name="LDAU"> F  </i>
  <i type="int" name="I_CONSTRAINED_M">     0</i>
  <separator name="electronic exchange-correlation" >
   <i type="string" name="GGA">--</i>
   <i type="int" name="VOSKOWN">     0</i>
   <i type="logical" name="LHFCALC"> F  </i>
   <i type="string" name="PRECFOCK"></i>
   <i type="logical" name="LSYMGRAD"> F  </i>
   <i type="logical" name="LHFONE"> F  </i>
   <i type="logical" name="LRHFCALC"> F  </i>
   <i type="logical" name="LTHOMAS"> F  </i>
   <i type="logical" name="LMODELHF"> F  </i>
   <i name="ENCUT4O">     -1.00000000</i>
   <i type="int" name="EXXOEP">     0</i>
   <i type="int" name="FOURORBIT">     0</i>
   <i name="AEXX">      0.00000000</i>
   <i name="HFALPHA">      0.00000000</i>
   <i name="MCALPHA">      0.00000000</i>
   <i name="ALDAX">      1.00000000</i>
   <i name="AGGAX">      1.00000000</i>
   <i name="ALDAC">      1.00000000</i>
   <i name="AGGAC">      1.00000000</i>
   <i type="int" name="NKREDX">     1</i>
   <i type="int" name="NKREDY">     1</i>
   <i type="int" name="NKREDZ">     1</i>
   <i type="logical" name="SHIFTRED"> F  </i>
   <i type="logical" name="ODDONLY"> F  </i>
   <i type="logical" name="EVENONLY"> F  </i>
   <i type="int" name="LMAXFOCK">     0</i>
   <i type="int" name="NMAXFOCKAE">     0</i>
   <i type="logical" name="LFOCKAEDFT"> F  </i>
   <i name="HFSCREEN">      0.00000000</i>
   <i name="HFSCREENC">      0.00000000</i>
   <i type="int" name="NBANDSGWLOW">     0</i>
  </separator>
  <separator name="vdW DFT" >
   <i type="logical" name="LUSE_VDW"> F  </i>
   <i name="Zab_VDW">     -0.84910000</i>
   <i name="PARAM1">      0.12340000</i>
   <i name="PARAM2">      1.00000000</i>
   <i name="PARAM3">      0.00000000</i>
  </separator>
  <separator name="model GW" >
   <i type="int" name="MODEL_GW">     0</i>
   <i name="MODEL_EPS0">     58.26239943</i>
   <i name="MODEL_ALPHA">      1.00000000</i>
  </separator>
  <separator name="linear response parameters" >
   <i type="logical" name="LEPSILON"> F  </i>
   <i type="logical" name="LRPA"> F  </i>
   <i type="logical" name="LNABLA"> F  </i>
   <i type="logical" name="LVEL"> F  </i>
   <i type="int" name="KINTER">     0</i>
   <i name="CSHIFT">      0.10000000</i>
   <i name="OMEGAMAX">     -1.00000000</i>
   <i name="DEG_THRESHOLD">      0.00200000</i>
  </separator>
  <separator name="orbital magnetization" >
   <i type="logical" name="NUCIND"> F  </i>
   <v name="MAGPOS">      0.00000000      0.00000000      0.00000000</v>
   <i type="logical" name="LNICSALL"> T  </i>
   <i type="logical" name="ORBITALMAG"> F  </i>
   <i type="logical" name="LMAGBLOCH"> F  </i>
   <i type="logical" name="LCHIMAG"> F  </i>
   <i type="logical" name="LGAUGE"> T  </i>
   <i type="int" name="MAGATOM">     0</i>
   <v name="MAGDIPOL">      0.00000000      0.00000000      0.00000000</v>
   <v name="AVECCONST">      0.00000000      0.00000000      0.00000000</v>
  </separator>
  <separator name="response functions" >
   <i type="logical" name="LADDER"> F  </i>
   <i type="logical" name="LFXC"> F  </i>
   <i type="logical" name="LHARTREE"> T  </i>
   <i type="int" name="IBSE">     0</i>
   <v type="int" name="KPOINT">    -1     0     0     0</v>
   <i type="logical" name="LTCTE"> F  </i>
   <i type="logical" name="LTETE"> F  </i>
   <i type="logical" name="LTRIPLET"> F  </i>
   <i type="logical" name="LFXCEPS"> F  </i>
   <i type="logical" name="LFXHEG"> F  </i>
   <i type="int" name="NATURALO">     0</i>
   <i type="logical" name="L2ORDER"> F  </i>
   <i type="logical" name="LUSEW"> F  </i>
   <i name="ENCUTGW">     -2.00000000</i>
   <i name="ENCUTGWSOFT">     -2.00000000</i>
   <i name="ENCUTLF">     -1.00000000</i>
   <i type="int" name="LMAXMP2">    -1</i>
   <i name="SCISSOR">      0.00000000</i>
   <i type="int" name="NOMEGA">     0</i>
   <i type="int" name="NOMEGAR">     0</i>
   <i type="int" name="NBANDSGW">    -1</i>
   <i type="int" name="NBANDSO">    -1</i>
   <i type="int" name="NBANDSV">    -1</i>
   <i type="int" name="NELM">     1</i>
   <i type="int" name="NELMHF">     1</i>
   <i type="int" name="DIM">     3</i>
   <i type="int" name="ANTIRES">     0</i>
   <i name="OMEGAMAX">    -30.00000000</i>
   <i name="OMEGAMIN">    -30.00000000</i>
   <i name="OMEGATL">   -200.00000000</i>
   <i type="int" name="OMEGAGRID">     0</i>
   <i name="CSHIFT">     -0.10000000</i>
   <i type="logical" name="SELFENERGY"> F  </i>
   <i type="logical" name="LSPECTRAL"> F  </i>
   <i type="logical" name="LSPECTRALGW"> F  </i>
   <i type="logical" name="LSINGLES"> F  </i>
   <i type="logical" name="LFERMIGW"> F  </i>
   <i type="logical" name="ODDONLYGW"> F  </i>
   <i type="logical" name="EVENONLYGW"> F  </i>
   <i type="int" name="NKREDLFX">     1</i>
   <i type="int" name="NKREDLFY">     1</i>
   <i type="int" name="NKREDLFZ">     1</i>
   <i type="int" name="MAXMEM">  1800</i>
   <i type="int" name="TELESCOPE">     0</i>
   <i type="int" name="TAUPAR">     1</i>
   <i type="int" name="OMEGAPAR">    -1</i>
   <i name="LAMBDA">      1.00000000</i>
  </separator>
  <separator name="External order field" >
   <i name="OFIELD_KAPPA">      0.00000000</i>
   <v name="OFIELD_K">      0.00000000      0.00000000      0.00000000</v>
   <i name="OFIELD_Q6_NEAR">      0.00000000</i>
   <i name="OFIELD_Q6_FAR">      0.00000000</i>
   <i name="OFIELD_A">      0.00000000</i>
  </separator>
 </parameters>
 <atominfo>
  <atoms>      27 </atoms>
  <types>       4 </types>
  <array name="atoms" >
   <dimension dim="1">ion</dimension>
   <field type="string">element</field>
   <field type="int">atomtype</field>
   <set>
    <rc><c>V </c><c>   1</c></rc>
    <rc><c>V </c><c>   1</c></rc>
    <rc><c>V </c><c>   1</c></rc>
    <rc><c>Mo</c><c>   2</c></rc>
    <rc><c>Mo</c><c>   2</c></rc>
    <rc><c>Mo</c><c>   2</c></rc>
    <rc><c>W </c><c>   3</c></rc>
    <rc><c>W </c><c>   3</c></rc>
    <rc><c>W </c><c>   3</c></rc>
    <rc><c>S </c><c>   4</c></rc>
    <rc><c>S </c><c>   4</c></rc>
    <rc><c>S </c><c>   4</c></rc>
    <rc><c>S </c><c>   4</c></rc>
    <rc><c>S </c><c>   4</c></rc>
    <rc><c>S </c><c>   4</c></rc>
    <rc><c>S </c><c>   4</c></rc>
    <rc><c>S </c><c>   4</c></rc>
    <rc><c>S </c><c>   4</c></rc>
    <rc><c>S </c><c>   4</c></rc>
    <rc><c>S </c><c>   4</c></rc>
    <rc><c>S </c><c>   4</c></rc>
    <rc><c>S </c><c>   4</c></rc>
    <rc><c>S </c><c>   4</c></rc>
    <rc><c>S </c><c>   4</c></rc>
    <rc><c>S </c><c>   4</c></rc>
    <rc><c>S </c><c>   4</c></rc>
    <rc><c>S </c><c>   4</c></rc>
   </set>
  </array>
  <array name="atomtypes" >
   <dimension dim="1">type</dimension>
   <field type="int">atomspertype</field>
   <field type="string">element</field>
   <field>mass</field>
   <field>valence</field>
   <field type="string">pseudopotential</field>
   <set>
    <rc><c>   3</c><c>V </c><c>     50.94100000</c><c>      5.00000000</c><c> PAW_PBE V 08Apr2002                    </c></rc>
    <rc><c>   3</c><c>Mo</c><c>     95.94000000</c><c>      6.00000000</c><c> PAW_PBE Mo 08Apr2002                   </c></rc>
    <rc><c>   3</c><c>W </c><c>    183.85000000</c><c>      6.00000000</c><c> PAW_PBE W 08Apr2002                    </c></rc>
    <rc><c>  18</c><c>S </c><c>     32.06600000</c><c>      6.00000000</c><c>  PAW_PBE S 17Jan2003                   </c></rc>
   </set>
  </array>
 </atominfo>
 <structure name="initialpos" >
  <crystal>
   <varray name="basis" >
    <v>       8.66999996       5.03999989       0.00000000 </v>
    <v>      -8.66999982       5.04000013       0.00000000 </v>
    <v>       0.00000000       0.00000000      30.00000000 </v>
   </varray>
   <i name="volume">   2621.80797419 </i>
   <varray name="rec_basis" >
    <v>       0.05767013       0.09920635       0.00000000 </v>
    <v>      -0.05767013       0.09920635       0.00000000 </v>
    <v>       0.00000000       0.00000000       0.03333333 </v>
   </varray>
  </crystal>
  <varray name="positions" >
   <v>       0.00000000       0.00000000       0.00000000 </v>
   <v>       0.66666669       0.66666669       0.00000000 </v>
   <v>       0.33333334       0.66666669       0.00000000 </v>
   <v>       0.66666669       0.00000000       0.00000000 </v>
   <v>       0.66666669       0.33333334       0.00000000 </v>
   <v>       1.00000000       0.33333334       0.00000000 </v>
   <v>       0.00000000       0.66666669       0.00000000 </v>
   <v>       0.33333334       0.00000000       0.00000000 </v>
   <v>       0.33333334       0.33333334       0.00000000 </v>
   <v>       0.11068511       0.22244981       0.95539999 </v>
   <v>       0.22244981       0.11068511       0.04460000 </v>
   <v>       0.11068511       0.55578315       0.95539999 </v>
   <v>       0.22244981       0.44401845       0.04460000 </v>
   <v>       0.11068511       0.88911647       0.95539999 </v>
   <v>       0.22244981       0.77735180       0.04460000 </v>
   <v>       0.44401845       0.22244981       0.95539999 </v>
   <v>       0.55578315       0.11068511       0.04460000 </v>
   <v>       0.44401845       0.55578315       0.95539999 </v>
   <v>       0.55578315       0.44401845       0.04460000 </v>
   <v>       0.44401845       0.88911647       0.95539999 </v>
   <v>       0.55578315       0.77735180       0.04460000 </v>
   <v>       0.77735180       0.22244981       0.95539999 </v>
   <v>       0.88911647       0.11068511       0.04460000 </v>
   <v>       0.77735180       0.55578315       0.95539999 </v>
   <v>       0.88911647       0.44401845       0.04460000 </v>
   <v>       0.77735180       0.88911647       0.95539999 </v>
   <v>       0.88911647       0.77735180       0.04460000 </v>
  </varray>
 </structure>
 <calculation>
  <scstep>
   <time name="dav">   21.95   22.01</time>
   <time name="total">   22.00   22.06</time>
   <energy>
    <i name="alphaZ">     81.65567618 </i>
    <i name="ewald">  41890.23009656 </i>
    <i name="hartreedc"> -47722.85865718 </i>
    <i name="XCdc">   -242.92971638 </i>
    <i name="pawpsdc">   3467.42045192 </i>
    <i name="pawaedc">  -2871.19716117 </i>
    <i name="eentropy">     -0.53581284 </i>
    <i name="bandstr">   -236.97887465 </i>
    <i name="atom">   6761.44252427 </i>
    <i name="e_fr_energy">   1126.24852671 </i>
    <i name="e_wo_entrp">   1126.78433955 </i>
    <i name="e_0_energy">   1126.51643313 </i>
   </energy>
  </scstep>
  <scstep>
   <time name="dav">   28.92   28.99</time>
   <time name="total">   28.92   29.00</time>
   <energy>
    <i name="e_fr_energy">     -3.21231705 </i>
    <i name="e_wo_entrp">     -3.00912894 </i>
    <i name="e_0_energy">     -3.11072300 </i>
   </energy>
  </scstep>
  <scstep>
   <time name="dav">   27.80   27.86</time>
   <time name="total">   27.80   27.87</time>
   <energy>
    <i name="e_fr_energy">   -199.83041161 </i>
    <i name="e_wo_entrp">   -199.54502027 </i>
    <i name="e_0_energy">   -199.68771594 </i>
   </energy>
  </scstep>
  <scstep>
   <time name="dav">   30.92   30.99</time>
   <time name="total">   30.92   31.00</time>
   <energy>
    <i name="e_fr_energy">   -208.93559629 </i>
    <i name="e_wo_entrp">   -208.61363584 </i>
    <i name="e_0_energy">   -208.77461606 </i>
   </energy>
  </scstep>
  <scstep>
   <time name="dav">   28.58   28.65</time>
   <time name="total">   29.05   29.13</time>
   <energy>
    <i name="e_fr_energy">   -209.22533357 </i>
    <i name="e_wo_entrp">   -208.90610879 </i>
    <i name="e_0_energy">   -209.06572118 </i>
   </energy>
  </scstep>
  <scstep>
   <time name="dav">   31.19   31.26</time>
   <time name="total">   31.69   31.78</time>
   <energy>
    <i name="e_fr_energy">   -236.38228785 </i>
    <i name="e_wo_entrp">   -236.10515545 </i>
    <i name="e_0_energy">   -236.24372165 </i>
   </energy>
  </scstep>
  <scstep>
   <time name="dav">   32.62   32.70</time>
   <time name="total">   33.13   33.22</time>
   <energy>
    <i name="e_fr_energy">   -196.82483957 </i>
    <i name="e_wo_entrp">   -196.49470921 </i>
    <i name="e_0_energy">   -196.65977439 </i>
   </energy>
  </scstep>
  <scstep>
   <time name="dav">   29.46   29.53</time>
   <time name="total">   29.97   30.05</time>
   <energy>
    <i name="e_fr_energy">   -190.30001667 </i>
    <i name="e_wo_entrp">   -190.03243374 </i>
    <i name="e_0_energy">   -190.16622521 </i>
   </energy>
  </scstep>
  <scstep>
   <time name="dav">   30.56   30.64</time>
   <time name="total">   31.09   31.17</time>
   <energy>
    <i name="e_fr_energy">   -188.29648595 </i>
    <i name="e_wo_entrp">   -187.96182009 </i>
    <i name="e_0_energy">   -188.12915302 </i>
   </energy>
  </scstep>
  <scstep>
   <time name="dav">   32.55   32.62</time>
   <time name="total">   33.08   33.17</time>
   <energy>
    <i name="e_fr_energy">   -187.10066775 </i>
    <i name="e_wo_entrp">   -186.75414753 </i>
    <i name="e_0_energy">   -186.92740764 </i>
   </energy>
  </scstep>
  <scstep>
   <time name="dav">   30.75   30.83</time>
   <time name="total">   31.30   31.37</time>
   <energy>
    <i name="e_fr_energy">   -187.01460977 </i>
    <i name="e_wo_entrp">   -186.66790976 </i>
    <i name="e_0_energy">   -186.84125977 </i>
   </energy>
  </scstep>
  <scstep>
   <time name="dav">   31.56   31.63</time>
   <time name="total">   32.09   32.18</time>
   <energy>
    <i name="e_fr_energy">   -186.97419169 </i>
    <i name="e_wo_entrp">   -186.63781750 </i>
    <i name="e_0_energy">   -186.80600459 </i>
   </energy>
  </scstep>
  <scstep>
   <time name="dav">   32.70   32.78</time>
   <time name="total">   33.24   33.32</time>
   <energy>
    <i name="e_fr_energy">   -186.92990768 </i>
    <i name="e_wo_entrp">   -186.59099004 </i>
    <i name="e_0_energy">   -186.76044886 </i>
   </energy>
  </scstep>
  <scstep>
   <time name="dav">   32.25   32.32</time>
   <time name="total">   32.78   32.87</time>
   <energy>
    <i name="e_fr_energy">   -186.89207208 </i>
    <i name="e_wo_entrp">   -186.54849951 </i>
    <i name="e_0_energy">   -186.72028580 </i>
   </energy>
  </scstep>
  <scstep>
   <time name="dav">   29.75   29.82</time>
   <time name="total">   30.29   30.37</time>
   <energy>
    <i name="e_fr_energy">   -186.88759166 </i>
    <i name="e_wo_entrp">   -186.54317229 </i>
    <i name="e_0_energy">   -186.71538198 </i>
   </energy>
  </scstep>
  <scstep>
   <time name="dav">   32.60   32.68</time>
   <time name="total">   33.14   33.23</time>
   <energy>
    <i name="e_fr_energy">   -186.88751673 </i>
    <i name="e_wo_entrp">   -186.54390975 </i>
    <i name="e_0_energy">   -186.71571324 </i>
   </energy>
  </scstep>
  <scstep>
   <time name="dav">   31.56   31.63</time>
   <time name="total">   32.10   32.18</time>
   <energy>
    <i name="e_fr_energy">   -186.88503988 </i>
    <i name="e_wo_entrp">   -186.54193139 </i>
    <i name="e_0_energy">   -186.71348563 </i>
   </energy>
  </scstep>
  <scstep>
   <time name="dav">   31.36   31.44</time>
   <time name="total">   31.90   31.99</time>
   <energy>
    <i name="e_fr_energy">   -186.88399083 </i>
    <i name="e_wo_entrp">   -186.54142916 </i>
    <i name="e_0_energy">   -186.71271000 </i>
   </energy>
  </scstep>
  <scstep>
   <time name="dav">   27.90   27.97</time>
   <time name="total">   28.44   28.52</time>
   <energy>
    <i name="e_fr_energy">   -186.88378835 </i>
    <i name="e_wo_entrp">   -186.54071696 </i>
    <i name="e_0_energy">   -186.71225266 </i>
   </energy>
  </scstep>
  <scstep>
   <time name="dav">   24.01   24.06</time>
   <time name="total">   24.55   24.61</time>
   <energy>
    <i name="e_fr_energy">   -186.88465212 </i>
    <i name="e_wo_entrp">   -186.54191353 </i>
    <i name="e_0_energy">   -186.71328283 </i>
   </energy>
  </scstep>
  <scstep>
   <time name="dav">   22.17   22.22</time>
   <time name="total">   22.71   22.77</time>
   <energy>
    <i name="e_fr_energy">   -186.88540820 </i>
    <i name="e_wo_entrp">   -186.54255343 </i>
    <i name="e_0_energy">   -186.71398081 </i>
   </energy>
  </scstep>
  <scstep>
   <time name="dav">   20.16   20.21</time>
   <time name="total">   20.70   20.76</time>
   <energy>
    <i name="e_fr_energy">   -186.88626084 </i>
    <i name="e_wo_entrp">   -186.54341734 </i>
    <i name="e_0_energy">   -186.71483909 </i>
   </energy>
  </scstep>
  <scstep>
   <time name="dav">   20.54   20.59</time>
   <time name="total">   21.09   21.14</time>
   <energy>
    <i name="e_fr_energy">   -186.88750484 </i>
    <i name="e_wo_entrp">   -186.54479653 </i>
    <i name="e_0_energy">   -186.71615069 </i>
   </energy>
  </scstep>
  <scstep>
   <time name="dav">   19.34   19.39</time>
   <time name="total">   19.88   19.93</time>
   <energy>
    <i name="e_fr_energy">   -186.88804031 </i>
    <i name="e_wo_entrp">   -186.54525764 </i>
    <i name="e_0_energy">   -186.71664897 </i>
   </energy>
  </scstep>
  <scstep>
   <time name="dav">   16.47   16.51</time>
   <time name="total">   17.01   17.06</time>
   <energy>
    <i name="e_fr_energy">   -186.88844728 </i>
    <i name="e_wo_entrp">   -186.54564505 </i>
    <i name="e_0_energy">   -186.71704617 </i>
   </energy>
  </scstep>
  <scstep>
   <time name="dav">   19.44   19.48</time>
   <time name="total">   19.98   20.03</time>
   <energy>
    <i name="e_fr_energy">   -186.88868533 </i>
    <i name="e_wo_entrp">   -186.54590373 </i>
    <i name="e_0_energy">   -186.71729453 </i>
   </energy>
  </scstep>
  <scstep>
   <time name="dav">   20.16   20.21</time>
   <time name="total">   20.20   20.25</time>
   <energy>
    <i name="alphaZ">     81.65567618 </i>
    <i name="ewald">  41890.23009656 </i>
    <i name="hartreedc"> -47833.13994808 </i>
    <i name="XCdc">   -231.59824964 </i>
    <i name="pawpsdc">   4192.18702016 </i>
    <i name="pawaedc">  -3610.21274972 </i>
    <i name="eentropy">     -0.34278330 </i>
    <i name="bandstr">  -1437.11035762 </i>
    <i name="atom">   6761.44252427 </i>
    <i name="e_fr_energy">   -186.88877119 </i>
    <i name="e_wo_entrp">   -186.54598790 </i>
    <i name="e_0_energy">   -186.71737955 </i>
   </energy>
  </scstep>
  <structure>
   <crystal>
    <varray name="basis" >
     <v>       8.66999996       5.03999989       0.00000000 </v>
     <v>      -8.66999982       5.04000013       0.00000000 </v>
     <v>       0.00000000       0.00000000      30.00000000 </v>
    </varray>
    <i name="volume">   2621.80797419 </i>
    <varray name="rec_basis" >
     <v>       0.05767013       0.09920635       0.00000000 </v>
     <v>      -0.05767013       0.09920635       0.00000000 </v>
     <v>       0.00000000       0.00000000       0.03333333 </v>
    </varray>
   </crystal>
   <varray name="positions" >
    <v>       0.00000000       0.00000000       0.00000000 </v>
    <v>       0.66666669       0.66666669       0.00000000 </v>
    <v>       0.33333334       0.66666669       0.00000000 </v>
    <v>       0.66666669       0.00000000       0.00000000 </v>
    <v>       0.66666669       0.33333334       0.00000000 </v>
    <v>       1.00000000       0.33333334       0.00000000 </v>
    <v>       0.00000000       0.66666669       0.00000000 </v>
    <v>       0.33333334       0.00000000       0.00000000 </v>
    <v>       0.33333334       0.33333334       0.00000000 </v>
    <v>       0.11068511       0.22244981       0.95539999 </v>
    <v>       0.22244981       0.11068511       0.04460000 </v>
    <v>       0.11068511       0.55578315       0.95539999 </v>
    <v>       0.22244981       0.44401845       0.04460000 </v>
    <v>       0.11068511       0.88911647       0.95539999 </v>
    <v>       0.22244981       0.77735180       0.04460000 </v>
    <v>       0.44401845       0.22244981       0.95539999 </v>
    <v>       0.55578315       0.11068511       0.04460000 </v>
    <v>       0.44401845       0.55578315       0.95539999 </v>
    <v>       0.55578315       0.44401845       0.04460000 </v>
    <v>       0.44401845       0.88911647       0.95539999 </v>
    <v>       0.55578315       0.77735180       0.04460000 </v>
    <v>       0.77735180       0.22244981       0.95539999 </v>
    <v>       0.88911647       0.11068511       0.04460000 </v>
    <v>       0.77735180       0.55578315       0.95539999 </v>
    <v>       0.88911647       0.44401845       0.04460000 </v>
    <v>       0.77735180       0.88911647       0.95539999 </v>
    <v>       0.88911647       0.77735180       0.04460000 </v>
   </varray>
  </structure>
  <varray name="forces" >
   <v>      -0.43788061      -0.06337787       0.06235753 </v>
   <v>      -0.08056678       0.04857687       0.02969238 </v>
   <v>       0.06530453       0.04801866      -0.06006354 </v>
   <v>      -0.17198116       0.38166042       0.01915055 </v>
   <v>       0.52648042      -0.01272921       0.00817275 </v>
   <v>      -0.26245394      -0.44111721      -0.09627255 </v>
   <v>       0.21423688      -0.47577055      -0.02578263 </v>
   <v>       0.29436494       0.43947428       0.07203594 </v>
   <v>      -0.06008777       0.04469628       0.01821578 </v>
   <v>       0.60003715      -0.54081040      -2.13883187 </v>
   <v>      -0.46923659      -0.59770399       2.19459182 </v>
   <v>       0.37017478       0.71638269      -2.18468456 </v>
   <v>      -0.35881520       0.69747986       2.10888829 </v>
   <v>      -0.59966275       0.00169365      -2.03520345 </v>
   <v>       0.57601495       0.01700715       2.10122834 </v>
   <v>       0.04784571      -0.10064975      -2.89812651 </v>
   <v>      -0.23164665      -0.15944235       2.93419636 </v>
   <v>      -0.26537036       0.52233414      -1.45530258 </v>
   <v>      -0.60564051       0.53723750       2.11093820 </v>
   <v>       0.38175582      -0.72846794      -2.16957501 </v>
   <v>       0.32271407      -0.66703817       1.38849852 </v>
   <v>       0.11958670       0.02261652      -2.94678120 </v>
   <v>       0.77618858      -0.00844309       2.13789316 </v>
   <v>      -0.65930312       0.15165102      -2.10739551 </v>
   <v>      -0.23224381       0.14931433       2.91496195 </v>
   <v>       0.89796424      -0.00173902      -1.45937244 </v>
   <v>      -0.75777953       0.01914619       1.47657028 </v>
  </varray>
  <varray name="stress" >
   <v>       7.35321246      -0.09684609      -1.52881200 </v>
   <v>      -0.09684624       4.42552475      -0.04526047 </v>
   <v>      -1.52881203      -0.04526038      30.28122272 </v>
  </varray>
  <energy>
   <i name="e_fr_energy">   -186.88877119 </i>
   <i name="e_wo_entrp">   -186.71737955 </i>
   <i name="e_0_energy">     -0.34278330 </i>
  </energy>
  <time name="totalsc">  791.48  793.59</time>
 </calculation>
 <calculation>
  <scstep>
   <time name="dav">   21.96   22.01</time>
   <time name="total">   22.51   22.56</time>
   <energy>
    <i name="alphaZ">     78.91590620 </i>
    <i name="ewald">  39377.61531514 </i>
    <i name="hartreedc"> -45335.17257131 </i>
    <i name="XCdc">   -239.05715838 </i>
    <i name="pawpsdc">   4192.17209523 </i>
    <i name="pawaedc">  -3610.19792353 </i>
    <i name="eentropy">     -0.28177652 </i>
    <i name="bandstr">  -1412.98055179 </i>
    <i name="atom">   6761.44252427 </i>
    <i name="e_fr_energy">   -187.54414067 </i>
    <i name="e_wo_entrp">   -187.26236415 </i>
    <i name="e_0_energy">   -187.40325241 </i>
   </energy>
  </scstep>
  <scstep>
   <time name="dav">   30.76   30.83</time>
   <time name="total">   31.30   31.38</time>
   <energy>
    <i name="e_fr_energy">   -189.65143558 </i>
    <i name="e_wo_entrp">   -189.31146657 </i>
    <i name="e_0_energy">   -189.48145107 </i>
   </energy>
  </scstep>
  <scstep>
   <time name="dav">   30.73   30.80</time>
   <time name="total">   31.28   31.37</time>
   <energy>
    <i name="e_fr_energy">   -189.34143882 </i>
    <i name="e_wo_entrp">   -189.06750085 </i>
    <i name="e_0_energy">   -189.20446984 </i>
   </energy>
  </scstep>
  <scstep>
   <time name="dav">   31.01   31.08</time>
   <time name="total">   31.56   31.64</time>
   <energy>
    <i name="e_fr_energy">   -188.80642220 </i>
    <i name="e_wo_entrp">   -188.52555475 </i>
    <i name="e_0_energy">   -188.66598848 </i>
   </energy>
  </scstep>
  <scstep>
   <time name="dav">   30.73   30.80</time>
   <time name="total">   31.27   31.36</time>
   <energy>
    <i name="e_fr_energy">   -188.95867077 </i>
    <i name="e_wo_entrp">   -188.66474781 </i>
    <i name="e_0_energy">   -188.81170929 </i>
   </energy>
  </scstep>
  <scstep>
   <time name="dav">   31.69   31.76</time>
   <time name="total">   32.24   32.32</time>
   <energy>
    <i name="e_fr_energy">   -188.77936159 </i>
    <i name="e_wo_entrp">   -188.49986007 </i>
    <i name="e_0_energy">   -188.63961083 </i>
   </energy>
  </scstep>
  <scstep>
   <time name="dav">   29.21   29.28</time>
   <time name="total">   29.76   29.84</time>
   <energy>
    <i name="e_fr_energy">   -188.76591899 </i>
    <i name="e_wo_entrp">   -188.48494226 </i>
    <i name="e_0_energy">   -188.62543063 </i>
   </energy>
  </scstep>
  <scstep>
   <time name="dav">   32.12   32.19</time>
   <time name="total">   32.67   32.75</time>
   <energy>
    <i name="e_fr_energy">   -188.73593023 </i>
    <i name="e_wo_entrp">   -188.45539994 </i>
    <i name="e_0_energy">   -188.59566509 </i>
   </energy>
  </scstep>
  <scstep>
   <time name="dav">   30.73   30.80</time>
   <time name="total">   31.28   31.36</time>
   <energy>
    <i name="e_fr_energy">   -188.71598613 </i>
    <i name="e_wo_entrp">   -188.43641361 </i>
    <i name="e_0_energy">   -188.57619987 </i>
   </energy>
  </scstep>
  <scstep>
   <time name="dav">   27.49   27.56</time>
   <time name="total">   28.04   28.12</time>
   <energy>
    <i name="e_fr_energy">   -188.71527401 </i>
    <i name="e_wo_entrp">   -188.43585224 </i>
    <i name="e_0_energy">   -188.57556312 </i>
   </energy>
  </scstep>
  <scstep>
   <time name="dav">   31.24   31.32</time>
   <time name="total">   31.79   31.88</time>
   <energy>
    <i name="e_fr_energy">   -188.71476485 </i>
    <i name="e_wo_entrp">   -188.43579493 </i>
    <i name="e_0_energy">   -188.57527989 </i>
   </energy>
  </scstep>
  <scstep>
   <time name="dav">   29.46   29.53</time>
   <time name="total">   30.01   30.09</time>
   <energy>
    <i name="e_fr_energy">   -188.71490842 </i>
    <i name="e_wo_entrp">   -188.43585870 </i>
    <i name="e_0_energy">   -188.57538356 </i>
   </energy>
  </scstep>
  <scstep>
   <time name="dav">   21.75   21.80</time>
   <time name="total">   21.78   21.84</time>
   <energy>
    <i name="alphaZ">     78.91590620 </i>
    <i name="ewald">  39377.61531514 </i>
    <i name="hartreedc"> -45345.89347099 </i>
    <i name="XCdc">   -237.96846934 </i>
    <i name="pawpsdc">   3950.59921394 </i>
    <i name="pawaedc">  -3365.12211746 </i>
    <i name="eentropy">     -0.27904757 </i>
    <i name="bandstr">  -1408.02469629 </i>
    <i name="atom">   6761.44252427 </i>
    <i name="e_fr_energy">   -188.71484210 </i>
    <i name="e_wo_entrp">   -188.43579453 </i>
    <i name="e_0_energy">   -188.57531832 </i>
   </energy>
  </scstep>
  <structure>
   <crystal>
    <varray name="basis" >
     <v>       8.85497624       5.10276068       0.00000000 </v>
     <v>      -8.85783041       5.10767101       0.00000000 </v>
     <v>       0.00000000       0.00000000      30.00000000 </v>
    </varray>
    <i name="volume">   2712.83082507 </i>
    <varray name="rec_basis" >
     <v>       0.05648348       0.09795484       0.00000000 </v>
     <v>      -0.05642918       0.09792328       0.00000000 </v>
     <v>       0.00000000       0.00000000       0.03333333 </v>
    </varray>
   </crystal>
   <varray name="positions" >
    <v>      -0.00152158       0.00091493       0.00010028 </v>
    <v>       0.66667502       0.66712332       0.00004775 </v>
    <v>       0.33374485       0.66671482      -0.00009659 </v>
    <v>       0.66801483       0.00230510       0.00003080 </v>
    <v>       0.66807052       0.33180767       0.00001314 </v>
    <v>       0.99715863       0.33195235      -0.00015481 </v>
    <v>      -0.00168099       0.66379362      -0.00004146 </v>
    <v>       0.33625563       0.00128434       0.00011584 </v>
    <v>       0.33338008       0.33371443       0.00002929 </v>
    <v>       0.10976620       0.21819210       0.95196056 </v>
    <v>       0.21828372       0.10913000       0.04812910 </v>
    <v>       0.11514359       0.55818186       0.95188682 </v>
    <v>       0.22478965       0.44835486       0.04799128 </v>
    <v>       0.10902486       0.89079293       0.95212720 </v>
    <v>       0.22413377       0.77583063       0.04797896 </v>
    <v>       0.44366986       0.22183499       0.95073955 </v>
    <v>       0.55437559       0.11056650       0.04931845 </v>
    <v>       0.44578003       0.55902133       0.95305973 </v>
    <v>       0.55666937       0.44827465       0.04799457 </v>
    <v>       0.44159413       0.88456793       0.95191112 </v>
    <v>       0.55348857       0.77326152       0.04683283 </v>
    <v>       0.77779275       0.22222534       0.95066131 </v>
    <v>       0.89123554       0.10848522       0.04803792 </v>
    <v>       0.77624331       0.55834324       0.95201111 </v>
    <v>       0.88918494       0.44537921       0.04928752 </v>
    <v>       0.77984175       0.88660986       0.95305319 </v>
    <v>       0.88709984       0.77955169       0.04697445 </v>
   </varray>
  </structure>
  <varray name="forces" >
   <v>      -0.33456567      -0.00719528      -0.06116712 </v>
   <v>      -0.04999764       0.03188315       0.09033747 </v>
   <v>       0.02999537       0.00600980       0.06803694 </v>
   <v>      -0.45181786       0.46494895       0.00170890 </v>
   <v>       0.62535066      -0.07794174      -0.01031507 </v>
   <v>      -0.42318528      -0.43552315      -0.03032229 </v>
   <v>       0.27563821      -0.49131268      -0.12007241 </v>
   <v>       0.18673640       0.55137968      -0.07262989 </v>
   <v>       0.07204527      -0.04728066       0.11358600 </v>
   <v>       0.07057013       0.05556248       0.04156920 </v>
   <v>       0.05685515       0.05121376      -0.11596351 </v>
   <v>      -0.11098475       0.04029206      -0.00198321 </v>
   <v>       0.10506986       0.03975199      -0.17031636 </v>
   <v>       0.10311597       0.00041777       0.36492610 </v>
   <v>      -0.09447400       0.00361415      -0.14830565 </v>
   <v>      -0.06099738      -0.08462368       0.00876607 </v>
   <v>      -0.05107941      -0.09734601       0.28702463 </v>
   <v>       0.04841249      -0.06374751       0.03948426 </v>
   <v>      -0.07211217      -0.06130195      -0.14168840 </v>
   <v>      -0.10068260      -0.04561336       0.02576323 </v>
   <v>       0.00839853      -0.02569320      -0.15729439 </v>
   <v>       0.00460250       0.00006241      -0.40313683 </v>
   <v>       0.05152658      -0.00303512       0.18355436 </v>
   <v>       0.03062962       0.10287452       0.02371752 </v>
   <v>      -0.04913764       0.10006904       0.24178514 </v>
   <v>       0.02528686      -0.00559879       0.09591376 </v>
   <v>       0.10480077      -0.00186663      -0.15297844 </v>
  </varray>
  <varray name="stress" >
   <v>     -19.89904475       0.01489230       0.04199536 </v>
   <v>       0.01489215     -19.48309377       0.01401759 </v>
   <v>       0.04199548       0.01401754      -1.76535848 </v>
  </varray>
  <energy>
   <i name="e_fr_energy">   -188.71484210 </i>
   <i name="e_wo_entrp">   -188.57531832 </i>
   <i name="e_0_energy">     -0.27904757 </i>
  </energy>
  <time name="totalsc">  427.71  428.85</time>
 </calculation>
 <calculation>
  <scstep>
   <time name="dav">   23.84   23.89</time>
   <time name="total">   24.37   24.43</time>
   <energy>
    <i name="alphaZ">     82.33695226 </i>
    <i name="ewald">  41299.21603324 </i>
    <i name="hartreedc"> -47298.00218669 </i>
    <i name="XCdc">   -233.84845910 </i>
    <i name="pawpsdc">   3950.06299061 </i>
    <i name="pawaedc">  -3364.58081453 </i>
    <i name="eentropy">     -0.23645469 </i>
    <i name="bandstr">  -1387.03637953 </i>
    <i name="atom">   6761.44252427 </i>
    <i name="e_fr_energy">   -190.64579415 </i>
    <i name="e_wo_entrp">   -190.40933946 </i>
    <i name="e_0_energy">   -190.52756681 </i>
   </energy>
  </scstep>
  <scstep>
   <time name="dav">   28.07   28.14</time>
   <time name="total">   28.60   28.68</time>
   <energy>
    <i name="e_fr_energy">   -190.56473158 </i>
    <i name="e_wo_entrp">   -190.32749896 </i>
    <i name="e_0_energy">   -190.44611527 </i>
   </energy>
  </scstep>
  <scstep>
   <time name="dav">   30.56   30.64</time>
   <time name="total">   31.10   31.18</time>
   <energy>
    <i name="e_fr_energy">   -190.13561681 </i>
    <i name="e_wo_entrp">   -189.88363131 </i>
    <i name="e_0_energy">   -190.00962406 </i>
   </energy>
  </scstep>
  <scstep>
   <time name="dav">   31.63   31.71</time>
   <time name="total">   32.17   32.25</time>
   <energy>
    <i name="e_fr_energy">   -189.92321374 </i>
    <i name="e_wo_entrp">   -189.68731786 </i>
    <i name="e_0_energy">   -189.80526580 </i>
   </energy>
  </scstep>
  <scstep>
   <time name="dav">   30.41   30.48</time>
   <time name="total">   30.94   31.02</time>
   <energy>
    <i name="e_fr_energy">   -189.89999244 </i>
    <i name="e_wo_entrp">   -189.66045019 </i>
    <i name="e_0_energy">   -189.78022132 </i>
   </energy>
  </scstep>
  <scstep>
   <time name="dav">   30.65   30.72</time>
   <time name="total">   31.19   31.27</time>
   <energy>
    <i name="e_fr_energy">   -189.82593771 </i>
    <i name="e_wo_entrp">   -189.58684766 </i>
    <i name="e_0_energy">   -189.70639268 </i>
   </energy>
  </scstep>
  <scstep>
   <time name="dav">   29.44   29.51</time>
   <time name="total">   29.98   30.06</time>
   <energy>
    <i name="e_fr_energy">   -189.81729361 </i>
    <i name="e_wo_entrp">   -189.57867652 </i>
    <i name="e_0_energy">   -189.69798506 </i>
   </energy>
  </scstep>
  <scstep>
   <time name="dav">   31.01   31.08</time>
   <time name="total">   31.54   31.63</time>
   <energy>
    <i name="e_fr_energy">   -189.81831698 </i>
    <i name="e_wo_entrp">   -189.57956742 </i>
    <i name="e_0_energy">   -189.69894220 </i>
   </energy>
  </scstep>
  <scstep>
   <time name="dav">   28.32   28.39</time>
   <time name="total">   28.86   28.94</time>
   <energy>
    <i name="e_fr_energy">   -189.81719019 </i>
    <i name="e_wo_entrp">   -189.57848208 </i>
    <i name="e_0_energy">   -189.69783613 </i>
   </energy>
  </scstep>
  <scstep>
   <time name="dav">   25.97   26.03</time>
   <time name="total">   26.51   26.58</time>
   <energy>
    <i name="e_fr_energy">   -189.81745322 </i>
    <i name="e_wo_entrp">   -189.57875214 </i>
    <i name="e_0_energy">   -189.69810268 </i>
   </energy>
  </scstep>
  <scstep>
   <time name="dav">   22.85   22.90</time>
   <time name="total">   23.38   23.45</time>
   <energy>
    <i name="e_fr_energy">   -189.81723788 </i>
    <i name="e_wo_entrp">   -189.57843277 </i>
    <i name="e_0_energy">   -189.69783532 </i>
   </energy>
  </scstep>
  <scstep>
   <time name="dav">   19.58   19.63</time>
   <time name="total">   19.62   19.67</time>
   <energy>
    <i name="alphaZ">     82.33695226 </i>
    <i name="ewald">  41299.21603324 </i>
    <i name="hartreedc"> -47271.46288024 </i>
    <i name="XCdc">   -235.23787849 </i>
    <i name="pawpsdc">   4038.95835667 </i>
    <i name="pawaedc">  -3454.67687482 </i>
    <i name="eentropy">     -0.23881038 </i>
    <i name="bandstr">  -1410.15468336 </i>
    <i name="atom">   6761.44252427 </i>
    <i name="e_fr_energy">   -189.81726085 </i>
    <i name="e_wo_entrp">   -189.57845047 </i>
    <i name="e_0_energy">   -189.69785566 </i>
   </energy>
  </scstep>
  <structure>
   <crystal>
    <varray name="basis" >
     <v>       8.66718310       4.99690014       0.00000000 </v>
     <v>      -8.66981459       5.00142721       0.00000000 </v>
     <v>       0.00000000       0.00000000      30.00000000 </v>
    </varray>
    <i name="volume">   2600.11449383 </i>
    <varray name="rec_basis" >
     <v>       0.05770623       0.10003192       0.00000000 </v>
     <v>      -0.05765400       0.10000156       0.00000000 </v>
     <v>       0.00000000       0.00000000       0.03333333 </v>
    </varray>
   </crystal>
   <varray name="positions" >
    <v>      -0.00185486       0.00122393       0.00006561 </v>
    <v>       0.66668011       0.66722437       0.00009895 </v>
    <v>       0.33378366       0.66669604      -0.00005803 </v>
    <v>       0.66835527       0.00351266       0.00003176 </v>
    <v>       0.66854125       0.33107794       0.00000730 </v>
    <v>       0.99602691       0.33163326      -0.00017200 </v>
    <v>      -0.00223453       0.66271119      -0.00010951 </v>
    <v>       0.33735324       0.00202317       0.00007468 </v>
    <v>       0.33337053       0.33356659       0.00009367 </v>
    <v>       0.10992651       0.21821690       0.95198412 </v>
    <v>       0.21842361       0.10916072       0.04806338 </v>
    <v>       0.11510411       0.55835542       0.95188570 </v>
    <v>       0.22495676       0.44832024       0.04789475 </v>
    <v>       0.10912458       0.89069469       0.95233402 </v>
    <v>       0.22404906       0.77592728       0.04789491 </v>
    <v>       0.44347035       0.22175262       0.95074451 </v>
    <v>       0.55416441       0.11045344       0.04948111 </v>
    <v>       0.44572036       0.55886876       0.95308211 </v>
    <v>       0.55649803       0.44824177       0.04791427 </v>
    <v>       0.44142147       0.88458858       0.95192572 </v>
    <v>       0.55345384       0.77321069       0.04674368 </v>
    <v>       0.77779727       0.22222103       0.95043283 </v>
    <v>       0.89127997       0.10843073       0.04814195 </v>
    <v>       0.77644405       0.55848513       0.95202455 </v>
    <v>       0.88930441       0.44559295       0.04942454 </v>
    <v>       0.77985671       0.88657628       0.95310755 </v>
    <v>       0.88719737       0.77944804       0.04688776 </v>
   </varray>
  </structure>
  <varray name="forces" >
   <v>      -0.31368565       0.03311983      -0.07750898 </v>
   <v>      -0.03377732       0.01559614       0.08420669 </v>
   <v>       0.00394761      -0.01551124       0.08218703 </v>
   <v>      -0.53368860       0.47547110      -0.00142836 </v>
   <v>       0.65700419      -0.10867229      -0.00633212 </v>
   <v>      -0.46044633      -0.42491783      -0.00556793 </v>
   <v>       0.30241810      -0.48443158      -0.10888484 </v>
   <v>       0.15793768       0.57866944      -0.08631592 </v>
   <v>       0.11387642      -0.08354651       0.10760111 </v>
   <v>       0.05194790      -0.06793965      -0.44462204 </v>
   <v>      -0.00631979      -0.08417273       0.39271624 </v>
   <v>       0.03115065       0.08974136      -0.51211850 </v>
   <v>      -0.02630085       0.07382093       0.30665678 </v>
   <v>      -0.02862829       0.00246025      -0.09537522 </v>
   <v>       0.03569907       0.00089428       0.33558267 </v>
   <v>      -0.02647211       0.00239122      -0.55074002 </v>
   <v>       0.00119393      -0.01146217       0.87264299 </v>
   <v>      -0.02316982       0.07049122      -0.42427737 </v>
   <v>      -0.03986548       0.07481147       0.33729595 </v>
   <v>       0.03619400      -0.08703396      -0.47463851 </v>
   <v>       0.03030528      -0.05929386       0.27225769 </v>
   <v>       0.01011428      -0.00739807      -0.97820169 </v>
   <v>       0.10913512      -0.00035855       0.67863897 </v>
   <v>      -0.08357008       0.00356407      -0.47582248 </v>
   <v>      -0.00317036       0.01988162       0.81137534 </v>
   <v>       0.07644565      -0.00926579      -0.34049260 </v>
   <v>      -0.03827521       0.00309130       0.30116512 </v>
  </varray>
  <varray name="stress" >
   <v>     -10.13047855       0.01951758       0.01949577 </v>
   <v>       0.01951746      -9.82766649       0.02694880 </v>
   <v>       0.01949581       0.02694896       6.47615019 </v>
  </varray>
  <energy>
   <i name="e_fr_energy">   -189.81726085 </i>
   <i name="e_wo_entrp">   -189.69785566 </i>
   <i name="e_0_energy">     -0.23881038 </i>
  </energy>
  <time name="totalsc">  380.32  381.33</time>
 </calculation>
 <calculation>
  <scstep>
   <time name="dav">   21.93   21.98</time>
   <time name="total">   22.46   22.51</time>
   <energy>
    <i name="alphaZ">     85.80584424 </i>
    <i name="ewald">  42827.72362162 </i>
    <i name="hartreedc"> -48844.26699319 </i>
    <i name="XCdc">   -232.95457944 </i>
    <i name="pawpsdc">   4039.09812491 </i>
    <i name="pawaedc">  -3454.81476691 </i>
    <i name="eentropy">     -0.21084235 </i>
    <i name="bandstr">  -1373.23833223 </i>
    <i name="atom">   6761.44252427 </i>
    <i name="e_fr_energy">   -191.41539906 </i>
    <i name="e_wo_entrp">   -191.20455671 </i>
    <i name="e_0_energy">   -191.30997789 </i>
   </energy>
  </scstep>
  <scstep>
   <time name="dav">   32.43   32.51</time>
   <time name="total">   32.95   33.04</time>
   <energy>
    <i name="e_fr_energy">   -191.22589204 </i>
    <i name="e_wo_entrp">   -191.01531602 </i>
    <i name="e_0_energy">   -191.12060403 </i>
   </energy>
  </scstep>
  <scstep>
   <time name="dav">   30.37   30.44</time>
   <time name="total">   30.88   30.96</time>
   <energy>
    <i name="e_fr_energy">   -191.37563828 </i>
    <i name="e_wo_entrp">   -191.14328363 </i>
    <i name="e_0_energy">   -191.25946095 </i>
   </energy>
  </scstep>
  <scstep>
   <time name="dav">   30.55   30.63</time>
   <time name="total">   31.08   31.16</time>
   <energy>
    <i name="e_fr_energy">   -190.99837784 </i>
    <i name="e_wo_entrp">   -190.78500724 </i>
    <i name="e_0_energy">   -190.89169254 </i>
   </energy>
  </scstep>
  <scstep>
   <time name="dav">   30.72   30.80</time>
   <time name="total">   31.24   31.33</time>
   <energy>
    <i name="e_fr_energy">   -190.92068605 </i>
    <i name="e_wo_entrp">   -190.70814234 </i>
    <i name="e_0_energy">   -190.81441419 </i>
   </energy>
  </scstep>
  <scstep>
   <time name="dav">   30.75   30.82</time>
   <time name="total">   31.27   31.35</time>
   <energy>
    <i name="e_fr_energy">   -190.86909823 </i>
    <i name="e_wo_entrp">   -190.65146060 </i>
    <i name="e_0_energy">   -190.76027942 </i>
   </energy>
  </scstep>
  <scstep>
   <time name="dav">   31.25   31.33</time>
   <time name="total">   31.77   31.86</time>
   <energy>
    <i name="e_fr_energy">   -190.84622436 </i>
    <i name="e_wo_entrp">   -190.63036709 </i>
    <i name="e_0_energy">   -190.73829572 </i>
   </energy>
  </scstep>
  <scstep>
   <time name="dav">   28.98   29.05</time>
   <time name="total">   29.50   29.58</time>
   <energy>
    <i name="e_fr_energy">   -190.84448568 </i>
    <i name="e_wo_entrp">   -190.62860313 </i>
    <i name="e_0_energy">   -190.73654441 </i>
   </energy>
  </scstep>
  <scstep>
   <time name="dav">   27.51   27.58</time>
   <time name="total">   28.03   28.11</time>
   <energy>
    <i name="e_fr_energy">   -190.84366940 </i>
    <i name="e_wo_entrp">   -190.62779679 </i>
    <i name="e_0_energy">   -190.73573310 </i>
   </energy>
  </scstep>
  <scstep>
   <time name="dav">   28.31   28.38</time>
   <time name="total">   28.83   28.91</time>
   <energy>
    <i name="e_fr_energy">   -190.84388908 </i>
    <i name="e_wo_entrp">   -190.62802552 </i>
    <i name="e_0_energy">   -190.73595730 </i>
   </energy>
  </scstep>
  <scstep>
   <time name="dav">   26.53   26.59</time>
   <time name="total">   27.05   27.12</time>
   <energy>
    <i name="e_fr_energy">   -190.84370116 </i>
    <i name="e_wo_entrp">   -190.62777417 </i>
    <i name="e_0_energy">   -190.73573766 </i>
   </energy>
  </scstep>
  <scstep>
   <time name="dav">   19.65   19.70</time>
   <time name="total">   19.69   19.75</time>
   <energy>
    <i name="alphaZ">     85.80584424 </i>
    <i name="ewald">  42827.72362162 </i>
    <i name="hartreedc"> -48815.78694702 </i>
    <i name="XCdc">   -234.27330560 </i>
    <i name="pawpsdc">   4064.79775294 </i>
    <i name="pawaedc">  -3480.70982302 </i>
    <i name="eentropy">     -0.21593663 </i>
    <i name="bandstr">  -1399.62743887 </i>
    <i name="atom">   6761.44252427 </i>
    <i name="e_fr_energy">   -190.84370806 </i>
    <i name="e_wo_entrp">   -190.62777143 </i>
    <i name="e_0_energy">   -190.73573975 </i>
   </energy>
  </scstep>
  <structure>
   <crystal>
    <varray name="basis" >
     <v>       8.48666748       4.89777842       0.00000000 </v>
     <v>      -8.48846553       4.90086515       0.00000000 </v>
     <v>       0.00000000       0.00000000      30.00000000 </v>
    </varray>
    <i name="volume">   2494.99908570 </i>
    <varray name="rec_basis" >
     <v>       0.05892826       0.10206576       0.00000000 </v>
     <v>      -0.05889114       0.10204414       0.00000000 </v>
     <v>       0.00000000       0.00000000       0.03333333 </v>
    </varray>
   </crystal>
   <varray name="positions" >
    <v>      -0.00265048       0.00263392      -0.00010859 </v>
    <v>       0.66663848       0.66738015       0.00026798 </v>
    <v>       0.33360986       0.66656850       0.00012400 </v>
    <v>       0.66931308       0.00855902       0.00002615 </v>
    <v>       0.67020339       0.32790427      -0.00000243 </v>
    <v>       0.99167560       0.33071521      -0.00016256 </v>
    <v>      -0.00411974       0.65856582      -0.00032532 </v>
    <v>       0.34157388       0.00518463      -0.00011550 </v>
    <v>       0.33322858       0.33248235       0.00031122 </v>
    <v>       0.10935469       0.21732354       0.95065246 </v>
    <v>       0.21744613       0.10841037       0.04930669 </v>
    <v>       0.11610562       0.55872399       0.95039412 </v>
    <v>       0.22522024       0.44915038       0.04893316 </v>
    <v>       0.10885258       0.89100739       0.95174687 </v>
    <v>       0.22436367       0.77561063       0.04899902 </v>
    <v>       0.44365578       0.22203013       0.94913121 </v>
    <v>       0.55438570       0.11051610       0.05178254 </v>
    <v>       0.44630939       0.55983025       0.95181154 </v>
    <v>       0.55720746       0.44914638       0.04901777 </v>
    <v>       0.44110060       0.88361383       0.95051993 </v>
    <v>       0.55313987       0.77261513       0.04767076 </v>
    <v>       0.77777683       0.22211175       0.94792195 </v>
    <v>       0.89176134       0.10795861       0.04996531 </v>
    <v>       0.77575341       0.55872575       0.95061704 </v>
    <v>       0.88928385       0.44546346       0.05158563 </v>
    <v>       0.78013917       0.88615987       0.95203349 </v>
    <v>       0.88688546       0.77982301       0.04789546 </v>
   </varray>
  </structure>
  <varray name="forces" >
   <v>      -0.33782842       0.05498679      -0.07933884 </v>
   <v>      -0.05597336       0.02536218       0.04621692 </v>
   <v>      -0.00789513      -0.03469406       0.07694209 </v>
   <v>      -0.53277391       0.41527525      -0.00767106 </v>
   <v>       0.63323696      -0.13488182      -0.00609763 </v>
   <v>      -0.46210213      -0.37033766       0.01952137 </v>
   <v>       0.31876516      -0.54454035      -0.06543057 </v>
   <v>       0.15779905       0.66028004      -0.05040408 </v>
   <v>       0.13522934      -0.09857715       0.07129477 </v>
   <v>      -0.05576702      -0.01329084      -0.28025017 </v>
   <v>       0.03367654      -0.06361688       0.28365780 </v>
   <v>       0.08176091      -0.03185571      -0.39617450 </v>
   <v>      -0.04520098      -0.06311749       0.16104420 </v>
   <v>       0.05886606       0.00454601       0.07657967 </v>
   <v>      -0.02582913       0.00826316       0.12706975 </v>
   <v>       0.02553160       0.10492272      -0.40136977 </v>
   <v>       0.02509043       0.05000199       0.69571440 </v>
   <v>       0.00742893       0.02574669      -0.28942640 </v>
   <v>       0.08149380       0.03182529       0.19035933 </v>
   <v>       0.05829131       0.05144093      -0.32519788 </v>
   <v>      -0.04683762       0.08126764       0.19410196 </v>
   <v>       0.01782943       0.00022294      -0.78419108 </v>
   <v>      -0.04295404      -0.00856820       0.48832822 </v>
   <v>       0.01908556      -0.08435260      -0.31053921 </v>
   <v>       0.01259882      -0.06127609       0.60302702 </v>
   <v>      -0.06690251      -0.00177956      -0.24911917 </v>
   <v>       0.01338036      -0.00325323       0.21135287 </v>
  </varray>
  <varray name="stress" >
   <v>      -5.56433985      -0.07899101      -0.13520296 </v>
   <v>      -0.07899109      -5.68023012      -0.08345266 </v>
   <v>      -0.13520293      -0.08345273       4.48256831 </v>
  </varray>
  <energy>
   <i name="e_fr_energy">   -190.84370806 </i>
   <i name="e_wo_entrp">   -190.73573975 </i>
   <i name="e_0_energy">     -0.21593663 </i>
  </energy>
  <time name="totalsc">  387.35  388.38</time>
 </calculation>
 <calculation>
  <scstep>
   <time name="dav">   21.92   21.97</time>
   <time name="total">   22.43   22.48</time>
   <energy>
    <i name="alphaZ">     89.93641036 </i>
    <i name="ewald">  44563.78864569 </i>
    <i name="hartreedc"> -50604.33194645 </i>
    <i name="XCdc">   -231.95878327 </i>
    <i name="pawpsdc">   4064.75455469 </i>
    <i name="pawaedc">  -3480.66260633 </i>
    <i name="eentropy">     -0.21453250 </i>
    <i name="bandstr">  -1354.89932287 </i>
    <i name="atom">   6761.44252427 </i>
    <i name="e_fr_energy">   -192.14505640 </i>
    <i name="e_wo_entrp">   -191.93052390 </i>
    <i name="e_0_energy">   -192.03779015 </i>
   </energy>
  </scstep>
  <scstep>
   <time name="dav">   27.53   27.60</time>
   <time name="total">   28.04   28.12</time>
   <energy>
    <i name="e_fr_energy">   -191.92361646 </i>
    <i name="e_wo_entrp">   -191.70736162 </i>
    <i name="e_0_energy">   -191.81548904 </i>
   </energy>
  </scstep>
  <scstep>
   <time name="dav">   29.54   29.61</time>
   <time name="total">   30.04   30.12</time>
   <energy>
    <i name="e_fr_energy">   -191.79860359 </i>
    <i name="e_wo_entrp">   -191.57185204 </i>
    <i name="e_0_energy">   -191.68522781 </i>
   </energy>
  </scstep>
  <scstep>
   <time name="dav">   30.59   30.66</time>
   <time name="total">   31.10   31.18</time>
   <energy>
    <i name="e_fr_energy">   -191.82097851 </i>
    <i name="e_wo_entrp">   -191.61558060 </i>
    <i name="e_0_energy">   -191.71827955 </i>
   </energy>
  </scstep>
  <scstep>
   <time name="dav">   30.66   30.74</time>
   <time name="total">   31.17   31.25</time>
   <energy>
    <i name="e_fr_energy">   -191.55167894 </i>
    <i name="e_wo_entrp">   -191.32994761 </i>
    <i name="e_0_energy">   -191.44081327 </i>
   </energy>
  </scstep>
  <scstep>
   <time name="dav">   28.39   28.46</time>
   <time name="total">   28.90   28.98</time>
   <energy>
    <i name="e_fr_energy">   -191.54185788 </i>
    <i name="e_wo_entrp">   -191.32042363 </i>
    <i name="e_0_energy">   -191.43114075 </i>
   </energy>
  </scstep>
  <scstep>
   <time name="dav">   29.73   29.80</time>
   <time name="total">   30.24   30.32</time>
   <energy>
    <i name="e_fr_energy">   -191.54563775 </i>
    <i name="e_wo_entrp">   -191.32509059 </i>
    <i name="e_0_energy">   -191.43536417 </i>
   </energy>
  </scstep>
  <scstep>
   <time name="dav">   29.09   29.16</time>
   <time name="total">   29.60   29.68</time>
   <energy>
    <i name="e_fr_energy">   -191.53732751 </i>
    <i name="e_wo_entrp">   -191.31612735 </i>
    <i name="e_0_energy">   -191.42672743 </i>
   </energy>
  </scstep>
  <scstep>
   <time name="dav">   28.82   28.88</time>
   <time name="total">   29.32   29.40</time>
   <energy>
    <i name="e_fr_energy">   -191.53784928 </i>
    <i name="e_wo_entrp">   -191.31693409 </i>
    <i name="e_0_energy">   -191.42739169 </i>
   </energy>
  </scstep>
  <scstep>
   <time name="dav">   28.18   28.24</time>
   <time name="total">   28.69   28.76</time>
   <energy>
    <i name="e_fr_energy">   -191.53773667 </i>
    <i name="e_wo_entrp">   -191.31651380 </i>
    <i name="e_0_energy">   -191.42712523 </i>
   </energy>
  </scstep>
  <scstep>
   <time name="dav">   25.92   25.98</time>
   <time name="total">   26.43   26.50</time>
   <energy>
    <i name="e_fr_energy">   -191.53736686 </i>
    <i name="e_wo_entrp">   -191.31627111 </i>
    <i name="e_0_energy">   -191.42681898 </i>
   </energy>
  </scstep>
  <scstep>
   <time name="dav">   17.63   17.68</time>
   <time name="total">   17.67   17.72</time>
   <energy>
    <i name="alphaZ">     89.93641036 </i>
    <i name="ewald">  44563.78864569 </i>
    <i name="hartreedc"> -50572.73959356 </i>
    <i name="XCdc">   -233.38273056 </i>
    <i name="pawpsdc">   4087.39473226 </i>
    <i name="pawaedc">  -3503.43141934 </i>
    <i name="eentropy">     -0.22118005 </i>
    <i name="bandstr">  -1384.32472533 </i>
    <i name="atom">   6761.44252427 </i>
    <i name="e_fr_energy">   -191.53733627 </i>
    <i name="e_wo_entrp">   -191.31615621 </i>
    <i name="e_0_energy">   -191.42674624 </i>
   </energy>
  </scstep>
  <structure>
   <crystal>
    <varray name="basis" >
     <v>       8.29014476       4.77866741       0.00000000 </v>
     <v>      -8.29618164       4.78909574       0.00000000 </v>
     <v>       0.00000000       0.00000000      30.00000000 </v>
    </varray>
    <i name="volume">   2380.40969251 </i>
    <varray name="rec_basis" >
     <v>       0.06035636       0.10455572       0.00000000 </v>
     <v>      -0.06022494       0.10447964       0.00000000 </v>
     <v>       0.00000000       0.00000000       0.03333333 </v>
    </varray>
   </crystal>
   <varray name="positions" >
    <v>      -0.00418274       0.00562013      -0.00042957 </v>
    <v>       0.66654189       0.66795931       0.00046013 </v>
    <v>       0.33308556       0.66621260       0.00043724 </v>
    <v>       0.67058476       0.01738580      -0.00000327 </v>
    <v>       0.67297002       0.32185480      -0.00002245 </v>
    <v>       0.98400110       0.32948545      -0.00007681 </v>
    <v>      -0.00825774       0.65000834      -0.00058985 </v>
    <v>       0.35039182       0.01192921      -0.00034112 </v>
    <v>       0.33295652       0.33026577       0.00059964 </v>
    <v>       0.10846198       0.21705835       0.94903656 </v>
    <v>       0.21638669       0.10716013       0.05092872 </v>
    <v>       0.11678960       0.55793440       0.94833219 </v>
    <v>       0.22428005       0.44920668       0.05007014 </v>
    <v>       0.10902655       0.89094587       0.95153090 </v>
    <v>       0.22452544       0.77560720       0.05004267 </v>
    <v>       0.44515854       0.22316880       0.94698673 </v>
    <v>       0.55534824       0.11101429       0.05510321 </v>
    <v>       0.44696085       0.56065928       0.95019575 </v>
    <v>       0.55852137       0.44946231       0.05027064 </v>
    <v>       0.44197526       0.88330127       0.94872460 </v>
    <v>       0.55357587       0.77348443       0.04885778 </v>
    <v>       0.77787107       0.22195846       0.94426032 </v>
    <v>       0.89161340       0.10794351       0.05240708 </v>
    <v>       0.77447934       0.55773389       0.94887122 </v>
    <v>       0.88861011       0.44450189       0.05454889 </v>
    <v>       0.77984785       0.88636545       0.95062074 </v>
    <v>       0.88669105       0.77998685       0.04917780 </v>
   </varray>
  </structure>
  <varray name="forces" >
   <v>      -0.46238963       0.04573800       0.00138505 </v>
   <v>      -0.10994405       0.08791132       0.04480787 </v>
   <v>       0.00256297      -0.06565090       0.02155500 </v>
   <v>      -0.05518856       0.02722236      -0.03398547 </v>
   <v>       0.00711444      -0.05267678      -0.03585350 </v>
   <v>      -0.09530274      -0.02355868      -0.06775763 </v>
   <v>       0.26298319      -0.52330665      -0.02755846 </v>
   <v>       0.09600237       0.53811303       0.06298782 </v>
   <v>       0.19063648      -0.06788317       0.05162504 </v>
   <v>      -0.16509304       0.05922872       0.00237615 </v>
   <v>       0.11141809      -0.03527325       0.00515371 </v>
   <v>       0.08419015      -0.13993623      -0.10556651 </v>
   <v>      -0.01013393      -0.20301707      -0.08871454 </v>
   <v>       0.21536562       0.01617984       0.42414592 </v>
   <v>      -0.13033437       0.02575076      -0.20796927 </v>
   <v>       0.06644174       0.21327946      -0.16886466 </v>
   <v>       0.01870162       0.08098388       0.30084243 </v>
   <v>       0.01962060      -0.03411588       0.00881018 </v>
   <v>       0.19153304      -0.04141630      -0.09184740 </v>
   <v>       0.00613281       0.18310293      -0.02754423 </v>
   <v>      -0.12204615       0.19191348      -0.03227235 </v>
   <v>       0.02156371       0.02546628      -0.27872451 </v>
   <v>      -0.16234226      -0.01103692       0.12162118 </v>
   <v>       0.14094596      -0.18724311      -0.02791875 </v>
   <v>      -0.00369231      -0.14230871       0.25674568 </v>
   <v>      -0.21331620       0.01225652      -0.02429467 </v>
   <v>       0.09457046       0.02027705      -0.08318407 </v>
  </varray>
  <varray name="stress" >
   <v>       0.45934408      -0.23074016      -0.19559040 </v>
   <v>      -0.23074016       0.26912243      -0.28756378 </v>
   <v>      -0.19559021      -0.28756388      -0.68369279 </v>
  </varray>
  <energy>
   <i name="e_fr_energy">   -191.53733627 </i>
   <i name="e_wo_entrp">   -191.42674624 </i>
   <i name="e_0_energy">     -0.22118005 </i>
  </energy>
  <time name="totalsc">  375.79  376.78</time>
 </calculation>
 <calculation>
  <scstep>
   <time name="dav">   22.02   22.07</time>
   <time name="total">   22.53   22.58</time>
   <energy>
    <i name="alphaZ">     89.68802554 </i>
    <i name="ewald">  44440.51263951 </i>
    <i name="hartreedc"> -50447.19121846 </i>
    <i name="XCdc">   -233.60206530 </i>
    <i name="pawpsdc">   4087.24719572 </i>
    <i name="pawaedc">  -3503.27875729 </i>
    <i name="eentropy">     -0.22199598 </i>
    <i name="bandstr">  -1386.20720333 </i>
    <i name="atom">   6761.44252427 </i>
    <i name="e_fr_energy">   -191.61085532 </i>
    <i name="e_wo_entrp">   -191.38885934 </i>
    <i name="e_0_energy">   -191.49985733 </i>
   </energy>
  </scstep>
  <scstep>
   <time name="dav">   33.02   33.10</time>
   <time name="total">   33.53   33.62</time>
   <energy>
    <i name="e_fr_energy">   -191.66320671 </i>
    <i name="e_wo_entrp">   -191.43427834 </i>
    <i name="e_0_energy">   -191.54874253 </i>
   </energy>
  </scstep>
  <scstep>
   <time name="dav">   31.00   31.07</time>
   <time name="total">   31.51   31.59</time>
   <energy>
    <i name="e_fr_energy">   -191.62215685 </i>
    <i name="e_wo_entrp">   -191.39958002 </i>
    <i name="e_0_energy">   -191.51086843 </i>
   </energy>
  </scstep>
  <scstep>
   <time name="dav">   26.30   26.36</time>
   <time name="total">   26.81   26.88</time>
   <energy>
    <i name="e_fr_energy">   -191.62507705 </i>
    <i name="e_wo_entrp">   -191.40312906 </i>
    <i name="e_0_energy">   -191.51410306 </i>
   </energy>
  </scstep>
  <scstep>
   <time name="dav">   28.12   28.19</time>
   <time name="total">   28.63   28.70</time>
   <energy>
    <i name="e_fr_energy">   -191.61916021 </i>
    <i name="e_wo_entrp">   -191.39528501 </i>
    <i name="e_0_energy">   -191.50722261 </i>
   </energy>
  </scstep>
  <scstep>
   <time name="dav">   28.10   28.16</time>
   <time name="total">   28.61   28.68</time>
   <energy>
    <i name="e_fr_energy">   -191.61990204 </i>
    <i name="e_wo_entrp">   -191.39707602 </i>
    <i name="e_0_energy">   -191.50848903 </i>
   </energy>
  </scstep>
  <scstep>
   <time name="dav">   28.28   28.35</time>
   <time name="total">   28.79   28.87</time>
   <energy>
    <i name="e_fr_energy">   -191.61894775 </i>
    <i name="e_wo_entrp">   -191.39592332 </i>
    <i name="e_0_energy">   -191.50743554 </i>
   </energy>
  </scstep>
  <scstep>
   <time name="dav">   25.54   25.60</time>
   <time name="total">   26.05   26.12</time>
   <energy>
    <i name="e_fr_energy">   -191.61844639 </i>
    <i name="e_wo_entrp">   -191.39542922 </i>
    <i name="e_0_energy">   -191.50693781 </i>
   </energy>
  </scstep>
  <scstep>
   <time name="dav">   18.48   18.52</time>
   <time name="total">   18.51   18.57</time>
   <energy>
    <i name="alphaZ">     89.68802554 </i>
    <i name="ewald">  44440.51263951 </i>
    <i name="hartreedc"> -50450.21171013 </i>
    <i name="XCdc">   -233.49885092 </i>
    <i name="pawpsdc">   4083.94321880 </i>
    <i name="pawaedc">  -3499.93083314 </i>
    <i name="eentropy">     -0.22305772 </i>
    <i name="bandstr">  -1383.34041265 </i>
    <i name="atom">   6761.44252427 </i>
    <i name="e_fr_energy">   -191.61845643 </i>
    <i name="e_wo_entrp">   -191.39539871 </i>
    <i name="e_0_energy">   -191.50692757 </i>
   </energy>
  </scstep>
  <structure>
   <crystal>
    <varray name="basis" >
     <v>       8.30081247       4.77954718       0.00000000 </v>
     <v>      -8.31222812       4.79929518       0.00000000 </v>
     <v>       0.00000000       0.00000000      30.00000000 </v>
    </varray>
    <i name="volume">   2387.00207354 </i>
    <varray name="rec_basis" >
     <v>       0.06031786       0.10446863       0.00000000 </v>
     <v>      -0.06006967       0.10432516       0.00000000 </v>
     <v>       0.00000000       0.00000000       0.03333333 </v>
    </varray>
   </crystal>
   <varray name="positions" >
    <v>      -0.00517837       0.00699000      -0.00041563 </v>
    <v>       0.66666146       0.66865701       0.00052055 </v>
    <v>       0.33280201       0.66590771       0.00045816 </v>
    <v>       0.67051736       0.01734217      -0.00005352 </v>
    <v>       0.67264010       0.32180598      -0.00007594 </v>
    <v>       0.98390717       0.32967801      -0.00018242 </v>
    <v>      -0.00987189       0.64711982      -0.00062168 </v>
    <v>       0.35288840       0.01397177      -0.00023718 </v>
    <v>       0.33316665       0.32950723       0.00066692 </v>
    <v>       0.10833216       0.21781080       0.94911157 </v>
    <v>       0.21657581       0.10674093       0.05086504 </v>
    <v>       0.11631985       0.55706723       0.94826017 </v>
    <v>       0.22332180       0.44825913       0.04988241 </v>
    <v>       0.10969277       0.89042994       0.95219194 </v>
    <v>       0.22427921       0.77609171       0.04967729 </v>
    <v>       0.44629400       0.22395413       0.94682371 </v>
    <v>       0.55574327       0.11132663       0.05542237 </v>
    <v>       0.44682208       0.56040001       0.95027957 </v>
    <v>       0.55879205       0.44872003       0.05007396 </v>
    <v>       0.44283106       0.88417541       0.94876101 </v>
    <v>       0.55414061       0.77470471       0.04875544 </v>
    <v>       0.77804799       0.22202650       0.94398672 </v>
    <v>       0.89111641       0.10833987       0.05248914 </v>
    <v>       0.77403398       0.55649557       0.94890548 </v>
    <v>       0.88795120       0.44387690       0.05481426 </v>
    <v>       0.77932849       0.88700373       0.95064610 </v>
    <v>       0.88705881       0.77981151       0.04899446 </v>
   </varray>
  </structure>
  <varray name="forces" >
   <v>      -0.54827126       0.02363314      -0.00460659 </v>
   <v>      -0.12252424       0.11600332       0.05985559 </v>
   <v>      -0.01094958      -0.05953703       0.03397268 </v>
   <v>      -0.10684596       0.10818037      -0.02937861 </v>
   <v>       0.11609352      -0.08213383      -0.02303062 </v>
   <v>      -0.16893107      -0.08485670      -0.01837306 </v>
   <v>       0.29275902      -0.56160978      -0.02700960 </v>
   <v>       0.10848304       0.57804693       0.00022309 </v>
   <v>       0.24886820      -0.05667140       0.04867894 </v>
   <v>      -0.08927029       0.04314723      -0.01231793 </v>
   <v>       0.07863363      -0.03362704      -0.01887150 </v>
   <v>       0.06230222      -0.07964464      -0.10773055 </v>
   <v>       0.02693974      -0.11205369      -0.09896770 </v>
   <v>       0.15539403      -0.00145411       0.48371037 </v>
   <v>      -0.09698645       0.01348865      -0.21667340 </v>
   <v>       0.02954785       0.12106196      -0.15926749 </v>
   <v>       0.03890897       0.08411142       0.23419319 </v>
   <v>       0.01362314      -0.02488420       0.03985819 </v>
   <v>       0.08928905      -0.00520010      -0.07161089 </v>
   <v>      -0.01676514       0.10423252      -0.01499041 </v>
   <v>      -0.06790984       0.08998862      -0.03570744 </v>
   <v>       0.00741337       0.00647664      -0.16313341 </v>
   <v>      -0.08533846       0.01055639       0.12467520 </v>
   <v>       0.06478273      -0.12855466      -0.05368471 </v>
   <v>       0.02771622      -0.10830786       0.19388072 </v>
   <v>      -0.11951403       0.01483250      -0.04251908 </v>
   <v>       0.07255158       0.02477534      -0.12117499 </v>
  </varray>
  <varray name="stress" >
   <v>      -0.21888062      -0.03910322      -0.01364482 </v>
   <v>      -0.03910328      -0.03944003      -0.09409475 </v>
   <v>      -0.01364477      -0.09409472      -1.21445925 </v>
  </varray>
  <energy>
   <i name="e_fr_energy">   -191.61845643 </i>
   <i name="e_wo_entrp">   -191.50692757 </i>
   <i name="e_0_energy">     -0.22305772 </i>
  </energy>
  <time name="totalsc">  287.00  287.76</time>
 </calculation>
 <calculation>
  <scstep>
   <time name="dav">   22.00   22.05</time>
   <time name="total">   22.51   22.56</time>
   <energy>
    <i name="alphaZ">     89.76400625 </i>
    <i name="ewald">  44472.60417343 </i>
    <i name="hartreedc"> -50483.10560336 </i>
    <i name="XCdc">   -233.45940015 </i>
    <i name="pawpsdc">   4083.61083922 </i>
    <i name="pawaedc">  -3499.59509992 </i>
    <i name="eentropy">     -0.22153017 </i>
    <i name="bandstr">  -1382.73167619 </i>
    <i name="atom">   6761.44252427 </i>
    <i name="e_fr_energy">   -191.69176662 </i>
    <i name="e_wo_entrp">   -191.47023645 </i>
    <i name="e_0_energy">   -191.58100153 </i>
   </energy>
  </scstep>
  <scstep>
   <time name="dav">   32.18   32.26</time>
   <time name="total">   32.69   32.78</time>
   <energy>
    <i name="e_fr_energy">   -191.72635938 </i>
    <i name="e_wo_entrp">   -191.49785984 </i>
    <i name="e_0_energy">   -191.61210961 </i>
   </energy>
  </scstep>
  <scstep>
   <time name="dav">   30.94   31.02</time>
   <time name="total">   31.45   31.53</time>
   <energy>
    <i name="e_fr_energy">   -191.69904984 </i>
    <i name="e_wo_entrp">   -191.47710783 </i>
    <i name="e_0_energy">   -191.58807883 </i>
   </energy>
  </scstep>
  <scstep>
   <time name="dav">   27.79   27.86</time>
   <time name="total">   28.30   28.38</time>
   <energy>
    <i name="e_fr_energy">   -191.69961883 </i>
    <i name="e_wo_entrp">   -191.47861510 </i>
    <i name="e_0_energy">   -191.58911696 </i>
   </energy>
  </scstep>
  <scstep>
   <time name="dav">   28.19   28.25</time>
   <time name="total">   28.69   28.77</time>
   <energy>
    <i name="e_fr_energy">   -191.69637619 </i>
    <i name="e_wo_entrp">   -191.47314727 </i>
    <i name="e_0_energy">   -191.58476173 </i>
   </energy>
  </scstep>
  <scstep>
   <time name="dav">   28.77   28.84</time>
   <time name="total">   29.28   29.36</time>
   <energy>
    <i name="e_fr_energy">   -191.69643766 </i>
    <i name="e_wo_entrp">   -191.47386957 </i>
    <i name="e_0_energy">   -191.58515362 </i>
   </energy>
  </scstep>
  <scstep>
   <time name="dav">   26.95   27.01</time>
   <time name="total">   27.45   27.53</time>
   <energy>
    <i name="e_fr_energy">   -191.69644441 </i>
    <i name="e_wo_entrp">   -191.47369412 </i>
    <i name="e_0_energy">   -191.58506927 </i>
   </energy>
  </scstep>
  <scstep>
[...]
      <set comment="kpoint 31">
       <r>  -17.4817    1.0000 </r>
       <r>  -17.2771    1.0000 </r>
       <r>  -16.9096    1.0000 </r>
       <r>  -16.6183    1.0000 </r>
       <r>  -16.4827    1.0000 </r>
       <r>  -16.3928    1.0000 </r>
       <r>  -16.3163    1.0000 </r>
       <r>  -16.1929    1.0000 </r>
       <r>  -16.0990    1.0000 </r>
       <r>  -16.0154    1.0000 </r>
       <r>  -15.9661    1.0000 </r>
       <r>  -15.9073    1.0000 </r>
       <r>  -15.7953    1.0000 </r>
       <r>  -15.7623    1.0000 </r>
       <r>  -15.6095    1.0000 </r>
       <r>  -15.5091    1.0000 </r>
       <r>  -15.3893    1.0000 </r>
       <r>  -15.2894    1.0000 </r>
       <r>   -9.7030    1.0000 </r>
       <r>   -9.4077    1.0000 </r>
       <r>   -9.3076    1.0000 </r>
       <r>   -8.9352    1.0000 </r>
       <r>   -8.8298    1.0000 </r>
       <r>   -8.6954    1.0000 </r>
       <r>   -8.5267    1.0000 </r>
       <r>   -8.4493    1.0000 </r>
       <r>   -8.4112    1.0000 </r>
       <r>   -8.3193    1.0000 </r>
       <r>   -8.2587    1.0000 </r>
       <r>   -8.2326    1.0000 </r>
       <r>   -8.1280    1.0000 </r>
       <r>   -8.0748    1.0000 </r>
       <r>   -8.0097    1.0000 </r>
       <r>   -7.8915    1.0000 </r>
       <r>   -7.7977    1.0000 </r>
       <r>   -7.6362    1.0000 </r>
       <r>   -7.5694    1.0000 </r>
       <r>   -7.4755    1.0000 </r>
       <r>   -7.3021    1.0000 </r>
       <r>   -7.1995    1.0000 </r>
       <r>   -7.1535    1.0000 </r>
       <r>   -7.1213    1.0000 </r>
       <r>   -7.0387    1.0000 </r>
       <r>   -6.9841    1.0000 </r>
       <r>   -6.8793    1.0000 </r>
       <r>   -6.7738    1.0000 </r>
       <r>   -6.6598    1.0000 </r>
       <r>   -6.6213    1.0000 </r>
       <r>   -6.5612    1.0000 </r>
       <r>   -6.5021    1.0000 </r>
       <r>   -6.3933    1.0000 </r>
       <r>   -6.3285    1.0000 </r>
       <r>   -6.2984    1.0000 </r>
       <r>   -6.2343    1.0000 </r>
       <r>   -6.1743    1.0000 </r>
       <r>   -6.1030    1.0000 </r>
       <r>   -5.9840    1.0000 </r>
       <r>   -5.9115    1.0000 </r>
       <r>   -5.8785    1.0000 </r>
       <r>   -5.8228    1.0000 </r>
       <r>   -5.7467    1.0000 </r>
       <r>   -5.6511    1.0000 </r>
       <r>   -5.5734    1.0000 </r>
       <r>   -5.4141    1.0000 </r>
       <r>   -5.2293    1.0000 </r>
       <r>   -5.1959    1.0000 </r>
       <r>   -5.0844    1.0000 </r>
       <r>   -4.9000    1.0000 </r>
       <r>   -4.8044    1.0000 </r>
       <r>   -4.7539    1.0000 </r>
       <r>   -4.5337    1.0000 </r>
       <r>   -4.4236    1.0000 </r>
       <r>   -4.3284    1.0000 </r>
       <r>   -4.2573    1.0000 </r>
       <r>   -4.1614    1.0000 </r>
       <r>   -4.0381    1.0000 </r>
       <r>   -3.9042    1.0000 </r>
       <r>   -3.6863    0.9986 </r>
       <r>   -3.4712    0.9297 </r>
       <r>   -3.2955    0.5915 </r>
       <r>   -2.9674    0.0184 </r>
       <r>   -2.6817    0.0000 </r>
       <r>   -2.6149    0.0000 </r>
       <r>   -2.5480    0.0000 </r>
       <r>   -2.3809    0.0000 </r>
       <r>   -2.3320    0.0000 </r>
       <r>   -2.2972    0.0000 </r>
       <r>   -2.1043    0.0000 </r>
       <r>   -1.9934    0.0000 </r>
       <r>   -1.9425    0.0000 </r>
       <r>   -1.8936    0.0000 </r>
       <r>   -1.7951    0.0000 </r>
       <r>   -1.5180    0.0000 </r>
       <r>   -1.2863    0.0000 </r>
       <r>   -1.2225    0.0000 </r>
       <r>   -1.0968    0.0000 </r>
       <r>   -1.0669    0.0000 </r>
       <r>   -1.0340    0.0000 </r>
       <r>   -0.9492    0.0000 </r>
       <r>   -0.8952    0.0000 </r>
       <r>   -0.8765    0.0000 </r>
       <r>   -0.7543    0.0000 </r>
       <r>   -0.7323    0.0000 </r>
       <r>   -0.6137    0.0000 </r>
       <r>   -0.5307    0.0000 </r>
       <r>   -0.4269    0.0000 </r>
       <r>   -0.2491    0.0000 </r>
       <r>   -0.1817    0.0000 </r>
       <r>    0.0690    0.0000 </r>
       <r>    0.1990    0.0000 </r>
       <r>    0.4123    0.0000 </r>
       <r>    0.5952    0.0000 </r>
       <r>    0.7354    0.0000 </r>
       <r>    0.9734    0.0000 </r>
       <r>    1.0790    0.0000 </r>
       <r>    1.2271    0.0000 </r>
       <r>    1.4364    0.0000 </r>
       <r>    2.1137    0.0000 </r>
       <r>    2.2725    0.0000 </r>
       <r>    2.3740    0.0000 </r>
      </set>
      <set comment="kpoint 32">
       <r>  -17.5101    1.0000 </r>
       <r>  -17.1552    1.0000 </r>
       <r>  -17.0551    1.0000 </r>
       <r>  -16.6163    1.0000 </r>
       <r>  -16.4016    1.0000 </r>
       <r>  -16.3593    1.0000 </r>
       <r>  -16.3026    1.0000 </r>
       <r>  -16.2332    1.0000 </r>
       <r>  -16.0935    1.0000 </r>
       <r>  -16.0666    1.0000 </r>
       <r>  -15.9540    1.0000 </r>
       <r>  -15.9321    1.0000 </r>
       <r>  -15.7931    1.0000 </r>
       <r>  -15.7421    1.0000 </r>
       <r>  -15.6256    1.0000 </r>
       <r>  -15.5071    1.0000 </r>
       <r>  -15.3827    1.0000 </r>
       <r>  -15.2839    1.0000 </r>
       <r>   -9.5979    1.0000 </r>
       <r>   -9.5508    1.0000 </r>
       <r>   -9.3669    1.0000 </r>
       <r>   -8.9214    1.0000 </r>
       <r>   -8.7262    1.0000 </r>
       <r>   -8.5545    1.0000 </r>
       <r>   -8.5073    1.0000 </r>
       <r>   -8.4637    1.0000 </r>
       <r>   -8.3802    1.0000 </r>
       <r>   -8.3578    1.0000 </r>
       <r>   -8.2967    1.0000 </r>
       <r>   -8.2316    1.0000 </r>
       <r>   -8.1806    1.0000 </r>
       <r>   -8.1203    1.0000 </r>
       <r>   -8.0716    1.0000 </r>
       <r>   -7.9228    1.0000 </r>
       <r>   -7.7749    1.0000 </r>
       <r>   -7.6486    1.0000 </r>
       <r>   -7.5095    1.0000 </r>
       <r>   -7.4659    1.0000 </r>
       <r>   -7.3227    1.0000 </r>
       <r>   -7.2365    1.0000 </r>
       <r>   -7.1984    1.0000 </r>
       <r>   -7.0761    1.0000 </r>
       <r>   -7.0427    1.0000 </r>
       <r>   -6.9534    1.0000 </r>
       <r>   -6.8371    1.0000 </r>
       <r>   -6.7976    1.0000 </r>
       <r>   -6.6886    1.0000 </r>
       <r>   -6.6599    1.0000 </r>
       <r>   -6.5680    1.0000 </r>
       <r>   -6.4979    1.0000 </r>
       <r>   -6.3914    1.0000 </r>
       <r>   -6.3757    1.0000 </r>
       <r>   -6.2851    1.0000 </r>
       <r>   -6.2324    1.0000 </r>
       <r>   -6.1020    1.0000 </r>
       <r>   -6.0936    1.0000 </r>
       <r>   -5.9459    1.0000 </r>
       <r>   -5.9139    1.0000 </r>
       <r>   -5.8947    1.0000 </r>
       <r>   -5.7527    1.0000 </r>
       <r>   -5.7235    1.0000 </r>
       <r>   -5.5863    1.0000 </r>
       <r>   -5.5512    1.0000 </r>
       <r>   -5.4263    1.0000 </r>
       <r>   -5.3192    1.0000 </r>
       <r>   -5.2568    1.0000 </r>
       <r>   -5.0565    1.0000 </r>
       <r>   -4.9203    1.0000 </r>
       <r>   -4.8470    1.0000 </r>
       <r>   -4.7390    1.0000 </r>
       <r>   -4.5847    1.0000 </r>
       <r>   -4.4000    1.0000 </r>
       <r>   -4.3694    1.0000 </r>
       <r>   -4.2499    1.0000 </r>
       <r>   -4.1380    1.0000 </r>
       <r>   -4.0287    1.0000 </r>
       <r>   -3.8939    1.0000 </r>
       <r>   -3.7076    0.9992 </r>
       <r>   -3.4428    0.8985 </r>
       <r>   -3.2174    0.3742 </r>
       <r>   -3.0648    0.0808 </r>
       <r>   -2.6773    0.0000 </r>
       <r>   -2.5820    0.0000 </r>
       <r>   -2.5467    0.0000 </r>
       <r>   -2.3654    0.0000 </r>
       <r>   -2.3416    0.0000 </r>
       <r>   -2.2784    0.0000 </r>
       <r>   -2.1199    0.0000 </r>
       <r>   -1.9609    0.0000 </r>
       <r>   -1.9322    0.0000 </r>
       <r>   -1.9035    0.0000 </r>
       <r>   -1.8385    0.0000 </r>
       <r>   -1.5355    0.0000 </r>
       <r>   -1.3044    0.0000 </r>
       <r>   -1.1974    0.0000 </r>
       <r>   -1.1081    0.0000 </r>
       <r>   -1.0552    0.0000 </r>
       <r>   -1.0139    0.0000 </r>
       <r>   -0.9615    0.0000 </r>
       <r>   -0.9282    0.0000 </r>
       <r>   -0.8590    0.0000 </r>
       <r>   -0.7808    0.0000 </r>
       <r>   -0.6947    0.0000 </r>
       <r>   -0.6405    0.0000 </r>
       <r>   -0.5409    0.0000 </r>
       <r>   -0.4609    0.0000 </r>
       <r>   -0.2124    0.0000 </r>
       <r>   -0.0953    0.0000 </r>
       <r>    0.0995    0.0000 </r>
       <r>    0.2019    0.0000 </r>
       <r>    0.3638    0.0000 </r>
       <r>    0.6032    0.0000 </r>
       <r>    0.7046    0.0000 </r>
       <r>    0.9340    0.0000 </r>
       <r>    1.0445    0.0000 </r>
       <r>    1.2576    0.0000 </r>
       <r>    1.4342    0.0000 </r>
       <r>    2.0820    0.0000 </r>
       <r>    2.2432    0.0000 </r>
       <r>    2.5393    0.0000 </r>
      </set>
      <set comment="kpoint 33">
       <r>  -17.5056    1.0000 </r>
       <r>  -17.2306    1.0000 </r>
       <r>  -16.9304    1.0000 </r>
       <r>  -16.6196    1.0000 </r>
       <r>  -16.4958    1.0000 </r>
       <r>  -16.4023    1.0000 </r>
       <r>  -16.3105    1.0000 </r>
       <r>  -16.1693    1.0000 </r>
       <r>  -16.0898    1.0000 </r>
       <r>  -16.0207    1.0000 </r>
       <r>  -15.9575    1.0000 </r>
       <r>  -15.9275    1.0000 </r>
       <r>  -15.7974    1.0000 </r>
       <r>  -15.7568    1.0000 </r>
       <r>  -15.6087    1.0000 </r>
       <r>  -15.5168    1.0000 </r>
       <r>  -15.3819    1.0000 </r>
       <r>  -15.2936    1.0000 </r>
       <r>   -9.6805    1.0000 </r>
       <r>   -9.4199    1.0000 </r>
       <r>   -9.2892    1.0000 </r>
       <r>   -8.9365    1.0000 </r>
       <r>   -8.8580    1.0000 </r>
       <r>   -8.7450    1.0000 </r>
       <r>   -8.5396    1.0000 </r>
       <r>   -8.4242    1.0000 </r>
       <r>   -8.3753    1.0000 </r>
       <r>   -8.3245    1.0000 </r>
       <r>   -8.2744    1.0000 </r>
       <r>   -8.2372    1.0000 </r>
       <r>   -8.1129    1.0000 </r>
       <r>   -8.0781    1.0000 </r>
       <r>   -7.9997    1.0000 </r>
       <r>   -7.8617    1.0000 </r>
       <r>   -7.7935    1.0000 </r>
       <r>   -7.6496    1.0000 </r>
       <r>   -7.5850    1.0000 </r>
       <r>   -7.4693    1.0000 </r>
       <r>   -7.3082    1.0000 </r>
       <r>   -7.2156    1.0000 </r>
       <r>   -7.1357    1.0000 </r>
       <r>   -7.1109    1.0000 </r>
       <r>   -7.0386    1.0000 </r>
       <r>   -6.9943    1.0000 </r>
       <r>   -6.8816    1.0000 </r>
       <r>   -6.7680    1.0000 </r>
       <r>   -6.6593    1.0000 </r>
       <r>   -6.6008    1.0000 </r>
       <r>   -6.5693    1.0000 </r>
       <r>   -6.5098    1.0000 </r>
       <r>   -6.3827    1.0000 </r>
       <r>   -6.3367    1.0000 </r>
       <r>   -6.3064    1.0000 </r>
       <r>   -6.2480    1.0000 </r>
       <r>   -6.1674    1.0000 </r>
       <r>   -6.0919    1.0000 </r>
       <r>   -5.9863    1.0000 </r>
       <r>   -5.9304    1.0000 </r>
       <r>   -5.8698    1.0000 </r>
       <r>   -5.8337    1.0000 </r>
       <r>   -5.7397    1.0000 </r>
       <r>   -5.6438    1.0000 </r>
       <r>   -5.5649    1.0000 </r>
       <r>   -5.4039    1.0000 </r>
       <r>   -5.2324    1.0000 </r>
       <r>   -5.2042    1.0000 </r>
       <r>   -5.0776    1.0000 </r>
       <r>   -4.9118    1.0000 </r>
       <r>   -4.7863    1.0000 </r>
       <r>   -4.7585    1.0000 </r>
       <r>   -4.5635    1.0000 </r>
       <r>   -4.4125    1.0000 </r>
       <r>   -4.3304    1.0000 </r>
       <r>   -4.2610    1.0000 </r>
       <r>   -4.1563    1.0000 </r>
       <r>   -4.0410    1.0000 </r>
       <r>   -3.9099    1.0000 </r>
       <r>   -3.6881    0.9987 </r>
       <r>   -3.4626    0.9211 </r>
       <r>   -3.2971    0.5960 </r>
       <r>   -2.9795    0.0226 </r>
       <r>   -2.7103    0.0000 </r>
       <r>   -2.5666    0.0000 </r>
       <r>   -2.5461    0.0000 </r>
       <r>   -2.3906    0.0000 </r>
       <r>   -2.3151    0.0000 </r>
       <r>   -2.2829    0.0000 </r>
       <r>   -2.1087    0.0000 </r>
       <r>   -1.9883    0.0000 </r>
       <r>   -1.9408    0.0000 </r>
       <r>   -1.8999    0.0000 </r>
       <r>   -1.7875    0.0000 </r>
       <r>   -1.5205    0.0000 </r>
       <r>   -1.2761    0.0000 </r>
       <r>   -1.2266    0.0000 </r>
       <r>   -1.1278    0.0000 </r>
       <r>   -1.0858    0.0000 </r>
       <r>   -1.0349    0.0000 </r>
       <r>   -0.9621    0.0000 </r>
       <r>   -0.9215    0.0000 </r>
       <r>   -0.8543    0.0000 </r>
       <r>   -0.7826    0.0000 </r>
       <r>   -0.7284    0.0000 </r>
       <r>   -0.6355    0.0000 </r>
       <r>   -0.5193    0.0000 </r>
       <r>   -0.4050    0.0000 </r>
       <r>   -0.2438    0.0000 </r>
       <r>   -0.0982    0.0000 </r>
       <r>    0.1170    0.0000 </r>
       <r>    0.1821    0.0000 </r>
       <r>    0.3743    0.0000 </r>
       <r>    0.5986    0.0000 </r>
       <r>    0.6703    0.0000 </r>
       <r>    0.9401    0.0000 </r>
       <r>    1.0290    0.0000 </r>
       <r>    1.3024    0.0000 </r>
       <r>    1.4644    0.0000 </r>
       <r>    2.1135    0.0000 </r>
       <r>    2.2728    0.0000 </r>
       <r>    2.3722    0.0000 </r>
      </set>
      <set comment="kpoint 34">
       <r>  -17.4934    1.0000 </r>
       <r>  -17.2836    1.0000 </r>
       <r>  -16.7731    1.0000 </r>
       <r>  -16.6827    1.0000 </r>
       <r>  -16.5930    1.0000 </r>
       <r>  -16.4089    1.0000 </r>
       <r>  -16.3038    1.0000 </r>
       <r>  -16.1609    1.0000 </r>
       <r>  -16.0872    1.0000 </r>
       <r>  -15.9862    1.0000 </r>
       <r>  -15.9410    1.0000 </r>
       <r>  -15.9207    1.0000 </r>
       <r>  -15.7986    1.0000 </r>
       <r>  -15.7795    1.0000 </r>
       <r>  -15.5868    1.0000 </r>
       <r>  -15.5309    1.0000 </r>
       <r>  -15.3826    1.0000 </r>
       <r>  -15.3024    1.0000 </r>
       <r>   -9.7217    1.0000 </r>
       <r>   -9.2709    1.0000 </r>
       <r>   -9.2107    1.0000 </r>
       <r>   -9.0136    1.0000 </r>
       <r>   -8.9725    1.0000 </r>
       <r>   -8.8591    1.0000 </r>
       <r>   -8.5537    1.0000 </r>
       <r>   -8.4315    1.0000 </r>
       <r>   -8.3846    1.0000 </r>
       <r>   -8.2821    1.0000 </r>
       <r>   -8.2770    1.0000 </r>
       <r>   -8.2249    1.0000 </r>
       <r>   -8.1038    1.0000 </r>
       <r>   -8.0394    1.0000 </r>
       <r>   -7.9213    1.0000 </r>
       <r>   -7.8344    1.0000 </r>
       <r>   -7.8046    1.0000 </r>
       <r>   -7.6274    1.0000 </r>
       <r>   -7.5710    1.0000 </r>
       <r>   -7.4474    1.0000 </r>
       <r>   -7.4142    1.0000 </r>
       <r>   -7.2000    1.0000 </r>
       <r>   -7.1470    1.0000 </r>
       <r>   -7.1216    1.0000 </r>
       <r>   -7.0428    1.0000 </r>
       <r>   -6.9740    1.0000 </r>
       <r>   -6.8603    1.0000 </r>
       <r>   -6.7297    1.0000 </r>
       <r>   -6.6385    1.0000 </r>
       <r>   -6.6024    1.0000 </r>
       <r>   -6.5574    1.0000 </r>
       <r>   -6.4696    1.0000 </r>
       <r>   -6.3742    1.0000 </r>
       <r>   -6.3545    1.0000 </r>
       <r>   -6.2957    1.0000 </r>
       <r>   -6.2884    1.0000 </r>
       <r>   -6.2509    1.0000 </r>
       <r>   -6.1351    1.0000 </r>
       <r>   -5.9964    1.0000 </r>
       <r>   -5.9444    1.0000 </r>
       <r>   -5.8831    1.0000 </r>
       <r>   -5.8187    1.0000 </r>
       <r>   -5.7437    1.0000 </r>
       <r>   -5.6491    1.0000 </r>
       <r>   -5.6024    1.0000 </r>
       <r>   -5.4515    1.0000 </r>
       <r>   -5.2482    1.0000 </r>
       <r>   -5.0640    1.0000 </r>
       <r>   -4.9746    1.0000 </r>
       <r>   -4.9576    1.0000 </r>
       <r>   -4.8813    1.0000 </r>
       <r>   -4.6821    1.0000 </r>
       <r>   -4.5464    1.0000 </r>
       <r>   -4.4101    1.0000 </r>
       <r>   -4.2860    1.0000 </r>
       <r>   -4.2464    1.0000 </r>
       <r>   -4.2071    1.0000 </r>
       <r>   -4.0597    1.0000 </r>
       <r>   -3.9228    1.0000 </r>
       <r>   -3.6507    0.9970 </r>
       <r>   -3.5160    0.9633 </r>
       <r>   -3.3355    0.6966 </r>
       <r>   -2.9061    0.0058 </r>
       <r>   -2.7484    0.0001 </r>
       <r>   -2.5555    0.0000 </r>
       <r>   -2.5538    0.0000 </r>
       <r>   -2.4036    0.0000 </r>
       <r>   -2.3034    0.0000 </r>
       <r>   -2.2892    0.0000 </r>
       <r>   -2.0982    0.0000 </r>
       <r>   -2.0115    0.0000 </r>
       <r>   -1.9487    0.0000 </r>
       <r>   -1.8871    0.0000 </r>
       <r>   -1.7546    0.0000 </r>
       <r>   -1.4958    0.0000 </r>
       <r>   -1.2826    0.0000 </r>
       <r>   -1.2062    0.0000 </r>
       <r>   -1.1638    0.0000 </r>
       <r>   -1.1231    0.0000 </r>
       <r>   -1.0336    0.0000 </r>
       <r>   -0.9553    0.0000 </r>
       <r>   -0.9005    0.0000 </r>
       <r>   -0.8692    0.0000 </r>
       <r>   -0.7997    0.0000 </r>
       <r>   -0.7343    0.0000 </r>
       <r>   -0.6414    0.0000 </r>
       <r>   -0.4677    0.0000 </r>
       <r>   -0.3733    0.0000 </r>
       <r>   -0.2921    0.0000 </r>
       <r>   -0.1162    0.0000 </r>
       <r>    0.1167    0.0000 </r>
       <r>    0.1638    0.0000 </r>
       <r>    0.4010    0.0000 </r>
       <r>    0.5870    0.0000 </r>
       <r>    0.6589    0.0000 </r>
       <r>    0.9669    0.0000 </r>
       <r>    1.0181    0.0000 </r>
       <r>    1.3241    0.0000 </r>
       <r>    1.4873    0.0000 </r>
       <r>    2.1999    0.0000 </r>
       <r>    2.2175    0.0000 </r>
       <r>    2.3671    0.0000 </r>
      </set>
     </set>
    </set>
   </array>
  </eigenvalues>
  <separator name="orbital magnetization" >
   <v name="MAGDIPOLOUT">      0.00000000      0.00000000      0.00000000</v>
  </separator>
 </calculation>
 <structure name="finalpos" >
  <crystal>
   <varray name="basis" >
    <v>       8.38587756       4.82951473       0.00000000 </v>
    <v>      -8.39450772       4.84430461       0.00000000 </v>
    <v>       0.00000000       0.00000000      30.00000000 </v>
   </varray>
   <i name="volume">   2434.95432019 </i>
   <varray name="rec_basis" >
    <v>       0.05968454       0.10342503       0.00000000 </v>
    <v>      -0.05950232       0.10331870       0.00000000 </v>
    <v>       0.00000000       0.00000000       0.03333333 </v>
   </varray>
  </crystal>
  <varray name="positions" >
   <v>      -0.01829944       0.01872797      -0.00062415 </v>
   <v>       0.66596449       0.69195502      -0.00038324 </v>
   <v>       0.34851565       0.70040497       0.00064383 </v>
   <v>       0.66830754       0.00773540      -0.00000602 </v>
   <v>       0.66822162       0.31326072       0.00001016 </v>
   <v>       0.96690049       0.32003644       0.00018574 </v>
   <v>      -0.02263280       0.62695392      -0.00158700 </v>
   <v>       0.36582460       0.01830494       0.00003732 </v>
   <v>       0.35604360       0.31590975       0.00180467 </v>
   <v>       0.11371090       0.22350520       0.95166461 </v>
   <v>       0.21795989       0.10245746       0.04988718 </v>
   <v>       0.11458170       0.55229849       0.94997409 </v>
   <v>       0.22664861       0.44593248       0.04050586 </v>
   <v>       0.10759786       0.88772431       0.95977597 </v>
   <v>       0.21982905       0.77627841       0.04871086 </v>
   <v>       0.44996090       0.21923810       0.94409246 </v>
   <v>       0.55941852       0.10923105       0.05692052 </v>
   <v>       0.44457878       0.55962721       0.95384543 </v>
   <v>       0.56841574       0.45405700       0.04917074 </v>
   <v>       0.44458676       0.88727011       0.94585725 </v>
   <v>       0.55162018       0.77637587       0.05114815 </v>
   <v>       0.77407081       0.21643994       0.94315771 </v>
   <v>       0.88796971       0.10986235       0.05447076 </v>
   <v>       0.76588235       0.55177743       0.95053687 </v>
   <v>       0.88358390       0.43808074       0.05623269 </v>
   <v>       0.78139651       0.89224390       0.94822561 </v>
   <v>       0.88755652       0.78252526       0.04574183 </v>
  </varray>
 </structure>
</modeling>
