unknown system                          
           1
     8.854976    5.102761    0.000000
    -8.857830    5.107671    0.000000
     0.000000    0.000000   30.000000
   V    Mo   W    S 
   3   3   3  18
Direct configuration=     1
   0.00000000  0.00000000  0.00000000
   0.66666669  0.66666669  0.00000000
   0.33333334  0.66666669  0.00000000
   0.66666669  0.00000000  0.00000000
   0.66666669  0.33333334  0.00000000
   1.00000000  0.33333334  0.00000000
   0.00000000  0.66666669  0.00000000
   0.33333334  0.00000000  0.00000000
   0.33333334  0.33333334  0.00000000
   0.11068511  0.22244981  0.95539999
   0.22244981  0.11068511  0.04460000
   0.11068511  0.55578315  0.95539999
   0.22244981  0.44401845  0.04460000
   0.11068511  0.88911647  0.95539999
   0.22244981  0.77735180  0.04460000
   0.44401845  0.22244981  0.95539999
   0.55578315  0.11068511  0.04460000
   0.44401845  0.55578315  0.95539999
   0.55578315  0.44401845  0.04460000
   0.44401845  0.88911647  0.95539999
   0.55578315  0.77735180  0.04460000
   0.77735180  0.22244981  0.95539999
   0.88911647  0.11068511  0.04460000
   0.77735180  0.55578315  0.95539999
   0.88911647  0.44401845  0.04460000
   0.77735180  0.88911647  0.95539999
   0.88911647  0.77735180  0.04460000
unknown system                          
           1
     8.667183    4.996900    0.000000
    -8.669815    5.001427    0.000000
     0.000000    0.000000   30.000000
   V    Mo   W    S 
   3   3   3  18
Direct configuration=     2
  -0.00152158  0.00091493  0.00010028
   0.66667502  0.66712332  0.00004775
   0.33374485  0.66671482 -0.00009659
   0.66801483  0.00230510  0.00003080
   0.66807052  0.33180767  0.00001314
   0.99715863  0.33195235 -0.00015481
  -0.00168099  0.66379362 -0.00004146
   0.33625563  0.00128434  0.00011584
   0.33338008  0.33371443  0.00002929
   0.10976620  0.21819210  0.95196056
   0.21828372  0.10913000  0.04812910
   0.11514359  0.55818186  0.95188682
   0.22478965  0.44835486  0.04799128
   0.10902486  0.89079293  0.95212720
   0.22413377  0.77583063  0.04797896
   0.44366986  0.22183499  0.95073955
   0.55437559  0.11056650  0.04931845
   0.44578003  0.55902133  0.95305973
   0.55666937  0.44827465  0.04799457
   0.44159413  0.88456793  0.95191112
   0.55348857  0.77326152  0.04683283
   0.77779275  0.22222534  0.95066131
   0.89123554  0.10848522  0.04803792
   0.77624331  0.55834324  0.95201111
   0.88918494  0.44537921  0.04928752
   0.77984175  0.88660986  0.95305319
   0.88709984  0.77955169  0.04697445
unknown system                          
           1
     8.486667    4.897778    0.000000
    -8.488466    4.900865    0.000000
     0.000000    0.000000   30.000000
   V    Mo   W    S 
   3   3   3  18
Direct configuration=     3
  -0.00185486  0.00122393  0.00006561
   0.66668011  0.66722437  0.00009895
   0.33378366  0.66669604 -0.00005803
   0.66835527  0.00351266  0.00003176
   0.66854125  0.33107794  0.00000730
   0.99602691  0.33163326 -0.00017200
  -0.00223453  0.66271119 -0.00010951
   0.33735324  0.00202317  0.00007468
   0.33337053  0.33356659  0.00009367
   0.10992651  0.21821690  0.95198412
   0.21842361  0.10916072  0.04806338
   0.11510411  0.55835542  0.95188570
   0.22495676  0.44832024  0.04789475
   0.10912458  0.89069469  0.95233402
   0.22404906  0.77592728  0.04789491
   0.44347035  0.22175262  0.95074451
   0.55416441  0.11045344  0.04948111
   0.44572036  0.55886876  0.95308211
   0.55649803  0.44824177  0.04791427
   0.44142147  0.88458858  0.95192572
   0.55345384  0.77321069  0.04674368
   0.77779727  0.22222103  0.95043283
   0.89127997  0.10843073  0.04814195
   0.77644405  0.55848513  0.95202455
   0.88930441  0.44559295  0.04942454
   0.77985671  0.88657628  0.95310755
   0.88719737  0.77944804  0.04688776
unknown system                          
           1
     8.290145    4.778667    0.000000
    -8.296182    4.789096    0.000000
     0.000000    0.000000   30.000000
   V    Mo   W    S 
   3   3   3  18
Direct configuration=     4
  -0.00265048  0.00263392 -0.00010859
   0.66663848  0.66738015  0.00026798
   0.33360986  0.66656850  0.00012400
   0.66931308  0.00855902  0.00002615
   0.67020339  0.32790427 -0.00000243
   0.99167560  0.33071521 -0.00016256
  -0.00411974  0.65856582 -0.00032532
   0.34157388  0.00518463 -0.00011550
   0.33322858  0.33248235  0.00031122
   0.10935469  0.21732354  0.95065246
   0.21744613  0.10841037  0.04930669
   0.11610562  0.55872399  0.95039412
   0.22522024  0.44915038  0.04893316
   0.10885258  0.89100739  0.95174687
   0.22436367  0.77561063  0.04899902
   0.44365578  0.22203013  0.94913121
   0.55438570  0.11051610  0.05178254
   0.44630939  0.55983025  0.95181154
   0.55720746  0.44914638  0.04901777
   0.44110060  0.88361383  0.95051993
   0.55313987  0.77261513  0.04767076
   0.77777683  0.22211175  0.94792195
   0.89176134  0.10795861  0.04996531
   0.77575341  0.55872575  0.95061704
   0.88928385  0.44546346  0.05158563
   0.78013917  0.88615987  0.95203349
   0.88688546  0.77982301  0.04789546
unknown system                          
           1
     8.300812    4.779547    0.000000
    -8.312228    4.799295    0.000000
     0.000000    0.000000   30.000000
   V    Mo   W    S 
   3   3   3  18
Direct configuration=     5
  -0.00418274  0.00562013 -0.00042957
   0.66654189  0.66795931  0.00046013
   0.33308556  0.66621260  0.00043724
   0.67058476  0.01738580 -0.00000327
   0.67297002  0.32185480 -0.00002245
   0.98400110  0.32948545 -0.00007681
  -0.00825774  0.65000834 -0.00058985
   0.35039182  0.01192921 -0.00034112
   0.33295652  0.33026577  0.00059964
   0.10846198  0.21705835  0.94903656
   0.21638669  0.10716013  0.05092872
   0.11678960  0.55793440  0.94833219
   0.22428005  0.44920668  0.05007014
   0.10902655  0.89094587  0.95153090
   0.22452544  0.77560720  0.05004267
   0.44515854  0.22316880  0.94698673
   0.55534824  0.11101429  0.05510321
   0.44696085  0.56065928  0.95019575
   0.55852137  0.44946231  0.05027064
   0.44197526  0.88330127  0.94872460
   0.55357587  0.77348443  0.04885778
   0.77787107  0.22195846  0.94426032
   0.89161340  0.10794351  0.05240708
   0.77447934  0.55773389  0.94887122
   0.88861011  0.44450189  0.05454889
   0.77984785  0.88636545  0.95062074
   0.88669105  0.77998685  0.04917780
unknown system                          
           1
     8.295302    4.777550    0.000000
    -8.307685    4.798982    0.000000
     0.000000    0.000000   30.000000
   V    Mo   W    S 
   3   3   3  18
Direct configuration=     6
  -0.00517837  0.00699000 -0.00041563
   0.66666146  0.66865701  0.00052055
   0.33280201  0.66590771  0.00045816
   0.67051736  0.01734217 -0.00005352
   0.67264010  0.32180598 -0.00007594
   0.98390717  0.32967801 -0.00018242
  -0.00987189  0.64711982 -0.00062168
   0.35288840  0.01397177 -0.00023718
   0.33316665  0.32950723  0.00066692
   0.10833216  0.21781080  0.94911157
   0.21657581  0.10674093  0.05086504
   0.11631985  0.55706723  0.94826017
   0.22332180  0.44825913  0.04988241
   0.10969277  0.89042994  0.95219194
   0.22427921  0.77609171  0.04967729
   0.44629400  0.22395413  0.94682371
   0.55574327  0.11132663  0.05542237
   0.44682208  0.56040001  0.95027957
   0.55879205  0.44872003  0.05007396
   0.44283106  0.88417541  0.94876101
   0.55414061  0.77470471  0.04875544
   0.77804799  0.22202650  0.94398672
   0.89111641  0.10833987  0.05248914
   0.77403398  0.55649557  0.94890548
   0.88795120  0.44387690  0.05481426
   0.77932849  0.88700373  0.95064610
   0.88705881  0.77981151  0.04899446
unknown system                          
           1
     8.298996    4.779696    0.000000
    -8.313599    4.804984    0.000000
     0.000000    0.000000   30.000000
   V    Mo   W    S 
   3   3   3  18
Direct configuration=     7
  -0.00640342  0.00843031 -0.00042572
   0.66684548  0.66943204  0.00060178
   0.33252191  0.66568124  0.00050680
   0.67072065  0.01814741 -0.00009293
   0.67260929  0.32112114 -0.00010708
   0.98306353  0.32971582 -0.00020727
  -0.01154879  0.64399417 -0.00066090
   0.35565116  0.01618890 -0.00023784
   0.33351882  0.32865232  0.00073521
   0.10827976  0.21820107  0.94907043
   0.21660820  0.10639364  0.05086629
   0.11614677  0.55657218  0.94808671
   0.22289843  0.44772847  0.04977095
   0.11006416  0.89005337  0.95282241
   0.22410642  0.77637970  0.04940921
   0.44689906  0.22440788  0.94658004
   0.55619760  0.11159012  0.05578247
   0.44676184  0.56027884  0.95030617
   0.55900690  0.44848367  0.04999912
   0.44324315  0.88464548  0.94871304
   0.55436260  0.77526117  0.04872737
   0.77809650  0.22203457  0.94371459
   0.89094898  0.10858748  0.05269003
   0.77363454  0.55578617  0.94880822
   0.88755387  0.44334701  0.05511635
   0.77909564  0.88735629  0.95056845
   0.88733142  0.77974397  0.04885600
unknown system                          
           1
     8.302300    4.781856    0.000000
    -8.322840    4.817454    0.000000
     0.000000    0.000000   30.000000
   V    Mo   W    S 
   3   3   3  18
Direct configuration=     8
  -0.00776340  0.00985612 -0.00044523
   0.66707875  0.67032573  0.00068326
   0.33220042  0.66544646  0.00056325
   0.67098185  0.01855431 -0.00011546
   0.67238790  0.32070888 -0.00012735
   0.98250512  0.32976428 -0.00024112
  -0.01301326  0.64125076 -0.00074011
   0.35795041  0.01800933 -0.00022753
   0.33408529  0.32784531  0.00080837
   0.10830125  0.21856666  0.94907865
   0.21664741  0.10606153  0.05079705
   0.11598693  0.55613242  0.94796445
   0.22263167  0.44724265  0.04960872
   0.11036162  0.88969277  0.95354819
   0.22389771  0.77664636  0.04909183
   0.44740844  0.22481485  0.94635363
   0.55665329  0.11181708  0.05605041
   0.44671711  0.56016264  0.95039269
   0.55916715  0.44837664  0.04989583
   0.44358725  0.88508201  0.94870564
   0.55445455  0.77562928  0.04866881
   0.77814977  0.22205689  0.94354489
   0.89083341  0.10880941  0.05286136
   0.77327995  0.55520199  0.94875536
   0.88714297  0.44277212  0.05536479
   0.77895310  0.88767519  0.95050427
   0.88762779  0.77971276  0.04865525
unknown system                          
           1
     8.315047    4.788387    0.000000
    -8.336719    4.825944    0.000000
     0.000000    0.000000   30.000000
   V    Mo   W    S 
   3   3   3  18
Direct configuration=     9
  -0.01202851  0.01383009 -0.00051740
   0.66787590  0.67334615  0.00089844
   0.33112537  0.66485070  0.00072867
   0.67204728  0.01951530 -0.00015692
   0.67146215  0.31952537 -0.00016993
   0.98066270  0.32971875 -0.00029623
  -0.01676003  0.63408576 -0.00099371
   0.36385173  0.02244430 -0.00022177
   0.33662475  0.32553152  0.00099200
   0.10854652  0.21959617  0.94918618
   0.21673119  0.10515261  0.05047550
   0.11559191  0.55492959  0.94766030
   0.22225628  0.44592449  0.04903719
   0.11089916  0.88875338  0.95581450
   0.22322387  0.77727780  0.04813109
   0.44854732  0.22573312  0.94572047
   0.55802953  0.11236886  0.05668059
   0.44662976  0.55984475  0.95074309
   0.55965962  0.44850046  0.04961507
   0.44444117  0.88623282  0.94874767
   0.55436422  0.77625751  0.04850275
   0.77819940  0.22211088  0.94321960
   0.89063841  0.10948519  0.05337397
   0.77225905  0.55380426  0.94864913
   0.88603957  0.44108118  0.05594720
   0.77873879  0.88855342  0.95026468
   0.88855737  0.77976002  0.04796773
unknown system                          
           1
     8.317014    4.788174    0.000000
    -8.340926    4.829609    0.000000
     0.000000    0.000000   30.000000
   V    Mo   W    S 
   3   3   3  18
Direct configuration=    10
  -0.01283423  0.01429127 -0.00055729
   0.66815483  0.67456199  0.00089851
   0.33065650  0.66481693  0.00076635
   0.67246446  0.01952061 -0.00012120
   0.67091391  0.31928830 -0.00015311
   0.97996784  0.32952150 -0.00027217
  -0.01704260  0.63355344 -0.00105938
   0.36425551  0.02247124 -0.00019960
   0.33825762  0.32489730  0.00098984
   0.10870501  0.21997652  0.94927841
   0.21668363  0.10489970  0.05036503
   0.11550444  0.55451643  0.94756931
   0.22235279  0.44548483  0.04881171
   0.11073405  0.88866696  0.95644097
   0.22300376  0.77731246  0.04792158
   0.44872590  0.22582341  0.94548592
   0.55850337  0.11245825  0.05679919
   0.44667489  0.55981107  0.95086295
   0.56003605  0.44893492  0.04963562
   0.44464722  0.88642994  0.94872863
   0.55409573  0.77624019  0.04852208
   0.77808478  0.22208083  0.94315928
   0.89055246  0.10981704  0.05358230
   0.77186433  0.55354656  0.94862142
   0.88570542  0.44053986  0.05605640
   0.77871011  0.88881577  0.95010121
   0.88883666  0.77993714  0.04776594
unknown system                          
           1
     8.322242    4.790141    0.000000
    -8.345841    4.831023    0.000000
     0.000000    0.000000   30.000000
   V    Mo   W    S 
   3   3   3  18
Direct configuration=    11
  -0.01470958  0.01565485 -0.00059915
   0.66861930  0.67674435  0.00090133
   0.32987890  0.66487496  0.00082351
   0.67326970  0.01978247 -0.00009498
   0.67003271  0.31868356 -0.00015448
   0.97846425  0.32925253 -0.00025060
  -0.01836770  0.63105755 -0.00118940
   0.36628453  0.02363291 -0.00017838
   0.34103640  0.32356940  0.00102867
   0.10900660  0.22066936  0.94952065
   0.21673934  0.10455710  0.05013827
   0.11519501  0.55379849  0.94749199
   0.22241238  0.44459028  0.04832250
   0.11060333  0.88841484  0.95757171
   0.22258166  0.77738125  0.04751593
   0.44904969  0.22585138  0.94515459
   0.55917049  0.11257486  0.05696407
   0.44669821  0.55967535  0.95112534
   0.56060386  0.44949843  0.04958158
   0.44504341  0.88684860  0.94875522
   0.55373742  0.77633606  0.04848253
   0.77789202  0.22203718  0.94312667
   0.89046682  0.11032731  0.05382608
   0.77134454  0.55306247  0.94866505
   0.88519468  0.43979754  0.05618077
   0.77867617  0.88936067  0.94990649
   0.88929032  0.78018070  0.04738393
unknown system                          
           1
     8.322593    4.790214    0.000000
    -8.346206    4.831121    0.000000
     0.000000    0.000000   30.000000
   V    Mo   W    S 
   3   3   3  18
Direct configuration=    12
  -0.01465623  0.01545304 -0.00059891
   0.66862998  0.67729868  0.00083697
   0.32972786  0.66527397  0.00081992
   0.67341644  0.01960544 -0.00007482
   0.66975182  0.31867759 -0.00013982
   0.97805545  0.32911061 -0.00022435
  -0.01823044  0.63140510 -0.00119106
   0.36597658  0.02317297 -0.00017171
   0.34204232  0.32330379  0.00101383
   0.10915480  0.22085865  0.94964654
   0.21677654  0.10457594  0.05012378
   0.11509174  0.55367017  0.94751100
   0.22253456  0.44432846  0.04814474
   0.11042686  0.88851024  0.95760233
   0.22249530  0.77724075  0.04756424
   0.44900127  0.22556724  0.94507655
   0.55920571  0.11250080  0.05693831
   0.44672491  0.55965806  0.95117691
   0.56090901  0.44981666  0.04964833
   0.44504574  0.88673985  0.94873085
   0.55357550  0.77628057  0.04851391
   0.77771693  0.22196549  0.94314815
   0.89046993  0.11045874  0.05384685
   0.77126480  0.55312841  0.94870233
   0.88513549  0.43982414  0.05614805
   0.77869258  0.88946882  0.94984337
   0.88927901  0.78032025  0.04736364
unknown system                          
           1
     8.324725    4.790134    0.000000
    -8.348484    4.831282    0.000000
     0.000000    0.000000   30.000000
   V    Mo   W    S 
   3   3   3  18
Direct configuration=    13
  -0.01469306  0.01546263 -0.00059918
   0.66863191  0.67738485  0.00083120
   0.32971159  0.66533718  0.00082091
   0.67343512  0.01958756 -0.00007335
   0.66971500  0.31866648 -0.00013856
   0.97798557  0.32909785 -0.00022221
  -0.01825030  0.63137684 -0.00119429
   0.36599791  0.02315888 -0.00017102
   0.34218523  0.32325551  0.00101493
   0.10917759  0.22089104  0.94966353
   0.21678711  0.10457148  0.05011901
   0.11507330  0.55364657  0.94751277
   0.22254644  0.44428746  0.04811630
   0.11041408  0.88851057  0.95762243
   0.22247809  0.77722988  0.04756333
   0.44900386  0.22553631  0.94506328
   0.55921734  0.11249477  0.05693880
   0.44672682  0.55965181  0.95118685
   0.56094758  0.44985310  0.04965277
   0.44505118  0.88673407  0.94872813
   0.55355640  0.77627686  0.04851568
   0.77769662  0.22195744  0.94314960
   0.89047058  0.11047826  0.05385242
   0.77125021  0.55312713  0.94870770
   0.88512083  0.43981653  0.05614840
   0.77869481  0.88948804  0.94983474
   0.88928265  0.78033535  0.04735573
unknown system                          
           1
     8.327914    4.792104    0.000000
    -8.351906    4.833659    0.000000
     0.000000    0.000000   30.000000
   V    Mo   W    S 
   3   3   3  18
Direct configuration=    14
  -0.01518547  0.01562714 -0.00060810
   0.66871633  0.67846301  0.00077006
   0.32944977  0.66589534  0.00083292
   0.67368922  0.01947069 -0.00005389
   0.66925986  0.31847893 -0.00012405
   0.97709673  0.32896631 -0.00019946
  -0.01861305  0.63086942 -0.00123945
   0.36639085  0.02315527 -0.00015604
   0.34396429  0.32264930  0.00102513
   0.10947144  0.22133596  0.94986534
   0.21693998  0.10449808  0.05004860
   0.11480353  0.55328723  0.94751873
   0.22265515  0.44372688  0.04778109
   0.11026140  0.88848792  0.95794585
   0.22222963  0.77712858  0.04751674
   0.44906216  0.22520222  0.94487963
   0.55941820  0.11243711  0.05695771
   0.44679328  0.55957667  0.95131199
   0.56144154  0.45032375  0.04970084
   0.44517373  0.88673314  0.94869615
   0.55332945  0.77626194  0.04853559
   0.77744723  0.22186703  0.94316517
   0.89044580  0.11077923  0.05395165
   0.77103532  0.55307892  0.94877239
   0.88490408  0.43965864  0.05616060
   0.77867666  0.88972970  0.94971122
   0.88935734  0.78052602  0.04723347
unknown system                          
           1
     8.334058    4.793684    0.000000
    -8.358472    4.835954    0.000000
     0.000000    0.000000   30.000000
   V    Mo   W    S 
   3   3   3  18
Direct configuration=    15
  -0.01510869  0.01560286 -0.00060533
   0.66867817  0.67822542  0.00079203
   0.32948888  0.66575799  0.00083618
   0.67365786  0.01946439 -0.00006077
   0.66935510  0.31855821 -0.00012919
   0.97738307  0.32900289 -0.00020666
  -0.01843999  0.63102282 -0.00123350
   0.36626325  0.02306353 -0.00016257
   0.34350250  0.32281949  0.00102709
   0.10933420  0.22116014  0.94979850
   0.21682481  0.10452213  0.05006508
   0.11496737  0.55344611  0.94752218
   0.22264561  0.44395546  0.04787980
   0.11030372  0.88850883  0.95785288
   0.22236398  0.77715420  0.04751898
   0.44903326  0.22533814  0.94495014
   0.55934271  0.11246452  0.05695137
   0.44672594  0.55962044  0.95128015
   0.56124355  0.45015787  0.04967635
   0.44511822  0.88673071  0.94872375
   0.55337891  0.77622977  0.04851291
   0.77755213  0.22190445  0.94315980
   0.89046792  0.11064134  0.05391083
   0.77111176  0.55307719  0.94874875
   0.88498369  0.43968750  0.05615546
   0.77869974  0.88964794  0.94976372
   0.88933679  0.78045011  0.04727197
unknown system                          
           1
     8.336081    4.793902    0.000000
    -8.360264    4.835764    0.000000
     0.000000    0.000000   30.000000
   V    Mo   W    S 
   3   3   3  18
Direct configuration=    16
  -0.01564797  0.01596937 -0.00061401
   0.66877702  0.67939777  0.00072319
   0.32928821  0.66675054  0.00085422
   0.67405718  0.01926852 -0.00004053
   0.66885867  0.31836957 -0.00011552
   0.97650052  0.32864289 -0.00017847
  -0.01869234  0.63065026 -0.00127127
   0.36656436  0.02292705 -0.00016488
   0.34507048  0.32203305  0.00105962
   0.10955773  0.22142572  0.95004418
   0.21690785  0.10445639  0.04996543
   0.11478304  0.55320195  0.94755011
   0.22284345  0.44345050  0.04748635
   0.11013807  0.88854897  0.95813413
   0.22215596  0.77702447  0.04750985
   0.44905497  0.22492923  0.94480942
   0.55947756  0.11239115  0.05694418
   0.44665218  0.55946483  0.95142798
   0.56167045  0.45053765  0.04971708
   0.44515627  0.88666213  0.94869350
   0.55315400  0.77623800  0.04854003
   0.77729059  0.22178231  0.94318254
   0.89052576  0.11081024  0.05393498
   0.77099313  0.55304428  0.94882333
   0.88482237  0.43962916  0.05615360
   0.77883276  0.88996719  0.94968371
   0.88942219  0.78064127  0.04714717
unknown system                          
           1
     8.333900    4.793224    0.000000
    -8.358259    4.835395    0.000000
     0.000000    0.000000   30.000000
   V    Mo   W    S 
   3   3   3  18
Direct configuration=    17
  -0.01595907  0.01605963 -0.00061511
   0.66870058  0.68021129  0.00065691
   0.32931350  0.66786345  0.00086191
   0.67407629  0.01895428 -0.00003027
   0.66856732  0.31827935 -0.00009407
   0.97578086  0.32850228 -0.00014983
  -0.01887110  0.63044007 -0.00129279
   0.36672171  0.02270350 -0.00017005
   0.34642637  0.32150395  0.00107733
   0.10986377  0.22180886  0.95020729
   0.21704568  0.10433355  0.04994540
   0.11454295  0.55293092  0.94757143
   0.22300814  0.44303086  0.04714255
   0.11002624  0.88852960  0.95830958
   0.22192016  0.77690001  0.04754551
   0.44913102  0.22456248  0.94464713
   0.55963568  0.11233053  0.05697226
   0.44664978  0.55933946  0.95154191
   0.56214062  0.45091085  0.04977270
   0.44518731  0.88651873  0.94862386
   0.55297403  0.77622655  0.04858996
   0.77704216  0.22166347  0.94316878
   0.89053024  0.11103662  0.05402124
   0.77079914  0.55302852  0.94886800
   0.88465196  0.43956198  0.05618398
   0.77887030  0.89018063  0.94957153
   0.88943884  0.78080303  0.04707276
unknown system                          
           1
     8.332863    4.793450    0.000000
    -8.358365    4.837616    0.000000
     0.000000    0.000000   30.000000
   V    Mo   W    S 
   3   3   3  18
Direct configuration=    18
  -0.01592724  0.01607851 -0.00062135
   0.66878891  0.68013855  0.00067990
   0.32914937  0.66743729  0.00086728
   0.67418055  0.01909840 -0.00003445
   0.66852384  0.31825237 -0.00009623
   0.97591045  0.32852910 -0.00015674
  -0.01882575  0.63045360 -0.00129620
   0.36672219  0.02279550 -0.00017374
   0.34625690  0.32156413  0.00107474
   0.10977360  0.22171282  0.95017972
   0.21697449  0.10435211  0.04993443
   0.11459497  0.55298057  0.94756545
   0.22296316  0.44307598  0.04722218
   0.11003444  0.88855116  0.95831228
   0.22198107  0.77692628  0.04751341
   0.44909433  0.22465527  0.94467664
   0.55962176  0.11234460  0.05696350
   0.44664659  0.55935967  0.95152569
   0.56201695  0.45083505  0.04975080
   0.44521455  0.88661384  0.94866703
   0.55301813  0.77624856  0.04856253
   0.77709229  0.22170437  0.94317389
   0.89054200  0.11099744  0.05401464
   0.77084656  0.55302340  0.94886179
   0.88468488  0.43954827  0.05616456
   0.77887110  0.89016315  0.94959635
   0.88946436  0.78077446  0.04707179
unknown system                          
           1
     8.333380    4.792525    0.000000
    -8.357808    4.834812    0.000000
     0.000000    0.000000   30.000000
   V    Mo   W    S 
   3   3   3  18
Direct configuration=    19
  -0.01581393  0.01617938 -0.00062364
   0.66902587  0.67985036  0.00073331
   0.32865205  0.66614988  0.00087199
   0.67448722  0.01946710 -0.00003506
   0.66844542  0.31824019 -0.00011077
   0.97641942  0.32857440 -0.00017187
  -0.01868400  0.63055655 -0.00128523
   0.36667986  0.02300077 -0.00016779
   0.34555653  0.32179050  0.00105048
   0.10954323  0.22143862  0.95008531
   0.21676566  0.10437811  0.04993876
   0.11479634  0.55314203  0.94751423
   0.22286163  0.44323737  0.04747188
   0.11005284  0.88863097  0.95826950
   0.22215329  0.77699958  0.04745323
   0.44903787  0.22491736  0.94472569
   0.55955208  0.11236125  0.05696558
   0.44663632  0.55942863  0.95145493
   0.56172960  0.45064775  0.04973345
   0.44525776  0.88678817  0.94875581
   0.55310164  0.77631299  0.04850852
   0.77722466  0.22181699  0.94315794
   0.89059111  0.11085988  0.05398524
   0.77093351  0.55301959  0.94881182
   0.88475436  0.43954519  0.05615213
   0.77889692  0.89013356  0.94965027
   0.88955719  0.78074729  0.04710419
unknown system                          
           1
     8.336742    4.793644    0.000000
    -8.361141    4.835873    0.000000
     0.000000    0.000000   30.000000
   V    Mo   W    S 
   3   3   3  18
Direct configuration=    20
  -0.01608290  0.01630460 -0.00061307
   0.66899928  0.68082054  0.00066066
   0.32818459  0.66676090  0.00086198
   0.67466077  0.01938803 -0.00002453
   0.66804010  0.31800488 -0.00009535
   0.97565860  0.32857538 -0.00015036
  -0.01895282  0.63021770 -0.00131005
   0.36698107  0.02298637 -0.00016579
   0.34709434  0.32116453  0.00105852
   0.10997459  0.22193871  0.95025565
   0.21695794  0.10428243  0.04990866
   0.11450438  0.55282318  0.94751832
   0.22310107  0.44267467  0.04711613
   0.10994890  0.88861291  0.95847271
   0.22187374  0.77688667  0.04748525
   0.44908821  0.22443769  0.94454785
   0.55969628  0.11225919  0.05696993
   0.44660881  0.55921882  0.95160011
   0.56221964  0.45106361  0.04979338
   0.44536537  0.88665013  0.94873790
   0.55288569  0.77637111  0.04852719
   0.77695667  0.22174150  0.94317463
   0.89059878  0.11116948  0.05410785
   0.77078651  0.55306393  0.94887893
   0.88456597  0.43949888  0.05615315
   0.77890283  0.89039186  0.94950888
   0.88959606  0.78090674  0.04702137
unknown system                          
           1
     8.332781    4.793508    0.000000
    -8.357217    4.835821    0.000000
     0.000000    0.000000   30.000000
   V    Mo   W    S 
   3   3   3  18
Direct configuration=    21
  -0.01620063  0.01630520 -0.00061246
   0.66886243  0.68102762  0.00062585
   0.32856187  0.66772093  0.00086460
   0.67450951  0.01908359 -0.00001932
   0.66808822  0.31805852 -0.00008650
   0.97537707  0.32845277 -0.00013644
  -0.01899823  0.63020385 -0.00131373
   0.36695892  0.02274682 -0.00016739
   0.34745501  0.32100578  0.00107646
   0.11007504  0.22204880  0.95032112
   0.21703362  0.10423420  0.04990782
   0.11443349  0.55275088  0.94754723
   0.22317677  0.44261412  0.04694971
   0.10991690  0.88859168  0.95849458
   0.22178802  0.77683035  0.04753249
   0.44913893  0.22429237  0.94450783
   0.55973476  0.11224532  0.05697889
   0.44659160  0.55918619  0.95164263
   0.56241315  0.45118024  0.04981391
   0.44530786  0.88651361  0.94866497
   0.55281806  0.77631617  0.04857205
   0.77686576  0.22165527  0.94316755
   0.89059018  0.11121184  0.05410852
   0.77071213  0.55304849  0.94889837
   0.88451922  0.43950286  0.05617743
   0.77893248  0.89043401  0.94948052
   0.88955230  0.78095298  0.04700318
unknown system                          
           1
     8.328122    4.791052    0.000000
    -8.352445    4.833169    0.000000
     0.000000    0.000000   30.000000
   V    Mo   W    S 
   3   3   3  18
Direct configuration=    22
  -0.01589373  0.01610708 -0.00061672
   0.66908366  0.68036465  0.00071871
   0.32785581  0.66543691  0.00087137
   0.67465301  0.01961831 -0.00002711
   0.66813532  0.31809574 -0.00010712
   0.97623001  0.32890043 -0.00016657
  -0.01883084  0.63034591 -0.00129981
   0.36688971  0.02312457 -0.00015314
   0.34646884  0.32165179  0.00102683
   0.10980686  0.22179511  0.95013239
   0.21686869  0.10438064  0.04994153
   0.11464796  0.55294913  0.94747166
   0.22294281  0.44286190  0.04739152
   0.11002060  0.88859135  0.95838575
   0.22202196  0.77694910  0.04741664
   0.44906440  0.22474406  0.94459047
   0.55966186  0.11231484  0.05698440
   0.44670796  0.55937328  0.95151016
   0.56199087  0.45093323  0.04977918
   0.44542942  0.88681287  0.94880886
   0.55299229  0.77636361  0.04845943
   0.77709857  0.22186072  0.94316080
   0.89057074  0.11110820  0.05410859
   0.77083931  0.55307693  0.94883747
   0.88461915  0.43946871  0.05614993
   0.77876906  0.89020420  0.94955437
   0.88957014  0.78078118  0.04707032
unknown system                          
           1
     8.339941    4.794985    0.000000
    -8.364271    4.837091    0.000000
     0.000000    0.000000   30.000000
   V    Mo   W    S 
   3   3   3  18
Direct configuration=    23
  -0.01593371  0.01610426 -0.00059685
   0.66932634  0.68061015  0.00074233
   0.32604365  0.66254137  0.00085754
   0.67533778  0.02040952  0.00000145
   0.66776429  0.31785040 -0.00013076
   0.97661906  0.32943268 -0.00017615
  -0.01893763  0.63024921 -0.00128637
   0.36706725  0.02368601 -0.00013199
   0.34680981  0.32183806  0.00094144
   0.10992599  0.22195573  0.95015693
   0.21701175  0.10458291  0.04994198
   0.11464884  0.55296617  0.94731065
   0.22286390  0.44245900  0.04763522
   0.11010045  0.88859014  0.95841790
   0.22201548  0.77694283  0.04728559
   0.44908952  0.22477404  0.94451961
   0.55968637  0.11229980  0.05701376
   0.44687416  0.55942390  0.95144122
   0.56204434  0.45111754  0.04982834
   0.44564778  0.88696791  0.94899696
   0.55289306  0.77648151  0.04832794
   0.77715878  0.22208720  0.94317792
   0.89060943  0.11124722  0.05411252
   0.77082160  0.55319465  0.94881261
   0.88446657  0.43941599  0.05616836
   0.77863800  0.89023685  0.94954227
   0.88962160  0.78074940  0.04708948
unknown system                          
           1
     8.342904    4.795132    0.000000
    -8.367004    4.836823    0.000000
     0.000000    0.000000   30.000000
   V    Mo   W    S 
   3   3   3  18
Direct configuration=    24
  -0.01633174  0.01630490 -0.00059695
   0.66900297  0.68158904  0.00062709
   0.32676499  0.66542491  0.00084875
   0.67515332  0.01962860  0.00000719
   0.66772574  0.31788552 -0.00008983
   0.97562655  0.32898874 -0.00012901
  -0.01912916  0.63011489 -0.00130940
   0.36707107  0.02303256 -0.00014783
   0.34819119  0.32105138  0.00101011
   0.11032645  0.22234428  0.95039913
   0.21721588  0.10433036  0.04992303
   0.11433372  0.55269419  0.94740125
   0.22321174  0.44210845  0.04703839
   0.10993245  0.88858636  0.95856278
   0.22169577  0.77675158  0.04744603
   0.44924393  0.22415569  0.94435891
   0.55981706  0.11220301  0.05702802
   0.44672281  0.55916966  0.95162230
   0.56267614  0.45148757  0.04987684
   0.44549186  0.88652006  0.94881552