   27   27  100    1
  0.9710400E+02  0.1002848E-08  0.1002848E-08  0.3000000E-08  0.5000000E-15
  1.000000000000000E-004
  CAR 
 unknown system                          
    159     34    120
 
  0.0000000E+00  0.0000000E+00  0.0000000E+00  0.1562500E-01
    1      -17.833969   1.000000
    2      -16.740711   1.000000
    3      -16.641253   1.000000
    4      -16.610447   1.000000
    5      -16.538600   1.000000
    6      -16.421852   1.000000
    7      -16.373165   1.000000
    8      -16.346093   1.000000
    9      -16.190045   1.000000
   10      -16.140782   1.000000
   11      -16.078900   1.000000
   12      -15.955701   1.000000
   13      -15.940592   1.000000
   14      -15.752824   1.000000
   15      -15.558294   1.000000
   16      -15.498069   1.000000
   17      -15.255855   1.000000
   18      -15.136352   1.000000
   19       -9.306157   1.000000
   20       -9.070182   1.000000
   21       -8.842559   1.000000
   22       -8.820957   1.000000
   23       -8.766651   1.000000
   24       -8.746227   1.000000
   25       -8.743836   1.000000
   26       -8.602971   1.000000
   27       -8.577816   1.000000
   28       -8.429756   1.000000
   29       -8.405982   1.000000
   30       -8.365723   1.000000
   31       -8.308849   1.000000
   32       -8.271156   1.000000
   33       -8.172692   1.000000
   34       -8.158936   1.000000
   35       -7.757512   1.000000
   36       -7.689582   1.000000
   37       -7.688449   1.000000
   38       -7.581343   1.000000
   39       -7.507862   1.000000
   40       -7.388775   1.000000
   41       -7.221174   1.000000
   42       -7.190968   1.000000
   43       -7.131793   1.000000
   44       -6.890629   1.000000
   45       -6.804423   1.000000
   46       -6.766207   1.000000
   47       -6.752804   1.000000
   48       -6.694091   1.000000
   49       -6.622962   1.000000
   50       -6.539293   1.000000
   51       -6.527293   1.000000
   52       -6.258065   1.000000
   53       -6.208266   1.000000
   54       -6.117622   1.000000
   55       -6.058507   1.000000
   56       -6.034168   1.000000
   57       -5.941613   1.000000
   58       -5.924000   1.000000
   59       -5.836309   1.000000
   60       -5.832754   1.000000
   61       -5.634072   1.000000
   62       -5.366242   1.000000
   63       -5.325333   1.000000
   64       -5.045802   1.000000
   65       -4.978925   1.000000
   66       -4.918601   1.000000
   67       -4.800896   1.000000
   68       -4.781605   1.000000
   69       -4.764256   1.000000
   70       -4.654207   1.000000
   71       -4.618783   1.000000
   72       -4.610074   1.000000
   73       -4.515822   1.000000
   74       -4.379070   1.000000
   75       -4.340817   1.000000
   76       -3.978828   1.000000
   77       -3.756702   0.999845
   78       -3.626737   0.996400
   79       -3.499865   0.963298
   80       -3.163631   0.278528
   81       -3.133392   0.211554
   82       -2.727765   0.000122
   83       -2.721000   0.000101
   84       -2.624356   0.000005
   85       -2.491608   0.000000
   86       -2.441800   0.000000
   87       -2.238436   0.000000
   88       -2.163782   0.000000
   89       -2.156927   0.000000
   90       -1.976855   0.000000
   91       -1.968000   0.000000
   92       -1.642143   0.000000
   93       -1.379979   0.000000
   94       -1.297758   0.000000
   95       -1.240922   0.000000
   96       -0.963975   0.000000
   97       -0.900954   0.000000
   98       -0.834850   0.000000
   99       -0.833830   0.000000
  100       -0.636983   0.000000
  101       -0.635933   0.000000
  102       -0.543961   0.000000
  103       -0.250335   0.000000
  104       -0.174048   0.000000
  105       -0.117233   0.000000
  106       -0.012784   0.000000
  107       -0.009244   0.000000
  108        0.058563   0.000000
  109        0.130169   0.000000
  110        0.134979   0.000000
  111        0.194230   0.000000
  112        0.304709   0.000000
  113        0.534393   0.000000
  114        0.916371   0.000000
  115        0.950843   0.000000
  116        1.240875   0.000000
  117        1.280672   0.000000
  118        1.662098   0.000000
  119        1.850374   0.000000
  120        2.183489   0.000000
 
  0.1250000E+00  0.2775558E-16  0.0000000E+00  0.3125000E-01
    1      -17.808536   1.000000
    2      -16.802129   1.000000
    3      -16.698912   1.000000
    4      -16.634935   1.000000
    5      -16.573280   1.000000
    6      -16.386792   1.000000
    7      -16.342943   1.000000
    8      -16.319192   1.000000
    9      -16.183435   1.000000
   10      -16.129882   1.000000
   11      -16.038706   1.000000
   12      -15.931189   1.000000
   13      -15.926160   1.000000
   14      -15.742673   1.000000
   15      -15.574180   1.000000
   16      -15.510994   1.000000
   17      -15.258186   1.000000
   18      -15.139685   1.000000
   19       -9.306650   1.000000
   20       -9.255273   1.000000
   21       -8.977868   1.000000
   22       -8.923329   1.000000
   23       -8.815244   1.000000
   24       -8.776924   1.000000
   25       -8.708343   1.000000
   26       -8.517402   1.000000
   27       -8.485694   1.000000
   28       -8.403135   1.000000
   29       -8.400739   1.000000
   30       -8.297235   1.000000
   31       -8.246118   1.000000
   32       -8.225353   1.000000
   33       -8.083205   1.000000
   34       -8.070582   1.000000
   35       -7.731137   1.000000
   36       -7.647791   1.000000
   37       -7.637133   1.000000
   38       -7.594979   1.000000
   39       -7.549095   1.000000
   40       -7.410740   1.000000
   41       -7.217506   1.000000
   42       -7.213185   1.000000
   43       -7.167862   1.000000
   44       -6.980491   1.000000
   45       -6.839457   1.000000
   46       -6.749876   1.000000
   47       -6.712489   1.000000
   48       -6.680367   1.000000
   49       -6.560550   1.000000
   50       -6.478160   1.000000
   51       -6.475965   1.000000
   52       -6.310934   1.000000
   53       -6.225987   1.000000
   54       -6.207805   1.000000
   55       -6.050429   1.000000
   56       -6.048220   1.000000
   57       -6.009135   1.000000
   58       -5.876179   1.000000
   59       -5.777076   1.000000
   60       -5.751384   1.000000
   61       -5.594880   1.000000
   62       -5.464335   1.000000
   63       -5.438702   1.000000
   64       -5.134306   1.000000
   65       -5.058059   1.000000
   66       -4.917694   1.000000
   67       -4.839370   1.000000
   68       -4.795200   1.000000
   69       -4.692318   1.000000
   70       -4.638400   1.000000
   71       -4.570221   1.000000
   72       -4.530687   1.000000
   73       -4.482930   1.000000
   74       -4.332538   1.000000
   75       -4.326833   1.000000
   76       -4.043423   1.000000
   77       -3.763352   0.999871
   78       -3.696791   0.999271
   79       -3.551996   0.984572
   80       -3.127413   0.199526
   81       -3.096166   0.143604
   82       -2.693947   0.000046
   83       -2.689309   0.000041
   84       -2.620842   0.000005
   85       -2.482960   0.000000
   86       -2.433038   0.000000
   87       -2.218606   0.000000
   88       -2.139055   0.000000
   89       -2.123356   0.000000
   90       -1.976672   0.000000
   91       -1.956747   0.000000
   92       -1.632056   0.000000
   93       -1.381969   0.000000
   94       -1.299429   0.000000
   95       -1.259597   0.000000
   96       -0.976419   0.000000
   97       -0.919922   0.000000
   98       -0.821270   0.000000
   99       -0.803131   0.000000
  100       -0.703509   0.000000
  101       -0.695236   0.000000
  102       -0.635050   0.000000
  103       -0.374124   0.000000
  104       -0.322685   0.000000
  105       -0.163076   0.000000
  106       -0.075738   0.000000
  107       -0.048567   0.000000
  108        0.072542   0.000000
  109        0.132617   0.000000
  110        0.235963   0.000000
  111        0.307183   0.000000
  112        0.380861   0.000000
  113        0.649273   0.000000
  114        0.906000   0.000000
  115        0.960899   0.000000
  116        1.200364   0.000000
  117        1.214766   0.000000
  118        1.705114   0.000000
  119        1.892554   0.000000
  120        2.218473   0.000000
 
  0.2500000E+00  0.5551115E-16  0.0000000E+00  0.3125000E-01
    1      -17.733397   1.000000
    2      -17.007871   1.000000
    3      -16.717292   1.000000
    4      -16.679821   1.000000
    5      -16.600964   1.000000
    6      -16.399662   1.000000
    7      -16.283836   1.000000
    8      -16.273729   1.000000
    9      -16.147280   1.000000
   10      -16.138168   1.000000
   11      -15.947178   1.000000
   12      -15.908783   1.000000
   13      -15.851479   1.000000
   14      -15.713050   1.000000
   15      -15.615839   1.000000
   16      -15.540958   1.000000
   17      -15.264881   1.000000
   18      -15.149116   1.000000
   19       -9.590278   1.000000
   20       -9.217234   1.000000
   21       -9.161410   1.000000
   22       -9.070344   1.000000
   23       -8.856145   1.000000
   24       -8.851849   1.000000
   25       -8.655773   1.000000
   26       -8.475763   1.000000
   27       -8.460861   1.000000
   28       -8.355047   1.000000
   29       -8.337955   1.000000
   30       -8.202305   1.000000
   31       -8.199587   1.000000
   32       -8.130889   1.000000
   33       -7.898400   1.000000
   34       -7.838847   1.000000
   35       -7.811562   1.000000
   36       -7.671060   1.000000
   37       -7.596699   1.000000
   38       -7.537903   1.000000
   39       -7.446144   1.000000
   40       -7.377397   1.000000
   41       -7.279764   1.000000
   42       -7.251769   1.000000
   43       -7.117726   1.000000
   44       -7.044248   1.000000
   45       -6.830279   1.000000
   46       -6.770217   1.000000
   47       -6.731110   1.000000
   48       -6.613501   1.000000
   49       -6.519152   1.000000
   50       -6.462502   1.000000
   51       -6.370768   1.000000
   52       -6.312649   1.000000
   53       -6.251186   1.000000
   54       -6.236813   1.000000
   55       -6.100042   1.000000
   56       -6.078246   1.000000
   57       -6.046384   1.000000
   58       -5.828093   1.000000
   59       -5.745420   1.000000
   60       -5.722064   1.000000
   61       -5.636807   1.000000
   62       -5.610546   1.000000
   63       -5.467588   1.000000
   64       -5.345610   1.000000
   65       -5.285462   1.000000
   66       -4.950837   1.000000
   67       -4.786128   1.000000
   68       -4.776214   1.000000
   69       -4.690393   1.000000
   70       -4.521006   1.000000
   71       -4.518506   1.000000
   72       -4.427377   1.000000
   73       -4.382136   1.000000
   74       -4.380901   1.000000
   75       -4.254138   1.000000
   76       -4.189418   1.000000
   77       -3.839027   0.999986
   78       -3.757470   0.999848
   79       -3.591400   0.992607
   80       -3.080566   0.120082
   81       -3.029207   0.062056
   82       -2.667836   0.000021
   83       -2.649896   0.000012
   84       -2.563222   0.000001
   85       -2.447120   0.000000
   86       -2.400230   0.000000
   87       -2.179093   0.000000
   88       -2.062428   0.000000
   89       -2.050851   0.000000
   90       -1.960150   0.000000
   91       -1.884676   0.000000
   92       -1.619063   0.000000
   93       -1.401661   0.000000
   94       -1.332888   0.000000
   95       -1.311296   0.000000
   96       -1.033879   0.000000
   97       -0.947496   0.000000
   98       -0.873094   0.000000
   99       -0.833185   0.000000
  100       -0.789204   0.000000
  101       -0.754604   0.000000
  102       -0.748221   0.000000
  103       -0.565519   0.000000
  104       -0.556587   0.000000
  105       -0.214521   0.000000
  106       -0.171147   0.000000
  107       -0.141084   0.000000
  108        0.104478   0.000000
  109        0.115448   0.000000
  110        0.304302   0.000000
  111        0.375999   0.000000
  112        0.590408   0.000000
  113        0.792322   0.000000
  114        0.926356   0.000000
  115        0.977129   0.000000
  116        1.117813   0.000000
  117        1.132374   0.000000
  118        1.825090   0.000000
  119        2.011635   0.000000
  120        2.321874   0.000000
 
  0.3750000E+00  0.0000000E+00  0.0000000E+00  0.3125000E-01
    1      -17.613273   1.000000
    2      -17.226894   1.000000
    3      -16.730034   1.000000
    4      -16.714349   1.000000
    5      -16.608731   1.000000
    6      -16.415247   1.000000
    7      -16.274407   1.000000
    8      -16.246365   1.000000
    9      -16.130912   1.000000
   10      -16.085552   1.000000
   11      -15.887332   1.000000
   12      -15.871868   1.000000
   13      -15.796439   1.000000
   14      -15.692834   1.000000
   15      -15.665099   1.000000
   16      -15.550675   1.000000
   17      -15.273053   1.000000
   18      -15.161128   1.000000
   19       -9.803929   1.000000
   20       -9.285613   1.000000
   21       -9.247912   1.000000
   22       -9.068175   1.000000
   23       -8.917613   1.000000
   24       -8.881126   1.000000
   25       -8.561683   1.000000
   26       -8.472306   1.000000
   27       -8.441449   1.000000
   28       -8.332495   1.000000
   29       -8.275487   1.000000
   30       -8.217666   1.000000
   31       -8.150324   1.000000
   32       -8.115795   1.000000
   33       -7.913456   1.000000
   34       -7.836767   1.000000
   35       -7.757024   1.000000
   36       -7.674071   1.000000
   37       -7.532220   1.000000
   38       -7.499285   1.000000
   39       -7.337997   1.000000
   40       -7.249105   1.000000
   41       -7.248187   1.000000
   42       -7.190506   1.000000
   43       -7.071265   1.000000
   44       -7.030375   1.000000
   45       -6.788843   1.000000
   46       -6.742708   1.000000
   47       -6.717581   1.000000
   48       -6.614209   1.000000
   49       -6.511652   1.000000
   50       -6.456124   1.000000
   51       -6.355801   1.000000
   52       -6.328445   1.000000
   53       -6.233395   1.000000
   54       -6.227426   1.000000
   55       -6.122049   1.000000
   56       -6.071428   1.000000
   57       -6.055213   1.000000
   58       -5.893855   1.000000
   59       -5.867953   1.000000
   60       -5.750914   1.000000
   61       -5.682651   1.000000
   62       -5.635830   1.000000
   63       -5.514538   1.000000
   64       -5.472034   1.000000
   65       -5.325728   1.000000
   66       -5.001927   1.000000
   67       -4.804793   1.000000
   68       -4.787109   1.000000
   69       -4.697459   1.000000
   70       -4.650123   1.000000
   71       -4.479925   1.000000
   72       -4.402481   1.000000
   73       -4.374605   1.000000
   74       -4.313482   1.000000
   75       -4.209744   1.000000
   76       -4.129037   1.000000
   77       -3.954701   1.000000
   78       -3.728271   0.999670
   79       -3.578502   0.990521
   80       -3.060043   0.093468
   81       -2.977936   0.028698
   82       -2.671072   0.000023
   83       -2.639189   0.000009
   84       -2.519864   0.000000
   85       -2.405221   0.000000
   86       -2.321736   0.000000
   87       -2.115629   0.000000
   88       -2.005679   0.000000
   89       -1.963039   0.000000
   90       -1.902309   0.000000
   91       -1.744156   0.000000
   92       -1.622427   0.000000
   93       -1.477369   0.000000
   94       -1.447544   0.000000
   95       -1.349726   0.000000
   96       -1.129927   0.000000
   97       -1.002407   0.000000
   98       -0.987701   0.000000
   99       -0.918349   0.000000
  100       -0.867041   0.000000
  101       -0.810631   0.000000
  102       -0.747830   0.000000
  103       -0.653279   0.000000
  104       -0.625592   0.000000
  105       -0.290418   0.000000
  106       -0.244439   0.000000
  107       -0.190522   0.000000
  108        0.065721   0.000000
  109        0.070635   0.000000
  110        0.340417   0.000000
  111        0.406684   0.000000
  112        0.718452   0.000000
  113        0.814892   0.000000
  114        0.901981   0.000000
  115        0.982258   0.000000
  116        1.138130   0.000000
  117        1.167434   0.000000
  118        2.004902   0.000000
  119        2.192687   0.000000
  120        2.391884   0.000000
 
  0.5000000E+00  0.1110223E-15  0.0000000E+00  0.1562500E-01
    1      -17.494592   1.000000
    2      -17.380493   1.000000
    3      -16.736279   1.000000
    4      -16.726817   1.000000
    5      -16.608079   1.000000
    6      -16.422433   1.000000
    7      -16.273855   1.000000
    8      -16.243442   1.000000
    9      -16.122216   1.000000
   10      -16.053622   1.000000
   11      -15.878986   1.000000
   12      -15.829076   1.000000
   13      -15.784518   1.000000
   14      -15.707238   1.000000
   15      -15.689374   1.000000
   16      -15.536877   1.000000
   17      -15.276876   1.000000
   18      -15.167188   1.000000
   19       -9.880121   1.000000
   20       -9.328656   1.000000
   21       -9.284822   1.000000
   22       -9.026794   1.000000
   23       -8.942410   1.000000
   24       -8.882338   1.000000
   25       -8.539221   1.000000
   26       -8.467826   1.000000
   27       -8.427032   1.000000
   28       -8.329538   1.000000
   29       -8.248945   1.000000
   30       -8.236334   1.000000
   31       -8.115753   1.000000
   32       -8.094416   1.000000
   33       -7.952274   1.000000
   34       -7.886362   1.000000
   35       -7.809852   1.000000
   36       -7.716303   1.000000
   37       -7.482531   1.000000
   38       -7.362600   1.000000
   39       -7.331855   1.000000
   40       -7.231216   1.000000
   41       -7.127279   1.000000
   42       -7.122213   1.000000
   43       -7.061888   1.000000
   44       -7.051764   1.000000
   45       -6.794274   1.000000
   46       -6.755708   1.000000
   47       -6.657455   1.000000
   48       -6.570701   1.000000
   49       -6.558622   1.000000
   50       -6.453053   1.000000
   51       -6.324384   1.000000
   52       -6.305515   1.000000
   53       -6.243748   1.000000
   54       -6.235148   1.000000
   55       -6.159675   1.000000
   56       -6.142037   1.000000
   57       -6.086541   1.000000
   58       -5.902738   1.000000
   59       -5.880482   1.000000
   60       -5.804199   1.000000
   61       -5.711662   1.000000
   62       -5.568115   1.000000
   63       -5.534074   1.000000
   64       -5.408932   1.000000
   65       -5.262449   1.000000
   66       -5.242347   1.000000
   67       -4.904957   1.000000
   68       -4.788954   1.000000
   69       -4.717771   1.000000
   70       -4.635059   1.000000
   71       -4.464241   1.000000
   72       -4.353875   1.000000
   73       -4.342567   1.000000
   74       -4.321292   1.000000
   75       -4.204644   1.000000
   76       -4.089516   1.000000
   77       -3.991061   1.000000
   78       -3.712984   0.999512
   79       -3.560263   0.986702
   80       -3.057025   0.089954
   81       -2.959351   0.021092
   82       -2.673203   0.000025
   83       -2.639122   0.000009
   84       -2.510361   0.000000
   85       -2.391779   0.000000
   86       -2.274730   0.000000
   87       -2.072051   0.000000
   88       -1.994777   0.000000
   89       -1.935206   0.000000
   90       -1.818514   0.000000
   91       -1.656040   0.000000
   92       -1.635131   0.000000
   93       -1.580424   0.000000
   94       -1.483108   0.000000
   95       -1.384073   0.000000
   96       -1.182176   0.000000
   97       -1.053885   0.000000
   98       -1.001076   0.000000
   99       -0.965911   0.000000
  100       -0.898108   0.000000
  101       -0.850660   0.000000
  102       -0.742353   0.000000
  103       -0.660912   0.000000
  104       -0.616888   0.000000
  105       -0.344468   0.000000
  106       -0.240082   0.000000
  107       -0.218958   0.000000
  108        0.034890   0.000000
  109        0.048550   0.000000
  110        0.349117   0.000000
  111        0.413912   0.000000
  112        0.739806   0.000000
  113        0.819846   0.000000
  114        0.881315   0.000000
  115        0.979977   0.000000
  116        1.172467   0.000000
  117        1.203689   0.000000
  118        2.201369   0.000000
  119        2.256644   0.000000
  120        2.375991   0.000000
 
  0.0000000E+00  0.1250000E+00  0.0000000E+00  0.3125000E-01
    1      -17.808325   1.000000
    2      -16.778126   1.000000
    3      -16.738725   1.000000
    4      -16.599115   1.000000
    5      -16.558296   1.000000
    6      -16.441875   1.000000
    7      -16.378480   1.000000
    8      -16.280741   1.000000
    9      -16.207062   1.000000
   10      -16.082090   1.000000
   11      -16.039828   1.000000
   12      -15.989393   1.000000
   13      -15.872337   1.000000
   14      -15.747323   1.000000
   15      -15.562814   1.000000
   16      -15.501894   1.000000
   17      -15.271360   1.000000
   18      -15.143668   1.000000
   19       -9.285122   1.000000
   20       -9.183200   1.000000
   21       -9.046132   1.000000
   22       -8.967130   1.000000
   23       -8.822683   1.000000
   24       -8.722418   1.000000
   25       -8.678315   1.000000
   26       -8.578986   1.000000
   27       -8.517989   1.000000
   28       -8.472056   1.000000
   29       -8.417432   1.000000
   30       -8.353421   1.000000
   31       -8.280994   1.000000
   32       -8.090378   1.000000
   33       -8.018428   1.000000
   34       -7.984200   1.000000
   35       -7.826757   1.000000
   36       -7.717009   1.000000
   37       -7.681781   1.000000
   38       -7.528650   1.000000
   39       -7.443739   1.000000
   40       -7.369387   1.000000
   41       -7.263351   1.000000
   42       -7.202443   1.000000
   43       -7.163129   1.000000
   44       -6.924581   1.000000
   45       -6.879833   1.000000
   46       -6.823874   1.000000
   47       -6.748918   1.000000
   48       -6.650450   1.000000
   49       -6.604494   1.000000
   50       -6.543998   1.000000
   51       -6.490674   1.000000
   52       -6.266347   1.000000
   53       -6.229547   1.000000
   54       -6.125621   1.000000
   55       -6.094603   1.000000
   56       -6.045408   1.000000
   57       -5.938912   1.000000
   58       -5.869941   1.000000
   59       -5.840062   1.000000
   60       -5.699593   1.000000
   61       -5.578887   1.000000
   62       -5.399501   1.000000
   63       -5.341637   1.000000
   64       -5.126846   1.000000
   65       -5.064737   1.000000
   66       -4.981631   1.000000
   67       -4.964946   1.000000
   68       -4.876344   1.000000
   69       -4.780346   1.000000
   70       -4.690715   1.000000
   71       -4.531202   1.000000
   72       -4.419618   1.000000
   73       -4.389640   1.000000
   74       -4.360228   1.000000
   75       -4.307314   1.000000
   76       -3.895882   0.999998
   77       -3.806282   0.999962
   78       -3.709000   0.999461
   79       -3.489361   0.956923
   80       -3.393116   0.849779
   81       -2.916059   0.009698
   82       -2.792350   0.000658
   83       -2.713650   0.000082
   84       -2.639343   0.000009
   85       -2.504209   0.000000
   86       -2.455403   0.000000
   87       -2.216563   0.000000
   88       -2.123225   0.000000
   89       -2.077771   0.000000
   90       -1.983511   0.000000
   91       -1.932509   0.000000
   92       -1.645105   0.000000
   93       -1.383472   0.000000
   94       -1.306551   0.000000
   95       -1.227966   0.000000
   96       -0.972891   0.000000
   97       -0.911260   0.000000
   98       -0.833609   0.000000
   99       -0.805577   0.000000
  100       -0.702719   0.000000
  101       -0.664467   0.000000
  102       -0.600082   0.000000
  103       -0.341914   0.000000
  104       -0.287743   0.000000
  105       -0.213799   0.000000
  106       -0.119788   0.000000
  107       -0.023106   0.000000
  108        0.000831   0.000000
  109        0.102058   0.000000
  110        0.195368   0.000000
  111        0.262115   0.000000
  112        0.456821   0.000000
  113        0.627513   0.000000
  114        0.767275   0.000000
  115        1.056126   0.000000
  116        1.239523   0.000000
  117        1.318973   0.000000
  118        1.707123   0.000000
  119        1.889989   0.000000
  120        2.219054   0.000000
 
  0.1250000E+00  0.1250000E+00  0.0000000E+00  0.3125000E-01
    1      -17.758101   1.000000
    2      -16.909862   1.000000
    3      -16.805765   1.000000
    4      -16.654908   1.000000
    5      -16.526863   1.000000
    6      -16.397821   1.000000
    7      -16.360291   1.000000
    8      -16.262015   1.000000
    9      -16.193978   1.000000
   10      -16.063344   1.000000
   11      -16.001603   1.000000
   12      -15.941823   1.000000
   13      -15.840127   1.000000
   14      -15.727516   1.000000
   15      -15.594032   1.000000
   16      -15.518971   1.000000
   17      -15.275926   1.000000
   18      -15.148347   1.000000
   19       -9.451878   1.000000
   20       -9.302128   1.000000
   21       -9.156910   1.000000
   22       -9.029308   1.000000
   23       -8.842820   1.000000
   24       -8.766411   1.000000
   25       -8.662143   1.000000
   26       -8.507012   1.000000
   27       -8.445739   1.000000
   28       -8.406285   1.000000
   29       -8.365661   1.000000
   30       -8.293356   1.000000
   31       -8.154223   1.000000
   32       -8.120228   1.000000
   33       -7.974689   1.000000
   34       -7.887343   1.000000
   35       -7.802883   1.000000
   36       -7.684488   1.000000
   37       -7.615253   1.000000
   38       -7.543978   1.000000
   39       -7.425713   1.000000
   40       -7.373054   1.000000
   41       -7.277698   1.000000
   42       -7.209070   1.000000
   43       -7.157383   1.000000
   44       -6.994832   1.000000
   45       -6.848535   1.000000
   46       -6.804348   1.000000
   47       -6.775794   1.000000
   48       -6.644213   1.000000
   49       -6.566542   1.000000
   50       -6.436491   1.000000
   51       -6.393667   1.000000
   52       -6.340457   1.000000
   53       -6.259804   1.000000
   54       -6.192314   1.000000
   55       -6.106058   1.000000
   56       -6.042071   1.000000
   57       -5.990706   1.000000
   58       -5.848460   1.000000
   59       -5.803991   1.000000
   60       -5.640079   1.000000
   61       -5.558005   1.000000
   62       -5.528066   1.000000
   63       -5.488912   1.000000
   64       -5.255542   1.000000
   65       -5.143649   1.000000
   66       -5.080123   1.000000
   67       -4.875574   1.000000
   68       -4.869850   1.000000
   69       -4.727796   1.000000
   70       -4.603983   1.000000
   71       -4.499713   1.000000
   72       -4.386325   1.000000
   73       -4.348252   1.000000
   74       -4.288098   1.000000
   75       -4.270457   1.000000
   76       -4.086446   1.000000
   77       -3.910977   0.999999
   78       -3.702029   0.999359
   79       -3.538212   0.980371
   80       -3.278833   0.589937
   81       -2.897424   0.006763
   82       -2.771028   0.000385
   83       -2.675342   0.000027
   84       -2.587001   0.000002
   85       -2.493075   0.000000
   86       -2.436191   0.000000
   87       -2.157132   0.000000
   88       -2.084472   0.000000
   89       -2.028383   0.000000
   90       -1.966029   0.000000
   91       -1.924921   0.000000
   92       -1.628372   0.000000
   93       -1.389559   0.000000
   94       -1.329098   0.000000
   95       -1.256259   0.000000
   96       -0.997938   0.000000
   97       -0.934256   0.000000
   98       -0.851325   0.000000
   99       -0.805086   0.000000
  100       -0.768454   0.000000
  101       -0.742258   0.000000
  102       -0.718744   0.000000
  103       -0.545950   0.000000
  104       -0.435987   0.000000
  105       -0.263550   0.000000
  106       -0.152214   0.000000
  107       -0.076695   0.000000
  108        0.038809   0.000000
  109        0.115983   0.000000
  110        0.220481   0.000000
  111        0.415755   0.000000
  112        0.483008   0.000000
  113        0.767864   0.000000
  114        0.826559   0.000000
  115        1.025640   0.000000
  116        1.183331   0.000000
  117        1.243545   0.000000
  118        1.788895   0.000000
  119        1.970722   0.000000
  120        2.288519   0.000000
 
  0.2500000E+00  0.1250000E+00  0.0000000E+00  0.3125000E-01
    1      -17.660198   1.000000
    2      -17.112112   1.000000
    3      -16.879009   1.000000
    4      -16.660658   1.000000
    5      -16.520014   1.000000
    6      -16.392919   1.000000
    7      -16.281069   1.000000
    8      -16.264657   1.000000
    9      -16.172273   1.000000
   10      -16.071582   1.000000
   11      -15.967288   1.000000
   12      -15.845602   1.000000
   13      -15.813412   1.000000
   14      -15.698803   1.000000
   15      -15.645520   1.000000
   16      -15.526966   1.000000
   17      -15.283296   1.000000
   18      -15.156690   1.000000
   19       -9.701857   1.000000
   20       -9.403397   1.000000
   21       -9.214188   1.000000
   22       -9.080728   1.000000
   23       -8.885365   1.000000
   24       -8.732433   1.000000
   25       -8.569908   1.000000
   26       -8.495256   1.000000
   27       -8.419198   1.000000
   28       -8.336167   1.000000
   29       -8.290129   1.000000
   30       -8.231485   1.000000
   31       -8.185922   1.000000
   32       -8.135462   1.000000
   33       -7.960021   1.000000
   34       -7.843863   1.000000
   35       -7.760204   1.000000
   36       -7.678194   1.000000
   37       -7.569485   1.000000
   38       -7.523680   1.000000
   39       -7.396881   1.000000
   40       -7.320464   1.000000
   41       -7.200942   1.000000
   42       -7.166389   1.000000
   43       -7.138547   1.000000
   44       -6.937955   1.000000
   45       -6.843345   1.000000
   46       -6.793320   1.000000
   47       -6.730650   1.000000