       N       E                     dE             d eps       ncg     rms          rms(c)
DAV:   1     0.112440816899E+04    0.11244E+04   -0.35862E+04  8160   0.577E+02
DAV:   2    -0.161052263447E-01   -0.11244E+04   -0.10806E+04 11080   0.173E+02
DAV:   3    -0.199720672688E+03   -0.19970E+03   -0.19131E+03 10920   0.822E+01
DAV:   4    -0.209008577907E+03   -0.92879E+01   -0.90237E+01 12200   0.262E+01
DAV:   5    -0.209304031772E+03   -0.29545E+00   -0.29463E+00 11200   0.354E+00    0.275E+01
DAV:   6    -0.237869635455E+03   -0.28566E+02   -0.10808E+02 12560   0.601E+01    0.595E+01
DAV:   7    -0.196569852572E+03    0.41300E+02   -0.17521E+02 13320   0.152E+02    0.200E+01
DAV:   8    -0.189470852350E+03    0.70990E+01   -0.17623E+01 12000   0.127E+01    0.125E+01
DAV:   9    -0.188126972704E+03    0.13439E+01   -0.30296E+00 13560   0.635E+00    0.911E+00
DAV:  10    -0.186936042082E+03    0.11909E+01   -0.17242E+00 13440   0.760E+00    0.215E+00
DAV:  11    -0.187024739639E+03   -0.88698E-01   -0.58879E-01 13600   0.256E+00    0.370E+00
DAV:  12    -0.186948113410E+03    0.76626E-01   -0.70045E-01 12720   0.385E+00    0.326E+00
DAV:  13    -0.186865527000E+03    0.82586E-01   -0.24517E-01 13240   0.297E+00    0.183E+00
DAV:  14    -0.186827142232E+03    0.38385E-01   -0.91196E-02 13000   0.164E+00    0.609E-01
DAV:  15    -0.186823455129E+03    0.36871E-02   -0.10758E-02 11760   0.368E-01    0.345E-01
DAV:  16    -0.186825181334E+03   -0.17262E-02   -0.11813E-02 13000   0.593E-01    0.656E-01
DAV:  17    -0.186821469926E+03    0.37114E-02   -0.86606E-03 12920   0.498E-01    0.197E-01
DAV:  18    -0.186821093802E+03    0.37612E-03   -0.13429E-03 12040   0.174E-01    0.659E-02
DAV:  19    -0.186821660829E+03   -0.56703E-03   -0.80800E-04 10880   0.817E-02    0.842E-02
DAV:  20    -0.186821963470E+03   -0.30264E-03   -0.34642E-04  8320   0.521E-02    0.566E-02
DAV:  21    -0.186823166925E+03   -0.12035E-02   -0.30390E-04  8600   0.590E-02    0.251E-02
DAV:  22    -0.186823947575E+03   -0.78065E-03   -0.77718E-05  6680   0.243E-02    0.245E-02
DAV:  23    -0.186824776751E+03   -0.82918E-03   -0.85722E-05  7480   0.233E-02    0.861E-03
DAV:  24    -0.186825392878E+03   -0.61613E-03   -0.25115E-05  6280   0.130E-02    0.605E-03
DAV:  25    -0.186825839357E+03   -0.44648E-03   -0.17388E-05  6040   0.115E-02    0.319E-03
DAV:  26    -0.186826012554E+03   -0.17320E-03   -0.69450E-06  6960   0.640E-03    0.182E-03
DAV:  27    -0.186826116832E+03   -0.10428E-03   -0.38990E-06  6640   0.410E-03    0.131E-03
DAV:  28    -0.186826168119E+03   -0.51286E-04   -0.22006E-06  7160   0.291E-03
   1 F= -.18682617E+03 E0= -.18665559E+03  d E =-.186826E+03
       N       E                     dE             d eps       ncg     rms          rms(c)
DAV:   1    -0.187491783458E+03   -0.66567E+00   -0.27406E+02  8160   0.351E+01    0.461E+00
DAV:   2    -0.189351204494E+03   -0.18594E+01   -0.20007E+01 12280   0.151E+01    0.845E+00
DAV:   3    -0.189347688296E+03    0.35162E-02   -0.35686E+00 12480   0.119E+01    0.660E+00
DAV:   4    -0.188742911398E+03    0.60478E+00   -0.63172E-01 12760   0.472E+00    0.170E+00
DAV:   5    -0.188726199237E+03    0.16712E-01   -0.28808E-01 10480   0.144E+00    0.194E+00
DAV:   6    -0.188692661126E+03    0.33538E-01   -0.26297E-01 12200   0.180E+00    0.174E+00
DAV:   7    -0.188700698981E+03   -0.80379E-02   -0.18849E-01 13000   0.237E+00    0.220E+00
DAV:   8    -0.188657975186E+03    0.42724E-01   -0.65305E-02 13280   0.149E+00    0.361E-01
DAV:   9    -0.188656467553E+03    0.15076E-02   -0.65041E-03 10600   0.296E-01    0.248E-01
DAV:  10    -0.188657309301E+03   -0.84175E-03   -0.49737E-03 13400   0.385E-01    0.443E-01
DAV:  11    -0.188655915666E+03    0.13936E-02   -0.41482E-03 12960   0.349E-01    0.147E-01
DAV:  12    -0.188655852503E+03    0.63162E-04   -0.82766E-04 11800   0.102E-01
   2 F= -.18865585E+03 E0= -.18851778E+03  d E =-.182968E+01
       N       E                     dE             d eps       ncg     rms          rms(c)
DAV:   1    -0.190583835838E+03   -0.19279E+01   -0.31275E+01  9240   0.142E+01    0.444E+00
DAV:   2    -0.190519548450E+03    0.64287E-01   -0.27400E+00 11640   0.937E+00    0.711E+00
DAV:   3    -0.190071432820E+03    0.44812E+00   -0.12939E+00 12480   0.859E+00    0.426E+00
DAV:   4    -0.189855930879E+03    0.21550E+00   -0.67494E-01 12920   0.431E+00    0.247E+00
DAV:   5    -0.189765906685E+03    0.90024E-01   -0.28763E-01 11520   0.197E+00    0.935E-01
DAV:   6    -0.189755367965E+03    0.10539E-01   -0.48890E-02 11960   0.113E+00    0.719E-01
DAV:   7    -0.189751728163E+03    0.36398E-02   -0.12774E-02 12320   0.649E-01    0.251E-01
DAV:   8    -0.189751289364E+03    0.43880E-03   -0.19404E-03 11640   0.171E-01    0.122E-01
DAV:   9    -0.189752202553E+03   -0.91319E-03   -0.15945E-03 10840   0.234E-01    0.290E-01
DAV:  10    -0.189751535485E+03    0.66707E-03   -0.14725E-03 10680   0.248E-01    0.818E-02
DAV:  11    -0.189751493340E+03    0.42145E-04   -0.19612E-04  6600   0.677E-02
   3 F= -.18975149E+03 E0= -.18963572E+03  d E =-.109564E+01
       N       E                     dE             d eps       ncg     rms          rms(c)
DAV:   1    -0.191343609848E+03   -0.15921E+01   -0.77984E+01  8160   0.201E+01    0.458E+00
DAV:   2    -0.191129038428E+03    0.21457E+00   -0.53326E+00 13400   0.729E+00    0.415E+00
DAV:   3    -0.191324468187E+03   -0.19543E+00   -0.14783E+00 12240   0.896E+00    0.678E+00
DAV:   4    -0.190907726269E+03    0.41674E+00   -0.13027E+00 13000   0.788E+00    0.276E+00
DAV:   5    -0.190807240448E+03    0.10049E+00   -0.30116E-01 11000   0.253E+00    0.160E+00
DAV:   6    -0.190796255308E+03    0.10985E-01   -0.13762E-01 12720   0.249E+00    0.155E+00
DAV:   7    -0.190776572244E+03    0.19683E-01   -0.50702E-02 12080   0.148E+00    0.491E-01
DAV:   8    -0.190772469296E+03    0.41029E-02   -0.70031E-03 10200   0.370E-01    0.152E-01
DAV:   9    -0.190772905619E+03   -0.43632E-03   -0.19052E-03 10680   0.137E-01    0.139E-01
DAV:  10    -0.190772626058E+03    0.27956E-03   -0.94007E-04 10640   0.113E-01    0.472E-02
DAV:  11    -0.190772646888E+03   -0.20830E-04   -0.12560E-04  7280   0.567E-02
   4 F= -.19077265E+03 E0= -.19067625E+03  d E =-.102115E+01
       N       E                     dE             d eps       ncg     rms          rms(c)
DAV:   1    -0.192227586660E+03   -0.14550E+01   -0.18700E+02  8160   0.303E+01    0.571E+00
DAV:   2    -0.191947174388E+03    0.28041E+00   -0.97283E+00 10160   0.759E+00    0.311E+00
DAV:   3    -0.191759010655E+03    0.18816E+00   -0.12522E+00 10880   0.396E+00    0.253E+00
DAV:   4    -0.191789141550E+03   -0.30131E-01   -0.58598E-01 11760   0.504E+00    0.444E+00
DAV:   5    -0.191630011353E+03    0.15913E+00   -0.63364E-01 11320   0.555E+00    0.192E+00
DAV:   6    -0.191604964837E+03    0.25047E-01   -0.14595E-01 12200   0.259E+00    0.148E+00
DAV:   7    -0.191586833721E+03    0.18131E-01   -0.66689E-02 12400   0.197E+00    0.704E-01
DAV:   8    -0.191579707626E+03    0.71261E-02   -0.12878E-02 12400   0.720E-01    0.185E-01
DAV:   9    -0.191581259339E+03   -0.15517E-02   -0.43700E-03 12120   0.453E-01    0.407E-01
DAV:  10    -0.191579732188E+03    0.15272E-02   -0.31382E-03 12120   0.397E-01    0.634E-02
DAV:  11    -0.191579755581E+03   -0.23394E-04   -0.16605E-04  6400   0.595E-02
   5 F= -.19157976E+03 E0= -.19149358E+03  d E =-.807109E+00
       N       E                     dE             d eps       ncg     rms          rms(c)
DAV:   1    -0.191689600142E+03   -0.10987E+00   -0.90717E+00  8160   0.637E+00    0.764E-01
DAV:   2    -0.191760138650E+03   -0.70539E-01   -0.39076E-01 13080   0.327E+00    0.216E+00
DAV:   3    -0.191708464650E+03    0.51674E-01   -0.10279E-01 12480   0.246E+00    0.419E-01
DAV:   4    -0.191709077178E+03   -0.61253E-03   -0.10782E-02 11400   0.704E-01    0.623E-01
DAV:   5    -0.191705833023E+03    0.32442E-02   -0.86194E-03 11600   0.708E-01    0.277E-01
DAV:   6    -0.191705290085E+03    0.54294E-03   -0.32960E-03 11480   0.274E-01    0.107E-01
DAV:   7    -0.191705011781E+03    0.27830E-03   -0.72497E-04 11040   0.106E-01    0.340E-02
DAV:   8    -0.191705020251E+03   -0.84698E-05   -0.10627E-04  6240   0.421E-02
   6 F= -.19170502E+03 E0= -.19161972E+03  d E =-.125265E+00
       N       E                     dE             d eps       ncg     rms          rms(c)
DAV:   1    -0.191834569497E+03   -0.12956E+00   -0.17430E+01  8160   0.880E+00    0.889E-01
DAV:   2    -0.191903888955E+03   -0.69319E-01   -0.52119E-01 12440   0.306E+00    0.193E+00
DAV:   3    -0.191865308755E+03    0.38580E-01   -0.11436E-01 12520   0.255E+00    0.713E-01
DAV:   4    -0.191864417222E+03    0.89153E-03   -0.20505E-02 11960   0.102E+00    0.796E-01
DAV:   5    -0.191858620052E+03    0.57972E-02   -0.14042E-02 12360   0.941E-01    0.350E-01
DAV:   6    -0.191858268931E+03    0.35112E-03   -0.57830E-03 12480   0.393E-01    0.239E-01
DAV:   7    -0.191857960554E+03    0.30838E-03   -0.32530E-03 12080   0.398E-01    0.253E-01
DAV:   8    -0.191857336566E+03    0.62399E-03   -0.12507E-03 10240   0.257E-01    0.524E-02
DAV:   9    -0.191857314411E+03    0.22156E-04   -0.13817E-04  6280   0.547E-02
   7 F= -.19185731E+03 E0= -.19177567E+03  d E =-.152294E+00
       N       E                     dE             d eps       ncg     rms          rms(c)
DAV:   1    -0.191979367131E+03   -0.12203E+00   -0.27397E+01  8160   0.112E+01    0.114E+00
DAV:   2    -0.192069580080E+03   -0.90213E-01   -0.91857E-01 12520   0.364E+00    0.186E+00
DAV:   3    -0.192041820483E+03    0.27760E-01   -0.13542E-01 12320   0.285E+00    0.103E+00
DAV:   4    -0.192030265915E+03    0.11555E-01   -0.31501E-02 11280   0.129E+00    0.794E-01
DAV:   5    -0.192027623706E+03    0.26422E-02   -0.23731E-02 12400   0.120E+00    0.663E-01
DAV:   6    -0.192024489432E+03    0.31343E-02   -0.14708E-02 12600   0.725E-01    0.276E-01
DAV:   7    -0.192022691513E+03    0.17979E-02   -0.37726E-03 10640   0.240E-01    0.594E-02
DAV:   8    -0.192022684582E+03    0.69306E-05   -0.44532E-04 10000   0.780E-02
   8 F= -.19202268E+03 E0= -.19194250E+03  d E =-.165370E+00
       N       E                     dE             d eps       ncg     rms          rms(c)
DAV:   1    -0.192091618410E+03   -0.68927E-01   -0.13547E+01  8160   0.781E+00    0.826E-01
DAV:   2    -0.192130865009E+03   -0.39247E-01   -0.51910E-01 12000   0.195E+00    0.695E-01
DAV:   3    -0.192140290898E+03   -0.94259E-02   -0.57351E-02 12440   0.174E+00    0.126E+00
DAV:   4    -0.192124664617E+03    0.15626E-01   -0.29055E-02 12480   0.138E+00    0.430E-01
DAV:   5    -0.192123667469E+03    0.99715E-03   -0.87695E-03 12400   0.651E-01    0.400E-01
DAV:   6    -0.192123718976E+03   -0.51507E-04   -0.74239E-03 12120   0.677E-01    0.370E-01
DAV:   7    -0.192122300170E+03    0.14188E-02   -0.40618E-03 11720   0.448E-01    0.206E-01
DAV:   8    -0.192121883781E+03    0.41639E-03   -0.92054E-04 10160   0.238E-01    0.580E-02
DAV:   9    -0.192121845757E+03    0.38024E-04   -0.12559E-04  6360   0.616E-02
   9 F= -.19212185E+03 E0= -.19204104E+03  d E =-.991612E-01
       N       E                     dE             d eps       ncg     rms          rms(c)
DAV:   1    -0.192168840861E+03   -0.46957E-01   -0.10016E+01  8160   0.677E+00    0.768E-01
DAV:   2    -0.192197225041E+03   -0.28384E-01   -0.38972E-01 11800   0.176E+00    0.813E-01
DAV:   3    -0.192205230845E+03   -0.80058E-02   -0.60023E-02 12120   0.181E+00    0.131E+00
DAV:   4    -0.192188312659E+03    0.16918E-01   -0.28772E-02 12360   0.128E+00    0.327E-01
DAV:   5    -0.192187240625E+03    0.10720E-02   -0.70697E-03 11200   0.463E-01    0.270E-01
DAV:   6    -0.192187723395E+03   -0.48277E-03   -0.52966E-03 12080   0.577E-01    0.337E-01
DAV:   7    -0.192186217305E+03    0.15061E-02   -0.25131E-03 12040   0.392E-01    0.655E-02
DAV:   8    -0.192186224754E+03   -0.74494E-05   -0.30078E-04  8240   0.114E-01
  10 F= -.19218622E+03 E0= -.19210356E+03  d E =-.643790E-01
       N       E                     dE             d eps       ncg     rms          rms(c)
DAV:   1    -0.192213854364E+03   -0.27637E-01   -0.64845E+00  8160   0.539E+00    0.659E-01
DAV:   2    -0.192247929377E+03   -0.34075E-01   -0.28979E-01 12400   0.205E+00    0.123E+00
DAV:   3    -0.192232672860E+03    0.15257E-01   -0.51320E-02 11240   0.176E+00    0.637E-01
DAV:   4    -0.192230720898E+03    0.19520E-02   -0.13718E-02 12520   0.869E-01    0.515E-01
DAV:   5    -0.192228181944E+03    0.25390E-02   -0.70370E-03 11960   0.704E-01    0.265E-01
DAV:   6    -0.192227721514E+03    0.46043E-03   -0.29569E-03 12200   0.314E-01    0.142E-01
DAV:   7    -0.192227347073E+03    0.37444E-03   -0.12687E-03 10400   0.136E-01    0.435E-02
DAV:   8    -0.192227373468E+03   -0.26395E-04   -0.17072E-04  8560   0.991E-02
  11 F= -.19222737E+03 E0= -.19214461E+03  d E =-.411487E-01
       N       E                     dE             d eps       ncg     rms          rms(c)
DAV:   1    -0.192241239463E+03   -0.13892E-01   -0.87764E-01  8160   0.201E+00    0.286E-01
DAV:   2    -0.192247085229E+03   -0.58458E-02   -0.43822E-02 11840   0.872E-01    0.605E-01
DAV:   3    -0.192243421278E+03    0.36640E-02   -0.10874E-02 11640   0.813E-01    0.274E-01
DAV:   4    -0.192242995679E+03    0.42560E-03   -0.22608E-03 11960   0.355E-01    0.200E-01
DAV:   5    -0.192242620932E+03    0.37475E-03   -0.11932E-03 11200   0.297E-01    0.113E-01
DAV:   6    -0.192242511478E+03    0.10945E-03   -0.47058E-04 10160   0.130E-01    0.511E-02
DAV:   7    -0.192242476829E+03    0.34649E-04   -0.17437E-04  6720   0.649E-02
  12 F= -.19224248E+03 E0= -.19216062E+03  d E =-.151034E-01
       N       E                     dE             d eps       ncg     rms          rms(c)
DAV:   1    -0.192252199943E+03   -0.96885E-02   -0.40957E-01  8160   0.137E+00    0.217E-01
DAV:   2    -0.192256058436E+03   -0.38585E-02   -0.23182E-02 10720   0.819E-01    0.529E-01
DAV:   3    -0.192252793430E+03    0.32650E-02   -0.61633E-03 12120   0.636E-01    0.139E-01
DAV:   4    -0.192252961996E+03   -0.16857E-03   -0.12488E-03 10200   0.272E-01    0.192E-01
DAV:   5    -0.192252617276E+03    0.34472E-03   -0.89536E-04 10320   0.259E-01    0.946E-02
DAV:   6    -0.192252536464E+03    0.80812E-04   -0.32721E-04  8600   0.103E-01
  13 F= -.19225254E+03 E0= -.19217174E+03  d E =-.100596E-01
       N       E                     dE             d eps       ncg     rms          rms(c)
DAV:   1    -0.192266105118E+03   -0.13488E-01   -0.98608E-01  8160   0.212E+00    0.297E-01
DAV:   2    -0.192272647920E+03   -0.65428E-02   -0.44411E-02 11520   0.953E-01    0.649E-01
DAV:   3    -0.192267901903E+03    0.47460E-02   -0.11036E-02 12080   0.843E-01    0.227E-01
DAV:   4    -0.192267979924E+03   -0.78021E-04   -0.23092E-03 11720   0.370E-01    0.246E-01
DAV:   5    -0.192267346029E+03    0.63390E-03   -0.14393E-03 10760   0.331E-01    0.106E-01
DAV:   6    -0.192267287962E+03    0.58067E-04   -0.51513E-04 10280   0.122E-01
  14 F= -.19226729E+03 E0= -.19218805E+03  d E =-.147515E-01
       N       E                     dE             d eps       ncg     rms          rms(c)
DAV:   1    -0.192287228973E+03   -0.19883E-01   -0.32244E+00  8160   0.382E+00    0.542E-01
DAV:   2    -0.192307885134E+03   -0.20656E-01   -0.14852E-01 11400   0.179E+00    0.112E+00
DAV:   3    -0.192293199193E+03    0.14686E-01   -0.31060E-02 11960   0.146E+00    0.364E-01
DAV:   4    -0.192293229737E+03   -0.30544E-04   -0.67127E-03 12560   0.620E-01    0.414E-01
DAV:   5    -0.192291609331E+03    0.16204E-02   -0.45177E-03 11920   0.590E-01    0.216E-01
DAV:   6    -0.192291301756E+03    0.30757E-03   -0.19807E-03 12280   0.250E-01    0.105E-01
DAV:   7    -0.192291052214E+03    0.24954E-03   -0.65479E-04 10840   0.106E-01    0.369E-02
DAV:   8    -0.192291063650E+03   -0.11436E-04   -0.83391E-05  7920   0.769E-02
  15 F= -.19229106E+03 E0= -.19221526E+03  d E =-.237757E-01
       N       E                     dE             d eps       ncg     rms          rms(c)
DAV:   1    -0.192297577677E+03   -0.65255E-02   -0.16759E+01  8160   0.875E+00    0.109E+00
DAV:   2    -0.192365405174E+03   -0.67827E-01   -0.67784E-01 12120   0.295E+00    0.165E+00
DAV:   3    -0.192338762659E+03    0.26643E-01   -0.99769E-02 12240   0.266E+00    0.943E-01
DAV:   4    -0.192328993425E+03    0.97692E-02   -0.26378E-02 11480   0.121E+00    0.545E-01
DAV:   5    -0.192328205753E+03    0.78767E-03   -0.14402E-02 12720   0.104E+00    0.552E-01
DAV:   6    -0.192325684687E+03    0.25211E-02   -0.96724E-03 12760   0.722E-01    0.252E-01
DAV:   7    -0.192324317117E+03    0.13676E-02   -0.29583E-03 11800   0.248E-01    0.473E-02
DAV:   8    -0.192324316518E+03    0.59917E-06   -0.34991E-04 10600   0.674E-02
  16 F= -.19232432E+03 E0= -.19225511E+03  d E =-.332529E-01
       N       E                     dE             d eps       ncg     rms          rms(c)
DAV:   1    -0.192321919577E+03    0.23975E-02   -0.80290E-01  8160   0.193E+00    0.258E-01
DAV:   2    -0.192326340904E+03   -0.44213E-02   -0.28383E-02 11480   0.814E-01    0.554E-01
DAV:   3    -0.192322875839E+03    0.34651E-02   -0.78019E-03 11960   0.751E-01    0.190E-01
DAV:   4    -0.192322791802E+03    0.84037E-04   -0.15148E-03 11280   0.294E-01    0.184E-01
DAV:   5    -0.192322456405E+03    0.33540E-03   -0.10126E-03 10560   0.283E-01    0.108E-01
DAV:   6    -0.192322356138E+03    0.10027E-03   -0.45453E-04  9520   0.133E-01    0.514E-02
DAV:   7    -0.192322314964E+03    0.41173E-04   -0.13313E-04  7360   0.703E-02
  17 F= -.19232231E+03 E0= -.19225201E+03  d E =0.200155E-02
       N       E                     dE             d eps       ncg     rms          rms(c)
DAV:   1    -0.192325134531E+03   -0.27784E-02   -0.24339E-01  8160   0.104E+00    0.124E-01
DAV:   2    -0.192326096664E+03   -0.96213E-03   -0.10098E-02 10520   0.354E-01    0.182E-01
DAV:   3    -0.192325806647E+03    0.29002E-03   -0.12483E-03 12840   0.303E-01    0.112E-01
DAV:   4    -0.192325647386E+03    0.15926E-03   -0.28160E-04  8320   0.133E-01    0.529E-02
DAV:   5    -0.192325674288E+03   -0.26902E-04   -0.18624E-04  7800   0.121E-01
  18 F= -.19232567E+03 E0= -.19225621E+03  d E =-.335932E-02
       N       E                     dE             d eps       ncg     rms          rms(c)
DAV:   1    -0.192326903496E+03   -0.12561E-02   -0.48313E-02  8160   0.472E-01    0.658E-02
DAV:   2    -0.192327104524E+03   -0.20103E-03   -0.25524E-03 11440   0.160E-01    0.746E-02
DAV:   3    -0.192327069120E+03    0.35404E-04   -0.30666E-04  9440   0.139E-01
  19 F= -.19232707E+03 E0= -.19225781E+03  d E =-.139483E-02
       N       E                     dE             d eps       ncg     rms          rms(c)
DAV:   1    -0.192330024159E+03   -0.29196E-02   -0.72376E-01  8160   0.180E+00    0.223E-01
DAV:   2    -0.192332501886E+03   -0.24777E-02   -0.32978E-02 11440   0.557E-01    0.220E-01
DAV:   3    -0.192332686920E+03   -0.18503E-03   -0.31573E-03 12480   0.483E-01    0.260E-01
DAV:   4    -0.192331747583E+03    0.93934E-03   -0.11725E-03 10680   0.304E-01    0.730E-02
DAV:   5    -0.192332089346E+03   -0.34176E-03   -0.81307E-04 10560   0.233E-01    0.183E-01
DAV:   6    -0.192331694274E+03    0.39507E-03   -0.57492E-04  9000   0.202E-01    0.201E-02
DAV:   7    -0.192331699704E+03   -0.54308E-05   -0.52626E-05  6240   0.277E-02
  20 F= -.19233170E+03 E0= -.19226359E+03  d E =-.463058E-02
       N       E                     dE             d eps       ncg     rms          rms(c)
DAV:   1    -0.192333460272E+03   -0.17660E-02   -0.45839E-01  8160   0.143E+00    0.170E-01
DAV:   2    -0.192335461434E+03   -0.20012E-02   -0.21249E-02 10760   0.513E-01    0.241E-01
DAV:   3    -0.192335043734E+03    0.41770E-03   -0.25544E-03 12840   0.426E-01    0.169E-01
DAV:   4    -0.192334717840E+03    0.32589E-03   -0.64565E-04 10080   0.211E-01    0.844E-02
DAV:   5    -0.192334701463E+03    0.16377E-04   -0.28956E-04  9040   0.149E-01
  21 F= -.19233470E+03 E0= -.19226738E+03  d E =-.300176E-02
       N       E                     dE             d eps       ncg     rms          rms(c)
DAV:   1    -0.192334651436E+03    0.66404E-04   -0.11217E-02  8160   0.248E-01    0.606E-02
DAV:   2    -0.192334729204E+03   -0.77768E-04   -0.83482E-04 11440   0.129E-01
  22 F= -.19233473E+03 E0= -.19226751E+03  d E =-.277413E-04
       N       E                     dE             d eps       ncg     rms          rms(c)
DAV:   1    -0.192335423902E+03   -0.77247E-03   -0.70590E-02  8160   0.573E-01    0.108E-01
DAV:   2    -0.192336179844E+03   -0.75594E-03   -0.40854E-03 12120   0.371E-01    0.249E-01
DAV:   3    -0.192335378234E+03    0.80161E-03   -0.11527E-03 10280   0.307E-01    0.529E-02
DAV:   4    -0.192335382146E+03   -0.39123E-05   -0.17909E-04  5960   0.926E-02
  23 F= -.19233538E+03 E0= -.19226855E+03  d E =-.652942E-03
       N       E                     dE             d eps       ncg     rms          rms(c)
DAV:   1    -0.192335819062E+03   -0.44083E-03   -0.16864E-02  8240   0.300E-01    0.601E-02
DAV:   2    -0.192336318640E+03   -0.49958E-03   -0.15500E-03 12560   0.267E-01    0.199E-01
DAV:   3    -0.192335832422E+03    0.48622E-03   -0.63765E-04  9440   0.227E-01    0.290E-02
DAV:   4    -0.192335841798E+03   -0.93762E-05   -0.49351E-05  6000   0.531E-02
  24 F= -.19233584E+03 E0= -.19226916E+03  d E =-.459652E-03
