 vasp.5.4.1 05Feb16 (build Jul 05 2020 17:13:04) complex                        
  
 executed on           IFC91_ompi date 2024.04.29  18:00:53
 running on   40 total cores
 distrk:  each k-point on   40 cores,    1 groups
 distr:  one band on NCORES_PER_BAND=   1 cores,   40 groups


--------------------------------------------------------------------------------------------------------


 INCAR:
 POTCAR:   PAW_PBE V 08Apr2002                    
 POTCAR:   PAW_PBE Mo 08Apr2002                   
 POTCAR:   PAW_PBE W 08Apr2002                    
 POTCAR:    PAW_PBE S 17Jan2003                   

 ----------------------------------------------------------------------------- 
|                                                                             |
|           W    W    AA    RRRRR   N    N  II  N    N   GGGG   !!!           |
|           W    W   A  A   R    R  NN   N  II  NN   N  G    G  !!!           |
|           W    W  A    A  R    R  N N  N  II  N N  N  G       !!!           |
|           W WW W  AAAAAA  RRRRR   N  N N  II  N  N N  G  GGG   !            |
|           WW  WW  A    A  R   R   N   NN  II  N   NN  G    G                |
|           W    W  A    A  R    R  N    N  II  N    N   GGGG   !!!           |
|                                                                             |
|      For optimal performance we recommend to set                            |
|        NCORE= 4 - approx SQRT( number of cores)                             |
|      NCORE specifies how many cores store one orbital (NPAR=cpu/NCORE).     |
|      This setting can  greatly improve the performance of VASP for DFT.     |
|      The default, NPAR=number of cores might be grossly inefficient         |
|      on modern multi-core architectures or massively parallel machines.     |
|      Do your own testing !!!!                                               |
|      Unfortunately you need to use the default for GW and RPA calculations. |
|      (for HF NCORE is supported but not extensively tested yet)             |
|                                                                             |
 ----------------------------------------------------------------------------- 

 POTCAR:   PAW_PBE V 08Apr2002                    
   VRHFIN =V: p6 d4 s1                                                          
   LEXCH  = PE                                                                  
   EATOM  =   170.8679 eV,   12.5584 Ry                                         
                                                                                
   TITEL  = PAW_PBE V 08Apr2002                                                 
   LULTRA =        F    use ultrasoft PP ?                                      
   IUNSCR =        1    unscreen: 0-lin 1-nonlin 2-no                           
   RPACOR =    2.000    partial core radius                                     
   POMASS =   50.941; ZVAL   =    5.000    mass and valenz                      
   RCORE  =    2.700    outmost cutoff radius                                   
   RWIGS  =    2.500; RWIGS  =    1.323    wigner-seitz radius (au A)           
   ENMAX  =  192.543; ENMIN  =  144.408 eV                                      
   RCLOC  =    1.779    cutoff for local pot                                    
   LCOR   =        T    correct aug charges                                     
   LPAW   =        T    paw PP                                                  
   EAUG   =  358.662                                                            
   DEXC   =    -.034                                                            
   RMAX   =    3.323    core radius for proj-oper                               
   RAUG   =    1.300    factor for augmentation sphere                          
   RDEP   =    2.762    radius for radial grids                                 
   QCUT   =   -3.762; QGAM   =    7.524    optimization parameters              
                                                                                
   Description                                                                  
     l     E      TYP  RCUT    TYP  RCUT                                        
     2   .000     23  2.700                                                     
     2   .000     23  2.700                                                     
     0   .000     23  2.700                                                     
     0  2.000     23  2.700                                                     
     1   .000     23  2.700                                                     
     1  2.000     23  2.700                                                     
     3   .000      7   .000                                                     
  local pseudopotential read in
  partial core-charges read in
  atomic valenz-charges read in
  non local Contribution for L=           2  read in
    real space projection operators read in
  non local Contribution for L=           2  read in
    real space projection operators read in
  non local Contribution for L=           0  read in
    real space projection operators read in
  non local Contribution for L=           0  read in
    real space projection operators read in
  non local Contribution for L=           1  read in
    real space projection operators read in
  non local Contribution for L=           1  read in
    real space projection operators read in
    PAW grid and wavefunctions read in
 
   number of l-projection  operators is LMAX  =           6
   number of lm-projection operators is LMMAX =          18
 
 POTCAR:   PAW_PBE Mo 08Apr2002                   
   VRHFIN =Mo: 4p5s4d                                                           
   LEXCH  = PE                                                                  
   EATOM  =   217.5180 eV,   15.9871 Ry                                         
                                                                                
   TITEL  = PAW_PBE Mo 08Apr2002                                                
   LULTRA =        F    use ultrasoft PP ?                                      
   IUNSCR =        1    unscreen: 0-lin 1-nonlin 2-no                           
   RPACOR =    2.200    partial core radius                                     
   POMASS =   95.940; ZVAL   =    6.000    mass and valenz                      
   RCORE  =    2.750    outmost cutoff radius                                   
   RWIGS  =    2.750; RWIGS  =    1.455    wigner-seitz radius (au A)           
   ENMAX  =  224.584; ENMIN  =  168.438 eV                                      
   RCLOC  =    2.111    cutoff for local pot                                    
   LCOR   =        T    correct aug charges                                     
   LPAW   =        T    paw PP                                                  
   EAUG   =  345.278                                                            
   DEXC   =    -.088                                                            
   RMAX   =    3.077    core radius for proj-oper                               
   RAUG   =    1.300    factor for augmentation sphere                          
   RDEP   =    2.815    radius for radial grids                                 
   QCUT   =   -4.063; QGAM   =    8.126    optimization parameters              
                                                                                
   Description                                                                  
     l     E      TYP  RCUT    TYP  RCUT                                        
     2   .000     23  2.500                                                     
     2   .000     23  2.500                                                     
     0   .000     23  2.600                                                     
     0  1.000     23  2.600                                                     
     1   .400     23  2.750                                                     
     1  2.000     23  2.750                                                     
     3   .000      7   .000                                                     
  local pseudopotential read in
  partial core-charges read in
  atomic valenz-charges read in
  non local Contribution for L=           2  read in
    real space projection operators read in
  non local Contribution for L=           2  read in
    real space projection operators read in
  non local Contribution for L=           0  read in
    real space projection operators read in
  non local Contribution for L=           0  read in
    real space projection operators read in
  non local Contribution for L=           1  read in
    real space projection operators read in
  non local Contribution for L=           1  read in
    real space projection operators read in
    PAW grid and wavefunctions read in
 
   number of l-projection  operators is LMAX  =           6
   number of lm-projection operators is LMMAX =          18
 
 POTCAR:   PAW_PBE W 08Apr2002                    
   VRHFIN =W : 6s5d                                                             
   LEXCH  = PE                                                                  
   EATOM  =   204.6100 eV,   15.0384 Ry                                         
                                                                                
   TITEL  = PAW_PBE W 08Apr2002                                                 
   LULTRA =        F    use ultrasoft PP ?                                      
   IUNSCR =        1    unscreen: 0-lin 1-nonlin 2-no                           
   RPACOR =    2.330    partial core radius                                     
   POMASS =  183.850; ZVAL   =    6.000    mass and valenz                      
   RCORE  =    2.750    outmost cutoff radius                                   
   RWIGS  =    2.750; RWIGS  =    1.455    wigner-seitz radius (au A)           
   ENMAX  =  223.057; ENMIN  =  167.293 eV                                      
   RCLOC  =    2.147    cutoff for local pot                                    
   LCOR   =        T    correct aug charges                                     
   LPAW   =        T    paw PP                                                  
   EAUG   =  373.438                                                            
   DEXC   =    -.060                                                            
   RMAX   =    3.087    core radius for proj-oper                               
   RAUG   =    1.300    factor for augmentation sphere                          
   RDEP   =    2.886    radius for radial grids                                 
   QCUT   =   -4.049; QGAM   =    8.098    optimization parameters              
                                                                                
   Description                                                                  
     l     E      TYP  RCUT    TYP  RCUT                                        
     2   .000     23  2.500                                                     
     2   .000     23  2.500                                                     
     0   .000     23  2.500                                                     
     0   .000     23  2.500                                                     
     1   .200     23  2.750                                                     
     1  2.000     23  2.750                                                     
     3   .000      7   .000                                                     
  local pseudopotential read in
  partial core-charges read in
  atomic valenz-charges read in
  non local Contribution for L=           2  read in
    real space projection operators read in
  non local Contribution for L=           2  read in
    real space projection operators read in
  non local Contribution for L=           0  read in
    real space projection operators read in
  non local Contribution for L=           0  read in
    real space projection operators read in
  non local Contribution for L=           1  read in
    real space projection operators read in
  non local Contribution for L=           1  read in
    real space projection operators read in
    PAW grid and wavefunctions read in
 
   number of l-projection  operators is LMAX  =           6
   number of lm-projection operators is LMMAX =          18
 
 POTCAR:    PAW_PBE S 17Jan2003                   
   VRHFIN =S : s2p4                                                             
   LEXCH  = PE                                                                  
   EATOM  =   276.8230 eV,   20.3459 Ry                                         
                                                                                
   TITEL  = PAW_PBE S 17Jan2003                                                 
   LULTRA =        F    use ultrasoft PP ?                                      
   IUNSCR =        1    unscreen: 0-lin 1-nonlin 2-no                           
   RPACOR =    1.500    partial core radius                                     
   POMASS =   32.066; ZVAL   =    6.000    mass and valenz                      
   RCORE  =    1.900    outmost cutoff radius                                   
   RWIGS  =    2.200; RWIGS  =    1.164    wigner-seitz radius (au A)           
   ENMAX  =  280.000; ENMIN  =  194.016 eV                                      
   ICORE  =        2    local potential                                         
   LCOR   =        T    correct aug charges                                     
   LPAW   =        T    paw PP                                                  
   EAUG   =  335.092                                                            
   DEXC   =     .000                                                            
   RMAX   =    2.867    core radius for proj-oper                               
   RAUG   =    1.300    factor for augmentation sphere                          
   RDEP   =    1.954    radius for radial grids                                 
   QCUT   =   -4.360; QGAM   =    8.721    optimization parameters              
                                                                                
   Description                                                                  
     l     E      TYP  RCUT    TYP  RCUT                                        
     0   .000     23  1.900                                                     
     0   .000     23  1.900                                                     
     1   .000     23  1.900                                                     
     1   .000     23  1.900                                                     
     2   .000     23  1.900                                                     
  local pseudopotential read in
  partial core-charges read in
  atomic valenz-charges read in
  non local Contribution for L=           0  read in
    real space projection operators read in
  non local Contribution for L=           0  read in
    real space projection operators read in
  non local Contribution for L=           1  read in
    real space projection operators read in
  non local Contribution for L=           1  read in
    real space projection operators read in
    PAW grid and wavefunctions read in
 
   number of l-projection  operators is LMAX  =           4
   number of lm-projection operators is LMMAX =           8
 

 ----------------------------------------------------------------------------- 
|                                                                             |
|  ADVICE TO THIS USER RUNNING 'VASP/VAMP'   (HEAR YOUR MASTER'S VOICE ...):  |
|                                                                             |
|      You have a (more or less) 'large supercell' and for larger cells       |
|      it might be more efficient to use real space projection operators      |
|      So try LREAL= Auto  in the INCAR   file.                               |
|      Mind: If you want to do a very accurate calculations keep the          |
|      reciprocal projection scheme          (i.e. LREAL=.FALSE.)             |
|                                                                             |
 ----------------------------------------------------------------------------- 

 PAW_PBE V 08Apr2002                    :
 energy of atom  1       EATOM= -170.8679
 kinetic energy error for atom=    0.0047 (will be added to EATOM!!)
 PAW_PBE Mo 08Apr2002                   :
 energy of atom  2       EATOM= -217.5180
 kinetic energy error for atom=    0.0215 (will be added to EATOM!!)
 PAW_PBE W 08Apr2002                    :
 energy of atom  3       EATOM= -204.6100
 kinetic energy error for atom=    0.0205 (will be added to EATOM!!)
  PAW_PBE S 17Jan2003                   :
 energy of atom  4       EATOM= -276.8230
 kinetic energy error for atom=    0.0122 (will be added to EATOM!!)
 
 
 POSCAR: crystal structure from VMoWS2 with Hexag
  positions in cartesian coordinates
  No initial velocities read in
 exchange correlation table for  LEXCH =        8
   RHO(1)=    0.500       N(1)  =     2000
   RHO(2)=  100.500       N(2)  =     4000
 


--------------------------------------------------------------------------------------------------------


 ion  position               nearest neighbor table
   1  0.667  0.000  0.000-  17 2.34  26 2.34  23 2.36  22 2.36  21 2.36  20 2.36
   2  0.667  0.333  0.000-  19 2.34  22 2.34  25 2.36  24 2.36  17 2.36  16 2.36
   3  0.333  0.000  0.000-  11 2.34  20 2.34  17 2.36  16 2.36  15 2.36  14 2.36
   4  1.000  0.333  0.000-  25 2.34  10 2.34  13 2.36  12 2.36  22 2.36  23 2.36   6 3.34   5 3.34
                             7 3.34   8 3.36
   5  0.000  0.000  0.000-  23 2.34  14 2.34  11 2.36  10 2.36  27 2.36  26 2.36   6 3.34   4 3.34
                             9 3.36   7 3.36
   6  0.000  0.667  0.000-  27 2.34  12 2.34  14 2.36  15 2.36  24 2.36  25 2.36   9 3.34   5 3.34
                             4 3.34   8 3.34
   7  0.333  0.333  0.000-  13 2.34  16 2.34  19 2.36  18 2.36  11 2.36  10 2.36   8 3.34   4 3.34
                             5 3.36   9 3.36
   8  0.333  0.667  0.000-  15 2.34  18 2.34  20 2.36  21 2.36  13 2.36  12 2.36   7 3.34   6 3.34
                             9 3.34   4 3.36
   9  0.667  0.667  0.000-  21 2.34  24 2.34  27 2.36  26 2.36  19 2.36  18 2.36   6 3.34   8 3.34
                             5 3.36   7 3.36
  10  0.111  0.222  0.955-   4 2.34   5 2.36   7 2.36
  11  0.222  0.111  0.045-   3 2.34   5 2.36   7 2.36
  12  0.111  0.556  0.955-   6 2.34   4 2.36   8 2.36
  13  0.222  0.444  0.045-   7 2.34   4 2.36   8 2.36
  14  0.111  0.889  0.955-   5 2.34   6 2.36   3 2.36
  15  0.222  0.777  0.045-   8 2.34   6 2.36   3 2.36
  16  0.444  0.222  0.955-   7 2.34   3 2.36   2 2.36
  17  0.556  0.111  0.045-   1 2.34   3 2.36   2 2.36
  18  0.444  0.556  0.955-   8 2.34   7 2.36   9 2.36
  19  0.556  0.444  0.045-   2 2.34   7 2.36   9 2.36
  20  0.444  0.889  0.955-   3 2.34   8 2.36   1 2.36
  21  0.556  0.777  0.045-   9 2.34   8 2.36   1 2.36
  22  0.777  0.222  0.955-   2 2.34   1 2.36   4 2.36
  23  0.889  0.111  0.045-   5 2.34   1 2.36   4 2.36
  24  0.777  0.556  0.955-   9 2.34   2 2.36   6 2.36
  25  0.889  0.444  0.045-   4 2.34   2 2.36   6 2.36
  26  0.777  0.889  0.955-   1 2.34   9 2.36   5 2.36
  27  0.889  0.777  0.045-   6 2.34   9 2.36   5 2.36
 

IMPORTANT INFORMATION: All symmetrisations will be switched off!
NOSYMM: (Re-)initialisation of all symmetry stuff for point group C_1.

 
 
 KPOINTS: K-POINTS 	#supercell of CrS2 in hexagona

Automatic generation of k-mesh.
Space group operators:
 irot       det(A)        alpha          n_x          n_y          n_z        tau_x        tau_y        tau_z
    1     1.000000     0.000000     1.000000     0.000000     0.000000     0.000000     0.000000     0.000000
 
 Subroutine IBZKPT returns following result:
 ===========================================
 
 Found     34 irreducible k-points:
 
 Following reciprocal coordinates:
            Coordinates               Weight
  0.000000  0.000000  0.000000      1.000000
  0.125000  0.000000  0.000000      2.000000
  0.250000  0.000000  0.000000      2.000000
  0.375000  0.000000  0.000000      2.000000
  0.500000  0.000000  0.000000      1.000000
  0.000000  0.125000  0.000000      2.000000
  0.125000  0.125000  0.000000      2.000000
  0.250000  0.125000  0.000000      2.000000
  0.375000  0.125000  0.000000      2.000000
  0.500000  0.125000  0.000000      2.000000
 -0.375000  0.125000  0.000000      2.000000
 -0.250000  0.125000  0.000000      2.000000
 -0.125000  0.125000  0.000000      2.000000
  0.000000  0.250000  0.000000      2.000000
  0.125000  0.250000  0.000000      2.000000
  0.250000  0.250000  0.000000      2.000000
  0.375000  0.250000  0.000000      2.000000
  0.500000  0.250000  0.000000      2.000000
 -0.375000  0.250000  0.000000      2.000000
 -0.250000  0.250000  0.000000      2.000000
 -0.125000  0.250000  0.000000      2.000000
 -0.000000  0.375000  0.000000      2.000000
  0.125000  0.375000  0.000000      2.000000
  0.250000  0.375000  0.000000      2.000000
  0.375000  0.375000  0.000000      2.000000
  0.500000  0.375000  0.000000      2.000000
 -0.375000  0.375000  0.000000      2.000000
 -0.250000  0.375000  0.000000      2.000000
 -0.125000  0.375000  0.000000      2.000000
  0.000000  0.500000  0.000000      1.000000
  0.125000  0.500000  0.000000      2.000000
  0.250000  0.500000  0.000000      2.000000
  0.375000  0.500000  0.000000      2.000000
  0.500000  0.500000  0.000000      1.000000
 
 Following cartesian coordinates:
            Coordinates               Weight
  0.000000  0.000000  0.000000      1.000000
  0.007209  0.012401  0.000000      2.000000
  0.014418  0.024802  0.000000      2.000000
  0.021626  0.037202  0.000000      2.000000
  0.028835  0.049603  0.000000      1.000000
 -0.007209  0.012401  0.000000      2.000000
  0.000000  0.024802  0.000000      2.000000
  0.007209  0.037202  0.000000      2.000000
  0.014418  0.049603  0.000000      2.000000
  0.021626  0.062004  0.000000      2.000000
 -0.028835 -0.024802  0.000000      2.000000
 -0.021626 -0.012401  0.000000      2.000000
 -0.014418  0.000000  0.000000      2.000000
 -0.014418  0.024802  0.000000      2.000000
 -0.007209  0.037202  0.000000      2.000000
  0.000000  0.049603  0.000000      2.000000
  0.007209  0.062004  0.000000      2.000000
  0.014418  0.074405  0.000000      2.000000
 -0.036044 -0.012401  0.000000      2.000000
 -0.028835  0.000000  0.000000      2.000000
 -0.021626  0.012401  0.000000      2.000000
 -0.021626  0.037202  0.000000      2.000000
 -0.014418  0.049603  0.000000      2.000000
 -0.007209  0.062004  0.000000      2.000000
  0.000000  0.074405  0.000000      2.000000
  0.007209  0.086806  0.000000      2.000000
 -0.043253  0.000000  0.000000      2.000000
 -0.036044  0.012401  0.000000      2.000000
 -0.028835  0.024802  0.000000      2.000000
 -0.028835  0.049603  0.000000      1.000000
 -0.021626  0.062004  0.000000      2.000000
 -0.014418  0.074405  0.000000      2.000000
 -0.007209  0.086806  0.000000      2.000000
  0.000000  0.099206  0.000000      1.000000
 


--------------------------------------------------------------------------------------------------------




 Dimension of arrays:
   k-points           NKPTS =     34   k-points in BZ     NKDIM =     34   number of bands    NBANDS=    120
   number of dos      NEDOS =    301   number of ions     NIONS =     27
   non local maximal  LDIM  =      6   non local SUM 2l+1 LMDIM =     18
   total plane-waves  NPLWV = 222264
   max r-space proj   IRMAX =      1   max aug-charges    IRDMAX=   5642
   dimension x,y,z NGX =    42 NGY =   42 NGZ =  126
   dimension x,y,z NGXF=    84 NGYF=   84 NGZF=  252
   support grid    NGXF=    84 NGYF=   84 NGZF=  252
   ions per type =               3   3   3  18
 NGX,Y,Z   is equivalent  to a cutoff of   6.96,  6.96,  6.98 a.u.
 NGXF,Y,Z  is equivalent  to a cutoff of  13.92, 13.92, 13.96 a.u.


 I would recommend the setting:
   dimension x,y,z NGX =    41 NGY =   41 NGZ =  123
 SYSTEM =  unknown system                          
 POSCAR =  crystal structure from VMoWS2 with Hexag

 Startparameter for this run:
   NWRITE =      2    write-flag & timer
   PREC   = normal    normal or accurate (medium, high low for compatibility)
   ISTART =      0    job   : 0-new  1-cont  2-samecut
   ICHARG =      2    charge: 1-file 2-atom 10-const
   ISPIN  =      1    spin polarized calculation?
   LNONCOLLINEAR =      F non collinear calculations
   LSORBIT =      F    spin-orbit coupling
   INIWAV =      1    electr: 0-lowe 1-rand  2-diag
   LASPH  =      F    aspherical Exc in radial PAW
   METAGGA=      F    non-selfconsistent MetaGGA calc.

 Electronic Relaxation 1
   ENCUT  =  280.0 eV  20.58 Ry    4.54 a.u.  13.68 13.68 40.93*2*pi/ulx,y,z
   ENINI  =  280.0     initial cutoff
   ENAUG  =  373.4 eV  augmentation charge cutoff
   NELM   =     60;   NELMIN=  2; NELMDL= -5     # of ELM steps 
   EDIFF  = 0.1E-03   stopping-criterion for ELM
   LREAL  =      F    real-space projection
   NLSPLINE    = F    spline interpolate recip. space projectors
   LCOMPAT=      F    compatible to vasp.4.4
   GGA_COMPAT  = T    GGA compatible to vasp.4.4-vasp.4.6
   LMAXPAW     = -100 max onsite density
   LMAXMIX     =    2 max onsite mixed and CHGCAR
   VOSKOWN=      0    Vosko Wilk Nusair interpolation
   ROPT   =    0.00000   0.00000   0.00000   0.00000
 Ionic relaxation
   EDIFFG = 0.1E-02   stopping-criterion for IOM
   NSW    =    100    number of steps for IOM
   NBLOCK =      1;   KBLOCK =    100    inner block; outer block 
   IBRION =      1    ionic relax: 0-MD 1-quasi-New 2-CG
   NFREE  =      0    steps in history (QN), initial steepest desc. (CG)
   ISIF   =      3    stress and relaxation
   IWAVPR =     11    prediction:  0-non 1-charg 2-wave 3-comb
   ISYM   =      0    0-nonsym 1-usesym 2-fastsym
   LCORR  =      T    Harris-Foulkes like correction to forces

   POTIM  = 0.5000    time-step for ionic-motion
   TEIN   =    0.0    initial temperature
   TEBEG  =    0.0;   TEEND  =   0.0 temperature during run
   SMASS  =  -3.00    Nose mass-parameter (am)
   estimated Nose-frequenzy (Omega)   =  0.10E-29 period in steps =****** mass=  -0.230E-26a.u.
   SCALEE = 1.0000    scale energy and forces
   NPACO  =    256;   APACO  = 16.0  distance and # of slots for P.C.
   PSTRESS=    0.0 pullay stress

  Mass of Ions in am
   POMASS =  50.94 95.94183.85 32.07
  Ionic Valenz
   ZVAL   =   5.00  6.00  6.00  6.00
  Atomic Wigner-Seitz radii
   RWIGS  =  -1.00 -1.00 -1.00 -1.00
  virtual crystal weights 
   VCA    =   1.00  1.00  1.00  1.00
   NELECT =     159.0000    total number of electrons
   NUPDOWN=      -1.0000    fix difference up-down

 DOS related values:
   EMIN   =  10.00;   EMAX   =-10.00  energy-range for DOS
   EFERMI =   0.00
   ISMEAR =     0;   SIGMA  =   0.20  broadening in eV -4-tet -1-fermi 0-gaus

 Electronic relaxation 2 (details)
   IALGO  =     38    algorithm
   LDIAG  =      T    sub-space diagonalisation (order eigenvalues)
   LSUBROT=      F    optimize rotation matrix (better conditioning)
   TURBO    =      0    0=normal 1=particle mesh
   IRESTART =      0    0=no restart 2=restart with 2 vectors
   NREBOOT  =      0    no. of reboots
   NMIN     =      0    reboot dimension
   EREF     =   0.00    reference energy to select bands
   IMIX   =      4    mixing-type and parameters
     AMIX     =   0.40;   BMIX     =  1.00
     AMIX_MAG =   1.60;   BMIX_MAG =  1.00
     AMIN     =   0.10
     WC   =   100.;   INIMIX=   1;  MIXPRE=   1;  MAXMIX= -45

 Intra band minimization:
   WEIMIN = 0.0010     energy-eigenvalue tresh-hold
   EBREAK =  0.21E-06  absolut break condition
   DEPER  =   0.30     relativ break condition  

   TIME   =   0.40     timestep for ELM

  volume/ion in A,a.u.               =      97.10       655.29
  Fermi-wavevector in a.u.,A,eV,Ry     =   0.643191  1.215456  5.628665  0.413695
  Thomas-Fermi vector in A             =   1.710110
 
 Write flags
   LWAVE  =      F    write WAVECAR
   LCHARG =      F    write CHGCAR
   LVTOT  =      F    write LOCPOT, total local potential
   LVHAR  =      F    write LOCPOT, Hartree potential only
   LELF   =      F    write electronic localiz. function (ELF)
   LORBIT =      0    0 simple, 1 ext, 2 COOP (PROOUT)


 Dipole corrections
   LMONO  =      F    monopole corrections only (constant potential shift)
   LDIPOL =      F    correct potential (dipole corrections)
   IDIPOL =      0    1-x, 2-y, 3-z, 4-all directions 
   EPSILON=  1.0000000 bulk dielectric constant

 Exchange correlation treatment:
   GGA     =    --    GGA type
   LEXCH   =     8    internal setting for exchange type
   VOSKOWN=      0    Vosko Wilk Nusair interpolation
   LHFCALC =     F    Hartree Fock is set to
   LHFONE  =     F    Hartree Fock one center treatment
   AEXX    =    0.0000 exact exchange contribution

 Linear response parameters
   LEPSILON=     F    determine dielectric tensor
   LRPA    =     F    only Hartree local field effects (RPA)
   LNABLA  =     F    use nabla operator in PAW spheres
   LVEL    =     F    velocity operator in full k-point grid
   LINTERFAST=   F  fast interpolation
   KINTER  =     0    interpolate to denser k-point grid
   CSHIFT  =0.1000    complex shift for real part using Kramers Kronig
   OMEGAMAX=  -1.0    maximum frequency
   DEG_THRESHOLD= 0.2000000E-02 threshold for treating states as degnerate
   RTIME   =    0.100 relaxation time in fs

 Orbital magnetization related:
   ORBITALMAG=     F  switch on orbital magnetization
   LCHIMAG   =     F  perturbation theory with respect to B field
   DQ        =  0.001000  dq finite difference perturbation B field



--------------------------------------------------------------------------------------------------------


 quasi-Newton-method for relaxation of ions
 charge density and potential will be updated during run
 non-spin polarized calculation
 Variant of blocked Davidson
 Davidson routine will perform the subspace rotation
 perform sub-space diagonalisation
    after iterative eigenvector-optimisation
 modified Broyden-mixing scheme, WC =      100.0
 initial mixing is a Kerker type mixing with AMIX =  0.4000 and BMIX =      1.0000
 Hartree-type preconditioning will be used
 using additional bands           40
 reciprocal scheme for non local part
 use partial core corrections
 calculate Harris-corrections to forces 
   (improved forces if not selfconsistent)
 use gradient corrections 
 use of overlap-Matrix (Vanderbilt PP)
 Gauss-broadening in eV      SIGMA  =   0.20


--------------------------------------------------------------------------------------------------------


  energy-cutoff  :      280.00
  volume of cell :     2621.81
      direct lattice vectors                 reciprocal lattice vectors
     8.669999960  5.039999894  0.000000000     0.057670129  0.099206348  0.000000000
    -8.669999821  5.040000133  0.000000000    -0.057670126  0.099206350  0.000000000
     0.000000000  0.000000000 30.000000000     0.000000000  0.000000000  0.033333333

  length of vectors
    10.028484344 10.028484344 30.000000000     0.114750788  0.114750788  0.033333333


 
 k-points in units of 2pi/SCALE and weight: K-POINTS 	#supercell of CrS2 in hexagona
   0.00000000  0.00000000  0.00000000       0.016
   0.00720877  0.01240079  0.00000000       0.031
   0.01441753  0.02480159  0.00000000       0.031
   0.02162630  0.03720238  0.00000000       0.031
   0.02883506  0.04960317  0.00000000       0.016
  -0.00720877  0.01240079  0.00000000       0.031
   0.00000000  0.02480159  0.00000000       0.031
   0.00720877  0.03720238  0.00000000       0.031
   0.01441753  0.04960317  0.00000000       0.031
   0.02162630  0.06200397  0.00000000       0.031
  -0.02883506 -0.02480159  0.00000000       0.031
  -0.02162630 -0.01240079  0.00000000       0.031
  -0.01441753  0.00000000  0.00000000       0.031
  -0.01441753  0.02480159  0.00000000       0.031
  -0.00720877  0.03720238  0.00000000       0.031
   0.00000000  0.04960317  0.00000000       0.031
   0.00720877  0.06200397  0.00000000       0.031
   0.01441753  0.07440476  0.00000000       0.031
  -0.03604383 -0.01240079  0.00000000       0.031
  -0.02883506  0.00000000  0.00000000       0.031
  -0.02162630  0.01240079  0.00000000       0.031
  -0.02162630  0.03720238  0.00000000       0.031
  -0.01441753  0.04960317  0.00000000       0.031
  -0.00720877  0.06200397  0.00000000       0.031
   0.00000000  0.07440476  0.00000000       0.031
   0.00720877  0.08680556  0.00000000       0.031
  -0.04325260  0.00000000  0.00000000       0.031
  -0.03604383  0.01240079  0.00000000       0.031
  -0.02883506  0.02480159  0.00000000       0.031
  -0.02883506  0.04960317  0.00000000       0.016
  -0.02162630  0.06200397  0.00000000       0.031
  -0.01441753  0.07440476  0.00000000       0.031
  -0.00720876  0.08680556  0.00000000       0.031
   0.00000000  0.09920635  0.00000000       0.016
 
 k-points in reciprocal lattice and weights: K-POINTS 	#supercell of CrS2 in hexagona
   0.00000000  0.00000000  0.00000000       0.016
   0.12500000  0.00000000  0.00000000       0.031
   0.25000000  0.00000000  0.00000000       0.031
   0.37500000  0.00000000  0.00000000       0.031
   0.50000000  0.00000000  0.00000000       0.016
   0.00000000  0.12500000  0.00000000       0.031
   0.12500000  0.12500000  0.00000000       0.031
   0.25000000  0.12500000  0.00000000       0.031
   0.37500000  0.12500000  0.00000000       0.031
   0.50000000  0.12500000  0.00000000       0.031
  -0.37500000  0.12500000  0.00000000       0.031
  -0.25000000  0.12500000  0.00000000       0.031
  -0.12500000  0.12500000  0.00000000       0.031
   0.00000000  0.25000000  0.00000000       0.031
   0.12500000  0.25000000  0.00000000       0.031
   0.25000000  0.25000000  0.00000000       0.031
   0.37500000  0.25000000  0.00000000       0.031
   0.50000000  0.25000000  0.00000000       0.031
  -0.37500000  0.25000000  0.00000000       0.031
  -0.25000000  0.25000000  0.00000000       0.031
  -0.12500000  0.25000000  0.00000000       0.031
  -0.00000000  0.37500000  0.00000000       0.031
   0.12500000  0.37500000  0.00000000       0.031
   0.25000000  0.37500000  0.00000000       0.031
   0.37500000  0.37500000  0.00000000       0.031
   0.50000000  0.37500000  0.00000000       0.031
  -0.37500000  0.37500000  0.00000000       0.031
  -0.25000000  0.37500000  0.00000000       0.031
  -0.12500000  0.37500000  0.00000000       0.031
   0.00000000  0.50000000  0.00000000       0.016
   0.12500000  0.50000000  0.00000000       0.031
   0.25000000  0.50000000  0.00000000       0.031
   0.37500000  0.50000000  0.00000000       0.031
   0.50000000  0.50000000  0.00000000       0.016
 
 position of ions in fractional coordinates (direct lattice) 
   0.66666669  0.00000000  0.00000000
   0.66666669  0.33333334  0.00000000
   0.33333334  0.00000000  0.00000000
   1.00000000  0.33333334  0.00000000
   0.00000000  0.00000000  0.00000000
   0.00000000  0.66666669  0.00000000
   0.33333334  0.33333334  0.00000000
   0.33333334  0.66666669  0.00000000
   0.66666669  0.66666669  0.00000000
   0.11068511  0.22244981  0.95539999
   0.22244981  0.11068511  0.04460000
   0.11068511  0.55578315  0.95539999
   0.22244981  0.44401845  0.04460000
   0.11068511  0.88911647  0.95539999
   0.22244981  0.77735180  0.04460000
   0.44401845  0.22244981  0.95539999
   0.55578315  0.11068511  0.04460000
   0.44401845  0.55578315  0.95539999
   0.55578315  0.44401845  0.04460000
   0.44401845  0.88911647  0.95539999
   0.55578315  0.77735180  0.04460000
   0.77735180  0.22244981  0.95539999
   0.88911647  0.11068511  0.04460000
   0.77735180  0.55578315  0.95539999
   0.88911647  0.44401845  0.04460000
   0.77735180  0.88911647  0.95539999
   0.88911647  0.77735180  0.04460000
 
 position of ions in cartesian coordinates  (Angst):
   5.78000015  3.36000003  0.00000000
   2.89000012  5.04000012  0.00000000
   2.89000007  1.68000002  0.00000000
   5.77999993  6.71999999  0.00000000
   0.00000000  0.00000000  0.00000000
  -5.78000005  3.36000019  0.00000000
   0.00000005  3.36000011  0.00000000
  -2.88999998  5.04000020  0.00000000
   0.00000009  6.72000022  0.00000000
  -0.96899991  1.67900001 28.66199970
   0.96899995  1.67899998  1.33799996
  -3.85899993  3.35900011 28.66199970
  -1.92100007  3.35900008  1.33799996
  -6.74899970  5.03900005 28.66199970
  -4.81100010  5.03900017  1.33799996
   1.92100017  3.35900003 28.66199970
   3.85900003  3.35900000  1.33799996
  -0.96899986  5.03900012 28.66199970
   0.96900000  5.03900009  1.33799996
  -3.85899963  6.71900006 28.66199970
  -1.92100003  6.71900019  1.33799996
   4.81100024  5.03900004 28.66199970
   6.74899984  5.03899987  1.33799996
   1.92100021  6.71900014 28.66199970
   3.85899981  6.71899996  1.33799996
  -0.96899956  8.39900008 28.66199970
   0.96899979  8.39900005  1.33799996
 


--------------------------------------------------------------------------------------------------------


 k-point  1 :   0.0000 0.0000 0.0000  plane waves:   27959
 k-point  2 :   0.1250 0.0000 0.0000  plane waves:   27889
 k-point  3 :   0.2500 0.0000 0.0000  plane waves:   27875
 k-point  4 :   0.3750 0.0000 0.0000  plane waves:   27893
 k-point  5 :   0.5000 0.0000 0.0000  plane waves:   27932
 k-point  6 :   0.0000 0.1250 0.0000  plane waves:   27889
 k-point  7 :   0.1250 0.1250 0.0000  plane waves:   27906
 k-point  8 :   0.2500 0.1250 0.0000  plane waves:   27898
 k-point  9 :   0.3750 0.1250 0.0000  plane waves:   27888
 k-point 10 :   0.5000 0.1250 0.0000  plane waves:   27873
 k-point 11 :  -0.3750 0.1250 0.0000  plane waves:   27874
 k-point 12 :  -0.2500 0.1250 0.0000  plane waves:   27895
 k-point 13 :  -0.1250 0.1250 0.0000  plane waves:   27879
 k-point 14 :   0.0000 0.2500 0.0000  plane waves:   27875
 k-point 15 :   0.1250 0.2500 0.0000  plane waves:   27898
 k-point 16 :   0.2500 0.2500 0.0000  plane waves:   27920
 k-point 17 :   0.3750 0.2500 0.0000  plane waves:   27901
 k-point 18 :   0.5000 0.2500 0.0000  plane waves:   27875
 k-point 19 :  -0.3750 0.2500 0.0000  plane waves:   27894
 k-point 20 :  -0.2500 0.2500 0.0000  plane waves:   27870
 k-point 21 :  -0.1250 0.2500 0.0000  plane waves:   27895
 k-point 22 :  -0.0000 0.3750 0.0000  plane waves:   27893
 k-point 23 :   0.1250 0.3750 0.0000  plane waves:   27888
 k-point 24 :   0.2500 0.3750 0.0000  plane waves:   27901
 k-point 25 :   0.3750 0.3750 0.0000  plane waves:   27860
 k-point 26 :   0.5000 0.3750 0.0000  plane waves:   27895
 k-point 27 :  -0.3750 0.3750 0.0000  plane waves:   27858
 k-point 28 :  -0.2500 0.3750 0.0000  plane waves:   27894
 k-point 29 :  -0.1250 0.3750 0.0000  plane waves:   27874
 k-point 30 :   0.0000 0.5000 0.0000  plane waves:   27932
 k-point 31 :   0.1250 0.5000 0.0000  plane waves:   27873
 k-point 32 :   0.2500 0.5000 0.0000  plane waves:   27875
 k-point 33 :   0.3750 0.5000 0.0000  plane waves:   27895
 k-point 34 :   0.5000 0.5000 0.0000  plane waves:   27910

 maximum and minimum number of plane-waves per node :     27959    27858

 maximum number of plane-waves:     27959
 maximum index in each direction: 
   IXMAX=   14   IYMAX=   13   IZMAX=   40
   IXMIN=  -14   IYMIN=  -14   IZMIN=  -40

 WARNING: aliasing errors must be expected set NGX to  58 to avoid them
 WARNING: aliasing errors must be expected set NGY to  56 to avoid them
 WARNING: aliasing errors must be expected set NGZ to 162 to avoid them
 aliasing errors are usually negligible using standard VASP settings
 and one can safely disregard these warnings

 serial   3D FFT for wavefunctions

 total amount of memory used by VASP on root node   650782. kBytes
========================================================================

   base      :      30000. kBytes
   nonl-proj :     559647. kBytes
   fftplans  :       2414. kBytes
   grid      :      12150. kBytes
   one-center:        419. kBytes
   wavefun   :      46152. kBytes
 
     INWAV:  cpu time    0.0001: real time    0.0001
 Broyden mixing: mesh for mixing (old mesh)
   NGX = 27   NGY = 27   NGZ = 81
  (NGX  = 84   NGY  = 84   NGZ  =252)
  gives a total of  59049 points

 initial charge density was supplied:
 charge density of overlapping atoms calculated
 number of electron     159.0000000 magnetization 
 keeping initial charge density in first step


--------------------------------------------------------------------------------------------------------


 Maximum index for augmentation-charges          148 (set IRDMAX)


--------------------------------------------------------------------------------------------------------


 First call to EWALD:  gamma=   0.129
 Maximum number of real-space cells 4x 4x 2
 Maximum number of reciprocal cells 2x 2x 5

 FEWALD executed in parallel
    FEWALD:  cpu time    0.0015: real time    0.0015


----------------------------------------- Iteration    1(   1)  ---------------------------------------


    POTLOK:  cpu time    0.0371: real time    0.0373
    SETDIJ:  cpu time    0.0031: real time    0.0032
     EDDAV:  cpu time   22.0497: real time   22.1066
       DOS:  cpu time    0.0004: real time    0.0014
    --------------------------------------------
      LOOP:  cpu time   22.0938: real time   22.1549

 eigenvalue-minimisations  :  8160
 total energy-change (2. order) : 0.1124408E+04  (-0.3586213E+04)
 number of electron     159.0000000 magnetization 
 augmentation part      159.0000000 magnetization 

 Free energy of the ion-electron system (eV)
  ---------------------------------------------------
  alpha Z        PSCENC =        81.65567618
  Ewald energy   TEWEN  =     41891.17178071
  -Hartree energ DENC   =    -47723.81767867
  -exchange      EXHF   =         0.00000000
  -V(xc)+E(xc)   XCENC  =      -242.92468722
  PAW double counting   =      3467.42045192    -2871.19716117
  entropy T*S    EENTRO =        -0.53460568
  eigenvalues    EBANDS =      -238.80813134
  atomic energy  EATOM  =      6761.44252427
  Solvation  Ediel_sol  =         0.00000000
  ---------------------------------------------------
  free energy    TOTEN  =      1124.40816899 eV

  energy without entropy =     1124.94277467  energy(sigma->0) =     1124.67547183


--------------------------------------------------------------------------------------------------------




----------------------------------------- Iteration    1(   2)  ---------------------------------------


     EDDAV:  cpu time   28.2590: real time   28.3267
       DOS:  cpu time    0.0010: real time    0.0010
    --------------------------------------------
      LOOP:  cpu time   28.2611: real time   28.3367

 eigenvalue-minimisations  : 11080
 total energy-change (2. order) :-0.1124424E+04  (-0.1080593E+04)
 number of electron     159.0000000 magnetization 
 augmentation part      159.0000000 magnetization 

 Free energy of the ion-electron system (eV)
  ---------------------------------------------------
  alpha Z        PSCENC =        81.65567618
  Ewald energy   TEWEN  =     41891.17178071
  -Hartree energ DENC   =    -47723.81767867
  -exchange      EXHF   =         0.00000000
  -V(xc)+E(xc)   XCENC  =      -242.92468722
  PAW double counting   =      3467.42045192    -2871.19716117
  entropy T*S    EENTRO =        -0.20313072
  eigenvalues    EBANDS =     -1363.56388052
  atomic energy  EATOM  =      6761.44252427
  Solvation  Ediel_sol  =         0.00000000
  ---------------------------------------------------
  free energy    TOTEN  =        -0.01610523 eV

  energy without entropy =        0.18702549  energy(sigma->0) =        0.08546013


--------------------------------------------------------------------------------------------------------




----------------------------------------- Iteration    1(   3)  ---------------------------------------


     EDDAV:  cpu time   27.9491: real time   28.0166
       DOS:  cpu time    0.0010: real time    0.0010
    --------------------------------------------
      LOOP:  cpu time   27.9509: real time   28.0250

 eigenvalue-minimisations  : 10920
 total energy-change (2. order) :-0.1997046E+03  (-0.1913081E+03)
 number of electron     159.0000000 magnetization 
 augmentation part      159.0000000 magnetization 

 Free energy of the ion-electron system (eV)
  ---------------------------------------------------
  alpha Z        PSCENC =        81.65567618
  Ewald energy   TEWEN  =     41891.17178071
  -Hartree energ DENC   =    -47723.81767867
  -exchange      EXHF   =         0.00000000
  -V(xc)+E(xc)   XCENC  =      -242.92468722
  PAW double counting   =      3467.42045192    -2871.19716117
  entropy T*S    EENTRO =        -0.25837478
  eigenvalues    EBANDS =     -1563.21320393
  atomic energy  EATOM  =      6761.44252427
  Solvation  Ediel_sol  =         0.00000000
  ---------------------------------------------------
  free energy    TOTEN  =      -199.72067269 eV

  energy without entropy =     -199.46229791  energy(sigma->0) =     -199.59148530


--------------------------------------------------------------------------------------------------------




----------------------------------------- Iteration    1(   4)  ---------------------------------------


     EDDAV:  cpu time   30.6531: real time   30.7276
       DOS:  cpu time    0.0010: real time    0.0010
    --------------------------------------------
      LOOP:  cpu time   30.6551: real time   30.7364

 eigenvalue-minimisations  : 12200
 total energy-change (2. order) :-0.9287905E+01  (-0.9023656E+01)
 number of electron     159.0000000 magnetization 
 augmentation part      159.0000000 magnetization 

 Free energy of the ion-electron system (eV)
  ---------------------------------------------------
  alpha Z        PSCENC =        81.65567618
  Ewald energy   TEWEN  =     41891.17178071
  -Hartree energ DENC   =    -47723.81767867
  -exchange      EXHF   =         0.00000000
  -V(xc)+E(xc)   XCENC  =      -242.92468722
  PAW double counting   =      3467.42045192    -2871.19716117
  entropy T*S    EENTRO =        -0.29086081
  eigenvalues    EBANDS =     -1572.46862311
  atomic energy  EATOM  =      6761.44252427
  Solvation  Ediel_sol  =         0.00000000
  ---------------------------------------------------
  free energy    TOTEN  =      -209.00857791 eV

  energy without entropy =     -208.71771710  energy(sigma->0) =     -208.86314750


--------------------------------------------------------------------------------------------------------




----------------------------------------- Iteration    1(   5)  ---------------------------------------


     EDDAV:  cpu time   28.4552: real time   28.5235
       DOS:  cpu time    0.0010: real time    0.0010
    CHARGE:  cpu time    0.4618: real time    0.4629
    MIXING:  cpu time    0.0019: real time    0.0019
    --------------------------------------------
      LOOP:  cpu time   28.9208: real time   28.9985

 eigenvalue-minimisations  : 11200
 total energy-change (2. order) :-0.2954539E+00  (-0.2946299E+00)
 number of electron     159.0000110 magnetization 
 augmentation part       -9.8028524 magnetization 

 Broyden mixing:
  rms(total) = 0.27508E+01    rms(broyden)= 0.27504E+01
  rms(prec ) = 0.29367E+01
  weight for this iteration     100.00

 Free energy of the ion-electron system (eV)
  ---------------------------------------------------
  alpha Z        PSCENC =        81.65567618
  Ewald energy   TEWEN  =     41891.17178071
  -Hartree energ DENC   =    -47723.81767867
  -exchange      EXHF   =         0.00000000
  -V(xc)+E(xc)   XCENC  =      -242.92468722
  PAW double counting   =      3467.42045192    -2871.19716117
  entropy T*S    EENTRO =        -0.28819529
  eigenvalues    EBANDS =     -1572.76674250
  atomic energy  EATOM  =      6761.44252427
  Solvation  Ediel_sol  =         0.00000000
  ---------------------------------------------------
  free energy    TOTEN  =      -209.30403177 eV

  energy without entropy =     -209.01583648  energy(sigma->0) =     -209.15993413


--------------------------------------------------------------------------------------------------------




----------------------------------------- Iteration    1(   6)  ---------------------------------------


    POTLOK:  cpu time    0.0351: real time    0.0352
    SETDIJ:  cpu time    0.0026: real time    0.0026
     EDDAV:  cpu time   31.3262: real time   31.4010
       DOS:  cpu time    0.0009: real time    0.0009
    CHARGE:  cpu time    0.4575: real time    0.4586
    MIXING:  cpu time    0.0018: real time    0.0018
    --------------------------------------------
      LOOP:  cpu time   31.8250: real time   31.9092

 eigenvalue-minimisations  : 12560
 total energy-change (2. order) :-0.2856560E+02  (-0.1080782E+02)
 number of electron     159.0000107 magnetization 
 augmentation part        7.0793737 magnetization 

 Broyden mixing:
  rms(total) = 0.59490E+01    rms(broyden)= 0.59484E+01
  rms(prec ) = 0.65603E+01
  weight for this iteration     100.00

 eigenvalues of (default mixing * dielectric matrix)
  average eigenvalue GAMMA=   0.2937
  0.2937

 Free energy of the ion-electron system (eV)
  ---------------------------------------------------
  alpha Z        PSCENC =        81.65567618
  Ewald energy   TEWEN  =     41891.17178071
  -Hartree energ DENC   =    -47702.18181997
  -exchange      EXHF   =         0.00000000
  -V(xc)+E(xc)   XCENC  =      -233.61858289
  PAW double counting   =      3676.52737402    -3082.61835080
  entropy T*S    EENTRO =        -0.25235014
  eigenvalues    EBANDS =     -1629.99588685
  atomic energy  EATOM  =      6761.44252427
  Solvation  Ediel_sol  =         0.00000000
  ---------------------------------------------------
  free energy    TOTEN  =      -237.86963546 eV

  energy without entropy =     -237.61728532  energy(sigma->0) =     -237.74346039


--------------------------------------------------------------------------------------------------------




----------------------------------------- Iteration    1(   7)  ---------------------------------------


    POTLOK:  cpu time    0.0330: real time    0.0333
    SETDIJ:  cpu time    0.0024: real time    0.0024
     EDDAV:  cpu time   32.9383: real time   33.0171
       DOS:  cpu time    0.0010: real time    0.0010
    CHARGE:  cpu time    0.4669: real time    0.4680
    MIXING:  cpu time    0.0012: real time    0.0012
    --------------------------------------------
      LOOP:  cpu time   33.4440: real time   33.5323

 eigenvalue-minimisations  : 13320
 total energy-change (2. order) : 0.4129978E+02  (-0.1752105E+02)
 number of electron     159.0000088 magnetization 
 augmentation part       -6.2635976 magnetization 

 Broyden mixing:
  rms(total) = 0.20020E+01    rms(broyden)= 0.20001E+01
  rms(prec ) = 0.22237E+01
  weight for this iteration     100.00

 eigenvalues of (default mixing * dielectric matrix)
  average eigenvalue GAMMA=   0.5523
  0.8933  0.2112

 Free energy of the ion-electron system (eV)
  ---------------------------------------------------
  alpha Z        PSCENC =        81.65567618
  Ewald energy   TEWEN  =     41891.17178071
  -Hartree energ DENC   =    -47739.18043641
  -exchange      EXHF   =         0.00000000
  -V(xc)+E(xc)   XCENC  =      -234.98952257
  PAW double counting   =      3763.79007340    -3177.82454804
  entropy T*S    EENTRO =        -0.35596980
  eigenvalues    EBANDS =     -1542.27943029
  atomic energy  EATOM  =      6761.44252427
  Solvation  Ediel_sol  =         0.00000000
  ---------------------------------------------------
  free energy    TOTEN  =      -196.56985257 eV

  energy without entropy =     -196.21388277  energy(sigma->0) =     -196.39186767


--------------------------------------------------------------------------------------------------------




----------------------------------------- Iteration    1(   8)  ---------------------------------------


    POTLOK:  cpu time    0.0306: real time    0.0307
    SETDIJ:  cpu time    0.0023: real time    0.0023
     EDDAV:  cpu time   30.1980: real time   30.2708
       DOS:  cpu time    0.0011: real time    0.0011
    CHARGE:  cpu time    0.4752: real time    0.4763
    MIXING:  cpu time    0.0012: real time    0.0012
    --------------------------------------------
      LOOP:  cpu time   30.7093: real time   30.7918

 eigenvalue-minimisations  : 12000
 total energy-change (2. order) : 0.7099000E+01  (-0.1762322E+01)
 number of electron     159.0000095 magnetization 
 augmentation part       -6.3732660 magnetization 

 Broyden mixing:
  rms(total) = 0.12521E+01    rms(broyden)= 0.12519E+01
  rms(prec ) = 0.13525E+01
  weight for this iteration     100.00

 eigenvalues of (default mixing * dielectric matrix)
  average eigenvalue GAMMA=   0.5862
  1.1357  0.2311  0.3918

 Free energy of the ion-electron system (eV)
  ---------------------------------------------------
  alpha Z        PSCENC =        81.65567618
  Ewald energy   TEWEN  =     41891.17178071
  -Hartree energ DENC   =    -47762.30143540
  -exchange      EXHF   =         0.00000000
  -V(xc)+E(xc)   XCENC  =      -235.00375470
  PAW double counting   =      3907.18250280    -3322.84887318
  entropy T*S    EENTRO =        -0.31144612
  eigenvalues    EBANDS =     -1510.45782691
  atomic energy  EATOM  =      6761.44252427
  Solvation  Ediel_sol  =         0.00000000
  ---------------------------------------------------
  free energy    TOTEN  =      -189.47085235 eV

  energy without entropy =     -189.15940623  energy(sigma->0) =     -189.31512929


--------------------------------------------------------------------------------------------------------




----------------------------------------- Iteration    1(   9)  ---------------------------------------


    POTLOK:  cpu time    0.0316: real time    0.0317
    SETDIJ:  cpu time    0.0023: real time    0.0023
     EDDAV:  cpu time   33.4766: real time   33.5566
       DOS:  cpu time    0.0009: real time    0.0009
    CHARGE:  cpu time    0.4806: real time    0.4818
    MIXING:  cpu time    0.0012: real time    0.0012
    --------------------------------------------
      LOOP:  cpu time   33.9942: real time   34.0838

 eigenvalue-minimisations  : 13560
 total energy-change (2. order) : 0.1343880E+01  (-0.3029554E+00)
 number of electron     159.0000091 magnetization 
 augmentation part       -5.5496276 magnetization 

 Broyden mixing:
  rms(total) = 0.91150E+00    rms(broyden)= 0.91127E+00
  rms(prec ) = 0.98875E+00
  weight for this iteration     100.00

 eigenvalues of (default mixing * dielectric matrix)
  average eigenvalue GAMMA=   0.7414
  1.8132  0.6219  0.2200  0.3103

 Free energy of the ion-electron system (eV)
  ---------------------------------------------------
  alpha Z        PSCENC =        81.65567618
  Ewald energy   TEWEN  =     41891.17178071
  -Hartree energ DENC   =    -47766.95606334
  -exchange      EXHF   =         0.00000000
  -V(xc)+E(xc)   XCENC  =      -234.10916238
  PAW double counting   =      3977.23189225    -3393.77020397
  entropy T*S    EENTRO =        -0.32135650
  eigenvalues    EBANDS =     -1504.47205992
  atomic energy  EATOM  =      6761.44252427
  Solvation  Ediel_sol  =         0.00000000
  ---------------------------------------------------
  free energy    TOTEN  =      -188.12697270 eV

  energy without entropy =     -187.80561620  energy(sigma->0) =     -187.96629445


--------------------------------------------------------------------------------------------------------




----------------------------------------- Iteration    1(  10)  ---------------------------------------


    POTLOK:  cpu time    0.0320: real time    0.0321
    SETDIJ:  cpu time    0.0025: real time    0.0025
     EDDAV:  cpu time   33.1897: real time   33.2690
       DOS:  cpu time    0.0011: real time    0.0011
    CHARGE:  cpu time    0.4933: real time    0.4945
    MIXING:  cpu time    0.0014: real time    0.0014
    --------------------------------------------
      LOOP:  cpu time   33.7209: real time   33.8101

 eigenvalue-minimisations  : 13440
 total energy-change (2. order) : 0.1190931E+01  (-0.1724243E+00)
 number of electron     159.0000092 magnetization 
 augmentation part       -4.2546614 magnetization 

 Broyden mixing:
  rms(total) = 0.21515E+00    rms(broyden)= 0.21457E+00
  rms(prec ) = 0.22705E+00
  weight for this iteration     100.00

 eigenvalues of (default mixing * dielectric matrix)
  average eigenvalue GAMMA=   0.8385
  1.8542  1.1877  0.6414  0.2205  0.2890

 Free energy of the ion-electron system (eV)
  ---------------------------------------------------
  alpha Z        PSCENC =        81.65567618
  Ewald energy   TEWEN  =     41891.17178071
  -Hartree energ DENC   =    -47780.18698164
  -exchange      EXHF   =         0.00000000
  -V(xc)+E(xc)   XCENC  =      -232.57331029
  PAW double counting   =      4105.43469789    -3523.57778273
  entropy T*S    EENTRO =        -0.35107945
  eigenvalues    EBANDS =     -1489.95156702
  atomic energy  EATOM  =      6761.44252427
  Solvation  Ediel_sol  =         0.00000000
  ---------------------------------------------------
  free energy    TOTEN  =      -186.93604208 eV

  energy without entropy =     -186.58496263  energy(sigma->0) =     -186.76050235


--------------------------------------------------------------------------------------------------------




----------------------------------------- Iteration    1(  11)  ---------------------------------------


    POTLOK:  cpu time    0.0325: real time    0.0328
    SETDIJ:  cpu time    0.0024: real time    0.0023
     EDDAV:  cpu time   33.6077: real time   33.6887
       DOS:  cpu time    0.0010: real time    0.0010
    CHARGE:  cpu time    0.4986: real time    0.4998
    MIXING:  cpu time    0.0013: real time    0.0013
    --------------------------------------------
      LOOP:  cpu time   34.1447: real time   34.2358

 eigenvalue-minimisations  : 13600
 total energy-change (2. order) :-0.8869756E-01  (-0.5887873E-01)
 number of electron     159.0000090 magnetization 
 augmentation part       -4.4482590 magnetization 

 Broyden mixing:
  rms(total) = 0.36961E+00    rms(broyden)= 0.36938E+00
  rms(prec ) = 0.40914E+00
  weight for this iteration     100.00

 eigenvalues of (default mixing * dielectric matrix)
  average eigenvalue GAMMA=   0.8534
  1.8600  1.8600  0.6391  0.2185  0.2840  0.2588

 Free energy of the ion-electron system (eV)
  ---------------------------------------------------
  alpha Z        PSCENC =        81.65567618
  Ewald energy   TEWEN  =     41891.17178071
  -Hartree energ DENC   =    -47790.09262089
  -exchange      EXHF   =         0.00000000
  -V(xc)+E(xc)   XCENC  =      -232.24362177
  PAW double counting   =      4151.67416338    -3569.93453692
  entropy T*S    EENTRO =        -0.33815020
  eigenvalues    EBANDS =     -1480.35995439
  atomic energy  EATOM  =      6761.44252427
  Solvation  Ediel_sol  =         0.00000000
  ---------------------------------------------------
  free energy    TOTEN  =      -187.02473964 eV

  energy without entropy =     -186.68658944  energy(sigma->0) =     -186.85566454


--------------------------------------------------------------------------------------------------------




----------------------------------------- Iteration    1(  12)  ---------------------------------------


    POTLOK:  cpu time    0.0325: real time    0.0326
    SETDIJ:  cpu time    0.0024: real time    0.0025
     EDDAV:  cpu time   31.7072: real time   31.7831
       DOS:  cpu time    0.0010: real time    0.0010
    CHARGE:  cpu time    0.4939: real time    0.4951
    MIXING:  cpu time    0.0014: real time    0.0014
    --------------------------------------------
      LOOP:  cpu time   32.2395: real time   32.3255

 eigenvalue-minimisations  : 12720
 total energy-change (2. order) : 0.7662623E-01  (-0.7004510E-01)
 number of electron     159.0000088 magnetization 
 augmentation part       -4.4527450 magnetization 

 Broyden mixing:
  rms(total) = 0.32620E+00    rms(broyden)= 0.32599E+00
  rms(prec ) = 0.36146E+00
  weight for this iteration     100.00

 eigenvalues of (default mixing * dielectric matrix)
  average eigenvalue GAMMA=   0.8068
  1.9636  1.9636  0.6387  0.3985  0.2983  0.2197  0.1651

 Free energy of the ion-electron system (eV)
  ---------------------------------------------------
  alpha Z        PSCENC =        81.65567618
  Ewald energy   TEWEN  =     41891.17178071
  -Hartree energ DENC   =    -47797.32193256
  -exchange      EXHF   =         0.00000000
  -V(xc)+E(xc)   XCENC  =      -232.04121809
  PAW double counting   =      4179.51903581    -3597.76131899
  entropy T*S    EENTRO =        -0.33228981
  eigenvalues    EBANDS =     -1473.28037094
  atomic energy  EATOM  =      6761.44252427
  Solvation  Ediel_sol  =         0.00000000
  ---------------------------------------------------
  free energy    TOTEN  =      -186.94811341 eV

  energy without entropy =     -186.61582360  energy(sigma->0) =     -186.78196851


--------------------------------------------------------------------------------------------------------




----------------------------------------- Iteration    1(  13)  ---------------------------------------


    POTLOK:  cpu time    0.0318: real time    0.0321
    SETDIJ:  cpu time    0.0023: real time    0.0023
     EDDAV:  cpu time   32.7518: real time   32.8300
       DOS:  cpu time    0.0011: real time    0.0011
    CHARGE:  cpu time    0.5004: real time    0.5016
    MIXING:  cpu time    0.0013: real time    0.0013
    --------------------------------------------
      LOOP:  cpu time   33.2899: real time   33.3779

 eigenvalue-minimisations  : 13240
 total energy-change (2. order) : 0.8258641E-01  (-0.2451690E-01)
 number of electron     159.0000088 magnetization 
 augmentation part       -4.3722159 magnetization 

 Broyden mixing:
  rms(total) = 0.18264E+00    rms(broyden)= 0.18250E+00
  rms(prec ) = 0.20491E+00
  weight for this iteration     100.00

 eigenvalues of (default mixing * dielectric matrix)
  average eigenvalue GAMMA=   0.7914
  2.2286  1.7369  0.8110  0.6360  0.2993  0.2200  0.2564  0.1430

 Free energy of the ion-electron system (eV)
  ---------------------------------------------------
  alpha Z        PSCENC =        81.65567618
  Ewald energy   TEWEN  =     41891.17178071
  -Hartree energ DENC   =    -47800.43334020
  -exchange      EXHF   =         0.00000000
  -V(xc)+E(xc)   XCENC  =      -231.95904083
  PAW double counting   =      4187.96633623    -3606.17800208
  entropy T*S    EENTRO =        -0.33548777
  eigenvalues    EBANDS =     -1470.19597352
  atomic energy  EATOM  =      6761.44252427
  Solvation  Ediel_sol  =         0.00000000
  ---------------------------------------------------
  free energy    TOTEN  =      -186.86552700 eV

  energy without entropy =     -186.53003923  energy(sigma->0) =     -186.69778312


--------------------------------------------------------------------------------------------------------




----------------------------------------- Iteration    1(  14)  ---------------------------------------


    POTLOK:  cpu time    0.0313: real time    0.0314
    SETDIJ:  cpu time    0.0023: real time    0.0024
     EDDAV:  cpu time   32.2750: real time   32.3527
       DOS:  cpu time    0.0011: real time    0.0011
    CHARGE:  cpu time    0.4954: real time    0.4965
    MIXING:  cpu time    0.0015: real time    0.0015
    --------------------------------------------
      LOOP:  cpu time   32.8076: real time   32.8953

 eigenvalue-minimisations  : 13000
 total energy-change (2. order) : 0.3838477E-01  (-0.9119587E-02)
 number of electron     159.0000089 magnetization 
 augmentation part       -4.1398879 magnetization 

 Broyden mixing:
  rms(total) = 0.60856E-01    rms(broyden)= 0.60662E-01
  rms(prec ) = 0.68658E-01
  weight for this iteration     100.00

 eigenvalues of (default mixing * dielectric matrix)
  average eigenvalue GAMMA=   0.7786
  2.2357  1.7962  0.9550  0.5894  0.5199  0.2981  0.2203  0.2520  0.1412

 Free energy of the ion-electron system (eV)
  ---------------------------------------------------
  alpha Z        PSCENC =        81.65567618
  Ewald energy   TEWEN  =     41891.17178071
  -Hartree energ DENC   =    -47804.04970224
  -exchange      EXHF   =         0.00000000
  -V(xc)+E(xc)   XCENC  =      -231.87476682
  PAW double counting   =      4191.92608873    -3610.07982668
  entropy T*S    EENTRO =        -0.34339902
  eigenvalues    EBANDS =     -1466.67551736
  atomic energy  EATOM  =      6761.44252427
  Solvation  Ediel_sol  =         0.00000000
  ---------------------------------------------------
  free energy    TOTEN  =      -186.82714223 eV

  energy without entropy =     -186.48374321  energy(sigma->0) =     -186.65544272


--------------------------------------------------------------------------------------------------------




----------------------------------------- Iteration    1(  15)  ---------------------------------------


    POTLOK:  cpu time    0.0318: real time    0.0319
    SETDIJ:  cpu time    0.0024: real time    0.0024
     EDDAV:  cpu time   29.6239: real time   29.6950
       DOS:  cpu time    0.0010: real time    0.0010
    CHARGE:  cpu time    0.4984: real time    0.4996
    MIXING:  cpu time    0.0017: real time    0.0017
    --------------------------------------------
      LOOP:  cpu time   30.1607: real time   30.2419

 eigenvalue-minimisations  : 11760
 total energy-change (2. order) : 0.3687103E-02  (-0.1075838E-02)
 number of electron     159.0000089 magnetization 
 augmentation part       -4.1620580 magnetization 

 Broyden mixing:
  rms(total) = 0.34524E-01    rms(broyden)= 0.34504E-01
  rms(prec ) = 0.39622E-01
  weight for this iteration     100.00

 eigenvalues of (default mixing * dielectric matrix)
  average eigenvalue GAMMA=   0.7940
  2.2654  1.9380  1.1723  0.6611  0.6611  0.3338  0.2981  0.2202  0.2490  0.1413

 Free energy of the ion-electron system (eV)
  ---------------------------------------------------
  alpha Z        PSCENC =        81.65567618
  Ewald energy   TEWEN  =     41891.17178071
  -Hartree energ DENC   =    -47806.88323957
  -exchange      EXHF   =         0.00000000
  -V(xc)+E(xc)   XCENC  =      -231.83271153
  PAW double counting   =      4193.04001184    -3611.15344783
  entropy T*S    EENTRO =        -0.34230163
  eigenvalues    EBANDS =     -1463.92174758
  atomic energy  EATOM  =      6761.44252427
  Solvation  Ediel_sol  =         0.00000000
  ---------------------------------------------------
  free energy    TOTEN  =      -186.82345513 eV

  energy without entropy =     -186.48115350  energy(sigma->0) =     -186.65230432


--------------------------------------------------------------------------------------------------------




----------------------------------------- Iteration    1(  16)  ---------------------------------------


    POTLOK:  cpu time    0.0307: real time    0.0307
    SETDIJ:  cpu time    0.0023: real time    0.0024
     EDDAV:  cpu time   32.2724: real time   32.3495
       DOS:  cpu time    0.0010: real time    0.0010
    CHARGE:  cpu time    0.4993: real time    0.5004
    MIXING:  cpu time    0.0017: real time    0.0017
    --------------------------------------------
      LOOP:  cpu time   32.8083: real time   32.8952

 eigenvalue-minimisations  : 13000
 total energy-change (2. order) :-0.1726205E-02  (-0.1181328E-02)
 number of electron     159.0000089 magnetization 
 augmentation part       -4.1931788 magnetization 

 Broyden mixing:
  rms(total) = 0.65613E-01    rms(broyden)= 0.65587E-01
  rms(prec ) = 0.72902E-01
  weight for this iteration     100.00

 eigenvalues of (default mixing * dielectric matrix)
  average eigenvalue GAMMA=   0.7996
  2.4129  2.1289  1.3948  0.7605  0.6565  0.4007  0.2985  0.2203  0.2506  0.1413
  0.1309

 Free energy of the ion-electron system (eV)
  ---------------------------------------------------
  alpha Z        PSCENC =        81.65567618
  Ewald energy   TEWEN  =     41891.17178071
  -Hartree energ DENC   =    -47810.56609561
  -exchange      EXHF   =         0.00000000
  -V(xc)+E(xc)   XCENC  =      -231.78407045
  PAW double counting   =      4194.22104382    -3612.29436823
  entropy T*S    EENTRO =        -0.34141032
  eigenvalues    EBANDS =     -1460.33026169
  atomic energy  EATOM  =      6761.44252427
  Solvation  Ediel_sol  =         0.00000000
  ---------------------------------------------------
  free energy    TOTEN  =      -186.82518133 eV

  energy without entropy =     -186.48377101  energy(sigma->0) =     -186.65447617


--------------------------------------------------------------------------------------------------------




----------------------------------------- Iteration    1(  17)  ---------------------------------------


    POTLOK:  cpu time    0.0316: real time    0.0328
    SETDIJ:  cpu time    0.0024: real time    0.0024
     EDDAV:  cpu time   32.0437: real time   32.1209
       DOS:  cpu time    0.0010: real time    0.0010
    CHARGE:  cpu time    0.4994: real time    0.5006
    MIXING:  cpu time    0.0018: real time    0.0018
    --------------------------------------------
      LOOP:  cpu time   32.5823: real time   32.6690

 eigenvalue-minimisations  : 12920
 total energy-change (2. order) : 0.3711408E-02  (-0.8660609E-03)
 number of electron     159.0000089 magnetization 
 augmentation part       -4.2156140 magnetization 

 Broyden mixing:
  rms(total) = 0.19707E-01    rms(broyden)= 0.19654E-01
  rms(prec ) = 0.23060E-01
  weight for this iteration     100.00

 eigenvalues of (default mixing * dielectric matrix)
  average eigenvalue GAMMA=   0.8203
  2.3047  2.3047  1.3592  1.1473  0.6587  0.6587  0.3773  0.2975  0.2202  0.2505
  0.1413  0.1240

 Free energy of the ion-electron system (eV)
  ---------------------------------------------------
  alpha Z        PSCENC =        81.65567618
  Ewald energy   TEWEN  =     41891.17178071
  -Hartree energ DENC   =    -47813.84640955
  -exchange      EXHF   =         0.00000000
  -V(xc)+E(xc)   XCENC  =      -231.74247137
  PAW double counting   =      4195.05829806    -3613.09902985
  entropy T*S    EENTRO =        -0.34092750
  eigenvalues    EBANDS =     -1457.12091088
  atomic energy  EATOM  =      6761.44252427
  Solvation  Ediel_sol  =         0.00000000
  ---------------------------------------------------
  free energy    TOTEN  =      -186.82146993 eV

  energy without entropy =     -186.48054243  energy(sigma->0) =     -186.65100618


--------------------------------------------------------------------------------------------------------




----------------------------------------- Iteration    1(  18)  ---------------------------------------


    POTLOK:  cpu time    0.0310: real time    0.0311
    SETDIJ:  cpu time    0.0024: real time    0.0024
     EDDAV:  cpu time   30.1502: real time   30.2222
       DOS:  cpu time    0.0010: real time    0.0010
    CHARGE:  cpu time    0.4993: real time    0.5005
    MIXING:  cpu time    0.0018: real time    0.0018
    --------------------------------------------
      LOOP:  cpu time   30.6869: real time   30.7692

 eigenvalue-minimisations  : 12040
 total energy-change (2. order) : 0.3761241E-03  (-0.1342903E-03)
 number of electron     159.0000089 magnetization 
 augmentation part       -4.1859774 magnetization 

 Broyden mixing:
  rms(total) = 0.65918E-02    rms(broyden)= 0.65793E-02
  rms(prec ) = 0.94664E-02
  weight for this iteration     100.00

 eigenvalues of (default mixing * dielectric matrix)
  average eigenvalue GAMMA=   0.8826
  2.4994  2.4994  1.5454  1.2682  0.9720  0.6401  0.6401  0.3752  0.2976  0.2202
  0.2505  0.1413  0.1239

 Free energy of the ion-electron system (eV)
  ---------------------------------------------------
  alpha Z        PSCENC =        81.65567618
  Ewald energy   TEWEN  =     41891.17178071
  -Hartree energ DENC   =    -47817.23852615
  -exchange      EXHF   =         0.00000000
  -V(xc)+E(xc)   XCENC  =      -231.70991598
  PAW double counting   =      4194.69794892    -3612.71803503
  entropy T*S    EENTRO =        -0.34159218
  eigenvalues    EBANDS =     -1453.78095454
  atomic energy  EATOM  =      6761.44252427
  Solvation  Ediel_sol  =         0.00000000
  ---------------------------------------------------
  free energy    TOTEN  =      -186.82109380 eV

  energy without entropy =     -186.47950162  energy(sigma->0) =     -186.65029771


--------------------------------------------------------------------------------------------------------




----------------------------------------- Iteration    1(  19)  ---------------------------------------


    POTLOK:  cpu time    0.0308: real time    0.0308
    SETDIJ:  cpu time    0.0024: real time    0.0024
     EDDAV:  cpu time   27.7136: real time   27.7804
       DOS:  cpu time    0.0011: real time    0.0011
    CHARGE:  cpu time    0.5001: real time    0.5013
    MIXING:  cpu time    0.0009: real time    0.0019
    --------------------------------------------
      LOOP:  cpu time   28.2507: real time   28.3270

 eigenvalue-minimisations  : 10880
 total energy-change (2. order) :-0.5670267E-03  (-0.8080041E-04)
 number of electron     159.0000089 magnetization 
 augmentation part       -4.1966635 magnetization 

 Broyden mixing:
  rms(total) = 0.84170E-02    rms(broyden)= 0.84108E-02
  rms(prec ) = 0.10415E-01
  weight for this iteration     100.00

 eigenvalues of (default mixing * dielectric matrix)
  average eigenvalue GAMMA=   0.8742
  2.6259  2.6259  1.6320  1.3447  1.0038  0.6452  0.6452  0.3755  0.2202  0.2505
  0.2975  0.3078  0.1413  0.1239

 Free energy of the ion-electron system (eV)
  ---------------------------------------------------
  alpha Z        PSCENC =        81.65567618
  Ewald energy   TEWEN  =     41891.17178071
  -Hartree energ DENC   =    -47822.23153389
  -exchange      EXHF   =         0.00000000
  -V(xc)+E(xc)   XCENC  =      -231.66894384
  PAW double counting   =      4193.52313709    -3611.52372189
  entropy T*S    EENTRO =        -0.34117377
  eigenvalues    EBANDS =     -1448.84940569
  atomic energy  EATOM  =      6761.44252427
  Solvation  Ediel_sol  =         0.00000000
  ---------------------------------------------------
  free energy    TOTEN  =      -186.82166083 eV

  energy without entropy =     -186.48048706  energy(sigma->0) =     -186.65107394


--------------------------------------------------------------------------------------------------------




----------------------------------------- Iteration    1(  20)  ---------------------------------------


    POTLOK:  cpu time    0.0300: real time    0.0313
    SETDIJ:  cpu time    0.0024: real time    0.0024
     EDDAV:  cpu time   22.4741: real time   22.5278
       DOS:  cpu time    0.0010: real time    0.0010
    CHARGE:  cpu time    0.4992: real time    0.5004
    MIXING:  cpu time    0.0021: real time    0.0021
    --------------------------------------------
      LOOP:  cpu time   23.0110: real time   23.0725

 eigenvalue-minimisations  :  8320
 total energy-change (2. order) :-0.3026409E-03  (-0.3464185E-04)
 number of electron     159.0000089 magnetization 
 augmentation part       -4.1978093 magnetization 

 Broyden mixing:
  rms(total) = 0.56638E-02    rms(broyden)= 0.56567E-02
  rms(prec ) = 0.71309E-02
  weight for this iteration     100.00

 eigenvalues of (default mixing * dielectric matrix)
  average eigenvalue GAMMA=   0.9539
  3.2928  2.5297  1.7661  1.7661  1.0024  1.0024  0.6429  0.6429  0.3755  0.2976
  0.2202  0.1413  0.2505  0.2535  0.1239

 Free energy of the ion-electron system (eV)
  ---------------------------------------------------
  alpha Z        PSCENC =        81.65567618
  Ewald energy   TEWEN  =     41891.17178071
  -Hartree energ DENC   =    -47824.34764015
  -exchange      EXHF   =         0.00000000
  -V(xc)+E(xc)   XCENC  =      -231.65264229
  PAW double counting   =      4193.07803924    -3611.07300524
  entropy T*S    EENTRO =        -0.34107829
  eigenvalues    EBANDS =     -1446.75561791
  atomic energy  EATOM  =      6761.44252427
  Solvation  Ediel_sol  =         0.00000000
  ---------------------------------------------------
  free energy    TOTEN  =      -186.82196347 eV

  energy without entropy =     -186.48088518  energy(sigma->0) =     -186.65142433


--------------------------------------------------------------------------------------------------------




----------------------------------------- Iteration    1(  21)  ---------------------------------------


    POTLOK:  cpu time    0.0309: real time    0.0310
    SETDIJ:  cpu time    0.0023: real time    0.0023
     EDDAV:  cpu time   22.9345: real time   22.9898
       DOS:  cpu time    0.0011: real time    0.0011
    CHARGE:  cpu time    0.4952: real time    0.4964
    MIXING:  cpu time    0.0020: real time    0.0020
    --------------------------------------------
      LOOP:  cpu time   23.4669: real time   23.5323

 eigenvalue-minimisations  :  8600
 total energy-change (2. order) :-0.1203455E-02  (-0.3039001E-04)
 number of electron     159.0000089 magnetization 
 augmentation part       -4.1893324 magnetization 

 Broyden mixing:
  rms(total) = 0.25131E-02    rms(broyden)= 0.25087E-02
  rms(prec ) = 0.33682E-02
  weight for this iteration     100.00

 eigenvalues of (default mixing * dielectric matrix)
  average eigenvalue GAMMA=   0.9929
  3.7560  2.4788  2.1398  1.6627  1.0802  1.0802  0.7578  0.6349  0.6349  0.3755
  0.2976  0.2202  0.1413  0.2505  0.2528  0.1239

 Free energy of the ion-electron system (eV)
  ---------------------------------------------------
  alpha Z        PSCENC =        81.65567618
  Ewald energy   TEWEN  =     41891.17178071
  -Hartree energ DENC   =    -47828.43231308
  -exchange      EXHF   =         0.00000000
  -V(xc)+E(xc)   XCENC  =      -231.62465677
  PAW double counting   =      4192.44900957    -3610.44152493
  entropy T*S    EENTRO =        -0.34118862
  eigenvalues    EBANDS =     -1442.70247426
  atomic energy  EATOM  =      6761.44252427
  Solvation  Ediel_sol  =         0.00000000
  ---------------------------------------------------
  free energy    TOTEN  =      -186.82316693 eV

  energy without entropy =     -186.48197831  energy(sigma->0) =     -186.65257262


--------------------------------------------------------------------------------------------------------




----------------------------------------- Iteration    1(  22)  ---------------------------------------


    POTLOK:  cpu time    0.0306: real time    0.0307
    SETDIJ:  cpu time    0.0023: real time    0.0023
     EDDAV:  cpu time   19.0683: real time   19.1139
       DOS:  cpu time    0.0010: real time    0.0010
    CHARGE:  cpu time    0.4998: real time    0.5009
    MIXING:  cpu time    0.0021: real time    0.0021
    --------------------------------------------
      LOOP:  cpu time   19.6050: real time   19.6596

 eigenvalue-minimisations  :  6680
 total energy-change (2. order) :-0.7806503E-03  (-0.7771784E-05)
 number of electron     159.0000089 magnetization 
 augmentation part       -4.1896728 magnetization 

 Broyden mixing:
  rms(total) = 0.24459E-02    rms(broyden)= 0.24440E-02
  rms(prec ) = 0.30509E-02
  weight for this iteration     100.00

 eigenvalues of (default mixing * dielectric matrix)
  average eigenvalue GAMMA=   1.0678
  4.7559  2.4945  2.4945  1.6137  1.4373  1.0134  1.0134  0.6397  0.6397  0.3756
  0.3889  0.2976  0.2202  0.2505  0.2526  0.1413  0.1239

 Free energy of the ion-electron system (eV)
  ---------------------------------------------------
  alpha Z        PSCENC =        81.65567618
  Ewald energy   TEWEN  =     41891.17178071
  -Hartree energ DENC   =    -47830.20883351
[...]
    104      -0.5545      0.00000
    105      -0.4784      0.00000
    106      -0.4017      0.00000
    107      -0.3416      0.00000
    108      -0.1055      0.00000
    109       0.0143      0.00000
    110       0.1386      0.00000
    111       0.3602      0.00000
    112       0.5884      0.00000
    113       0.7547      0.00000
    114       0.9899      0.00000
    115       1.1822      0.00000
    116       1.3082      0.00000
    117       1.5768      0.00000
    118       2.1637      0.00000
    119       2.3119      0.00000
    120       2.4222      0.00000

 k-point    34 :       0.5000    0.5000    0.0000
  band No.  band energies     occupation 
      1     -17.5063      2.00000
      2     -17.3493      2.00000
      3     -16.7450      2.00000
      4     -16.7164      2.00000
      5     -16.5824      2.00000
      6     -16.5510      2.00000
      7     -16.2764      2.00000
      8     -16.1988      2.00000
      9     -16.1165      2.00000
     10     -16.0810      2.00000
     11     -15.8788      2.00000
     12     -15.8330      2.00000
     13     -15.7677      2.00000
     14     -15.6983      2.00000
     15     -15.6419      2.00000
     16     -15.4308      2.00000
     17     -15.3382      2.00000
     18     -15.2165      2.00000
     19      -9.8147      2.00000
     20      -9.3526      2.00000
     21      -9.3033      2.00000
     22      -9.0081      2.00000
     23      -8.9412      2.00000
     24      -8.8324      2.00000
     25      -8.6775      2.00000
     26      -8.6617      2.00000
     27      -8.4413      2.00000
     28      -8.2931      2.00000
     29      -8.2305      2.00000
     30      -8.1336      2.00000
     31      -8.0819      2.00000
     32      -8.0125      2.00000
     33      -7.9227      2.00000
     34      -7.8464      2.00000
     35      -7.7455      2.00000
     36      -7.6822      2.00000
     37      -7.6421      2.00000
     38      -7.5947      2.00000
     39      -7.4659      2.00000
     40      -7.3354      2.00000
     41      -7.0913      2.00000
     42      -7.0708      2.00000
     43      -7.0014      2.00000
     44      -6.8523      2.00000
     45      -6.8259      2.00000
     46      -6.7119      2.00000
     47      -6.6499      2.00000
     48      -6.5880      2.00000
     49      -6.5205      2.00000
     50      -6.4600      2.00000
     51      -6.4111      2.00000
     52      -6.3448      2.00000
     53      -6.2675      2.00000
     54      -6.1807      2.00000
     55      -6.1102      2.00000
     56      -6.0957      2.00000
     57      -6.0087      2.00000
     58      -5.8452      2.00000
     59      -5.8140      2.00000
     60      -5.7914      2.00000
     61      -5.6299      2.00000
     62      -5.5972      2.00000
     63      -5.5340      2.00000
     64      -5.4105      2.00000
     65      -5.2232      2.00000
     66      -5.0669      2.00000
     67      -5.0007      2.00000
     68      -4.9543      2.00000
     69      -4.8327      2.00000
     70      -4.6281      2.00000
     71      -4.5756      2.00000
     72      -4.4443      2.00000
     73      -4.3380      2.00000
     74      -4.1786      2.00000
     75      -4.0395      2.00000
     76      -4.0108      2.00000
     77      -3.8571      1.99998
     78      -3.6790      1.99777
     79      -3.4669      1.88057
     80      -3.3404      1.49234
     81      -2.9900      0.06955
     82      -2.9499      0.03589
     83      -2.6582      0.00003
     84      -2.6078      0.00001
     85      -2.4577      0.00000
     86      -2.3427      0.00000
     87      -2.1842      0.00000
     88      -2.1027      0.00000
     89      -1.9261      0.00000
     90      -1.8442      0.00000
     91      -1.6538      0.00000
     92      -1.5619      0.00000
     93      -1.3845      0.00000
     94      -1.3641      0.00000
     95      -1.1981      0.00000
     96      -1.0848      0.00000
     97      -1.0703      0.00000
     98      -0.9947      0.00000
     99      -0.9277      0.00000
    100      -0.8935      0.00000
    101      -0.8198      0.00000
    102      -0.7071      0.00000
    103      -0.6285      0.00000
    104      -0.5975      0.00000
    105      -0.4782      0.00000
    106      -0.4051      0.00000
    107      -0.2957      0.00000
    108      -0.1135      0.00000
    109       0.0220      0.00000
    110       0.2010      0.00000
    111       0.2788      0.00000
    112       0.5880      0.00000
    113       0.7745      0.00000
    114       1.0475      0.00000
    115       1.1447      0.00000
    116       1.3279      0.00000
    117       1.5731      0.00000
    118       2.2533      0.00000
    119       2.2670      0.00000
    120       2.4071      0.00000


--------------------------------------------------------------------------------------------------------


 soft charge-density along one line, spin component           1
         0         1         2         3         4         5         6         7         8         9
 total charge-density along one line
 
 pseudopotential strength for first ion, spin component:           1
 -7.216  -0.012  -0.023   0.010   0.001   0.673   0.003   0.007
 -0.012  -7.125   0.004   0.017  -0.010   0.003   0.645  -0.001
 -0.023   0.004  -7.074  -0.004  -0.006   0.007  -0.001   0.631
  0.010   0.017  -0.004  -7.115   0.004  -0.003  -0.005   0.001
  0.001  -0.010  -0.006   0.004  -7.215  -0.000   0.003   0.002
  0.673   0.003   0.007  -0.003  -0.000   0.333  -0.000  -0.002
  0.003   0.645  -0.001  -0.005   0.003  -0.000   0.342   0.001
  0.007  -0.001   0.631   0.001   0.002  -0.002   0.001   0.345
 -0.003  -0.005   0.001   0.642  -0.000   0.001   0.001  -0.000
 -0.000   0.003   0.002  -0.000   0.672   0.000  -0.001  -0.001
 -0.007  -0.003  -0.021   0.002  -0.002   0.002   0.001   0.005
 -0.002  -0.001  -0.007   0.001  -0.000   0.001   0.000   0.002
  0.004   0.004  -0.001   0.003  -0.006   0.000  -0.001  -0.001
  0.003   0.009   0.002   0.006  -0.001  -0.000  -0.000  -0.001
  0.006   0.003  -0.001   0.001   0.004   0.000  -0.000  -0.000
  0.003   0.002   0.000   0.003  -0.003  -0.001  -0.000  -0.000
  0.003   0.007   0.000   0.005  -0.001  -0.000  -0.001  -0.000
  0.004   0.003  -0.001  -0.001   0.003  -0.001  -0.000   0.000
 total augmentation occupancy for first ion, spin component:           1
  0.807   0.154  -0.048  -0.002   0.034   0.436   0.225  -0.004  -0.002   0.007   0.031  -0.001  -0.012   0.063   0.003  -0.002
  0.154   1.071   0.034  -0.013  -0.020   0.222   0.638   0.035  -0.007  -0.004   0.007   0.003   0.045   0.078   0.059   0.002
 -0.048   0.034   0.859  -0.002  -0.012  -0.002   0.035   0.344   0.021  -0.001   0.149   0.005   0.072   0.000   0.036   0.002
 -0.002  -0.013  -0.002   1.075  -0.148  -0.002  -0.007   0.020   0.654  -0.203   0.016   0.002   0.071   0.029  -0.009   0.002
  0.034  -0.020  -0.012  -0.148   0.831   0.007  -0.005  -0.001  -0.205   0.443  -0.015   0.002   0.020  -0.025  -0.008   0.002
  0.436   0.222  -0.002  -0.002   0.007   0.376   0.225   0.004   0.000  -0.004  -0.012  -0.001   0.014   0.066   0.026  -0.001
  0.225   0.638   0.035  -0.007  -0.005   0.225   0.576   0.024  -0.001  -0.007   0.024   0.004   0.046   0.089   0.064   0.004
 -0.004   0.035   0.344   0.020  -0.001   0.004   0.024   0.275   0.013  -0.005   0.041   0.009   0.020   0.004   0.011   0.004
 -0.002  -0.007   0.021   0.654  -0.205   0.000  -0.001   0.013   0.580  -0.210   0.032   0.004   0.061   0.047  -0.023   0.005
  0.007  -0.004  -0.001  -0.203   0.443  -0.004  -0.007  -0.005  -0.210   0.364   0.009   0.001  -0.027  -0.037   0.010   0.000
  0.031   0.007   0.149   0.016  -0.015  -0.012   0.024   0.041   0.032   0.009   1.390   0.138   0.045   0.021   0.007   0.002
 -0.001   0.003   0.005   0.002   0.002  -0.001   0.004   0.009   0.004   0.001   0.138   0.026   0.009   0.001   0.005   0.001
 -0.012   0.045   0.072   0.071   0.020   0.014   0.046   0.020   0.061  -0.027   0.045   0.009   0.357   0.005   0.006   0.026
  0.063   0.078   0.000   0.029  -0.025   0.066   0.089   0.004   0.047  -0.037   0.021   0.001   0.005   0.421   0.008  -0.000
  0.003   0.059   0.036  -0.009  -0.008   0.026   0.064   0.011  -0.023   0.010   0.007   0.005   0.006   0.008   0.352  -0.000
 -0.002   0.002   0.002   0.002   0.002  -0.001   0.004   0.004   0.005   0.000   0.002   0.001   0.026  -0.000  -0.000   0.003
  0.003  -0.001   0.000  -0.001  -0.001   0.005   0.005  -0.000   0.002  -0.003   0.001   0.000  -0.000   0.029   0.000   0.000
 -0.003   0.002   0.002  -0.000  -0.002  -0.001   0.005   0.003  -0.002  -0.001   0.001   0.000  -0.000   0.000   0.027  -0.000


------------------------ aborting loop because EDIFF is reached ----------------------------------------


    CHARGE:  cpu time    0.4518: real time    0.4529
    FORLOC:  cpu time    0.0064: real time    0.0064
    FORNL :  cpu time    5.3972: real time    5.4133
    STRESS:  cpu time   32.0138: real time   32.0902
    FORCOR:  cpu time    0.0337: real time    0.0338
    FORHAR:  cpu time    0.0154: real time    0.0154
    MIXING:  cpu time    0.0013: real time    0.0013
    OFIELD:  cpu time    0.0000: real time    0.0000

  FORCE on cell =-STRESS in cart. coord.  units (eV):
  Direction    XX          YY          ZZ          XY          YZ          ZX
  --------------------------------------------------------------------------------------
  Alpha Z    89.55929    89.55929    89.55929
  Ewald   49379.40541 49333.97222-54297.72968   -38.96962    21.00726    11.90729
  Hartree 50084.59120 50055.63796-49716.84959   -24.91253    11.76197     6.74652
  E(xc)    -609.61766  -610.66244  -617.89711    -0.90871    -0.94290    -0.53944
  Local  ************************101451.98502    57.05198   -40.89416   -23.32457
  n-local  1213.61110  1215.53316  1248.97602     1.69504    -2.26169    -1.35077
  augment  -213.34943  -212.86359  -214.65499     0.42849     0.97333     0.56629
  Kinetic  2008.68251  2015.15326  2054.64590     5.60669    10.15909     5.87907
  Fock        0.00000     0.00000     0.00000     0.00000     0.00000     0.00000
  -------------------------------------------------------------------------------------
  Total       0.18516     0.17316    -1.96516    -0.00867    -0.19710    -0.11561
  in kB       0.12410     0.11606    -1.31714    -0.00581    -0.13211    -0.07749
  external pressure =       -0.36 kB  Pullay stress =        0.00 kB


 VOLUME and BASIS-vectors are now :
 -----------------------------------------------------------------------------
  energy-cutoff  :      280.00
  volume of cell :     2390.43
      direct lattice vectors                 reciprocal lattice vectors
     8.306068701  4.821696945  0.000000000     0.060039941  0.103968401  0.000000000
    -8.284317380  4.784049058  0.000000000    -0.060512423  0.104241381  0.000000000
     0.000000000  0.000000000 30.000000000     0.000000000  0.000000000  0.033333333

  length of vectors
     9.604141748  9.566453881 30.000000000     0.120059248  0.120532231  0.033333333


 FORCES acting on ions
    electron-ion (+dipol)            ewald-force                    non-local-force                 convergence-correction
 -----------------------------------------------------------------------------------------------
   0.129E+02 0.205E+02 0.149E+02   -.139E+02 -.217E+02 -.146E+02   0.103E+01 0.117E+01 -.242E+00   -.148E-01 -.136E-01 -.191E-01
   0.114E+02 0.216E+02 0.149E+02   -.119E+02 -.230E+02 -.147E+02   0.501E+00 0.148E+01 -.238E+00   -.109E-01 -.228E-01 -.214E-01
   -.131E+02 -.228E+02 -.126E+02   0.138E+02 0.241E+02 0.123E+02   -.765E+00 -.133E+01 0.288E+00   -.428E-02 0.387E-02 0.192E-01
   0.614E+01 0.117E+02 0.367E+01   -.603E+01 -.114E+02 -.366E+01   -.109E+00 -.190E+00 -.894E-02   -.558E-02 -.103E-01 -.418E-02
   0.568E+01 -.421E+01 0.187E+01   -.550E+01 0.404E+01 -.189E+01   -.216E+00 0.167E+00 0.205E-01   0.319E-01 0.112E-01 0.202E-02
   -.597E+01 0.266E+01 0.185E+01   0.576E+01 -.260E+01 -.187E+01   0.249E+00 -.106E+00 0.197E-01   -.116E-01 0.254E-01 0.861E-03
   -.187E+02 -.269E+02 -.228E+02   0.192E+02 0.276E+02 0.226E+02   -.564E+00 -.707E+00 0.219E+00   0.474E-01 -.207E-02 0.659E-02
   -.142E+02 -.298E+02 -.227E+02   0.145E+02 0.306E+02 0.225E+02   -.326E+00 -.829E+00 0.216E+00   -.191E-01 0.374E-01 0.645E-02
   0.172E+02 0.297E+02 0.188E+02   -.175E+02 -.304E+02 -.187E+02   0.380E+00 0.650E+00 -.166E+00   0.376E-02 -.359E-02 -.389E-02
   -.689E+01 -.689E+01 0.613E+03   0.732E+01 0.822E+01 -.616E+03   -.455E+00 -.130E+01 0.351E+01   0.324E-01 -.603E-02 -.135E-01
   -.130E+02 -.199E+02 -.606E+03   0.135E+02 0.205E+02 0.609E+03   -.573E+00 -.643E+00 -.367E+01   0.551E-01 0.140E-02 -.456E-01
   -.272E+01 -.956E+01 0.614E+03   0.365E+01 0.106E+02 -.617E+03   -.904E+00 -.102E+01 0.351E+01   -.182E-01 0.176E-01 -.195E-01
   -.110E+02 -.187E+02 -.634E+03   0.112E+02 0.190E+02 0.638E+03   -.206E+00 -.355E+00 -.403E+01   0.174E-01 0.185E-01 0.128E-01
   -.848E+01 -.148E+02 0.607E+03   0.915E+01 0.160E+02 -.610E+03   -.680E+00 -.120E+01 0.321E+01   0.167E-01 0.418E-01 0.348E-01
   -.106E+02 -.214E+02 -.606E+03   0.109E+02 0.221E+02 0.609E+03   -.272E+00 -.820E+00 -.367E+01   -.304E-01 0.533E-01 -.382E-01
   -.810E+01 -.112E+02 0.489E+03   0.844E+01 0.111E+02 -.494E+03   -.365E+00 0.820E-01 0.486E+01   0.284E-01 -.252E-01 0.356E-01
   0.389E+01 0.668E+01 -.482E+03   -.374E+01 -.644E+01 0.486E+03   -.116E+00 -.206E+00 -.456E+01   -.320E-01 -.338E-01 -.342E-01
   -.632E+01 -.108E+02 0.506E+03   0.613E+01 0.105E+02 -.511E+03   0.174E+00 0.294E+00 0.524E+01   0.104E-01 0.597E-02 -.178E-02
   0.134E+01 0.939E+01 -.497E+03   -.902E+00 -.898E+01 0.502E+03   -.449E+00 -.385E+00 -.505E+01   0.175E-01 -.143E-01 -.124E-01
   -.564E+01 -.127E+02 0.489E+03   0.542E+01 0.130E+02 -.494E+03   0.250E+00 -.274E+00 0.486E+01   -.442E-01 0.951E-02 0.279E-01
   0.742E+01 0.575E+01 -.497E+03   -.729E+01 -.516E+01 0.502E+03   -.114E+00 -.583E+00 -.505E+01   -.131E-01 0.198E-02 -.281E-02
   0.115E+02 0.203E+02 0.586E+03   -.121E+02 -.212E+02 -.590E+03   0.589E+00 0.102E+01 0.322E+01   -.307E-01 -.334E-01 0.130E-01
   0.975E+01 0.117E+02 -.589E+03   -.108E+02 -.132E+02 0.593E+03   0.104E+01 0.159E+01 -.311E+01   0.115E-01 -.221E-01 0.818E-02
   0.705E+01 0.239E+02 0.610E+03   -.738E+01 -.246E+02 -.614E+03   0.330E+00 0.753E+00 0.365E+01   0.339E-02 -.210E-01 0.158E-01
   0.540E+01 0.146E+02 -.590E+03   -.621E+01 -.163E+02 0.593E+03   0.835E+00 0.168E+01 -.312E+01   -.299E-01 -.164E-01 0.687E-03
   0.172E+02 0.179E+02 0.610E+03   -.177E+02 -.186E+02 -.614E+03   0.487E+00 0.660E+00 0.365E+01   -.675E-02 -.309E-02 0.901E-02
   0.739E+01 0.127E+02 -.621E+03   -.807E+01 -.139E+02 0.625E+03   0.675E+00 0.114E+01 -.348E+01   0.397E-02 0.146E-01 0.517E-03
 -----------------------------------------------------------------------------------------------
   -.433E+00 -.751E+00 -.471E-01   -.533E-13 0.178E-14 -.455E-12   0.426E+00 0.738E+00 0.755E-01   0.845E-02 0.148E-01 -.231E-01
 
 
 POSITION                                       TOTAL-FORCE (eV/Angst)
 -----------------------------------------------------------------------------------
      5.68540      3.45961     -0.05396         0.007705      0.005050     -0.036893
      2.91432      5.05911     -0.05431        -0.000093      0.008857     -0.035147
      2.63635      1.37630      0.04864        -0.012794     -0.022565      0.035616
      5.57831      6.48252     -0.01052        -0.006376      0.013409      0.001498
      0.04878     -0.03119     -0.00567        -0.008889      0.006091      0.003041
     -5.56986      3.21392     -0.00560         0.019468     -0.011899      0.002189
     -0.17439      2.92941      0.06992         0.006143     -0.004851      0.018389
     -2.89894      4.50346      0.06972        -0.006100      0.006704      0.017739
      0.18070      6.69100     -0.06104         0.004257      0.004017     -0.013963
     -0.93207      1.55351     28.35307         0.008499      0.016941      0.012256
      0.95683      1.57647      1.65386        -0.017870     -0.014035      0.022565
     -3.71107      3.15981     28.35086         0.011717      0.019061      0.003902
     -1.87061      3.13847      1.74278         0.000390      0.003209      0.013961
     -6.42147      4.82040     28.37516         0.004694      0.007368      0.026771
     -4.63556      4.80621      1.65418        -0.002411     -0.020136      0.024659
      1.85840      3.20070     28.71626         0.001527     -0.011192      0.017076
      3.70068      3.22087      1.26186         0.000969      0.002794     -0.024350
     -0.90625      4.80791     28.66778        -0.003608     -0.006953      0.012322
      0.94484      4.80194      1.31032         0.010495      0.007355     -0.009126
     -3.68001      6.39963     28.71574        -0.010787     -0.003789      0.015059
     -1.83707      6.40875      1.31003         0.001847      0.012342     -0.008610
      4.61334      4.80261     28.40495         0.007663      0.016579     -0.030259
      6.45655      4.80060      1.57471        -0.013619     -0.011319     -0.005322
      1.89614      6.41267     28.33363        -0.000391      0.007784     -0.023235
      3.68962      6.39756      1.57674        -0.005272     -0.022292     -0.000264
     -0.91769      8.03786     28.33365         0.009765      0.004117     -0.022501
      0.96176      8.04339      1.66723        -0.006929     -0.012647     -0.017372
 -----------------------------------------------------------------------------------
    total drift:                                0.001593      0.001704      0.005216


--------------------------------------------------------------------------------------------------------



  FREE ENERGIE OF THE ION-ELECTRON SYSTEM (eV)
  ---------------------------------------------------
  free  energy   TOTEN  =      -192.33584180 eV

  energy  without entropy=     -192.20247680  energy(sigma->0) =     -192.26915930
 
 d Force = 0.4903434E-03[ 0.454E-03, 0.527E-03]  d Energy = 0.4596517E-03 0.307E-04
 d Force = 0.1805043E+01[ 0.181E+01, 0.180E+01]  d Ewald  = 0.1203816E+02-0.102E+02


--------------------------------------------------------------------------------------------------------


    POTLOK:  cpu time    0.0376: real time    0.0377


--------------------------------------------------------------------------------------------------------


 Quasi-Newton relaxation of ions (Broydens 2nd method)
  g(Force)  = 0.800E-03   g(Stress)= 0.115E-03

 retain information from N=  1 steps
 eigenvalues of (default step * inverse Hessian matrix)
  average eigenvalue of G=   0.9263
 eigenvalue spectrum of G is  0.9263


--------------------------------------------------------------------------------------------------------


  
 reached required accuracy - stopping structural energy minimisation
     LOOP+:  cpu time  134.5162: real time  134.8538
    4ORBIT:  cpu time    0.0000: real time    0.0000

 total amount of memory used by VASP on root node   650782. kBytes
========================================================================

   base      :      30000. kBytes
   nonl-proj :     559647. kBytes
   fftplans  :       2414. kBytes
   grid      :      12150. kBytes
   one-center:        419. kBytes
   wavefun   :      46152. kBytes
 
  
  
 General timing and accounting informations for this job:
 ========================================================
  
                  Total CPU time used (sec):     6420.199
                            User time (sec):     6389.458
                          System time (sec):       30.741
                         Elapsed time (sec):     6438.022
  
                   Maximum memory used (kb):      737780.
                   Average memory used (kb):           0.
  
                          Minor page faults:       414830
                          Major page faults:            6
                 Voluntary context switches:         5446
