<?xml version="1.0" encoding="ISO-8859-1"?>
<modeling>
 <generator>
  <i name="program" type="string">vasp </i>
  <i name="version" type="string">5.4.1  </i>
  <i name="subversion" type="string">05Feb16 (build Jul 05 2020 17:13:04) complex                          parallel </i>
  <i name="platform" type="string">IFC91_ompi </i>
  <i name="date" type="string">2024 04 29 </i>
  <i name="time" type="string">18:00:53 </i>
 </generator>
 <incar>
  <i type="int" name="ISTART">     0</i>
  <i type="string" name="PREC">normal</i>
  <i type="string" name="ALGO"> Normal</i>
  <i type="int" name="ISPIN">     1</i>
  <i type="int" name="ICHARG">     2</i>
  <i type="int" name="IBRION">     1</i>
  <i type="int" name="NSW">   100</i>
  <i type="int" name="ISIF">     3</i>
  <i type="int" name="ISYM">     0</i>
  <i name="SYMPREC">      0.00000001</i>
  <i name="POTIM">      0.50000000</i>
  <i type="logical" name="LREAL"> F  </i>
  <i type="logical" name="LPLANE"> F  </i>
  <i type="int" name="ISMEAR">     0</i>
  <i type="logical" name="LWAVE"> F  </i>
  <i type="logical" name="LCHARG"> F  </i>
  <v type="int" name="KPOINT_BSE">    -1     0     0     0</v>
 </incar>
 <kpoints>
  <generation param="Gamma">
   <v type="int" name="divisions">       8        8        1 </v>
   <v name="usershift">      0.00000000       0.00000000       0.00000000 </v>
   <v name="genvec1">      0.12500000       0.00000000       0.00000000 </v>
   <v name="genvec2">     -0.00000000       0.12500000       0.00000000 </v>
   <v name="genvec3">      0.00000000       0.00000000       1.00000000 </v>
   <v name="shift">      0.00000000       0.00000000       0.00000000 </v>
  </generation>
  <varray name="kpointlist" >
   <v>       0.00000000       0.00000000       0.00000000 </v>
   <v>       0.12500000       0.00000000       0.00000000 </v>
   <v>       0.25000000       0.00000000       0.00000000 </v>
   <v>       0.37500000       0.00000000       0.00000000 </v>
   <v>       0.50000000       0.00000000       0.00000000 </v>
   <v>       0.00000000       0.12500000       0.00000000 </v>
   <v>       0.12500000       0.12500000       0.00000000 </v>
   <v>       0.25000000       0.12500000       0.00000000 </v>
   <v>       0.37500000       0.12500000       0.00000000 </v>
   <v>       0.50000000       0.12500000       0.00000000 </v>
   <v>      -0.37500000       0.12500000       0.00000000 </v>
   <v>      -0.25000000       0.12500000       0.00000000 </v>
   <v>      -0.12500000       0.12500000       0.00000000 </v>
   <v>       0.00000000       0.25000000       0.00000000 </v>
   <v>       0.12500000       0.25000000       0.00000000 </v>
   <v>       0.25000000       0.25000000       0.00000000 </v>
   <v>       0.37500000       0.25000000       0.00000000 </v>
   <v>       0.50000000       0.25000000       0.00000000 </v>
   <v>      -0.37500000       0.25000000       0.00000000 </v>
   <v>      -0.25000000       0.25000000       0.00000000 </v>
   <v>      -0.12500000       0.25000000       0.00000000 </v>
   <v>      -0.00000000       0.37500000       0.00000000 </v>
   <v>       0.12500000       0.37500000       0.00000000 </v>
   <v>       0.25000000       0.37500000       0.00000000 </v>
   <v>       0.37500000       0.37500000       0.00000000 </v>
   <v>       0.50000000       0.37500000       0.00000000 </v>
   <v>      -0.37500000       0.37500000       0.00000000 </v>
   <v>      -0.25000000       0.37500000       0.00000000 </v>
   <v>      -0.12500000       0.37500000       0.00000000 </v>
   <v>       0.00000000       0.50000000       0.00000000 </v>
   <v>       0.12500000       0.50000000       0.00000000 </v>
   <v>       0.25000000       0.50000000       0.00000000 </v>
   <v>       0.37500000       0.50000000       0.00000000 </v>
   <v>       0.50000000       0.50000000       0.00000000 </v>
  </varray>
  <varray name="weights" >
   <v>       0.01562500 </v>
   <v>       0.03125000 </v>
   <v>       0.03125000 </v>
   <v>       0.03125000 </v>
   <v>       0.01562500 </v>
   <v>       0.03125000 </v>
   <v>       0.03125000 </v>
   <v>       0.03125000 </v>
   <v>       0.03125000 </v>
   <v>       0.03125000 </v>
   <v>       0.03125000 </v>
   <v>       0.03125000 </v>
   <v>       0.03125000 </v>
   <v>       0.03125000 </v>
   <v>       0.03125000 </v>
   <v>       0.03125000 </v>
   <v>       0.03125000 </v>
   <v>       0.03125000 </v>
   <v>       0.03125000 </v>
   <v>       0.03125000 </v>
   <v>       0.03125000 </v>
   <v>       0.03125000 </v>
   <v>       0.03125000 </v>
   <v>       0.03125000 </v>
   <v>       0.03125000 </v>
   <v>       0.03125000 </v>
   <v>       0.03125000 </v>
   <v>       0.03125000 </v>
   <v>       0.03125000 </v>
   <v>       0.01562500 </v>
   <v>       0.03125000 </v>
   <v>       0.03125000 </v>
   <v>       0.03125000 </v>
   <v>       0.01562500 </v>
  </varray>
 </kpoints>
 <parameters>
  <separator name="general" >
   <i type="string" name="SYSTEM">unknown system</i>
   <i type="logical" name="LCOMPAT"> F  </i>
  </separator>
  <separator name="electronic" >
   <i type="string" name="PREC">normal</i>
   <i name="ENMAX">    280.00000000</i>
   <i name="ENAUG">    373.43800000</i>
   <i name="EDIFF">      0.00010000</i>
   <i type="int" name="IALGO">    38</i>
   <i type="int" name="IWAVPR">    11</i>
   <i type="int" name="NBANDS">   120</i>
   <i name="NELECT">    159.00000000</i>
   <i type="int" name="TURBO">     0</i>
   <i type="int" name="IRESTART">     0</i>
   <i type="int" name="NREBOOT">     0</i>
   <i type="int" name="NMIN">     0</i>
   <i name="EREF">      0.00000000</i>
   <separator name="electronic smearing" >
    <i type="int" name="ISMEAR">     0</i>
    <i name="SIGMA">      0.20000000</i>
    <i name="KSPACING">      0.50000000</i>
    <i type="logical" name="KGAMMA"> T  </i>
   </separator>
   <separator name="electronic projectors" >
    <i type="logical" name="LREAL"> F  </i>
    <v name="ROPT">      0.00000000      0.00000000      0.00000000      0.00000000</v>
    <i type="int" name="LMAXPAW">  -100</i>
    <i type="int" name="LMAXMIX">     2</i>
    <i type="logical" name="NLSPLINE"> F  </i>
   </separator>
   <separator name="electronic startup" >
    <i type="int" name="ISTART">     0</i>
    <i type="int" name="ICHARG">     2</i>
    <i type="int" name="INIWAV">     1</i>
   </separator>
   <separator name="electronic spin" >
    <i type="int" name="ISPIN">     1</i>
    <i type="logical" name="LNONCOLLINEAR"> F  </i>
    <v name="MAGMOM">      1.00000000      1.00000000      1.00000000      1.00000000      1.00000000      1.00000000      1.00000000      1.00000000      1.00000000      1.00000000      1.00000000      1.00000000      1.00000000      1.00000000      1.00000000      1.00000000      1.00000000      1.00000000      1.00000000      1.00000000
      1.00000000      1.00000000      1.00000000      1.00000000      1.00000000      1.00000000      1.00000000</v>
    <i name="NUPDOWN">     -1.00000000</i>
    <i type="logical" name="LSORBIT"> F  </i>
    <v name="SAXIS">      0.00000000      0.00000000      1.00000000</v>
    <i type="logical" name="LSPIRAL"> F  </i>
    <v name="QSPIRAL">      0.00000000      0.00000000      0.00000000</v>
    <i type="logical" name="LZEROZ"> F  </i>
   </separator>
   <separator name="electronic exchange-correlation" >
    <i type="logical" name="LASPH"> F  </i>
    <i type="logical" name="LMETAGGA"> F  </i>
   </separator>
   <separator name="electronic convergence" >
    <i type="int" name="NELM">    60</i>
    <i type="int" name="NELMDL">    -5</i>
    <i type="int" name="NELMIN">     2</i>
    <i name="ENINI">    280.00000000</i>
    <separator name="electronic convergence detail" >
     <i type="logical" name="LDIAG"> T  </i>
     <i type="logical" name="LSUBROT"> F  </i>
     <i name="WEIMIN">      0.00100000</i>
     <i name="EBREAK">      0.00000021</i>
     <i name="DEPER">      0.30000000</i>
     <i type="int" name="NRMM">     4</i>
     <i name="TIME">      0.40000000</i>
    </separator>
   </separator>
   <separator name="electronic mixer" >
    <i name="AMIX">      0.40000000</i>
    <i name="BMIX">      1.00000000</i>
    <i name="AMIN">      0.10000000</i>
    <i name="AMIX_MAG">      1.60000000</i>
    <i name="BMIX_MAG">      1.00000000</i>
    <separator name="electronic mixer details" >
     <i type="int" name="IMIX">     4</i>
     <i type="logical" name="MIXFIRST"> F  </i>
     <i type="int" name="MAXMIX">   -45</i>
     <i name="WC">    100.00000000</i>
     <i type="int" name="INIMIX">     1</i>
     <i type="int" name="MIXPRE">     1</i>
     <i type="int" name="MREMOVE">     5</i>
    </separator>
   </separator>
   <separator name="electronic dipolcorrection" >
    <i type="logical" name="LDIPOL"> F  </i>
    <i type="logical" name="LMONO"> F  </i>
    <i type="int" name="IDIPOL">     0</i>
    <i name="EPSILON">      1.00000000</i>
    <v name="DIPOL">   -100.00000000   -100.00000000   -100.00000000</v>
    <i name="EFIELD">      0.00000000</i>
   </separator>
  </separator>
  <separator name="grids" >
   <i type="int" name="NGX">    42</i>
   <i type="int" name="NGY">    42</i>
   <i type="int" name="NGZ">   126</i>
   <i type="int" name="NGXF">    84</i>
   <i type="int" name="NGYF">    84</i>
   <i type="int" name="NGZF">   252</i>
   <i type="logical" name="ADDGRID"> F  </i>
  </separator>
  <separator name="ionic" >
   <i type="int" name="NSW">   100</i>
   <i type="int" name="IBRION">     1</i>
   <i type="int" name="ISIF">     3</i>
   <i name="PSTRESS">      0.00000000</i>
   <i name="EDIFFG">      0.00100000</i>
   <i type="int" name="NFREE">     0</i>
   <i name="POTIM">      0.50000000</i>
   <i name="SMASS">     -3.00000000</i>
   <i name="SCALEE">      1.00000000</i>
  </separator>
  <separator name="ionic md" >
   <i name="TEBEG">      0.00010000</i>
   <i name="TEEND">      0.00010000</i>
   <i type="int" name="NBLOCK">     1</i>
   <i type="int" name="KBLOCK">   100</i>
   <i type="int" name="NPACO">   256</i>
   <i name="APACO">     16.00000000</i>
  </separator>
  <separator name="symmetry" >
   <i type="int" name="ISYM">     0</i>
   <i name="SYMPREC">      0.00000001</i>
  </separator>
  <separator name="dos" >
   <i type="logical" name="LORBIT"> F  </i>
   <v name="RWIGS">     -1.00000000     -1.00000000     -1.00000000     -1.00000000</v>
   <i type="int" name="NEDOS">   301</i>
   <i name="EMIN">     10.00000000</i>
   <i name="EMAX">    -10.00000000</i>
   <i name="EFERMI">      0.00000000</i>
  </separator>
  <separator name="writing" >
   <i type="int" name="NWRITE">     2</i>
   <i type="logical" name="LWAVE"> F  </i>
   <i type="logical" name="LCHARG"> F  </i>
   <i type="logical" name="LPARD"> F  </i>
   <i type="logical" name="LVTOT"> F  </i>
   <i type="logical" name="LVHAR"> F  </i>
   <i type="logical" name="LELF"> F  </i>
   <i type="logical" name="LOPTICS"> F  </i>
   <v name="STM">      0.00000000      0.00000000      0.00000000      0.00000000      0.00000000      0.00000000      0.00000000</v>
  </separator>
  <separator name="performance" >
   <i type="int" name="NPAR">    40</i>
   <i type="int" name="NSIM">     4</i>
   <i type="int" name="NBLK">    -1</i>
   <i type="logical" name="LPLANE"> F  </i>
   <i type="logical" name="LSCALAPACK"> T  </i>
   <i type="logical" name="LSCAAWARE"> F  </i>
   <i type="logical" name="LSCALU"> F  </i>
   <i type="logical" name="LASYNC"> F  </i>
   <i type="logical" name="LORBITALREAL"> F  </i>
  </separator>
  <separator name="miscellaneous" >
   <i type="int" name="IDIOT">     3</i>
   <i type="logical" name="LMUSIC"> F  </i>
   <v name="POMASS">     50.94100000     95.94000000    183.85000000     32.06600000</v>
   <v name="DARWINR">      0.00000000      0.00000000      0.00000000      0.00000000</v>
   <v name="DARWINV">      1.00000000      1.00000000      1.00000000      1.00000000</v>
   <i type="logical" name="LCORR"> T  </i>
  </separator>
  <i type="logical" name="GGA_COMPAT"> T  </i>
  <i type="logical" name="LBERRY"> F  </i>
  <i type="int" name="ICORELEVEL">     0</i>
  <i type="logical" name="LDAU"> F  </i>
  <i type="int" name="I_CONSTRAINED_M">     0</i>
  <separator name="electronic exchange-correlation" >
   <i type="string" name="GGA">--</i>
   <i type="int" name="VOSKOWN">     0</i>
   <i type="logical" name="LHFCALC"> F  </i>
   <i type="string" name="PRECFOCK"></i>
   <i type="logical" name="LSYMGRAD"> F  </i>
   <i type="logical" name="LHFONE"> F  </i>
   <i type="logical" name="LRHFCALC"> F  </i>
   <i type="logical" name="LTHOMAS"> F  </i>
   <i type="logical" name="LMODELHF"> F  </i>
   <i name="ENCUT4O">     -1.00000000</i>
   <i type="int" name="EXXOEP">     0</i>
   <i type="int" name="FOURORBIT">     0</i>
   <i name="AEXX">      0.00000000</i>
   <i name="HFALPHA">      0.00000000</i>
   <i name="MCALPHA">      0.00000000</i>
   <i name="ALDAX">      1.00000000</i>
   <i name="AGGAX">      1.00000000</i>
   <i name="ALDAC">      1.00000000</i>
   <i name="AGGAC">      1.00000000</i>
   <i type="int" name="NKREDX">     1</i>
   <i type="int" name="NKREDY">     1</i>
   <i type="int" name="NKREDZ">     1</i>
   <i type="logical" name="SHIFTRED"> F  </i>
   <i type="logical" name="ODDONLY"> F  </i>
   <i type="logical" name="EVENONLY"> F  </i>
   <i type="int" name="LMAXFOCK">     0</i>
   <i type="int" name="NMAXFOCKAE">     0</i>
   <i type="logical" name="LFOCKAEDFT"> F  </i>
   <i name="HFSCREEN">      0.00000000</i>
   <i name="HFSCREENC">      0.00000000</i>
   <i type="int" name="NBANDSGWLOW">     0</i>
  </separator>
  <separator name="vdW DFT" >
   <i type="logical" name="LUSE_VDW"> F  </i>
   <i name="Zab_VDW">     -0.84910000</i>
   <i name="PARAM1">      0.12340000</i>
   <i name="PARAM2">      1.00000000</i>
   <i name="PARAM3">      0.00000000</i>
  </separator>
  <separator name="model GW" >
   <i type="int" name="MODEL_GW">     0</i>
   <i name="MODEL_EPS0">     58.26239943</i>
   <i name="MODEL_ALPHA">      1.00000000</i>
  </separator>
  <separator name="linear response parameters" >
   <i type="logical" name="LEPSILON"> F  </i>
   <i type="logical" name="LRPA"> F  </i>
   <i type="logical" name="LNABLA"> F  </i>
   <i type="logical" name="LVEL"> F  </i>
   <i type="int" name="KINTER">     0</i>
   <i name="CSHIFT">      0.10000000</i>
   <i name="OMEGAMAX">     -1.00000000</i>
   <i name="DEG_THRESHOLD">      0.00200000</i>
  </separator>
  <separator name="orbital magnetization" >
   <i type="logical" name="NUCIND"> F  </i>
   <v name="MAGPOS">      0.00000000      0.00000000      0.00000000</v>
   <i type="logical" name="LNICSALL"> T  </i>
   <i type="logical" name="ORBITALMAG"> F  </i>
   <i type="logical" name="LMAGBLOCH"> F  </i>
   <i type="logical" name="LCHIMAG"> F  </i>
   <i type="logical" name="LGAUGE"> T  </i>
   <i type="int" name="MAGATOM">     0</i>
   <v name="MAGDIPOL">      0.00000000      0.00000000      0.00000000</v>
   <v name="AVECCONST">      0.00000000      0.00000000      0.00000000</v>
  </separator>
  <separator name="response functions" >
   <i type="logical" name="LADDER"> F  </i>
   <i type="logical" name="LFXC"> F  </i>
   <i type="logical" name="LHARTREE"> T  </i>
   <i type="int" name="IBSE">     0</i>
   <v type="int" name="KPOINT">    -1     0     0     0</v>
   <i type="logical" name="LTCTE"> F  </i>
   <i type="logical" name="LTETE"> F  </i>
   <i type="logical" name="LTRIPLET"> F  </i>
   <i type="logical" name="LFXCEPS"> F  </i>
   <i type="logical" name="LFXHEG"> F  </i>
   <i type="int" name="NATURALO">     0</i>
   <i type="logical" name="L2ORDER"> F  </i>
   <i type="logical" name="LUSEW"> F  </i>
   <i name="ENCUTGW">     -2.00000000</i>
   <i name="ENCUTGWSOFT">     -2.00000000</i>
   <i name="ENCUTLF">     -1.00000000</i>
   <i type="int" name="LMAXMP2">    -1</i>
   <i name="SCISSOR">      0.00000000</i>
   <i type="int" name="NOMEGA">     0</i>
   <i type="int" name="NOMEGAR">     0</i>
   <i type="int" name="NBANDSGW">    -1</i>
   <i type="int" name="NBANDSO">    -1</i>
   <i type="int" name="NBANDSV">    -1</i>
   <i type="int" name="NELM">     1</i>
   <i type="int" name="NELMHF">     1</i>
   <i type="int" name="DIM">     3</i>
   <i type="int" name="ANTIRES">     0</i>
   <i name="OMEGAMAX">    -30.00000000</i>
   <i name="OMEGAMIN">    -30.00000000</i>
   <i name="OMEGATL">   -200.00000000</i>
   <i type="int" name="OMEGAGRID">     0</i>
   <i name="CSHIFT">     -0.10000000</i>
   <i type="logical" name="SELFENERGY"> F  </i>
   <i type="logical" name="LSPECTRAL"> F  </i>
   <i type="logical" name="LSPECTRALGW"> F  </i>
   <i type="logical" name="LSINGLES"> F  </i>
   <i type="logical" name="LFERMIGW"> F  </i>
   <i type="logical" name="ODDONLYGW"> F  </i>
   <i type="logical" name="EVENONLYGW"> F  </i>
   <i type="int" name="NKREDLFX">     1</i>
   <i type="int" name="NKREDLFY">     1</i>
   <i type="int" name="NKREDLFZ">     1</i>
   <i type="int" name="MAXMEM">  1800</i>
   <i type="int" name="TELESCOPE">     0</i>
   <i type="int" name="TAUPAR">     1</i>
   <i type="int" name="OMEGAPAR">    -1</i>
   <i name="LAMBDA">      1.00000000</i>
  </separator>
  <separator name="External order field" >
   <i name="OFIELD_KAPPA">      0.00000000</i>
   <v name="OFIELD_K">      0.00000000      0.00000000      0.00000000</v>
   <i name="OFIELD_Q6_NEAR">      0.00000000</i>
   <i name="OFIELD_Q6_FAR">      0.00000000</i>
   <i name="OFIELD_A">      0.00000000</i>
  </separator>
 </parameters>
 <atominfo>
  <atoms>      27 </atoms>
  <types>       4 </types>
  <array name="atoms" >
   <dimension dim="1">ion</dimension>
   <field type="string">element</field>
   <field type="int">atomtype</field>
   <set>
    <rc><c>V </c><c>   1</c></rc>
    <rc><c>V </c><c>   1</c></rc>
    <rc><c>V </c><c>   1</c></rc>
    <rc><c>Mo</c><c>   2</c></rc>
    <rc><c>Mo</c><c>   2</c></rc>
    <rc><c>Mo</c><c>   2</c></rc>
    <rc><c>W </c><c>   3</c></rc>
    <rc><c>W </c><c>   3</c></rc>
    <rc><c>W </c><c>   3</c></rc>
    <rc><c>S </c><c>   4</c></rc>
    <rc><c>S </c><c>   4</c></rc>
    <rc><c>S </c><c>   4</c></rc>
    <rc><c>S </c><c>   4</c></rc>
    <rc><c>S </c><c>   4</c></rc>
    <rc><c>S </c><c>   4</c></rc>
    <rc><c>S </c><c>   4</c></rc>
    <rc><c>S </c><c>   4</c></rc>
    <rc><c>S </c><c>   4</c></rc>
    <rc><c>S </c><c>   4</c></rc>
    <rc><c>S </c><c>   4</c></rc>
    <rc><c>S </c><c>   4</c></rc>
    <rc><c>S </c><c>   4</c></rc>
    <rc><c>S </c><c>   4</c></rc>
    <rc><c>S </c><c>   4</c></rc>
    <rc><c>S </c><c>   4</c></rc>
    <rc><c>S </c><c>   4</c></rc>
    <rc><c>S </c><c>   4</c></rc>
   </set>
  </array>
  <array name="atomtypes" >
   <dimension dim="1">type</dimension>
   <field type="int">atomspertype</field>
   <field type="string">element</field>
   <field>mass</field>
   <field>valence</field>
   <field type="string">pseudopotential</field>
   <set>
    <rc><c>   3</c><c>V </c><c>     50.94100000</c><c>      5.00000000</c><c> PAW_PBE V 08Apr2002                    </c></rc>
    <rc><c>   3</c><c>Mo</c><c>     95.94000000</c><c>      6.00000000</c><c> PAW_PBE Mo 08Apr2002                   </c></rc>
    <rc><c>   3</c><c>W </c><c>    183.85000000</c><c>      6.00000000</c><c> PAW_PBE W 08Apr2002                    </c></rc>
    <rc><c>  18</c><c>S </c><c>     32.06600000</c><c>      6.00000000</c><c>  PAW_PBE S 17Jan2003                   </c></rc>
   </set>
  </array>
 </atominfo>
 <structure name="initialpos" >
  <crystal>
   <varray name="basis" >
    <v>       8.66999996       5.03999989       0.00000000 </v>
    <v>      -8.66999982       5.04000013       0.00000000 </v>
    <v>       0.00000000       0.00000000      30.00000000 </v>
   </varray>
   <i name="volume">   2621.80797419 </i>
   <varray name="rec_basis" >
    <v>       0.05767013       0.09920635       0.00000000 </v>
    <v>      -0.05767013       0.09920635       0.00000000 </v>
    <v>       0.00000000       0.00000000       0.03333333 </v>
   </varray>
  </crystal>
  <varray name="positions" >
   <v>       0.66666669       0.00000000       0.00000000 </v>
   <v>       0.66666669       0.33333334       0.00000000 </v>
   <v>       0.33333334       0.00000000       0.00000000 </v>
   <v>       1.00000000       0.33333334       0.00000000 </v>
   <v>       0.00000000       0.00000000       0.00000000 </v>
   <v>       0.00000000       0.66666669       0.00000000 </v>
   <v>       0.33333334       0.33333334       0.00000000 </v>
   <v>       0.33333334       0.66666669       0.00000000 </v>
   <v>       0.66666669       0.66666669       0.00000000 </v>
   <v>       0.11068511       0.22244981       0.95539999 </v>
   <v>       0.22244981       0.11068511       0.04460000 </v>
   <v>       0.11068511       0.55578315       0.95539999 </v>
   <v>       0.22244981       0.44401845       0.04460000 </v>
   <v>       0.11068511       0.88911647       0.95539999 </v>
   <v>       0.22244981       0.77735180       0.04460000 </v>
   <v>       0.44401845       0.22244981       0.95539999 </v>
   <v>       0.55578315       0.11068511       0.04460000 </v>
   <v>       0.44401845       0.55578315       0.95539999 </v>
   <v>       0.55578315       0.44401845       0.04460000 </v>
   <v>       0.44401845       0.88911647       0.95539999 </v>
   <v>       0.55578315       0.77735180       0.04460000 </v>
   <v>       0.77735180       0.22244981       0.95539999 </v>
   <v>       0.88911647       0.11068511       0.04460000 </v>
   <v>       0.77735180       0.55578315       0.95539999 </v>
   <v>       0.88911647       0.44401845       0.04460000 </v>
   <v>       0.77735180       0.88911647       0.95539999 </v>
   <v>       0.88911647       0.77735180       0.04460000 </v>
  </varray>
 </structure>
 <calculation>
  <scstep>
   <time name="dav">   22.05   22.11</time>
   <time name="total">   22.09   22.15</time>
   <energy>
    <i name="alphaZ">     81.65567618 </i>
    <i name="ewald">  41891.17178071 </i>
    <i name="hartreedc"> -47723.81767867 </i>
    <i name="XCdc">   -242.92468722 </i>
    <i name="pawpsdc">   3467.42045192 </i>
    <i name="pawaedc">  -2871.19716117 </i>
    <i name="eentropy">     -0.53460568 </i>
    <i name="bandstr">   -238.80813134 </i>
    <i name="atom">   6761.44252427 </i>
    <i name="e_fr_energy">   1124.40816899 </i>
    <i name="e_wo_entrp">   1124.94277467 </i>
    <i name="e_0_energy">   1124.67547183 </i>
   </energy>
  </scstep>
  <scstep>
   <time name="dav">   28.26   28.33</time>
   <time name="total">   28.26   28.34</time>
   <energy>
    <i name="e_fr_energy">     -0.01610523 </i>
    <i name="e_wo_entrp">      0.18702549 </i>
    <i name="e_0_energy">      0.08546013 </i>
   </energy>
  </scstep>
  <scstep>
   <time name="dav">   27.95   28.02</time>
   <time name="total">   27.95   28.02</time>
   <energy>
    <i name="e_fr_energy">   -199.72067269 </i>
    <i name="e_wo_entrp">   -199.46229791 </i>
    <i name="e_0_energy">   -199.59148530 </i>
   </energy>
  </scstep>
  <scstep>
   <time name="dav">   30.65   30.73</time>
   <time name="total">   30.66   30.74</time>
   <energy>
    <i name="e_fr_energy">   -209.00857791 </i>
    <i name="e_wo_entrp">   -208.71771710 </i>
    <i name="e_0_energy">   -208.86314750 </i>
   </energy>
  </scstep>
  <scstep>
   <time name="dav">   28.46   28.52</time>
   <time name="total">   28.92   29.00</time>
   <energy>
    <i name="e_fr_energy">   -209.30403177 </i>
    <i name="e_wo_entrp">   -209.01583648 </i>
    <i name="e_0_energy">   -209.15993413 </i>
   </energy>
  </scstep>
  <scstep>
   <time name="dav">   31.33   31.40</time>
   <time name="total">   31.83   31.91</time>
   <energy>
    <i name="e_fr_energy">   -237.86963546 </i>
    <i name="e_wo_entrp">   -237.61728532 </i>
    <i name="e_0_energy">   -237.74346039 </i>
   </energy>
  </scstep>
  <scstep>
   <time name="dav">   32.94   33.02</time>
   <time name="total">   33.44   33.53</time>
   <energy>
    <i name="e_fr_energy">   -196.56985257 </i>
    <i name="e_wo_entrp">   -196.21388277 </i>
    <i name="e_0_energy">   -196.39186767 </i>
   </energy>
  </scstep>
  <scstep>
   <time name="dav">   30.20   30.27</time>
   <time name="total">   30.71   30.79</time>
   <energy>
    <i name="e_fr_energy">   -189.47085235 </i>
    <i name="e_wo_entrp">   -189.15940623 </i>
    <i name="e_0_energy">   -189.31512929 </i>
   </energy>
  </scstep>
  <scstep>
   <time name="dav">   33.48   33.56</time>
   <time name="total">   33.99   34.08</time>
   <energy>
    <i name="e_fr_energy">   -188.12697270 </i>
    <i name="e_wo_entrp">   -187.80561620 </i>
    <i name="e_0_energy">   -187.96629445 </i>
   </energy>
  </scstep>
  <scstep>
   <time name="dav">   33.19   33.27</time>
   <time name="total">   33.72   33.81</time>
   <energy>
    <i name="e_fr_energy">   -186.93604208 </i>
    <i name="e_wo_entrp">   -186.58496263 </i>
    <i name="e_0_energy">   -186.76050235 </i>
   </energy>
  </scstep>
  <scstep>
   <time name="dav">   33.61   33.69</time>
   <time name="total">   34.14   34.24</time>
   <energy>
    <i name="e_fr_energy">   -187.02473964 </i>
    <i name="e_wo_entrp">   -186.68658944 </i>
    <i name="e_0_energy">   -186.85566454 </i>
   </energy>
  </scstep>
  <scstep>
   <time name="dav">   31.71   31.78</time>
   <time name="total">   32.24   32.33</time>
   <energy>
    <i name="e_fr_energy">   -186.94811341 </i>
    <i name="e_wo_entrp">   -186.61582360 </i>
    <i name="e_0_energy">   -186.78196851 </i>
   </energy>
  </scstep>
  <scstep>
   <time name="dav">   32.75   32.83</time>
   <time name="total">   33.29   33.38</time>
   <energy>
    <i name="e_fr_energy">   -186.86552700 </i>
    <i name="e_wo_entrp">   -186.53003923 </i>
    <i name="e_0_energy">   -186.69778312 </i>
   </energy>
  </scstep>
  <scstep>
   <time name="dav">   32.27   32.35</time>
   <time name="total">   32.81   32.90</time>
   <energy>
    <i name="e_fr_energy">   -186.82714223 </i>
    <i name="e_wo_entrp">   -186.48374321 </i>
    <i name="e_0_energy">   -186.65544272 </i>
   </energy>
  </scstep>
  <scstep>
   <time name="dav">   29.62   29.70</time>
   <time name="total">   30.16   30.24</time>
   <energy>
    <i name="e_fr_energy">   -186.82345513 </i>
    <i name="e_wo_entrp">   -186.48115350 </i>
    <i name="e_0_energy">   -186.65230432 </i>
   </energy>
  </scstep>
  <scstep>
   <time name="dav">   32.27   32.35</time>
   <time name="total">   32.81   32.90</time>
   <energy>
    <i name="e_fr_energy">   -186.82518133 </i>
    <i name="e_wo_entrp">   -186.48377101 </i>
    <i name="e_0_energy">   -186.65447617 </i>
   </energy>
  </scstep>
  <scstep>
   <time name="dav">   32.04   32.12</time>
   <time name="total">   32.58   32.67</time>
   <energy>
    <i name="e_fr_energy">   -186.82146993 </i>
    <i name="e_wo_entrp">   -186.48054243 </i>
    <i name="e_0_energy">   -186.65100618 </i>
   </energy>
  </scstep>
  <scstep>
   <time name="dav">   30.15   30.22</time>
   <time name="total">   30.69   30.77</time>
   <energy>
    <i name="e_fr_energy">   -186.82109380 </i>
    <i name="e_wo_entrp">   -186.47950162 </i>
    <i name="e_0_energy">   -186.65029771 </i>
   </energy>
  </scstep>
  <scstep>
   <time name="dav">   27.71   27.78</time>
   <time name="total">   28.25   28.33</time>
   <energy>
    <i name="e_fr_energy">   -186.82166083 </i>
    <i name="e_wo_entrp">   -186.48048706 </i>
    <i name="e_0_energy">   -186.65107394 </i>
   </energy>
  </scstep>
  <scstep>
   <time name="dav">   22.47   22.53</time>
   <time name="total">   23.01   23.07</time>
   <energy>
    <i name="e_fr_energy">   -186.82196347 </i>
    <i name="e_wo_entrp">   -186.48088518 </i>
    <i name="e_0_energy">   -186.65142433 </i>
   </energy>
  </scstep>
  <scstep>
   <time name="dav">   22.93   22.99</time>
   <time name="total">   23.47   23.53</time>
   <energy>
    <i name="e_fr_energy">   -186.82316693 </i>
    <i name="e_wo_entrp">   -186.48197831 </i>
    <i name="e_0_energy">   -186.65257262 </i>
   </energy>
  </scstep>
  <scstep>
   <time name="dav">   19.07   19.11</time>
   <time name="total">   19.61   19.66</time>
   <energy>
    <i name="e_fr_energy">   -186.82394758 </i>
    <i name="e_wo_entrp">   -186.48277070 </i>
    <i name="e_0_energy">   -186.65335914 </i>
   </energy>
  </scstep>
  <scstep>
   <time name="dav">   20.68   20.73</time>
   <time name="total">   21.22   21.28</time>
   <energy>
    <i name="e_fr_energy">   -186.82477675 </i>
    <i name="e_wo_entrp">   -186.48365531 </i>
    <i name="e_0_energy">   -186.65421603 </i>
   </energy>
  </scstep>
  <scstep>
   <time name="dav">   18.22   18.27</time>
   <time name="total">   18.76   18.81</time>
   <energy>
    <i name="e_fr_energy">   -186.82539288 </i>
    <i name="e_wo_entrp">   -186.48424043 </i>
    <i name="e_0_energy">   -186.65481665 </i>
   </energy>
  </scstep>
  <scstep>
   <time name="dav">   17.73   17.78</time>
   <time name="total">   18.27   18.32</time>
   <energy>
    <i name="e_fr_energy">   -186.82583936 </i>
    <i name="e_wo_entrp">   -186.48467415 </i>
    <i name="e_0_energy">   -186.65525675 </i>
   </energy>
  </scstep>
  <scstep>
   <time name="dav">   19.67   19.71</time>
   <time name="total">   20.20   20.26</time>
   <energy>
    <i name="e_fr_energy">   -186.82601255 </i>
    <i name="e_wo_entrp">   -186.48485257 </i>
    <i name="e_0_energy">   -186.65543256 </i>
   </energy>
  </scstep>
  <scstep>
   <time name="dav">   19.01   19.06</time>
   <time name="total">   19.55   19.61</time>
   <energy>
    <i name="e_fr_energy">   -186.82611683 </i>
    <i name="e_wo_entrp">   -186.48496057 </i>
    <i name="e_0_energy">   -186.65553870 </i>
   </energy>
  </scstep>
  <scstep>
   <time name="dav">   20.13   20.18</time>
   <time name="total">   20.17   20.22</time>
   <energy>
    <i name="alphaZ">     81.65567618 </i>
    <i name="ewald">  41891.17178071 </i>
    <i name="hartreedc"> -47833.71168798 </i>
    <i name="XCdc">   -231.60908462 </i>
    <i name="pawpsdc">   4192.06918583 </i>
    <i name="pawaedc">  -3610.06535625 </i>
    <i name="eentropy">     -0.34115737 </i>
    <i name="bandstr">  -1437.43804888 </i>
    <i name="atom">   6761.44252427 </i>
    <i name="e_fr_energy">   -186.82616812 </i>
    <i name="e_wo_entrp">   -186.48501075 </i>
    <i name="e_0_energy">   -186.65558944 </i>
   </energy>
  </scstep>
  <structure>
   <crystal>
    <varray name="basis" >
     <v>       8.66999996       5.03999989       0.00000000 </v>
     <v>      -8.66999982       5.04000013       0.00000000 </v>
     <v>       0.00000000       0.00000000      30.00000000 </v>
    </varray>
    <i name="volume">   2621.80797419 </i>
    <varray name="rec_basis" >
     <v>       0.05767013       0.09920635       0.00000000 </v>
     <v>      -0.05767013       0.09920635       0.00000000 </v>
     <v>       0.00000000       0.00000000       0.03333333 </v>
    </varray>
   </crystal>
   <varray name="positions" >
    <v>       0.66666669       0.00000000       0.00000000 </v>
    <v>       0.66666669       0.33333334       0.00000000 </v>
    <v>       0.33333334       0.00000000       0.00000000 </v>
    <v>       1.00000000       0.33333334       0.00000000 </v>
    <v>       0.00000000       0.00000000       0.00000000 </v>
    <v>       0.00000000       0.66666669       0.00000000 </v>
    <v>       0.33333334       0.33333334       0.00000000 </v>
    <v>       0.33333334       0.66666669       0.00000000 </v>
    <v>       0.66666669       0.66666669       0.00000000 </v>
    <v>       0.11068511       0.22244981       0.95539999 </v>
    <v>       0.22244981       0.11068511       0.04460000 </v>
    <v>       0.11068511       0.55578315       0.95539999 </v>
    <v>       0.22244981       0.44401845       0.04460000 </v>
    <v>       0.11068511       0.88911647       0.95539999 </v>
    <v>       0.22244981       0.77735180       0.04460000 </v>
    <v>       0.44401845       0.22244981       0.95539999 </v>
    <v>       0.55578315       0.11068511       0.04460000 </v>
    <v>       0.44401845       0.55578315       0.95539999 </v>
    <v>       0.55578315       0.44401845       0.04460000 </v>
    <v>       0.44401845       0.88911647       0.95539999 </v>
    <v>       0.55578315       0.77735180       0.04460000 </v>
    <v>       0.77735180       0.22244981       0.95539999 </v>
    <v>       0.88911647       0.11068511       0.04460000 </v>
    <v>       0.77735180       0.55578315       0.95539999 </v>
    <v>       0.88911647       0.44401845       0.04460000 </v>
    <v>       0.77735180       0.88911647       0.95539999 </v>
    <v>       0.88911647       0.77735180       0.04460000 </v>
   </varray>
  </structure>
  <varray name="forces" >
   <v>       0.01992201       0.35210843       0.04449475 </v>
   <v>       0.30599776       0.20095450       0.03383987 </v>
   <v>      -0.11899860      -0.20276249       0.00904415 </v>
   <v>      -0.01645474      -0.01189720       0.13090894 </v>
   <v>       0.00440840      -0.01437436      -0.11691235 </v>
   <v>      -0.00497643      -0.00692451      -0.11826360 </v>
   <v>      -0.15468594      -0.48508570       0.06928572 </v>
   <v>      -0.36051722      -0.38801581       0.08260884 </v>
   <v>       0.29273479       0.47940732      -0.13188729 </v>
   <v>       0.22016623       0.12426672      -2.89261511 </v>
   <v>       0.66223591       0.17928181       2.12008079 </v>
   <v>       0.17478101       0.14965039      -2.89773451 </v>
   <v>      -0.04452198       0.14515765       2.97870892 </v>
   <v>       0.51308022       0.68028884      -2.15104086 </v>
   <v>      -0.34132152       0.71119279       2.16776790 </v>
   <v>       0.74752865       0.00303286      -1.44413837 </v>
   <v>      -0.05913766       0.00993095       0.76439074 </v>
   <v>       0.15751520       0.04056468      -2.86291594 </v>
   <v>       0.58235711      -0.01301233       2.08499758 </v>
   <v>      -0.23597592       0.52842911      -1.40072258 </v>
   <v>      -0.47196498       0.54850394       2.12848795 </v>
   <v>      -0.32784629      -0.67692260      -1.42607945 </v>
   <v>      -0.54427607      -0.67764762       2.13296791 </v>
   <v>       0.35220188      -0.68447623      -2.18773585 </v>
   <v>      -0.50191050      -0.70103450       2.13709899 </v>
   <v>      -0.64594575      -0.15187598      -2.14407096 </v>
   <v>      -0.20439558      -0.13874065       2.88943383 </v>
  </varray>
  <varray name="stress" >
   <v>       7.25589152       0.12904570      -1.53279702 </v>
   <v>       0.12904571       4.49066535       0.04155369 </v>
   <v>      -1.53279714       0.04155379      30.31842828 </v>
  </varray>
  <energy>
   <i name="e_fr_energy">   -186.82616812 </i>
   <i name="e_wo_entrp">   -186.65558944 </i>
   <i name="e_0_energy">     -0.34115737 </i>
  </energy>
  <time name="totalsc">  814.71  816.91</time>
 </calculation>
 <calculation>
  <scstep>
   <time name="dav">   21.94   22.00</time>
   <time name="total">   22.48   22.54</time>
   <energy>
    <i name="alphaZ">     78.92306027 </i>
    <i name="ewald">  39379.95695859 </i>
    <i name="hartreedc"> -45337.29931575 </i>
    <i name="XCdc">   -239.07353429 </i>
    <i name="pawpsdc">   4192.05558776 </i>
    <i name="pawaedc">  -3610.05173154 </i>
    <i name="eentropy">     -0.27823478 </i>
    <i name="bandstr">  -1413.16709799 </i>
    <i name="atom">   6761.44252427 </i>
    <i name="e_fr_energy">   -187.49178346 </i>
    <i name="e_wo_entrp">   -187.21354868 </i>
    <i name="e_0_energy">   -187.35266607 </i>
   </energy>
  </scstep>
  <scstep>
   <time name="dav">   30.79   30.86</time>
   <time name="total">   31.32   31.41</time>
   <energy>
    <i name="e_fr_energy">   -189.35120449 </i>
    <i name="e_wo_entrp">   -189.03481027 </i>
    <i name="e_0_energy">   -189.19300738 </i>
   </energy>
  </scstep>
  <scstep>
   <time name="dav">   31.03   31.11</time>
   <time name="total">   31.58   31.67</time>
   <energy>
    <i name="e_fr_energy">   -189.34768830 </i>
    <i name="e_wo_entrp">   -189.08851569 </i>
    <i name="e_0_energy">   -189.21810199 </i>
   </energy>
  </scstep>
  <scstep>
   <time name="dav">   31.69   31.77</time>
   <time name="total">   32.24   32.32</time>
   <energy>
    <i name="e_fr_energy">   -188.74291140 </i>
    <i name="e_wo_entrp">   -188.46233998 </i>
    <i name="e_0_energy">   -188.60262569 </i>
   </energy>
  </scstep>
  <scstep>
   <time name="dav">   26.85   26.91</time>
   <time name="total">   27.39   27.46</time>
   <energy>
    <i name="e_fr_energy">   -188.72619924 </i>
    <i name="e_wo_entrp">   -188.44984051 </i>
    <i name="e_0_energy">   -188.58801987 </i>
   </energy>
  </scstep>
  <scstep>
   <time name="dav">   30.50   30.57</time>
   <time name="total">   31.04   31.13</time>
   <energy>
    <i name="e_fr_energy">   -188.69266113 </i>
    <i name="e_wo_entrp">   -188.41268700 </i>
    <i name="e_0_energy">   -188.55267406 </i>
   </energy>
  </scstep>
  <scstep>
   <time name="dav">   32.22   32.30</time>
   <time name="total">   32.76   32.85</time>
   <energy>
    <i name="e_fr_energy">   -188.70069898 </i>
    <i name="e_wo_entrp">   -188.42011098 </i>
    <i name="e_0_energy">   -188.56040498 </i>
   </energy>
  </scstep>
  <scstep>
   <time name="dav">   32.78   32.86</time>
   <time name="total">   33.32   33.40</time>
   <energy>
    <i name="e_fr_energy">   -188.65797519 </i>
    <i name="e_wo_entrp">   -188.38038699 </i>
    <i name="e_0_energy">   -188.51918109 </i>
   </energy>
  </scstep>
  <scstep>
   <time name="dav">   27.14   27.20</time>
   <time name="total">   27.68   27.75</time>
   <energy>
    <i name="e_fr_energy">   -188.65646755 </i>
    <i name="e_wo_entrp">   -188.37953093 </i>
    <i name="e_0_energy">   -188.51799924 </i>
   </energy>
  </scstep>
  <scstep>
   <time name="dav">   33.04   33.12</time>
   <time name="total">   33.58   33.67</time>
   <energy>
    <i name="e_fr_energy">   -188.65730930 </i>
    <i name="e_wo_entrp">   -188.38095440 </i>
    <i name="e_0_energy">   -188.51913185 </i>
   </energy>
  </scstep>
  <scstep>
   <time name="dav">   32.13   32.21</time>
   <time name="total">   32.67   32.76</time>
   <energy>
    <i name="e_fr_energy">   -188.65591567 </i>
    <i name="e_wo_entrp">   -188.37968334 </i>
    <i name="e_0_energy">   -188.51779950 </i>
   </energy>
  </scstep>
  <scstep>
   <time name="dav">   29.65   29.72</time>
   <time name="total">   29.68   29.76</time>
   <energy>
    <i name="alphaZ">     78.92306027 </i>
    <i name="ewald">  39379.95695859 </i>
    <i name="hartreedc"> -45348.36416956 </i>
    <i name="XCdc">   -237.97531883 </i>
    <i name="pawpsdc">   3952.64925390 </i>
    <i name="pawaedc">  -3367.17494907 </i>
    <i name="eentropy">     -0.27613861 </i>
    <i name="bandstr">  -1407.83707348 </i>
    <i name="atom">   6761.44252427 </i>
    <i name="e_fr_energy">   -188.65585250 </i>
    <i name="e_wo_entrp">   -188.37971390 </i>
    <i name="e_0_energy">   -188.51778320 </i>
   </energy>
  </scstep>
  <structure>
   <crystal>
    <varray name="basis" >
     <v>       8.85583798       5.10944696       0.00000000 </v>
     <v>      -8.85203453       5.10290460       0.00000000 </v>
     <v>       0.00000000       0.00000000      30.00000000 </v>
    </varray>
    <i name="volume">   2712.58491749 </i>
    <varray name="rec_basis" >
     <v>       0.05643589       0.09789962       0.00000000 </v>
     <v>      -0.05650824       0.09794169       0.00000000 </v>
     <v>       0.00000000       0.00000000       0.03333333 </v>
    </varray>
   </crystal>
   <varray name="positions" >
    <v>       0.66840730       0.00162976       0.00007155 </v>
    <v>       0.66847978       0.33344377       0.00005442 </v>
    <v>       0.33203185      -0.00063934       0.00001454 </v>
    <v>       0.99989728       0.33332218       0.00021051 </v>
    <v>      -0.00005653      -0.00008106      -0.00018801 </v>
    <v>      -0.00004699       0.66664739      -0.00019018 </v>
    <v>       0.33058137       0.33144209       0.00011142 </v>
    <v>       0.33047329       0.66581267       0.00013284 </v>
    <v>       0.66977555       0.66814668      -0.00021209 </v>
    <v>       0.11189239       0.22243201       0.95074841 </v>
    <v>       0.22515029       0.10970070       0.04800928 </v>
    <v>       0.11188760       0.55601311       0.95074018 </v>
    <v>       0.22302066       0.44483704       0.04939003 </v>
    <v>       0.11536843       0.89094484       0.95194093 </v>
    <v>       0.22490395       0.78170516       0.04808596 </v>
    <v>       0.44611271       0.22038458       0.95307769 </v>
    <v>       0.55566615       0.11089717       0.04582921 </v>
    <v>       0.44465083       0.55553906       0.95079617 </v>
    <v>       0.55734109       0.44233597       0.04795286 </v>
    <v>       0.44589098       0.89230204       0.95314750 </v>
    <v>       0.55709520       0.78129001       0.04802280 </v>
    <v>       0.77319994       0.22012219       0.95310673 </v>
    <v>       0.88435900       0.10895617       0.04803000 </v>
    <v>       0.77505579       0.55152738       0.95188192 </v>
    <v>       0.88436494       0.44205971       0.04803664 </v>
    <v>       0.77482780       0.89018672       0.95195213 </v>
    <v>       0.88788380       0.77725645       0.04924646 </v>
   </varray>
  </structure>
  <varray name="forces" >
   <v>       0.09965385       0.28286141       0.09323148 </v>
   <v>       0.19038443       0.22962864       0.08640792 </v>
   <v>      -0.11677322      -0.20348287      -0.09814050 </v>
   <v>       0.19490114       0.33572998       0.05875917 </v>
   <v>       0.01194014      -0.06179460      -0.03120664 </v>
   <v>      -0.06040408      -0.01972309      -0.03076945 </v>
   <v>      -0.42156812      -0.45777176      -0.05874363 </v>
   <v>      -0.18059178      -0.59781037      -0.05467103 </v>
   <v>       0.31865361       0.55492965       0.05551052 </v>
   <v>       0.05195860       0.10253505      -0.13687677 </v>
   <v>      -0.02081544       0.10363167       0.06993961 </v>
   <v>       0.05305288       0.10261606      -0.14032215 </v>
   <v>       0.06737103       0.08916234       0.18794238 </v>
   <v>       0.03257818       0.07662537      -0.09450895 </v>
   <v>       0.10051712       0.05174488       0.05197796 </v>
   <v>      -0.08942618      -0.00797465       0.25335702 </v>
   <v>      -0.01139566       0.00464042      -0.20165081 </v>
   <v>      -0.01433975       0.00305863       0.26419058 </v>
   <v>      -0.10334063      -0.00960081      -0.24095639 </v>
   <v>       0.04605351      -0.06293951       0.23385566 </v>
   <v>       0.05631066      -0.07672129      -0.26494035 </v>
   <v>      -0.01012000      -0.05320015       0.00716207 </v>
   <v>      -0.03297664      -0.07001140       0.05449920 </v>
   <v>      -0.09390609      -0.04807418      -0.10041224 </v>
   <v>      -0.02861491      -0.07423501       0.05741403 </v>
   <v>       0.01476186      -0.09142935      -0.11596812 </v>
   <v>      -0.05386452      -0.10239506       0.09491943 </v>
  </varray>
  <varray name="stress" >
   <v>     -19.99844441      -0.01388952      -0.01434286 </v>
   <v>      -0.01388966     -19.59496256      -0.10001512 </v>
   <v>      -0.01434293      -0.10001514      -1.84782188 </v>
  </varray>
  <energy>
   <i name="e_fr_energy">   -188.65585250 </i>
   <i name="e_wo_entrp">   -188.51778320 </i>
   <i name="e_0_energy">     -0.27613861 </i>
  </energy>
  <time name="totalsc">  407.73  408.82</time>
 </calculation>
 <calculation>
  <scstep>
   <time name="dav">   24.23   24.28</time>
   <time name="total">   24.75   24.81</time>
   <energy>
    <i name="alphaZ">     82.34930229 </i>
    <i name="ewald">  41304.27791603 </i>
    <i name="hartreedc"> -47303.23358970 </i>
    <i name="XCdc">   -233.85426388 </i>
    <i name="pawpsdc">   3950.51326648 </i>
    <i name="pawaedc">  -3365.01485298 </i>
    <i name="eentropy">     -0.23139211 </i>
    <i name="bandstr">  -1386.83274623 </i>
    <i name="atom">   6761.44252427 </i>
    <i name="e_fr_energy">   -190.58383584 </i>
    <i name="e_wo_entrp">   -190.35244373 </i>
    <i name="e_0_energy">   -190.46813978 </i>
   </energy>
  </scstep>
  <scstep>
   <time name="dav">   29.32   29.39</time>
   <time name="total">   29.84   29.92</time>
   <energy>
    <i name="e_fr_energy">   -190.51954845 </i>
    <i name="e_wo_entrp">   -190.30314144 </i>
    <i name="e_0_energy">   -190.41134495 </i>
   </energy>
  </scstep>
  <scstep>
   <time name="dav">   31.04   31.11</time>
   <time name="total">   31.56   31.65</time>
   <energy>
    <i name="e_fr_energy">   -190.07143282 </i>
    <i name="e_wo_entrp">   -189.82371916 </i>
    <i name="e_0_energy">   -189.94757599 </i>
   </energy>
  </scstep>
  <scstep>
   <time name="dav">   31.98   32.06</time>
   <time name="total">   32.51   32.60</time>
   <energy>
    <i name="e_fr_energy">   -189.85593088 </i>
    <i name="e_wo_entrp">   -189.63326687 </i>
    <i name="e_0_energy">   -189.74459887 </i>
   </energy>
  </scstep>
  <scstep>
   <time name="dav">   28.97   29.04</time>
   <time name="total">   29.50   29.58</time>
   <energy>
    <i name="e_fr_energy">   -189.76590669 </i>
    <i name="e_wo_entrp">   -189.53349260 </i>
    <i name="e_0_energy">   -189.64969964 </i>
   </energy>
  </scstep>
  <scstep>
   <time name="dav">   29.97   30.04</time>
   <time name="total">   30.50   30.58</time>
   <energy>
    <i name="e_fr_energy">   -189.75536796 </i>
    <i name="e_wo_entrp">   -189.52354887 </i>
    <i name="e_0_energy">   -189.63945842 </i>
   </energy>
  </scstep>
  <scstep>
   <time name="dav">   30.65   30.72</time>
   <time name="total">   31.18   31.26</time>
   <energy>
    <i name="e_fr_energy">   -189.75172816 </i>
    <i name="e_wo_entrp">   -189.52039274 </i>
    <i name="e_0_energy">   -189.63606045 </i>
   </energy>
  </scstep>
  <scstep>
   <time name="dav">   29.30   29.37</time>
   <time name="total">   29.83   29.91</time>
   <energy>
    <i name="e_fr_energy">   -189.75128936 </i>
    <i name="e_wo_entrp">   -189.51996942 </i>
    <i name="e_0_energy">   -189.63562939 </i>
   </energy>
  </scstep>
  <scstep>
   <time name="dav">   27.57   27.63</time>
   <time name="total">   28.10   28.17</time>
   <energy>
    <i name="e_fr_energy">   -189.75220255 </i>
    <i name="e_wo_entrp">   -189.52059900 </i>
    <i name="e_0_energy">   -189.63640078 </i>
   </energy>
  </scstep>
  <scstep>
   <time name="dav">   27.28   27.35</time>
   <time name="total">   27.81   27.88</time>
   <energy>
    <i name="e_fr_energy">   -189.75153549 </i>
    <i name="e_wo_entrp">   -189.51994758 </i>
    <i name="e_0_energy">   -189.63574153 </i>
   </energy>
  </scstep>
  <scstep>
   <time name="dav">   18.90   18.94</time>
   <time name="total">   18.93   18.99</time>
   <energy>
    <i name="alphaZ">     82.34930229 </i>
    <i name="ewald">  41304.27791603 </i>
    <i name="hartreedc"> -47276.34269402 </i>
    <i name="XCdc">   -235.24657699 </i>
    <i name="pawpsdc">   4038.45568542 </i>
    <i name="pawaedc">  -3454.15208453 </i>
    <i name="eentropy">     -0.23154485 </i>
    <i name="bandstr">  -1410.30402095 </i>
    <i name="atom">   6761.44252427 </i>
    <i name="e_fr_energy">   -189.75149334 </i>
    <i name="e_wo_entrp">   -189.51994849 </i>
    <i name="e_0_energy">   -189.63572091 </i>
   </energy>
  </scstep>
  <structure>
   <crystal>
    <varray name="basis" >
     <v>       8.66767936       5.00298957       0.00000000 </v>
     <v>      -8.66410733       4.99684456       0.00000000 </v>
     <v>       0.00000000       0.00000000      30.00000000 </v>
    </varray>
    <i name="volume">   2599.72455114 </i>
    <varray name="rec_basis" >
     <v>       0.05766201       0.09998106       0.00000000 </v>
     <v>      -0.05773292       0.10002228       0.00000000 </v>
     <v>       0.00000000       0.00000000       0.03333333 </v>
    </varray>
   </crystal>
   <varray name="positions" >
    <v>       0.66897154       0.00200358       0.00012418 </v>
    <v>       0.66904249       0.33364247       0.00010320 </v>
    <v>       0.33158286      -0.00086512      -0.00004086 </v>
    <v>       1.00064022       0.33369255       0.00024368 </v>
    <v>      -0.00014758      -0.00019499      -0.00020562 </v>
    <v>      -0.00013742       0.66667248      -0.00020755 </v>
    <v>       0.32941943       0.33108622       0.00007825 </v>
    <v>       0.32930948       0.66499388       0.00010198 </v>
    <v>       0.67100022       0.66876222      -0.00018075 </v>
    <v>       0.11211206       0.22255236       0.95067114 </v>
    <v>       0.22530222       0.10989252       0.04804876 </v>
    <v>       0.11210845       0.55613255       0.95066096 </v>
    <v>       0.22323289       0.44492046       0.04949613 </v>
    <v>       0.11552662       0.89104077       0.95188757 </v>
    <v>       0.22508582       0.78169479       0.04811530 </v>
    <v>       0.44601402       0.22045694       0.95322072 </v>
    <v>       0.55566295       0.11091577       0.04571537 </v>
    <v>       0.44464219       0.55555786       0.95094531 </v>
    <v>       0.55722639       0.44241894       0.04781683 </v>
    <v>       0.44583064       0.89215356       0.95327952 </v>
    <v>       0.55702181       0.78110885       0.04787323 </v>
    <v>       0.77310206       0.22004363       0.95311077 </v>
    <v>       0.88421140       0.10887159       0.04806077 </v>
    <v>       0.77488633       0.55153751       0.95182523 </v>
    <v>       0.88421450       0.44196396       0.04806906 </v>
    <v>       0.77469031       0.89002093       0.95188667 </v>
    <v>       0.88766254       0.77713815       0.04930005 </v>
   </varray>
  </structure>
  <varray name="forces" >
   <v>       0.16408094       0.25342034       0.08048569 </v>
   <v>       0.13516861       0.26829013       0.07773692 </v>
   <v>      -0.12875193      -0.23057348      -0.10105291 </v>
   <v>       0.26034969       0.44711819       0.02766674 </v>
   <v>       0.01431282      -0.09656065      -0.00483453 </v>
   <v>      -0.08921370      -0.03301567      -0.00410028 </v>
   <v>      -0.51385009      -0.43927828      -0.06795913 </v>
   <v>      -0.11765545      -0.66873827      -0.06793673 </v>
   <v>       0.32630209       0.57337663       0.08381829 </v>
   <v>      -0.00146852       0.01610865      -0.70015766 </v>
   <v>       0.09405139       0.02105945       0.57654730 </v>
   <v>       0.00596710       0.01396390      -0.70099342 </v>
   <v>       0.02483195       0.02215896       0.79293650 </v>
   <v>       0.07293891       0.14237831      -0.58898607 </v>
   <v>      -0.02965964       0.10870526       0.55916939 </v>
   <v>       0.06507809       0.00108565      -0.18368704 </v>
   <v>      -0.01773690      -0.00322121       0.20069456 </v>
   <v>      -0.00715430       0.01612795      -0.25460389 </v>
   <v>       0.03091357      -0.01588326       0.22483168 </v>
   <v>      -0.02270405       0.07125418      -0.20061386 </v>
   <v>      -0.02058112       0.03368767       0.20424141 </v>
   <v>      -0.03869505      -0.10121717      -0.42943309 </v>
   <v>      -0.06785578      -0.12517572       0.53931671 </v>
   <v>       0.03951989      -0.11697263      -0.62306241 </v>
   <v>      -0.06308756      -0.12884501       0.54005502 </v>
   <v>      -0.11170108      -0.01376480      -0.63896962 </v>
   <v>      -0.00339987      -0.01548912       0.65889042 </v>
  </varray>
  <varray name="stress" >
   <v>     -10.15790154      -0.03052440      -0.04742496 </v>
   <v>      -0.03052409      -9.87407417      -0.11957676 </v>
   <v>      -0.04742494      -0.11957684       6.51020579 </v>
  </varray>
  <energy>
   <i name="e_fr_energy">   -189.75149334 </i>
   <i name="e_wo_entrp">   -189.63572091 </i>
   <i name="e_0_energy">     -0.23154485 </i>
  </energy>
  <time name="totalsc">  356.70  357.64</time>
 </calculation>
 <calculation>
  <scstep>
   <time name="dav">   21.94   22.00</time>
   <time name="total">   22.46   22.52</time>
   <energy>
    <i name="alphaZ">     85.81582804 </i>
    <i name="ewald">  42831.34830711 </i>
    <i name="hartreedc"> -48847.75913026 </i>
    <i name="XCdc">   -232.96822846 </i>
    <i name="pawpsdc">   4038.94424210 </i>
    <i name="pawaedc">  -3454.64170938 </i>
    <i name="eentropy">     -0.18914657 </i>
    <i name="bandstr">  -1373.33629670 </i>
    <i name="atom">   6761.44252427 </i>
    <i name="e_fr_energy">   -191.34360985 </i>
    <i name="e_wo_entrp">   -191.15446328 </i>
    <i name="e_0_energy">   -191.24903656 </i>
   </energy>
  </scstep>
  <scstep>
   <time name="dav">   33.11   33.19</time>
   <time name="total">   33.62   33.71</time>
   <energy>
    <i name="e_fr_energy">   -191.12903843 </i>
    <i name="e_wo_entrp">   -190.94581856 </i>
    <i name="e_0_energy">   -191.03742849 </i>
   </energy>
  </scstep>
  <scstep>
   <time name="dav">   30.46   30.53</time>
   <time name="total">   30.97   31.05</time>
   <energy>
    <i name="e_fr_energy">   -191.32446819 </i>
    <i name="e_wo_entrp">   -191.10621300 </i>
    <i name="e_0_energy">   -191.21534060 </i>
   </energy>
  </scstep>
  <scstep>
   <time name="dav">   32.15   32.23</time>
   <time name="total">   32.67   32.76</time>
   <energy>
    <i name="e_fr_energy">   -190.90772627 </i>
    <i name="e_wo_entrp">   -190.72462790 </i>
    <i name="e_0_energy">   -190.81617708 </i>
   </energy>
  </scstep>
  <scstep>
   <time name="dav">   27.88   27.95</time>
   <time name="total">   28.40   28.47</time>
   <energy>
    <i name="e_fr_energy">   -190.80724045 </i>
    <i name="e_wo_entrp">   -190.61429266 </i>
    <i name="e_0_energy">   -190.71076655 </i>
   </energy>
  </scstep>
  <scstep>
   <time name="dav">   31.57   31.65</time>
   <time name="total">   32.09   32.17</time>
   <energy>
    <i name="e_fr_energy">   -190.79625531 </i>
    <i name="e_wo_entrp">   -190.60167039 </i>
    <i name="e_0_energy">   -190.69896285 </i>
   </energy>
  </scstep>
  <scstep>
   <time name="dav">   30.16   30.23</time>
   <time name="total">   30.68   30.76</time>
   <energy>
    <i name="e_fr_energy">   -190.77657224 </i>
    <i name="e_wo_entrp">   -190.58499597 </i>
    <i name="e_0_energy">   -190.68078411 </i>
   </energy>
  </scstep>
  <scstep>
   <time name="dav">   26.21   26.28</time>
   <time name="total">   26.73   26.81</time>
   <energy>
    <i name="e_fr_energy">   -190.77246930 </i>
    <i name="e_wo_entrp">   -190.57988984 </i>
    <i name="e_0_energy">   -190.67617957 </i>
   </energy>
  </scstep>
  <scstep>
   <time name="dav">   27.23   27.29</time>
   <time name="total">   27.75   27.83</time>
   <energy>
    <i name="e_fr_energy">   -190.77290562 </i>
    <i name="e_wo_entrp">   -190.58000898 </i>
    <i name="e_0_energy">   -190.67645730 </i>
   </energy>
  </scstep>
  <scstep>
   <time name="dav">   27.24   27.31</time>
   <time name="total">   27.76   27.83</time>
   <energy>
    <i name="e_fr_energy">   -190.77262606 </i>
    <i name="e_wo_entrp">   -190.57987950 </i>
    <i name="e_0_energy">   -190.67625278 </i>
   </energy>
  </scstep>
  <scstep>
   <time name="dav">   20.38   20.43</time>
   <time name="total">   20.41   20.47</time>
   <energy>
    <i name="alphaZ">     85.81582804 </i>
    <i name="ewald">  42831.34830711 </i>
    <i name="hartreedc"> -48819.29829010 </i>
    <i name="XCdc">   -234.28976787 </i>
    <i name="pawpsdc">   4064.24934514 </i>
    <i name="pawaedc">  -3480.12482440 </i>
    <i name="eentropy">     -0.19278807 </i>
    <i name="bandstr">  -1399.72298099 </i>
    <i name="atom">   6761.44252427 </i>
    <i name="e_fr_energy">   -190.77264689 </i>
    <i name="e_wo_entrp">   -190.57985882 </i>
    <i name="e_0_energy">   -190.67625285 </i>
   </energy>
  </scstep>
  <structure>
   <crystal>
    <varray name="basis" >
     <v>       8.48657066       4.90176326       0.00000000 </v>
     <v>      -8.48444426       4.89811788       0.00000000 </v>
     <v>       0.00000000       0.00000000      30.00000000 </v>
    </varray>
    <i name="volume">   2494.70881800 </i>
    <varray name="rec_basis" >
     <v>       0.05890208       0.10202927       0.00000000 </v>
     <v>      -0.05894592       0.10205484       0.00000000 </v>
     <v>       0.00000000       0.00000000       0.03333333 </v>
    </varray>
   </crystal>
   <varray name="positions" >
    <v>       0.67116525       0.00283003       0.00027964 </v>
    <v>       0.67122275       0.33500674       0.00025642 </v>
    <v>       0.32959393      -0.00189179      -0.00025203 </v>
    <v>       1.00474207       0.33573056       0.00027455 </v>
    <v>      -0.00078218      -0.00093989      -0.00019332 </v>
    <v>      -0.00073943       0.66679630      -0.00019348 </v>
    <v>       0.32473701       0.33037289      -0.00006989 </v>
    <v>       0.32462145       0.66097236      -0.00004955 </v>
    <v>       0.67581514       0.67120340       0.00001629 </v>
    <v>       0.11191640       0.22252026       0.94874898 </v>
    <v>       0.22573214       0.10931514       0.04966772 </v>
    <v>       0.11192975       0.55604560       0.94873928 </v>
    <v>       0.22323362       0.44486391       0.05164516 </v>
    <v>       0.11689998       0.89177294       0.95025318 </v>
    <v>       0.22561319       0.78280922       0.04969887 </v>
    <v>       0.44649892       0.22003003       0.95247194 </v>
    <v>       0.55555032       0.11094920       0.04646994 </v>
    <v>       0.44475990       0.55570664       0.94998098 </v>
    <v>       0.55741509       0.44200016       0.04867488 </v>
    <v>       0.44642872       0.89311262       0.95249797 </v>
    <v>       0.55732216       0.78177804       0.04869162 </v>
    <v>       0.77217015       0.21947232       0.95185483 </v>
    <v>       0.88299795       0.10824704       0.04958441 </v>
    <v>       0.77431785       0.55030153       0.95009664 </v>
    <v>       0.88299727       0.44130006       0.04959239 </v>
    <v>       0.77421359       0.89071202       0.95012493 </v>
    <v>       0.88784146       0.77719713       0.05113756 </v>
   </varray>
  </structure>
  <varray name="forces" >
   <v>       0.18276510       0.25122844       0.02463625 </v>
   <v>       0.12888836       0.27841923       0.02604838 </v>
   <v>      -0.11129011      -0.20026259      -0.07004768 </v>
   <v>       0.32119674       0.55455888      -0.03414016 </v>
   <v>       0.03180512      -0.15612960       0.02621433 </v>
   <v>      -0.14586954      -0.04526331       0.02529080 </v>
   <v>      -0.61461181      -0.49449907      -0.02514581 </v>
   <v>      -0.11991404      -0.78147804      -0.02607922 </v>
   <v>       0.40253563       0.70565813       0.03553640 </v>
   <v>      -0.03014678      -0.09342203      -0.54232407 </v>
   <v>       0.00131609      -0.01692122       0.36661622 </v>
   <v>      -0.06550609      -0.07356245      -0.54387536 </v>
   <v>      -0.01444068      -0.02355837       0.71325967 </v>
   <v>       0.01527889       0.02580858      -0.44657234 </v>
   <v>      -0.02323050       0.00426737       0.36427108 </v>
   <v>      -0.02326786      -0.00374120      -0.07462697 </v>
   <v>      -0.01264549      -0.00526922       0.20087498 </v>
   <v>       0.02127591       0.03901359      -0.04099567 </v>
   <v>      -0.03520592      -0.03384159       0.02941804 </v>
   <v>       0.01914421      -0.01935594      -0.07909407 </v>
   <v>      -0.01829207      -0.03645418       0.02367433 </v>
   <v>       0.02783872       0.02455374      -0.29384997 </v>
   <v>      -0.02708759       0.01300396       0.37905402 </v>
   <v>       0.04710251      -0.01719063      -0.47418547 </v>
   <v>       0.02313548      -0.01465076       0.37969446 </v>
   <v>      -0.02952500       0.03261955      -0.47965569 </v>
   <v>       0.04875072       0.08646874       0.53600352 </v>
  </varray>
  <varray name="stress" >
   <v>      -5.84831853       0.15722110      -0.02805999 </v>
   <v>       0.15722113      -5.66610644       0.07308364 </v>
   <v>      -0.02806001       0.07308368       4.55407845 </v>
  </varray>
  <energy>
   <i name="e_fr_energy">   -190.77264689 </i>
   <i name="e_wo_entrp">   -190.67625285 </i>
   <i name="e_0_energy">     -0.19278807 </i>
  </energy>
  <time name="totalsc">  355.61  356.55</time>
 </calculation>
 <calculation>
  <scstep>
   <time name="dav">   21.96   22.01</time>
   <time name="total">   22.46   22.52</time>
   <energy>
    <i name="alphaZ">     90.13319591 </i>
    <i name="ewald">  44648.91642863 </i>
    <i name="hartreedc"> -50691.36978300 </i>
    <i name="XCdc">   -231.86255273 </i>
    <i name="pawpsdc">   4064.25437343 </i>
    <i name="pawaedc">  -3480.12853143 </i>
    <i name="eentropy">     -0.16452411 </i>
    <i name="bandstr">  -1353.44871763 </i>
    <i name="atom">   6761.44252427 </i>
    <i name="e_fr_energy">   -192.22758666 </i>
    <i name="e_wo_entrp">   -192.06306255 </i>
    <i name="e_0_energy">   -192.14532460 </i>
   </energy>
  </scstep>
  <scstep>
   <time name="dav">   26.16   26.23</time>
   <time name="total">   26.67   26.74</time>
   <energy>
    <i name="e_fr_energy">   -191.94717439 </i>
    <i name="e_wo_entrp">   -191.77096149 </i>
    <i name="e_0_energy">   -191.85906794 </i>
   </energy>
  </scstep>
  <scstep>
   <time name="dav">   27.61   27.68</time>
   <time name="total">   28.12   28.19</time>
   <energy>
    <i name="e_fr_energy">   -191.75901066 </i>
    <i name="e_wo_entrp">   -191.59797458 </i>
    <i name="e_0_energy">   -191.67849262 </i>
   </energy>
  </scstep>
  <scstep>
   <time name="dav">   29.59   29.66</time>
   <time name="total">   30.11   30.30</time>
   <energy>
    <i name="e_fr_energy">   -191.78914155 </i>
    <i name="e_wo_entrp">   -191.59865535 </i>
    <i name="e_0_energy">   -191.69389845 </i>
   </energy>
  </scstep>
  <scstep>
   <time name="dav">   28.53   28.60</time>
   <time name="total">   29.03   29.11</time>
   <energy>
    <i name="e_fr_energy">   -191.63001135 </i>
    <i name="e_wo_entrp">   -191.45435226 </i>
    <i name="e_0_energy">   -191.54218181 </i>
   </energy>
  </scstep>
  <scstep>
   <time name="dav">   30.45   30.52</time>
   <time name="total">   30.95   31.03</time>
   <energy>
    <i name="e_fr_energy">   -191.60496484 </i>
    <i name="e_wo_entrp">   -191.43920867 </i>
    <i name="e_0_energy">   -191.52208675 </i>
   </energy>
  </scstep>
  <scstep>
   <time name="dav">   30.87   30.94</time>
   <time name="total">   31.38   31.46</time>
   <energy>
    <i name="e_fr_energy">   -191.58683372 </i>
    <i name="e_wo_entrp">   -191.41270460 </i>
    <i name="e_0_energy">   -191.49976916 </i>
   </energy>
  </scstep>
  <scstep>
   <time name="dav">   30.85   30.92</time>
   <time name="total">   31.35   31.44</time>
   <energy>
    <i name="e_fr_energy">   -191.57970763 </i>
    <i name="e_wo_entrp">   -191.40768481 </i>
    <i name="e_0_energy">   -191.49369622 </i>
   </energy>
  </scstep>
  <scstep>
   <time name="dav">   30.35   30.43</time>
   <time name="total">   30.86   30.94</time>
   <energy>
    <i name="e_fr_energy">   -191.58125934 </i>
    <i name="e_wo_entrp">   -191.40890671 </i>
    <i name="e_0_energy">   -191.49508303 </i>
   </energy>
  </scstep>
  <scstep>
   <time name="dav">   30.26   30.34</time>
   <time name="total">   30.77   30.85</time>
   <energy>
    <i name="e_fr_energy">   -191.57973219 </i>
    <i name="e_wo_entrp">   -191.40718783 </i>
    <i name="e_0_energy">   -191.49346001 </i>
   </energy>
  </scstep>
  <scstep>
   <time name="dav">   18.54   18.59</time>
   <time name="total">   18.58   18.63</time>
   <energy>
    <i name="alphaZ">     90.13319591 </i>
    <i name="ewald">  44648.91642863 </i>
    <i name="hartreedc"> -50658.05497605 </i>
    <i name="XCdc">   -233.34243372 </i>
    <i name="pawpsdc">   4088.72757934 </i>
    <i name="pawaedc">  -3504.71054441 </i>
    <i name="eentropy">     -0.17236058 </i>
    <i name="bandstr">  -1384.51916897 </i>
    <i name="atom">   6761.44252427 </i>
    <i name="e_fr_energy">   -191.57975558 </i>
    <i name="e_wo_entrp">   -191.40739500 </i>
    <i name="e_0_energy">   -191.49357529 </i>
   </energy>
  </scstep>
  <structure>
   <crystal>
    <varray name="basis" >
     <v>       8.28059269       4.79304196       0.00000000 </v>
     <v>      -8.26987946       4.77452227       0.00000000 </v>
     <v>       0.00000000       0.00000000      30.00000000 </v>
    </varray>
    <i name="volume">   2375.21260364 </i>
    <varray name="rec_basis" >
     <v>       0.06030436       0.10445229       0.00000000 </v>
     <v>      -0.06053827       0.10458760       0.00000000 </v>
     <v>       0.00000000       0.00000000       0.03333333 </v>
    </varray>
   </crystal>
   <varray name="positions" >
    <v>       0.67551409       0.00443527       0.00039421 </v>
    <v>       0.67552493       0.33766707       0.00037836 </v>
    <v>       0.32621317      -0.00363707      -0.00054886 </v>
    <v>       1.01393747       0.34031362       0.00014140 </v>
    <v>      -0.00247285      -0.00305301      -0.00008010 </v>
    <v>      -0.00232658       0.66724701      -0.00008277 </v>
    <v>       0.31448811       0.32887345      -0.00020088 </v>
    <v>       0.31435681       0.65218054      -0.00018764 </v>
    <v>       0.68700788       0.67685882       0.00020977 </v>
    <v>       0.11044058       0.22158866       0.94597192 </v>
    <v>       0.22563793       0.10865249       0.05172036 </v>
    <v>       0.11045563       0.55551161       0.94595897 </v>
    <v>       0.22269729       0.44459576       0.05509965 </v>
    <v>       0.11781738       0.89223554       0.94793036 </v>
    <v>       0.22561449       0.78357493       0.05173493 </v>
    <v>       0.44665885       0.21984582       0.95169722 </v>
    <v>       0.55536327       0.11097016       0.04765488 </v>
    <v>       0.44536898       0.55604672       0.94920617 </v>
    <v>       0.55704880       0.44156537       0.04934311 </v>
    <v>       0.44670376       0.89342219       0.95170151 </v>
    <v>       0.55704929       0.78201807       0.04933259 </v>
    <v>       0.77221472       0.21934397       0.95019718 </v>
    <v>       0.88248957       0.10830991       0.05163943 </v>
    <v>       0.77429289       0.54919226       0.94763374 </v>
    <v>       0.88250376       0.44075587       0.05164790 </v>
    <v>       0.77426405       0.89174553       0.94763454 </v>
    <v>       0.88935016       0.77795389       0.05387197 </v>
   </varray>
  </structure>
  <varray name="forces" >
   <v>       0.11627581       0.34589360       0.01850133 </v>
   <v>       0.24270018       0.27127621       0.01994495 </v>
   <v>      -0.09087661      -0.15768281      -0.01755125 </v>
   <v>       0.07974616       0.13810503      -0.13333911 </v>
   <v>       0.10699839      -0.12990024       0.01285192 </v>
   <v>      -0.16532077       0.02255357       0.01114043 </v>
   <v>      -0.37849734      -0.37954153       0.11858781 </v>
   <v>      -0.13846019      -0.51124846       0.11943745 </v>
   <v>       0.31237827       0.53326007      -0.11114248 </v>
   <v>      -0.05112574      -0.21471796      -0.25303344 </v>
   <v>      -0.09653104      -0.02309719       0.05019288 </v>
   <v>      -0.15922061      -0.15509880      -0.25507988 </v>
   <v>      -0.02195550      -0.03129837       0.40673016 </v>
   <v>      -0.04550868      -0.08031529      -0.12940410 </v>
   <v>       0.02934277      -0.09353914       0.05421780 </v>
   <v>      -0.24318864      -0.00403495       0.17556812 </v>
   <v>       0.01596725       0.02473617      -0.03074885 </v>
   <v>       0.06009198       0.10033517       0.34105992 </v>
   <v>      -0.19979318      -0.03473243      -0.34524376 </v>
   <v>       0.11754678      -0.21572403       0.17700515 </v>
   <v>       0.06262090      -0.19163688      -0.34079184 </v>
   <v>       0.08515638       0.15385666      -0.04512386 </v>
   <v>       0.00757883       0.17359596       0.05059212 </v>
   <v>       0.00863753       0.09619351      -0.15262644 </v>
   <v>       0.14323841       0.09491073       0.04734914 </v>
   <v>       0.08063219       0.05566620      -0.15526043 </v>
   <v>       0.12156650       0.21218519       0.36616624 </v>
  </varray>
  <varray name="stress" >
   <v>      -0.01515553       0.38600739       0.24395930 </v>
   <v>       0.38600695       0.45938045       0.45808598 </v>
   <v>       0.24395932       0.45808604      -0.38877958 </v>
  </varray>
  <energy>
   <i name="e_fr_energy">   -191.57975558 </i>
   <i name="e_wo_entrp">   -191.49357529 </i>
   <i name="e_0_energy">     -0.17236058 </i>
  </energy>
  <time name="totalsc">  352.13  353.18</time>
 </calculation>
 <calculation>
  <scstep>
   <time name="dav">   21.95   22.00</time>
   <time name="total">   22.45   22.51</time>
   <energy>
    <i name="alphaZ">     90.00138211 </i>
    <i name="ewald">  44567.24326019 </i>
    <i name="hartreedc"> -50575.72973843 </i>
    <i name="XCdc">   -233.52873701 </i>
    <i name="pawpsdc">   4088.70321848 </i>
    <i name="pawaedc">  -3504.68172905 </i>
    <i name="eentropy">     -0.16704760 </i>
    <i name="bandstr">  -1384.97273312 </i>
    <i name="atom">   6761.44252427 </i>
    <i name="e_fr_energy">   -191.68960014 </i>
    <i name="e_wo_entrp">   -191.52255255 </i>
    <i name="e_0_energy">   -191.60607634 </i>
   </energy>
  </scstep>
  <scstep>
   <time name="dav">   32.43   32.51</time>
   <time name="total">   32.94   33.03</time>
   <energy>
    <i name="e_fr_energy">   -191.76013865 </i>
    <i name="e_wo_entrp">   -191.57412556 </i>
    <i name="e_0_energy">   -191.66713210 </i>
   </energy>
  </scstep>
  <scstep>
   <time name="dav">   31.01   31.08</time>
   <time name="total">   31.51   31.59</time>
   <energy>
    <i name="e_fr_energy">   -191.70846465 </i>
    <i name="e_wo_entrp">   -191.53967664 </i>
    <i name="e_0_energy">   -191.62407064 </i>
   </energy>
  </scstep>
  <scstep>
   <time name="dav">   28.75   28.82</time>
   <time name="total">   29.26   29.34</time>
   <energy>
    <i name="e_fr_energy">   -191.70907718 </i>
    <i name="e_wo_entrp">   -191.53950044 </i>
    <i name="e_0_energy">   -191.62428881 </i>
   </energy>
  </scstep>
  <scstep>
   <time name="dav">   29.18   29.25</time>
   <time name="total">   29.69   29.77</time>
   <energy>
    <i name="e_fr_energy">   -191.70583302 </i>
    <i name="e_wo_entrp">   -191.53437813 </i>
    <i name="e_0_energy">   -191.62010558 </i>
   </energy>
  </scstep>
  <scstep>
   <time name="dav">   29.02   29.09</time>
   <time name="total">   29.53   29.60</time>
   <energy>
    <i name="e_fr_energy">   -191.70529009 </i>
    <i name="e_wo_entrp">   -191.53439702 </i>
    <i name="e_0_energy">   -191.61984355 </i>
   </energy>
  </scstep>
  <scstep>
   <time name="dav">   28.09   28.16</time>
   <time name="total">   28.59   28.67</time>
   <energy>
    <i name="e_fr_energy">   -191.70501178 </i>
    <i name="e_wo_entrp">   -191.53451391 </i>
    <i name="e_0_energy">   -191.61976284 </i>
   </energy>
  </scstep>
  <scstep>
   <time name="dav">   18.13   18.17</time>
   <time name="total">   18.16   18.21</time>
   <energy>
    <i name="alphaZ">     90.00138211 </i>
    <i name="ewald">  44567.24326019 </i>
    <i name="hartreedc"> -50577.91686227 </i>
    <i name="XCdc">   -233.45411329 </i>
    <i name="pawpsdc">   4085.58350576 </i>
    <i name="pawaedc">  -3501.50956072 </i>
    <i name="eentropy">     -0.17060602 </i>
    <i name="bandstr">  -1382.92455029 </i>
    <i name="atom">   6761.44252427 </i>
    <i name="e_fr_energy">   -191.70502025 </i>
    <i name="e_wo_entrp">   -191.53441423 </i>
    <i name="e_0_energy">   -191.61971724 </i>
   </energy>
  </scstep>
  <structure>
   <crystal>
    <varray name="basis" >
     <v>       8.28636615       4.80772508       0.00000000 </v>
     <v>      -8.26613057       4.77271043       0.00000000 </v>
     <v>       0.00000000       0.00000000      30.00000000 </v>
    </varray>
    <i name="volume">   2378.69128140 </i>
    <varray name="rec_basis" >
     <v>       0.06019331       0.10425225       0.00000000 </v>
     <v>      -0.06063492       0.10450746       0.00000000 </v>
     <v>       0.00000000       0.00000000       0.03333333 </v>
    </varray>
   </crystal>
   <varray name="positions" >
    <v>       0.67750931       0.00579870       0.00042204 </v>
    <v>       0.67751260       0.33828438       0.00040837 </v>
    <v>       0.32521197      -0.00413770      -0.00057317 </v>
    <v>       1.01474610       0.34071808      -0.00006764 </v>
    <v>      -0.00279118      -0.00398002      -0.00006112 </v>
    <v>      -0.00266965       0.66782789      -0.00006648 </v>
    <v>       0.31164161       0.32809371      -0.00001202 </v>
    <v>       0.31154449       0.65014269       0.00000266 </v>
    <v>       0.69041656       0.67854317       0.00003182 </v>
    <v>       0.10924965       0.22068205       0.94560758 </v>
    <v>       0.22524829       0.10882542       0.05177266 </v>
    <v>       0.10925083       0.55520650       0.94559140 </v>
    <v>       0.22248676       0.44450724       0.05569920 </v>
    <v>       0.11727641       0.89196125       0.94775563 </v>
    <v>       0.22523475       0.78301505       0.05179381 </v>
    <v>       0.44593992       0.22052727       0.95198641 </v>
    <v>       0.55553353       0.11104670       0.04759048 </v>
    <v>       0.44603031       0.55636754       0.94975757 </v>
    <v>       0.55630829       0.44197289       0.04878672 </v>
    <v>       0.44596659       0.89200833       0.95199323 </v>
    <v>       0.55628098       0.78088266       0.04878356 </v>
    <v>       0.77322178       0.21986499       0.95014777 </v>
    <v>       0.88337899       0.10914939       0.05169268 </v>
    <v>       0.77479472       0.54966032       0.94742411 </v>
    <v>       0.88339123       0.44082279       0.05169604 </v>
    <v>       0.77477013       0.89177555       0.94742110 </v>
    <v>       0.89072947       0.77864763       0.05441549 </v>
   </varray>
  </structure>
  <varray name="forces" >
   <v>       0.10249358       0.37762693       0.04157479 </v>
   <v>       0.27760668       0.27205154       0.04250323 </v>
   <v>      -0.08745180      -0.15364282      -0.07030085 </v>
   <v>       0.07270946       0.12462228      -0.06075605 </v>
   <v>       0.12917737      -0.11375539       0.01126855 </v>
   <v>      -0.16309526       0.05580978       0.01120132 </v>
   <v>      -0.36047743      -0.42100839       0.02376970 </v>
   <v>      -0.18352647      -0.51990991       0.02274048 </v>
   <v>       0.30517688       0.53064883      -0.00315250 </v>
   <v>      -0.01605837      -0.13075307      -0.14971450 </v>
   <v>      -0.05356109      -0.03336880       0.07941454 </v>
   <v>      -0.10338884      -0.08006122      -0.14857099 </v>
   <v>      -0.06062930      -0.09989814       0.29013925 </v>
   <v>      -0.02404298      -0.04388640      -0.09638009 </v>
   <v>      -0.00315310      -0.06264663       0.08048589 </v>
   <v>      -0.17756261       0.00480792       0.23313407 </v>
   <v>       0.01340671       0.02460286      -0.09415535 </v>
   <v>       0.04891205       0.08156154       0.37091540 </v>
   <v>      -0.15534189      -0.02229802      -0.36580327 </v>
   <v>       0.09301852      -0.15305125       0.23286155 </v>
   <v>       0.05509702      -0.14542525      -0.36377571 </v>
   <v>       0.04294095       0.07813296      -0.09251589 </v>
   <v>       0.01417632       0.09850123       0.02787721 </v>
   <v>       0.03683302       0.07622313      -0.14347642 </v>
   <v>       0.07590726       0.06232018       0.02707514 </v>
   <v>       0.05030673       0.06960447      -0.14411316 </v>
   <v>       0.07052661       0.12319166       0.23775365 </v>
  </varray>
  <varray name="stress" >
   <v>      -0.05689987       0.02460103       0.01568792 </v>
   <v>       0.02460106      -0.02437681       0.06264607 </v>
   <v>       0.01568780       0.06264606      -1.31085118 </v>
  </varray>
  <energy>
   <i name="e_fr_energy">   -191.70502025 </i>
   <i name="e_wo_entrp">   -191.61971724 </i>
   <i name="e_0_energy">     -0.17060602 </i>
  </energy>
  <time name="totalsc">  264.11  264.80</time>
 </calculation>
 <calculation>
  <scstep>
   <time name="dav">   21.93   21.99</time>
   <time name="total">   22.44   22.49</time>
   <energy>
    <i name="alphaZ">     90.03812948 </i>
    <i name="ewald">  44587.89254693 </i>
    <i name="hartreedc"> -50598.52865327 </i>
    <i name="XCdc">   -233.42633188 </i>
    <i name="pawpsdc">   4085.47359192 </i>
    <i name="pawaedc">  -3501.39870099 </i>
    <i name="eentropy">     -0.16053409 </i>
    <i name="bandstr">  -1383.16714188 </i>
    <i name="atom">   6761.44252427 </i>
    <i name="e_fr_energy">   -191.83456950 </i>
    <i name="e_wo_entrp">   -191.67403541 </i>
    <i name="e_0_energy">   -191.75430245 </i>
   </energy>
  </scstep>
  <scstep>
   <time name="dav">   30.95   31.02</time>
   <time name="total">   31.45   31.54</time>
   <energy>
    <i name="e_fr_energy">   -191.90388895 </i>
    <i name="e_wo_entrp">   -191.72555551 </i>
    <i name="e_0_energy">   -191.81472223 </i>
   </energy>
  </scstep>
  <scstep>
   <time name="dav">   31.08   31.16</time>
   <time name="total">   31.59   31.67</time>
   <energy>
    <i name="e_fr_energy">   -191.86530876 </i>
    <i name="e_wo_entrp">   -191.70498908 </i>
    <i name="e_0_energy">   -191.78514892 </i>
   </energy>
  </scstep>
  <scstep>
   <time name="dav">   29.94   30.02</time>
   <time name="total">   30.45   30.53</time>
   <energy>
    <i name="e_fr_energy">   -191.86441722 </i>
    <i name="e_wo_entrp">   -191.70281087 </i>
    <i name="e_0_energy">   -191.78361405 </i>
   </energy>
  </scstep>
  <scstep>
   <time name="dav">   30.79   30.86</time>
   <time name="total">   31.29   31.38</time>
   <energy>
    <i name="e_fr_energy">   -191.85862005 </i>
    <i name="e_wo_entrp">   -191.69457592 </i>
    <i name="e_0_energy">   -191.77659799 </i>
   </energy>
  </scstep>
  <scstep>
   <time name="dav">   31.05   31.13</time>
   <time name="total">   31.56   31.64</time>
   <energy>
    <i name="e_fr_energy">   -191.85826893 </i>
    <i name="e_wo_entrp">   -191.69446824 </i>
    <i name="e_0_energy">   -191.77636858 </i>
   </energy>
  </scstep>
  <scstep>
   <time name="dav">   30.21   30.29</time>
   <time name="total">   30.72   30.80</time>
   <energy>
    <i name="e_fr_energy">   -191.85796055 </i>
    <i name="e_wo_entrp">   -191.69444661 </i>
    <i name="e_0_energy">   -191.77620358 </i>
   </energy>
  </scstep>
  <scstep>
   <time name="dav">   26.36   26.42</time>
   <time name="total">   26.87   26.94</time>
   <energy>
    <i name="e_fr_energy">   -191.85733657 </i>
    <i name="e_wo_entrp">   -191.69401851 </i>
    <i name="e_0_energy">   -191.77567754 </i>
   </energy>
  </scstep>
  <scstep>
   <time name="dav">   18.25   18.30</time>
   <time name="total">   18.29   18.34</time>
   <energy>
    <i name="alphaZ">     90.03812948 </i>
    <i name="ewald">  44587.89254693 </i>
    <i name="hartreedc"> -50599.06919959 </i>
    <i name="XCdc">   -233.40005763 </i>
    <i name="pawpsdc">   4090.26767166 </i>
    <i name="pawaedc">  -3506.24680640 </i>
    <i name="eentropy">     -0.16329738 </i>
    <i name="bandstr">  -1382.61882576 </i>
    <i name="atom">   6761.44252427 </i>
    <i name="e_fr_energy">   -191.85731441 </i>
    <i name="e_wo_entrp">   -191.69401703 </i>
    <i name="e_0_energy">   -191.77566572 </i>
   </energy>
  </scstep>
  <structure>
   <crystal>
    <varray name="basis" >
     <v>       8.28461126       4.80789330       0.00000000 </v>
     <v>      -8.26341897       4.77122111       0.00000000 </v>
[...]
      <set comment="kpoint 31">
       <r>  -17.5281    1.0000 </r>
       <r>  -17.2905    1.0000 </r>
       <r>  -16.9231    1.0000 </r>
       <r>  -16.6129    1.0000 </r>
       <r>  -16.5771    1.0000 </r>
       <r>  -16.4661    1.0000 </r>
       <r>  -16.2789    1.0000 </r>
       <r>  -16.2035    1.0000 </r>
       <r>  -16.1227    1.0000 </r>
       <r>  -16.0764    1.0000 </r>
       <r>  -15.9653    1.0000 </r>
       <r>  -15.8477    1.0000 </r>
       <r>  -15.7475    1.0000 </r>
       <r>  -15.6948    1.0000 </r>
       <r>  -15.6079    1.0000 </r>
       <r>  -15.4303    1.0000 </r>
       <r>  -15.3389    1.0000 </r>
       <r>  -15.2165    1.0000 </r>
       <r>   -9.7750    1.0000 </r>
       <r>   -9.4762    1.0000 </r>
       <r>   -9.3637    1.0000 </r>
       <r>   -8.9198    1.0000 </r>
       <r>   -8.8531    1.0000 </r>
       <r>   -8.7790    1.0000 </r>
       <r>   -8.6664    1.0000 </r>
       <r>   -8.6153    1.0000 </r>
       <r>   -8.4225    1.0000 </r>
       <r>   -8.2931    1.0000 </r>
       <r>   -8.2401    1.0000 </r>
       <r>   -8.1755    1.0000 </r>
       <r>   -8.1106    1.0000 </r>
       <r>   -8.0619    1.0000 </r>
       <r>   -7.9946    1.0000 </r>
       <r>   -7.9083    1.0000 </r>
       <r>   -7.8120    1.0000 </r>
       <r>   -7.6727    1.0000 </r>
       <r>   -7.6112    1.0000 </r>
       <r>   -7.5517    1.0000 </r>
       <r>   -7.3976    1.0000 </r>
       <r>   -7.2837    1.0000 </r>
       <r>   -7.1840    1.0000 </r>
       <r>   -7.0132    1.0000 </r>
       <r>   -6.9646    1.0000 </r>
       <r>   -6.9037    1.0000 </r>
       <r>   -6.8311    1.0000 </r>
       <r>   -6.7827    1.0000 </r>
       <r>   -6.6284    1.0000 </r>
       <r>   -6.5651    1.0000 </r>
       <r>   -6.5121    1.0000 </r>
       <r>   -6.4728    1.0000 </r>
       <r>   -6.3953    1.0000 </r>
       <r>   -6.3302    1.0000 </r>
       <r>   -6.2611    1.0000 </r>
       <r>   -6.1929    1.0000 </r>
       <r>   -6.1133    1.0000 </r>
       <r>   -6.0182    1.0000 </r>
       <r>   -6.0113    1.0000 </r>
       <r>   -5.9050    1.0000 </r>
       <r>   -5.8420    1.0000 </r>
       <r>   -5.7227    1.0000 </r>
       <r>   -5.6626    1.0000 </r>
       <r>   -5.5374    1.0000 </r>
       <r>   -5.4720    1.0000 </r>
       <r>   -5.4609    1.0000 </r>
       <r>   -5.2081    1.0000 </r>
       <r>   -5.0766    1.0000 </r>
       <r>   -5.0574    1.0000 </r>
       <r>   -4.8869    1.0000 </r>
       <r>   -4.8200    1.0000 </r>
       <r>   -4.7224    1.0000 </r>
       <r>   -4.6461    1.0000 </r>
       <r>   -4.4765    1.0000 </r>
       <r>   -4.3090    1.0000 </r>
       <r>   -4.1311    1.0000 </r>
       <r>   -4.0422    1.0000 </r>
       <r>   -4.0101    1.0000 </r>
       <r>   -3.8395    1.0000 </r>
       <r>   -3.6653    0.9985 </r>
       <r>   -3.4572    0.9317 </r>
       <r>   -3.3470    0.7610 </r>
       <r>   -3.0212    0.0554 </r>
       <r>   -2.8956    0.0065 </r>
       <r>   -2.6742    0.0000 </r>
       <r>   -2.5898    0.0000 </r>
       <r>   -2.4481    0.0000 </r>
       <r>   -2.3661    0.0000 </r>
       <r>   -2.2098    0.0000 </r>
       <r>   -2.1165    0.0000 </r>
       <r>   -1.9278    0.0000 </r>
       <r>   -1.8410    0.0000 </r>
       <r>   -1.6537    0.0000 </r>
       <r>   -1.5548    0.0000 </r>
       <r>   -1.3972    0.0000 </r>
       <r>   -1.3836    0.0000 </r>
       <r>   -1.1843    0.0000 </r>
       <r>   -1.1159    0.0000 </r>
       <r>   -1.0401    0.0000 </r>
       <r>   -0.9662    0.0000 </r>
       <r>   -0.9380    0.0000 </r>
       <r>   -0.8709    0.0000 </r>
       <r>   -0.8215    0.0000 </r>
       <r>   -0.7112    0.0000 </r>
       <r>   -0.6154    0.0000 </r>
       <r>   -0.5531    0.0000 </r>
       <r>   -0.4798    0.0000 </r>
       <r>   -0.4016    0.0000 </r>
       <r>   -0.3419    0.0000 </r>
       <r>   -0.1038    0.0000 </r>
       <r>    0.0141    0.0000 </r>
       <r>    0.1384    0.0000 </r>
       <r>    0.3597    0.0000 </r>
       <r>    0.5880    0.0000 </r>
       <r>    0.7544    0.0000 </r>
       <r>    0.9911    0.0000 </r>
       <r>    1.1819    0.0000 </r>
       <r>    1.3075    0.0000 </r>
       <r>    1.5774    0.0000 </r>
       <r>    2.1635    0.0000 </r>
       <r>    2.3119    0.0000 </r>
       <r>    2.4217    0.0000 </r>
      </set>
      <set comment="kpoint 32">
       <r>  -17.5433    1.0000 </r>
       <r>  -17.2110    1.0000 </r>
       <r>  -17.0425    1.0000 </r>
       <r>  -16.6064    1.0000 </r>
       <r>  -16.5717    1.0000 </r>
       <r>  -16.3239    1.0000 </r>
       <r>  -16.2909    1.0000 </r>
       <r>  -16.2143    1.0000 </r>
       <r>  -16.1588    1.0000 </r>
       <r>  -16.0692    1.0000 </r>
       <r>  -16.0427    1.0000 </r>
       <r>  -15.8524    1.0000 </r>
       <r>  -15.7437    1.0000 </r>
       <r>  -15.6906    1.0000 </r>
       <r>  -15.5805    1.0000 </r>
       <r>  -15.4298    1.0000 </r>
       <r>  -15.3394    1.0000 </r>
       <r>  -15.2165    1.0000 </r>
       <r>   -9.6952    1.0000 </r>
       <r>   -9.6042    1.0000 </r>
       <r>   -9.4190    1.0000 </r>
       <r>   -8.9033    1.0000 </r>
       <r>   -8.7659    1.0000 </r>
       <r>   -8.7040    1.0000 </r>
       <r>   -8.6250    1.0000 </r>
       <r>   -8.4992    1.0000 </r>
       <r>   -8.3797    1.0000 </r>
       <r>   -8.3621    1.0000 </r>
       <r>   -8.3086    1.0000 </r>
       <r>   -8.2162    1.0000 </r>
       <r>   -8.1700    1.0000 </r>
       <r>   -8.1209    1.0000 </r>
       <r>   -8.0097    1.0000 </r>
       <r>   -7.9667    1.0000 </r>
       <r>   -7.8508    1.0000 </r>
       <r>   -7.6228    1.0000 </r>
       <r>   -7.5769    1.0000 </r>
       <r>   -7.5275    1.0000 </r>
       <r>   -7.3655    1.0000 </r>
       <r>   -7.3394    1.0000 </r>
       <r>   -7.1160    1.0000 </r>
       <r>   -7.0778    1.0000 </r>
       <r>   -6.9720    1.0000 </r>
       <r>   -6.9104    1.0000 </r>
       <r>   -6.8301    1.0000 </r>
       <r>   -6.6884    1.0000 </r>
       <r>   -6.6430    1.0000 </r>
       <r>   -6.5682    1.0000 </r>
       <r>   -6.5393    1.0000 </r>
       <r>   -6.4700    1.0000 </r>
       <r>   -6.4240    1.0000 </r>
       <r>   -6.3338    1.0000 </r>
       <r>   -6.3259    1.0000 </r>
       <r>   -6.2054    1.0000 </r>
       <r>   -6.0247    1.0000 </r>
       <r>   -5.9959    1.0000 </r>
       <r>   -5.9567    1.0000 </r>
       <r>   -5.9092    1.0000 </r>
       <r>   -5.7940    1.0000 </r>
       <r>   -5.7441    1.0000 </r>
       <r>   -5.6535    1.0000 </r>
       <r>   -5.5753    1.0000 </r>
       <r>   -5.5194    1.0000 </r>
       <r>   -5.4115    1.0000 </r>
       <r>   -5.1881    1.0000 </r>
       <r>   -5.0917    1.0000 </r>
       <r>   -4.9862    1.0000 </r>
       <r>   -4.8838    1.0000 </r>
       <r>   -4.8355    1.0000 </r>
       <r>   -4.7976    1.0000 </r>
       <r>   -4.7601    1.0000 </r>
       <r>   -4.4663    1.0000 </r>
       <r>   -4.2951    1.0000 </r>
       <r>   -4.1061    1.0000 </r>
       <r>   -4.0471    1.0000 </r>
       <r>   -4.0085    1.0000 </r>
       <r>   -3.8202    1.0000 </r>
       <r>   -3.6449    0.9976 </r>
       <r>   -3.4614    0.9355 </r>
       <r>   -3.3430    0.7521 </r>
       <r>   -3.0368    0.0689 </r>
       <r>   -2.8567    0.0029 </r>
       <r>   -2.6874    0.0000 </r>
       <r>   -2.5773    0.0000 </r>
       <r>   -2.4347    0.0000 </r>
       <r>   -2.3907    0.0000 </r>
       <r>   -2.2349    0.0000 </r>
       <r>   -2.1308    0.0000 </r>
       <r>   -1.9252    0.0000 </r>
       <r>   -1.8432    0.0000 </r>
       <r>   -1.6571    0.0000 </r>
       <r>   -1.5499    0.0000 </r>
       <r>   -1.4116    0.0000 </r>
       <r>   -1.3933    0.0000 </r>
       <r>   -1.1714    0.0000 </r>
       <r>   -1.1413    0.0000 </r>
       <r>   -0.9803    0.0000 </r>
       <r>   -0.9659    0.0000 </r>
       <r>   -0.9457    0.0000 </r>
       <r>   -0.8496    0.0000 </r>
       <r>   -0.8269    0.0000 </r>
       <r>   -0.7076    0.0000 </r>
       <r>   -0.6201    0.0000 </r>
       <r>   -0.5219    0.0000 </r>
       <r>   -0.4608    0.0000 </r>
       <r>   -0.4228    0.0000 </r>
       <r>   -0.3461    0.0000 </r>
       <r>   -0.1180    0.0000 </r>
       <r>    0.0026    0.0000 </r>
       <r>    0.1073    0.0000 </r>
       <r>    0.4210    0.0000 </r>
       <r>    0.5934    0.0000 </r>
       <r>    0.7233    0.0000 </r>
       <r>    0.9500    0.0000 </r>
       <r>    1.2068    0.0000 </r>
       <r>    1.2856    0.0000 </r>
       <r>    1.5804    0.0000 </r>
       <r>    2.1320    0.0000 </r>
       <r>    2.2778    0.0000 </r>
       <r>    2.6026    0.0000 </r>
      </set>
      <set comment="kpoint 33">
       <r>  -17.5278    1.0000 </r>
       <r>  -17.2907    1.0000 </r>
       <r>  -16.9234    1.0000 </r>
       <r>  -16.6134    1.0000 </r>
       <r>  -16.5762    1.0000 </r>
       <r>  -16.4673    1.0000 </r>
       <r>  -16.2781    1.0000 </r>
       <r>  -16.2032    1.0000 </r>
       <r>  -16.1237    1.0000 </r>
       <r>  -16.0765    1.0000 </r>
       <r>  -15.9649    1.0000 </r>
       <r>  -15.8474    1.0000 </r>
       <r>  -15.7479    1.0000 </r>
       <r>  -15.6944    1.0000 </r>
       <r>  -15.6078    1.0000 </r>
       <r>  -15.4304    1.0000 </r>
       <r>  -15.3388    1.0000 </r>
       <r>  -15.2165    1.0000 </r>
       <r>   -9.7751    1.0000 </r>
       <r>   -9.4764    1.0000 </r>
       <r>   -9.3643    1.0000 </r>
       <r>   -8.9195    1.0000 </r>
       <r>   -8.8530    1.0000 </r>
       <r>   -8.7791    1.0000 </r>
       <r>   -8.6666    1.0000 </r>
       <r>   -8.6162    1.0000 </r>
       <r>   -8.4223    1.0000 </r>
       <r>   -8.2929    1.0000 </r>
       <r>   -8.2394    1.0000 </r>
       <r>   -8.1758    1.0000 </r>
       <r>   -8.1105    1.0000 </r>
       <r>   -8.0609    1.0000 </r>
       <r>   -7.9938    1.0000 </r>
       <r>   -7.9086    1.0000 </r>
       <r>   -7.8119    1.0000 </r>
       <r>   -7.6705    1.0000 </r>
       <r>   -7.6145    1.0000 </r>
       <r>   -7.5524    1.0000 </r>
       <r>   -7.3982    1.0000 </r>
       <r>   -7.2847    1.0000 </r>
       <r>   -7.1846    1.0000 </r>
       <r>   -7.0123    1.0000 </r>
       <r>   -6.9643    1.0000 </r>
       <r>   -6.9024    1.0000 </r>
       <r>   -6.8309    1.0000 </r>
       <r>   -6.7812    1.0000 </r>
       <r>   -6.6291    1.0000 </r>
       <r>   -6.5645    1.0000 </r>
       <r>   -6.5129    1.0000 </r>
       <r>   -6.4747    1.0000 </r>
       <r>   -6.3940    1.0000 </r>
       <r>   -6.3308    1.0000 </r>
       <r>   -6.2609    1.0000 </r>
       <r>   -6.1914    1.0000 </r>
       <r>   -6.1116    1.0000 </r>
       <r>   -6.0175    1.0000 </r>
       <r>   -6.0110    1.0000 </r>
       <r>   -5.9061    1.0000 </r>
       <r>   -5.8432    1.0000 </r>
       <r>   -5.7231    1.0000 </r>
       <r>   -5.6617    1.0000 </r>
       <r>   -5.5374    1.0000 </r>
       <r>   -5.4720    1.0000 </r>
       <r>   -5.4611    1.0000 </r>
       <r>   -5.2082    1.0000 </r>
       <r>   -5.0765    1.0000 </r>
       <r>   -5.0574    1.0000 </r>
       <r>   -4.8860    1.0000 </r>
       <r>   -4.8202    1.0000 </r>
       <r>   -4.7228    1.0000 </r>
       <r>   -4.6480    1.0000 </r>
       <r>   -4.4769    1.0000 </r>
       <r>   -4.3099    1.0000 </r>
       <r>   -4.1316    1.0000 </r>
       <r>   -4.0428    1.0000 </r>
       <r>   -4.0101    1.0000 </r>
       <r>   -3.8374    1.0000 </r>
       <r>   -3.6635    0.9984 </r>
       <r>   -3.4652    0.9389 </r>
       <r>   -3.3407    0.7468 </r>
       <r>   -3.0219    0.0560 </r>
       <r>   -2.8964    0.0066 </r>
       <r>   -2.6738    0.0000 </r>
       <r>   -2.5905    0.0000 </r>
       <r>   -2.4486    0.0000 </r>
       <r>   -2.3650    0.0000 </r>
       <r>   -2.2098    0.0000 </r>
       <r>   -2.1167    0.0000 </r>
       <r>   -1.9264    0.0000 </r>
       <r>   -1.8409    0.0000 </r>
       <r>   -1.6549    0.0000 </r>
       <r>   -1.5567    0.0000 </r>
       <r>   -1.3968    0.0000 </r>
       <r>   -1.3819    0.0000 </r>
       <r>   -1.1849    0.0000 </r>
       <r>   -1.1159    0.0000 </r>
       <r>   -1.0388    0.0000 </r>
       <r>   -0.9658    0.0000 </r>
       <r>   -0.9369    0.0000 </r>
       <r>   -0.8704    0.0000 </r>
       <r>   -0.8229    0.0000 </r>
       <r>   -0.7115    0.0000 </r>
       <r>   -0.6155    0.0000 </r>
       <r>   -0.5545    0.0000 </r>
       <r>   -0.4784    0.0000 </r>
       <r>   -0.4017    0.0000 </r>
       <r>   -0.3416    0.0000 </r>
       <r>   -0.1055    0.0000 </r>
       <r>    0.0143    0.0000 </r>
       <r>    0.1386    0.0000 </r>
       <r>    0.3602    0.0000 </r>
       <r>    0.5884    0.0000 </r>
       <r>    0.7547    0.0000 </r>
       <r>    0.9899    0.0000 </r>
       <r>    1.1822    0.0000 </r>
       <r>    1.3082    0.0000 </r>
       <r>    1.5768    0.0000 </r>
       <r>    2.1637    0.0000 </r>
       <r>    2.3119    0.0000 </r>
       <r>    2.4222    0.0000 </r>
      </set>
      <set comment="kpoint 34">
       <r>  -17.5063    1.0000 </r>
       <r>  -17.3493    1.0000 </r>
       <r>  -16.7450    1.0000 </r>
       <r>  -16.7164    1.0000 </r>
       <r>  -16.5824    1.0000 </r>
       <r>  -16.5510    1.0000 </r>
       <r>  -16.2764    1.0000 </r>
       <r>  -16.1988    1.0000 </r>
       <r>  -16.1165    1.0000 </r>
       <r>  -16.0810    1.0000 </r>
       <r>  -15.8788    1.0000 </r>
       <r>  -15.8330    1.0000 </r>
       <r>  -15.7677    1.0000 </r>
       <r>  -15.6983    1.0000 </r>
       <r>  -15.6419    1.0000 </r>
       <r>  -15.4308    1.0000 </r>
       <r>  -15.3382    1.0000 </r>
       <r>  -15.2165    1.0000 </r>
       <r>   -9.8147    1.0000 </r>
       <r>   -9.3526    1.0000 </r>
       <r>   -9.3033    1.0000 </r>
       <r>   -9.0081    1.0000 </r>
       <r>   -8.9412    1.0000 </r>
       <r>   -8.8324    1.0000 </r>
       <r>   -8.6775    1.0000 </r>
       <r>   -8.6617    1.0000 </r>
       <r>   -8.4413    1.0000 </r>
       <r>   -8.2931    1.0000 </r>
       <r>   -8.2305    1.0000 </r>
       <r>   -8.1336    1.0000 </r>
       <r>   -8.0819    1.0000 </r>
       <r>   -8.0125    1.0000 </r>
       <r>   -7.9227    1.0000 </r>
       <r>   -7.8464    1.0000 </r>
       <r>   -7.7455    1.0000 </r>
       <r>   -7.6822    1.0000 </r>
       <r>   -7.6421    1.0000 </r>
       <r>   -7.5947    1.0000 </r>
       <r>   -7.4659    1.0000 </r>
       <r>   -7.3354    1.0000 </r>
       <r>   -7.0913    1.0000 </r>
       <r>   -7.0708    1.0000 </r>
       <r>   -7.0014    1.0000 </r>
       <r>   -6.8523    1.0000 </r>
       <r>   -6.8259    1.0000 </r>
       <r>   -6.7119    1.0000 </r>
       <r>   -6.6499    1.0000 </r>
       <r>   -6.5880    1.0000 </r>
       <r>   -6.5205    1.0000 </r>
       <r>   -6.4600    1.0000 </r>
       <r>   -6.4111    1.0000 </r>
       <r>   -6.3448    1.0000 </r>
       <r>   -6.2675    1.0000 </r>
       <r>   -6.1807    1.0000 </r>
       <r>   -6.1102    1.0000 </r>
       <r>   -6.0957    1.0000 </r>
       <r>   -6.0087    1.0000 </r>
       <r>   -5.8452    1.0000 </r>
       <r>   -5.8140    1.0000 </r>
       <r>   -5.7914    1.0000 </r>
       <r>   -5.6299    1.0000 </r>
       <r>   -5.5972    1.0000 </r>
       <r>   -5.5340    1.0000 </r>
       <r>   -5.4105    1.0000 </r>
       <r>   -5.2232    1.0000 </r>
       <r>   -5.0669    1.0000 </r>
       <r>   -5.0007    1.0000 </r>
       <r>   -4.9543    1.0000 </r>
       <r>   -4.8327    1.0000 </r>
       <r>   -4.6281    1.0000 </r>
       <r>   -4.5756    1.0000 </r>
       <r>   -4.4443    1.0000 </r>
       <r>   -4.3380    1.0000 </r>
       <r>   -4.1786    1.0000 </r>
       <r>   -4.0395    1.0000 </r>
       <r>   -4.0108    1.0000 </r>
       <r>   -3.8571    1.0000 </r>
       <r>   -3.6790    0.9989 </r>
       <r>   -3.4669    0.9403 </r>
       <r>   -3.3404    0.7462 </r>
       <r>   -2.9900    0.0348 </r>
       <r>   -2.9499    0.0179 </r>
       <r>   -2.6582    0.0000 </r>
       <r>   -2.6078    0.0000 </r>
       <r>   -2.4577    0.0000 </r>
       <r>   -2.3427    0.0000 </r>
       <r>   -2.1842    0.0000 </r>
       <r>   -2.1027    0.0000 </r>
       <r>   -1.9261    0.0000 </r>
       <r>   -1.8442    0.0000 </r>
       <r>   -1.6538    0.0000 </r>
       <r>   -1.5619    0.0000 </r>
       <r>   -1.3845    0.0000 </r>
       <r>   -1.3641    0.0000 </r>
       <r>   -1.1981    0.0000 </r>
       <r>   -1.0848    0.0000 </r>
       <r>   -1.0703    0.0000 </r>
       <r>   -0.9947    0.0000 </r>
       <r>   -0.9277    0.0000 </r>
       <r>   -0.8935    0.0000 </r>
       <r>   -0.8198    0.0000 </r>
       <r>   -0.7071    0.0000 </r>
       <r>   -0.6285    0.0000 </r>
       <r>   -0.5975    0.0000 </r>
       <r>   -0.4782    0.0000 </r>
       <r>   -0.4051    0.0000 </r>
       <r>   -0.2957    0.0000 </r>
       <r>   -0.1135    0.0000 </r>
       <r>    0.0220    0.0000 </r>
       <r>    0.2010    0.0000 </r>
       <r>    0.2788    0.0000 </r>
       <r>    0.5880    0.0000 </r>
       <r>    0.7745    0.0000 </r>
       <r>    1.0475    0.0000 </r>
       <r>    1.1447    0.0000 </r>
       <r>    1.3279    0.0000 </r>
       <r>    1.5731    0.0000 </r>
       <r>    2.2533    0.0000 </r>
       <r>    2.2670    0.0000 </r>
       <r>    2.4071    0.0000 </r>
      </set>
     </set>
    </set>
   </array>
  </eigenvalues>
  <separator name="orbital magnetization" >
   <v name="MAGDIPOLOUT">      0.00000000      0.00000000      0.00000000</v>
  </separator>
 </calculation>
 <structure name="finalpos" >
  <crystal>
   <varray name="basis" >
    <v>       8.30606870       4.82169695       0.00000000 </v>
    <v>      -8.28431738       4.78404906       0.00000000 </v>
    <v>       0.00000000       0.00000000      30.00000000 </v>
   </varray>
   <i name="volume">   2390.43323862 </i>
   <varray name="rec_basis" >
    <v>       0.06003994       0.10396840       0.00000000 </v>
    <v>      -0.06051242       0.10424138       0.00000000 </v>
    <v>       0.00000000       0.00000000       0.03333333 </v>
   </varray>
  </crystal>
  <varray name="positions" >
   <v>       0.70104117       0.01659668      -0.00179881 </v>
   <v>       0.70096337       0.35101593      -0.00181018 </v>
   <v>       0.30137864      -0.01606437       0.00162131 </v>
   <v>       1.00889881       0.33818946      -0.00035082 </v>
   <v>      -0.00031457      -0.00620320      -0.00018887 </v>
   <v>      -0.00026830       0.67206858      -0.00018658 </v>
   <v>       0.29409597       0.31591843       0.00233070 </v>
   <v>       0.29416503       0.64486870       0.00232408 </v>
   <v>       0.70650197       0.68654435      -0.00203467 </v>
   <v>       0.10555469       0.21834252       0.94510233 </v>
   <v>       0.22135160       0.10643372       0.05512862 </v>
   <v>       0.10570799       0.55394845       0.94502853 </v>
   <v>       0.21399005       0.44035369       0.05809273 </v>
   <v>       0.11562426       0.89106333       0.94583855 </v>
   <v>       0.22137511       0.78151479       0.05513919 </v>
   <v>       0.44435028       0.22118917       0.95720865 </v>
   <v>       0.55705782       0.11181106       0.04206205 </v>
   <v>       0.44545923       0.55602239       0.95559275 </v>
   <v>       0.55597868       0.44338661       0.04367728 </v>
   <v>       0.44441154       0.88979230       0.95719145 </v>
   <v>       0.55600928       0.77922230       0.04366779 </v>
   <v>       0.77630436       0.22146573       0.94683168 </v>
   <v>       0.88676183       0.10971990       0.05249036 </v>
   <v>       0.78055913       0.55372584       0.94445418 </v>
   <v>       0.88666831       0.44362273       0.05255806 </v>
   <v>       0.78058599       0.89340951       0.94445505 </v>
   <v>       0.89400222       0.78025586       0.05557448 </v>
  </varray>
 </structure>
</modeling>
