unknown system                          
           1
     8.855838    5.109447    0.000000
    -8.852035    5.102905    0.000000
     0.000000    0.000000   30.000000
   V    Mo   W    S 
   3   3   3  18
Direct configuration=     1
   0.66666669  0.00000000  0.00000000
   0.66666669  0.33333334  0.00000000
   0.33333334  0.00000000  0.00000000
   1.00000000  0.33333334  0.00000000
   0.00000000  0.00000000  0.00000000
   0.00000000  0.66666669  0.00000000
   0.33333334  0.33333334  0.00000000
   0.33333334  0.66666669  0.00000000
   0.66666669  0.66666669  0.00000000
   0.11068511  0.22244981  0.95539999
   0.22244981  0.11068511  0.04460000
   0.11068511  0.55578315  0.95539999
   0.22244981  0.44401845  0.04460000
   0.11068511  0.88911647  0.95539999
   0.22244981  0.77735180  0.04460000
   0.44401845  0.22244981  0.95539999
   0.55578315  0.11068511  0.04460000
   0.44401845  0.55578315  0.95539999
   0.55578315  0.44401845  0.04460000
   0.44401845  0.88911647  0.95539999
   0.55578315  0.77735180  0.04460000
   0.77735180  0.22244981  0.95539999
   0.88911647  0.11068511  0.04460000
   0.77735180  0.55578315  0.95539999
   0.88911647  0.44401845  0.04460000
   0.77735180  0.88911647  0.95539999
   0.88911647  0.77735180  0.04460000
unknown system                          
           1
     8.667679    5.002990    0.000000
    -8.664107    4.996845    0.000000
     0.000000    0.000000   30.000000
   V    Mo   W    S 
   3   3   3  18
Direct configuration=     2
   0.66840730  0.00162976  0.00007155
   0.66847978  0.33344377  0.00005442
   0.33203185 -0.00063934  0.00001454
   0.99989728  0.33332218  0.00021051
  -0.00005653 -0.00008106 -0.00018801
  -0.00004699  0.66664739 -0.00019018
   0.33058137  0.33144209  0.00011142
   0.33047329  0.66581267  0.00013284
   0.66977555  0.66814668 -0.00021209
   0.11189239  0.22243201  0.95074841
   0.22515029  0.10970070  0.04800928
   0.11188760  0.55601311  0.95074018
   0.22302066  0.44483704  0.04939003
   0.11536843  0.89094484  0.95194093
   0.22490395  0.78170516  0.04808596
   0.44611271  0.22038458  0.95307769
   0.55566615  0.11089717  0.04582921
   0.44465083  0.55553906  0.95079617
   0.55734109  0.44233597  0.04795286
   0.44589098  0.89230204  0.95314750
   0.55709520  0.78129001  0.04802280
   0.77319994  0.22012219  0.95310673
   0.88435900  0.10895617  0.04803000
   0.77505579  0.55152738  0.95188192
   0.88436494  0.44205971  0.04803664
   0.77482780  0.89018672  0.95195213
   0.88788380  0.77725645  0.04924646
unknown system                          
           1
     8.486571    4.901763    0.000000
    -8.484444    4.898118    0.000000
     0.000000    0.000000   30.000000
   V    Mo   W    S 
   3   3   3  18
Direct configuration=     3
   0.66897154  0.00200358  0.00012418
   0.66904249  0.33364247  0.00010320
   0.33158286 -0.00086512 -0.00004086
   1.00064022  0.33369255  0.00024368
  -0.00014758 -0.00019499 -0.00020562
  -0.00013742  0.66667248 -0.00020755
   0.32941943  0.33108622  0.00007825
   0.32930948  0.66499388  0.00010198
   0.67100022  0.66876222 -0.00018075
   0.11211206  0.22255236  0.95067114
   0.22530222  0.10989252  0.04804876
   0.11210845  0.55613255  0.95066096
   0.22323289  0.44492046  0.04949613
   0.11552662  0.89104077  0.95188757
   0.22508582  0.78169479  0.04811530
   0.44601402  0.22045694  0.95322072
   0.55566295  0.11091577  0.04571537
   0.44464219  0.55555786  0.95094531
   0.55722639  0.44241894  0.04781683
   0.44583064  0.89215356  0.95327952
   0.55702181  0.78110885  0.04787323
   0.77310206  0.22004363  0.95311077
   0.88421140  0.10887159  0.04806077
   0.77488633  0.55153751  0.95182523
   0.88421450  0.44196396  0.04806906
   0.77469031  0.89002093  0.95188667
   0.88766254  0.77713815  0.04930005
unknown system                          
           1
     8.280593    4.793042    0.000000
    -8.269879    4.774522    0.000000
     0.000000    0.000000   30.000000
   V    Mo   W    S 
   3   3   3  18
Direct configuration=     4
   0.67116525  0.00283003  0.00027964
   0.67122275  0.33500674  0.00025642
   0.32959393 -0.00189179 -0.00025203
   1.00474207  0.33573056  0.00027455
  -0.00078218 -0.00093989 -0.00019332
  -0.00073943  0.66679630 -0.00019348
   0.32473701  0.33037289 -0.00006989
   0.32462145  0.66097236 -0.00004955
   0.67581514  0.67120340  0.00001629
   0.11191640  0.22252026  0.94874898
   0.22573214  0.10931514  0.04966772
   0.11192975  0.55604560  0.94873928
   0.22323362  0.44486391  0.05164516
   0.11689998  0.89177294  0.95025318
   0.22561319  0.78280922  0.04969887
   0.44649892  0.22003003  0.95247194
   0.55555032  0.11094920  0.04646994
   0.44475990  0.55570664  0.94998098
   0.55741509  0.44200016  0.04867488
   0.44642872  0.89311262  0.95249797
   0.55732216  0.78177804  0.04869162
   0.77217015  0.21947232  0.95185483
   0.88299795  0.10824704  0.04958441
   0.77431785  0.55030153  0.95009664
   0.88299727  0.44130006  0.04959239
   0.77421359  0.89071202  0.95012493
   0.88784146  0.77719713  0.05113756
unknown system                          
           1
     8.286366    4.807725    0.000000
    -8.266131    4.772710    0.000000
     0.000000    0.000000   30.000000
   V    Mo   W    S 
   3   3   3  18
Direct configuration=     5
   0.67551409  0.00443527  0.00039421
   0.67552493  0.33766707  0.00037836
   0.32621317 -0.00363707 -0.00054886
   1.01393747  0.34031362  0.00014140
  -0.00247285 -0.00305301 -0.00008010
  -0.00232658  0.66724701 -0.00008277
   0.31448811  0.32887345 -0.00020088
   0.31435681  0.65218054 -0.00018764
   0.68700788  0.67685882  0.00020977
   0.11044058  0.22158866  0.94597192
   0.22563793  0.10865249  0.05172036
   0.11045563  0.55551161  0.94595897
   0.22269729  0.44459576  0.05509965
   0.11781738  0.89223554  0.94793036
   0.22561449  0.78357493  0.05173493
   0.44665885  0.21984582  0.95169722
   0.55536327  0.11097016  0.04765488
   0.44536898  0.55604672  0.94920617
   0.55704880  0.44156537  0.04934311
   0.44670376  0.89342219  0.95170151
   0.55704929  0.78201807  0.04933259
   0.77221472  0.21934397  0.95019718
   0.88248957  0.10830991  0.05163943
   0.77429289  0.54919226  0.94763374
   0.88250376  0.44075587  0.05164790
   0.77426405  0.89174553  0.94763454
   0.88935016  0.77795389  0.05387197
unknown system                          
           1
     8.284611    4.807893    0.000000
    -8.263419    4.771221    0.000000
     0.000000    0.000000   30.000000
   V    Mo   W    S 
   3   3   3  18
Direct configuration=     6
   0.67750931  0.00579870  0.00042204
   0.67751260  0.33828438  0.00040837
   0.32521197 -0.00413770 -0.00057317
   1.01474610  0.34071808 -0.00006764
  -0.00279118 -0.00398002 -0.00006112
  -0.00266965  0.66782789 -0.00006648
   0.31164161  0.32809371 -0.00001202
   0.31154449  0.65014269  0.00000266
   0.69041656  0.67854317  0.00003182
   0.10924965  0.22068205  0.94560758
   0.22524829  0.10882542  0.05177266
   0.10925083  0.55520650  0.94559140
   0.22248676  0.44450724  0.05569920
   0.11727641  0.89196125  0.94775563
   0.22523475  0.78301505  0.05179381
   0.44593992  0.22052727  0.95198641
   0.55553353  0.11104670  0.04759048
   0.44603031  0.55636754  0.94975757
   0.55630829  0.44197289  0.04878672
   0.44596659  0.89200833  0.95199323
   0.55628098  0.78088266  0.04878356
   0.77322178  0.21986499  0.95014777
   0.88337899  0.10914939  0.05169268
   0.77479472  0.54966032  0.94742411
   0.88339123  0.44082279  0.05169604
   0.77477013  0.89177555  0.94742110
   0.89072947  0.77864763  0.05441549
unknown system                          
           1
     8.299236    4.827580    0.000000
    -8.268405    4.774213    0.000000
     0.000000    0.000000   30.000000
   V    Mo   W    S 
   3   3   3  18
Direct configuration=     7
   0.68056655  0.00802304  0.00051481
   0.68053865  0.33907107  0.00050325
   0.32377643 -0.00486327 -0.00073030
   1.01594554  0.34131314 -0.00020420
  -0.00307199 -0.00530542 -0.00003553
  -0.00294456  0.66887800 -0.00004106
   0.30722149  0.32661187  0.00004131
   0.30714717  0.64722049  0.00005368
   0.69538242  0.68103333  0.00002454
   0.10826489  0.21982868  0.94525975
   0.22480025  0.10880660  0.05195942
   0.10826786  0.55506237  0.94524608
   0.22154854  0.44405604  0.05636248
   0.11687797  0.89175425  0.94752941
   0.22478603  0.78259383  0.05198290
   0.44526001  0.22127886  0.95249982
   0.55575777  0.11116409  0.04738783
   0.44679785  0.55674046  0.95057748
   0.55552690  0.44244392  0.04797745
   0.44527577  0.89056470  0.95250595
   0.55548857  0.77964600  0.04797871
   0.77394051  0.22023687  0.94993404
   0.88412044  0.10978142  0.05176524
   0.77547275  0.55003794  0.94709270
   0.88412899  0.44094719  0.05176678
   0.77545657  0.89206197  0.94708811
   0.89188106  0.77922702  0.05495926
unknown system                          
           1
     8.304980    4.838032    0.000000
    -8.267987    4.773993    0.000000
     0.000000    0.000000   30.000000
   V    Mo   W    S 
   3   3   3  18
Direct configuration=     8
   0.68501124  0.01128931  0.00056713
   0.68496870  0.34021557  0.00055876
   0.32155827 -0.00598211 -0.00088226
   1.01613868  0.34140870 -0.00044789
  -0.00302141 -0.00697417 -0.00000851
  -0.00291623  0.67058285 -0.00001515
   0.30201413  0.32457253  0.00031504
   0.30197532  0.64407664  0.00032486
   0.70081980  0.68374717 -0.00022966
   0.10669318  0.21859336  0.94479497
   0.22437867  0.10878716  0.05218293
   0.10669734  0.55471177  0.94478423
   0.22014103  0.44337100  0.05707880
   0.11637013  0.89149492  0.94720257
   0.22436350  0.78220168  0.05220739
   0.44443423  0.22226443  0.95327903
   0.55615293  0.11136376  0.04701682
   0.44788935  0.55727428  0.95176299
   0.55450779  0.44300894  0.04679628
   0.44443991  0.88874334  0.95328363
   0.55446437  0.77808248  0.04680248
   0.77455405  0.22055765  0.94960886
   0.88510292  0.11044606  0.05189805
   0.77634040  0.55052108  0.94674962
   0.88509953  0.44127513  0.05189652
   0.77633525  0.89243792  0.94673993
   0.89370138  0.78014299  0.05573247
unknown system                          
           1
     8.317611    4.844958    0.000000
    -8.280893    4.781396    0.000000
     0.000000    0.000000   30.000000
   V    Mo   W    S 
   3   3   3  18
Direct configuration=     9
   0.68856469  0.01365614  0.00052499
   0.68861434  0.34148274  0.00051935
   0.31922797 -0.00715096 -0.00093649
   1.01461173  0.34066115 -0.00066314
  -0.00232220 -0.00800510  0.00001003
  -0.00231174  0.67223256  0.00000327
   0.29929295  0.32294670  0.00059537
   0.29928005  0.64299078  0.00060379
   0.70310321  0.68484336 -0.00053962
   0.10553889  0.21778426  0.94461600
   0.22421061  0.10859194  0.05239346
   0.10554099  0.55435885  0.94460571
   0.21833939  0.44247584  0.05738964
   0.11601614  0.89131908  0.94689351
   0.22419739  0.78223811  0.05241485
   0.44404762  0.22292261  0.95406198
   0.55662162  0.11161800  0.04651914
   0.44859391  0.55762063  0.95286636
   0.55380951  0.44322740  0.04573202
   0.44403363  0.88769447  0.95405402
   0.55377405  0.77716066  0.04574516
   0.77458710  0.22060136  0.94924429
   0.88585813  0.11059791  0.05204664
   0.77714389  0.55079638  0.94657512
   0.88580138  0.44185597  0.05203665
   0.77715752  0.89295661  0.94655934
   0.89488170  0.78073702  0.05612847
unknown system                          
           1
     8.318066    4.846442    0.000000
    -8.280344    4.781140    0.000000
     0.000000    0.000000   30.000000
   V    Mo   W    S 
   3   3   3  18
Direct configuration=    10
   0.69170844  0.01547051  0.00041980
   0.69174494  0.34281947  0.00040723
   0.31657749 -0.00848299 -0.00085508
   1.01311272  0.33990768 -0.00073638
  -0.00160544 -0.00861436  0.00000465
  -0.00159231  0.67356795  0.00000241
   0.29683960  0.32134684  0.00082006
   0.29683517  0.64213686  0.00082930
   0.70519019  0.68589832 -0.00075099
   0.10483073  0.21725648  0.94458166
   0.22412897  0.10821516  0.05268052
   0.10484443  0.55418748  0.94456990
   0.21641864  0.44152531  0.05754191
   0.11572085  0.89116148  0.94653953
   0.22410959  0.78252853  0.05269626
   0.44400291  0.22336929  0.95471601
   0.55707169  0.11184991  0.04599336
   0.44898376  0.55781028  0.95373998
   0.55329303  0.44318485  0.04492073
   0.44398408  0.88720330  0.95470058
   0.55327574  0.77669417  0.04492940
   0.77445829  0.22054089  0.94883307
   0.88652294  0.11055292  0.05219390
   0.77795161  0.55101165  0.94636364
   0.88647724  0.44256824  0.05219828
   0.77797558  0.89353179  0.94636119
   0.89535356  0.78097246  0.05629898
unknown system                          
           1
     8.321327    4.846857    0.000000
    -8.284883    4.783769    0.000000
     0.000000    0.000000   30.000000
   V    Mo   W    S 
   3   3   3  18
Direct configuration=    11
   0.69420854  0.01658747  0.00022880
   0.69412118  0.34411664  0.00021675
   0.31383539 -0.00986291 -0.00068382
   1.01158005  0.33912562 -0.00077070
  -0.00094788 -0.00887416 -0.00002154
  -0.00085079  0.67456155 -0.00002223
   0.29536136  0.32013239  0.00106799
   0.29534925  0.64187507  0.00107241
   0.70620183  0.68644515 -0.00102936
   0.10426858  0.21690976  0.94463353
   0.22411357  0.10786756  0.05295467
   0.10430205  0.55398809  0.94462593
   0.21473092  0.44068898  0.05757898
   0.11547651  0.89102819  0.94622460
   0.22408310  0.78285011  0.05296909
   0.44409590  0.22355261  0.95529880
   0.55750566  0.11204186  0.04540864
   0.44892628  0.55777752  0.95444681
   0.55308398  0.44309441  0.04430270
   0.44411103  0.88713222  0.95528669
   0.55309130  0.77660912  0.04430373
   0.77428027  0.22041214  0.94848868
   0.88713560  0.11041412  0.05231085
   0.77868129  0.55133663  0.94621016
   0.88715177  0.44334505  0.05233365
   0.77869774  0.89395286  0.94621842
   0.89562000  0.78110642  0.05634567
unknown system                          
           1
     8.317898    4.844083    0.000000
    -8.282134    4.782173    0.000000
     0.000000    0.000000   30.000000
   V    Mo   W    S 
   3   3   3  18
Direct configuration=    12
   0.69468316  0.01646471  0.00007371
   0.69475746  0.34484578  0.00007438
   0.31246520 -0.01055085 -0.00050927
   1.01092460  0.33883242 -0.00072547
  -0.00065613 -0.00863305 -0.00003320
  -0.00067801  0.67449872 -0.00003938
   0.29536334  0.31975709  0.00116501
   0.29537121  0.64226031  0.00116676
   0.70600778  0.68628052 -0.00109791
   0.10424008  0.21694392  0.94469650
   0.22411608  0.10769828  0.05313104
   0.10425809  0.55391019  0.94468850
   0.21425300  0.44044323  0.05758736
   0.11546112  0.89103180  0.94608118
   0.22410353  0.78303550  0.05314923
   0.44433616  0.22342762  0.95547390
   0.55758864  0.11210727  0.04511165
   0.44853014  0.55758265  0.95454259
   0.55328997  0.44300903  0.04423810
   0.44432218  0.88748410  0.95545486
   0.55327792  0.77687228  0.04424893
   0.77420338  0.22040473  0.94834417
   0.88738019  0.11031700  0.05237123
   0.77892279  0.55149186  0.94609791
   0.88730586  0.44364014  0.05236563
   0.77894540  0.89403830  0.94608693
   0.89544132  0.78102094  0.05625557
unknown system                          
           1
     8.318049    4.842429    0.000000
    -8.283802    4.783145    0.000000
     0.000000    0.000000   30.000000
   V    Mo   W    S 
   3   3   3  18
Direct configuration=    13
   0.69522322  0.01649425 -0.00002454
   0.69522877  0.34531284 -0.00003319
   0.31149020 -0.01103715 -0.00039462
   1.01061908  0.33867165 -0.00069678
  -0.00054814 -0.00850863 -0.00005375
  -0.00052771  0.67451489 -0.00005595
   0.29519273  0.31943451  0.00123052
   0.29519743  0.64240806  0.00123698
   0.70604882  0.68632954 -0.00116561
   0.10425769  0.21700235  0.94475530
   0.22408826  0.10761053  0.05324546
   0.10427937  0.55387463  0.94474304
   0.21401675  0.44033015  0.05757892
   0.11544673  0.89101980  0.94601662
   0.22407089  0.78308652  0.05326161
   0.44442991  0.22332749  0.95560971
   0.55761595  0.11211464  0.04489431
   0.44826992  0.55745033  0.95462798
   0.55342033  0.44300010  0.04418774
   0.44442499  0.88768199  0.95559010
   0.55341626  0.77701985  0.04419381
   0.77417851  0.22038544  0.94825494
   0.88745640  0.11023111  0.05237938
   0.77907718  0.55165433  0.94601875
   0.88741892  0.44381978  0.05238854
   0.77909603  0.89402416  0.94601801
   0.89532596  0.78096132  0.05619262
unknown system                          
           1
     8.313381    4.836481    0.000000
    -8.281978    4.782123    0.000000
     0.000000    0.000000   30.000000
   V    Mo   W    S 
   3   3   3  18
Direct configuration=    14
   0.69603614  0.01651060 -0.00019884
   0.69606622  0.34614148 -0.00020653
   0.30999905 -0.01178213 -0.00019426
   1.01011614  0.33843796 -0.00065250
  -0.00038235 -0.00824232 -0.00007427
  -0.00038119  0.67438372 -0.00007751
   0.29501994  0.31896971  0.00135517
   0.29502111  0.64269710  0.00135622
   0.70604141  0.68631399 -0.00126450
   0.10426235  0.21707703  0.94479407
   0.22399207  0.10746516  0.05345026
   0.10429111  0.55380767  0.94478298
   0.21374136  0.44018973  0.05761194
   0.11542754  0.89100817  0.94589763
   0.22397684  0.78313626  0.05346709
   0.44457799  0.22316830  0.95580072
   0.55760835  0.11211298  0.04456929
   0.44789965  0.55726509  0.95473046
   0.55364306  0.44300225  0.04412917
   0.44456819  0.88798699  0.95578032
   0.55364106  0.77723995  0.04413516
   0.77418505  0.22039075  0.94810368
   0.88756510  0.11012692  0.05242087
   0.77929188  0.55188041  0.94586327
   0.88751949  0.44402699  0.05242967
   0.77930926  0.89401247  0.94586282
   0.89517761  0.78088722  0.05612753
unknown system                          
           1
     8.311957    4.830054    0.000000
    -8.285481    4.784227    0.000000
     0.000000    0.000000   30.000000
   V    Mo   W    S 
   3   3   3  18
Direct configuration=    15
   0.69759213  0.01653634 -0.00052977
   0.69753302  0.34761530 -0.00054215
   0.30734081 -0.01310379  0.00017668
   1.00947154  0.33811780 -0.00058328
  -0.00019417 -0.00775417 -0.00012292
  -0.00013020  0.67412033 -0.00011977
   0.29463148  0.31809485  0.00154585
   0.29465053  0.64319059  0.00155505
   0.70616439  0.68641150 -0.00142955
   0.10439379  0.21731226  0.94489660
   0.22372598  0.10724801  0.05381678
   0.10442605  0.55370980  0.94487578
   0.21343830  0.44004685  0.05766955
   0.11538203  0.89097703  0.94574945
   0.22370758  0.78307059  0.05383066
   0.44471467  0.22282476  0.95617681
   0.55753576  0.11205334  0.04394411
   0.44719312  0.55690701  0.95494868
   0.55407536  0.44307325  0.04401256
   0.44473504  0.88848392  0.95616044
   0.55408835  0.77762579  0.04400926
   0.77429694  0.22042586  0.94784169
   0.88765172  0.10996496  0.05248058
   0.77961711  0.55232727  0.94557045
   0.88765041  0.44429531  0.05250707
   0.77962784  0.89389744  0.94558159
   0.89489486  0.78074223  0.05597773
unknown system                          
           1
     8.310772    4.828139    0.000000
    -8.285333    4.784108    0.000000
     0.000000    0.000000   30.000000
   V    Mo   W    S 
   3   3   3  18
Direct configuration=    16
   0.70094445  0.01655097 -0.00129854
   0.70093397  0.35102413 -0.00130089
   0.30145516 -0.01603014  0.00105908
   1.00799896  0.33745499 -0.00040557
   0.00027439 -0.00664576 -0.00020756
   0.00029300  0.67337662 -0.00020811
   0.29391253  0.31614332  0.00204970
   0.29393966  0.64442021  0.00204699
   0.70636178  0.68647744 -0.00181836
   0.10462442  0.21777917  0.94503122
   0.22295097  0.10671370  0.05467881
   0.10468175  0.55348289  0.94500676
   0.21296480  0.43980772  0.05783965
   0.11524740  0.89090374  0.94542709
   0.22295159  0.78282967  0.05469559
   0.44501633  0.22199297  0.95701053
   0.55727475  0.11192201  0.04251502
   0.44568951  0.55615027  0.95540735
   0.55512189  0.44322977  0.04376306
   0.44504036  0.88962101  0.95699478
   0.55513266  0.77851343  0.04375907
   0.77469850  0.22063891  0.94721294
   0.88785405  0.10969216  0.05265186
   0.78032259  0.55330194  0.94486466
   0.88780139  0.44474203  0.05267123
   0.78033410  0.89363137  0.94486699
   0.89439349  0.78048991  0.05568656
unknown system                          
           1
     8.310525    4.827331    0.000000
    -8.285683    4.784336    0.000000
     0.000000    0.000000   30.000000
   V    Mo   W    S 
   3   3   3  18
Direct configuration=    17
   0.70004705  0.01654786 -0.00116190
   0.70006998  0.35015047 -0.00116912
   0.30315418 -0.01517939  0.00090520
   1.00852337  0.33772852 -0.00042892
   0.00008346 -0.00689316 -0.00019202
   0.00006563  0.67339809 -0.00019343
   0.29410071  0.31654379  0.00195458
   0.29412700  0.64420591  0.00195406
   0.70636451  0.68646436 -0.00174810
   0.10470072  0.21776352  0.94499692
   0.22282727  0.10678076  0.05454884
   0.10475521  0.55357347  0.94496958
   0.21332181  0.43998538  0.05782823
   0.11524634  0.89090677  0.94557943
   0.22283292  0.78264577  0.05456320
   0.44483524  0.22202748  0.95686280
   0.55721495  0.11190975  0.04274716
   0.44600243  0.55630671  0.95533903
   0.55503011  0.44323620  0.04380540
   0.44483887  0.88939510  0.95684353
   0.55503331  0.77839814  0.04380463
   0.77486542  0.22074534  0.94731889
   0.88768233  0.10978530  0.05259359
   0.78018622  0.55317878  0.94496272
   0.88761084  0.44447064  0.05261182
   0.78020443  0.89360094  0.94496179
   0.89449013  0.78053796  0.05574199
unknown system                          
           1
     8.309787    4.826287    0.000000
    -8.285518    4.784282    0.000000
     0.000000    0.000000   30.000000
   V    Mo   W    S 
   3   3   3  18
Direct configuration=    18
   0.70031813  0.01655496 -0.00128021
   0.70035494  0.35043508 -0.00129177
   0.30272063 -0.01538876  0.00104517
   1.00854202  0.33776678 -0.00041062
   0.00004949 -0.00676773 -0.00019780
   0.00001705  0.67319927 -0.00019719
   0.29404755  0.31636150  0.00203665
   0.29408084  0.64433392  0.00203674
   0.70641845  0.68648618 -0.00181499
   0.10480874  0.21785856  0.94500989
   0.22256489  0.10670747  0.05465292
   0.10487067  0.55359294  0.94497553
   0.21347344  0.44006221  0.05786202
   0.11525466  0.89090814  0.94560933
   0.22257482  0.78245705  0.05466431
   0.44478974  0.22187718  0.95694079
   0.55713334  0.11187515  0.04258733
   0.44587070  0.55623873  0.95539071
   0.55520690  0.44326891  0.04378391
   0.44478751  0.88949734  0.95692035
   0.55521265  0.77853791  0.04378120
   0.77508484  0.22086594  0.94724261
   0.88757786  0.10977933  0.05258779
   0.78024168  0.55328685  0.94486850
   0.88749966  0.44436814  0.05261237
   0.78026277  0.89353597  0.94487175
   0.89445049  0.78051544  0.05571261
unknown system                          
           1
     8.310059    4.824037    0.000000
    -8.288010    4.785877    0.000000
     0.000000    0.000000   30.000000
   V    Mo   W    S 
   3   3   3  18
Direct configuration=    19
   0.70035608  0.01653379 -0.00133538
   0.70034705  0.35046084 -0.00134838
   0.30259510 -0.01544936  0.00110714
   1.00867118  0.33784397 -0.00040489
   0.00003181 -0.00671987 -0.00019632
   0.00002942  0.67313825 -0.00019402
   0.29406002  0.31632086  0.00206198
   0.29409047  0.64438558  0.00206052
   0.70643546  0.68650956 -0.00183225
   0.10489391  0.21791562  0.94502009
   0.22241005  0.10666734  0.05469980
   0.10496839  0.55363239  0.94498317
   0.21357663  0.44011642  0.05789085
   0.11530096  0.89092646  0.94564538
   0.22241851  0.78234015  0.05471000
   0.44471548  0.22178740  0.95696672
   0.55708189  0.11184219  0.04253172
   0.44582752  0.55621468  0.95541599
   0.55528886  0.44329724  0.04377568
   0.44472473  0.88952076  0.95694838
   0.55530201  0.77860031  0.04377041
   0.77524389  0.22093435  0.94719725
   0.88747669  0.10977982  0.05257518
   0.78026196  0.55333534  0.94481746
   0.88741838  0.44427747  0.05261049
   0.78028058  0.89351178  0.94482631
   0.89440743  0.78049112  0.05569662
unknown system                          
           1
     8.309501    4.824220    0.000000
    -8.287017    4.785306    0.000000
     0.000000    0.000000   30.000000
   V    Mo   W    S 
   3   3   3  18
Direct configuration=    20
   0.70078443  0.01655119 -0.00155112
   0.70063555  0.35075938 -0.00156136
   0.30183878 -0.01582567  0.00135390
   1.00877117  0.33793727 -0.00037478
  -0.00006011 -0.00650193 -0.00019854
   0.00003089  0.67283967 -0.00019353
   0.29408341  0.31605831  0.00217468
   0.29411651  0.64467894  0.00216935
   0.70646769  0.68656415 -0.00191771
   0.10515143  0.21809704  0.94505385
   0.22194544  0.10651423  0.05489441
   0.10525804  0.55374054  0.94500964
   0.21381884  0.44024680  0.05798485
   0.11545309  0.89098924  0.94571798
   0.22195210  0.78202316  0.05490299
   0.44454505  0.22147915  0.95709738
   0.55695629  0.11175380  0.04227149
   0.44561888  0.55610355  0.95551235
   0.55560414  0.44336616  0.04373171
   0.44459776  0.88968861  0.95708622
   0.55563104  0.77887079  0.04372153
   0.77569449  0.22112469  0.94704294
   0.88716288  0.10973918  0.05253755
   0.78037676  0.55352613  0.94464297
   0.88714072  0.44402814  0.05259412
   0.78039018  0.89345897  0.94465754
   0.89424902  0.78040294  0.05563946
unknown system                          
           1
     8.307647    4.822742    0.000000
    -8.285512    4.784431    0.000000
     0.000000    0.000000   30.000000
   V    Mo   W    S 
   3   3   3  18
Direct configuration=    21
   0.70100514  0.01658146 -0.00172157
   0.70091600  0.35096879 -0.00171535
   0.30142383 -0.01603651  0.00154768
   1.00885611  0.33805691 -0.00034879
  -0.00020549 -0.00633493 -0.00019592
  -0.00014925  0.67243477 -0.00019823
   0.29408673  0.31591572  0.00228869
   0.29415684  0.64485489  0.00228240
   0.70650941  0.68655572 -0.00200753
   0.10541079  0.21824251  0.94508909
   0.22156196  0.10645780  0.05503844
   0.10552321  0.55386159  0.94503424
   0.21404247  0.44036596  0.05803062
   0.11556941  0.89104676  0.94579298
   0.22158681  0.78170833  0.05505134
   0.44439433  0.22125665  0.95718475
   0.55693747  0.11174211  0.04209250
   0.44549248  0.55603690  0.95558305
   0.55586654  0.44340169  0.04368591
   0.44446437  0.88977499  0.95717451
   0.55588719  0.77909774  0.04368102
   0.77608118  0.22133243  0.94692595
   0.88690697  0.10972359  0.05249760
   0.78046880  0.55367873  0.94454343
   0.88681136  0.44375817  0.05253864
   0.78049602  0.89340354  0.94453473
   0.89411377  0.78032814  0.05558972
unknown system                          
           1
     8.305280    4.821286    0.000000
    -8.283418    4.783447    0.000000
     0.000000    0.000000   30.000000
   V    Mo   W    S 
   3   3   3  18
Direct configuration=    22
   0.70093323  0.01656104 -0.00171506
   0.70087697  0.35095023 -0.00171766
   0.30151164 -0.01598886  0.00153141
   1.00890039  0.33809494 -0.00035711
  -0.00021090 -0.00634217 -0.00019536
  -0.00019017  0.67239749 -0.00019693
   0.29407099  0.31594900  0.00227061
   0.29413998  0.64480322  0.00226610
   0.70652525  0.68655202 -0.00198984
   0.10543799  0.21825665  0.94510295
   0.22155461  0.10647383  0.05503977
   0.10555521  0.55387730  0.94504271
   0.21398501  0.44033975  0.05803713
   0.11554672  0.89103832  0.94579718
   0.22158454  0.78168557  0.05505190
   0.44440408  0.22128526  0.95718118
   0.55699338  0.11178124  0.04211567
   0.44549318  0.55603942  0.95558250
   0.55585560  0.44339293  0.04368343
   0.44445633  0.88974450  0.95716574
   0.55587680  0.77908743  0.04367810
   0.77608273  0.22135629  0.94691895
   0.88692417  0.10972427  0.05250225
   0.78048652  0.55366484  0.94453966
   0.88682261  0.44376949  0.05254953
   0.78051941  0.89341167  0.94453422
   0.89407820  0.78030879  0.05558088
unknown system                          
           1
     8.306069    4.821697    0.000000
    -8.284317    4.784049    0.000000
     0.000000    0.000000   30.000000
   V    Mo   W    S 
   3   3   3  18
Direct configuration=    23
   0.70099123  0.01658489 -0.00176687
   0.70093519  0.35099527 -0.00177542
   0.30144502 -0.01602901  0.00159164
   1.00891089  0.33816508 -0.00034832
  -0.00028603 -0.00624511 -0.00018950
  -0.00025749  0.67215904 -0.00018833
   0.29409318  0.31593926  0.00231570
   0.29415046  0.64483614  0.00230813
   0.70648764  0.68652991 -0.00202420
   0.10549596  0.21830903  0.94509597
   0.22142274  0.10644574  0.05509976
   0.10563674  0.55391232  0.94503071
   0.21398695  0.44034706  0.05807000
   0.11559207  0.89104957  0.94581798
   0.22144425  0.78157369  0.05510912
   0.44437004  0.22121868  0.95719808
   0.55703595  0.11180297  0.04207887
   0.44548031  0.55603335  0.95558863
   0.55594110  0.44339142  0.04368012
   0.44442551  0.88977830  0.95718161
   0.55596734  0.77917670  0.04367256
   0.77624199  0.22143443  0.94686262
   0.88682788  0.10973483  0.05249296
   0.78053587  0.55371339  0.94448317
   0.88673184  0.44367432  0.05255084
   0.78055981  0.89340206  0.94448013
   0.89404801  0.78028113  0.05558394
unknown system                          
           1
     8.306069    4.821697    0.000000
    -8.284317    4.784049    0.000000
     0.000000    0.000000   30.000000
   V    Mo   W    S 
   3   3   3  18
Direct configuration=    24
   0.70104117  0.01659668 -0.00179881
   0.70096337  0.35101593 -0.00181018
   0.30137864 -0.01606437  0.00162131
   1.00889881  0.33818946 -0.00035082
  -0.00031457 -0.00620320 -0.00018887
  -0.00026830  0.67206858 -0.00018658
   0.29409597  0.31591843  0.00233070
   0.29416503  0.64486870  0.00232408
   0.70650197  0.68654435 -0.00203467
   0.10555469  0.21834252  0.94510233
   0.22135160  0.10643372  0.05512862
   0.10570799  0.55394845  0.94502853
   0.21399005  0.44035369  0.05809273
   0.11562426  0.89106333  0.94583855
   0.22137511  0.78151479  0.05513919
   0.44435028  0.22118917  0.95720865
   0.55705782  0.11181106  0.04206205
   0.44545923  0.55602239  0.95559275
   0.55597868  0.44338661  0.04367728
   0.44441154  0.88979230  0.95719145