   27   27  100    1
  0.9710400E+02  0.1002848E-08  0.1002848E-08  0.3000000E-08  0.5000000E-15
  1.000000000000000E-004
  CAR 
 unknown system                          
    159     34    120
 
  0.0000000E+00  0.0000000E+00  0.0000000E+00  0.1562500E-01
    1      -17.797465   1.000000
    2      -16.749295   1.000000
    3      -16.654749   1.000000
    4      -16.571612   1.000000
    5      -16.512402   1.000000
    6      -16.462640   1.000000
    7      -16.393722   1.000000
    8      -16.313405   1.000000
    9      -16.217010   1.000000
   10      -16.161371   1.000000
   11      -16.064174   1.000000
   12      -16.017455   1.000000
   13      -15.867566   1.000000
   14      -15.603947   1.000000
   15      -15.565826   1.000000
   16      -15.460426   1.000000
   17      -15.371103   1.000000
   18      -15.240421   1.000000
   19       -9.306254   1.000000
   20       -9.083549   1.000000
   21       -8.961834   1.000000
   22       -8.901915   1.000000
   23       -8.812881   1.000000
   24       -8.741935   1.000000
   25       -8.624883   1.000000
   26       -8.601208   1.000000
   27       -8.508352   1.000000
   28       -8.402640   1.000000
   29       -8.339946   1.000000
   30       -8.290285   1.000000
   31       -8.234462   1.000000
   32       -8.111744   1.000000
   33       -8.016289   1.000000
   34       -7.949827   1.000000
   35       -7.908177   1.000000
   36       -7.799711   1.000000
   37       -7.680214   1.000000
   38       -7.515593   1.000000
   39       -7.484695   1.000000
   40       -7.447809   1.000000
   41       -7.278101   1.000000
   42       -7.166690   1.000000
   43       -7.132792   1.000000
   44       -6.998278   1.000000
   45       -6.844788   1.000000
   46       -6.813383   1.000000
   47       -6.642248   1.000000
   48       -6.610749   1.000000
   49       -6.568337   1.000000
   50       -6.535952   1.000000
   51       -6.496551   1.000000
   52       -6.414123   1.000000
   53       -6.314331   1.000000
   54       -6.256384   1.000000
   55       -6.205852   1.000000
   56       -6.189006   1.000000
   57       -6.078305   1.000000
   58       -5.918589   1.000000
   59       -5.719742   1.000000
   60       -5.566729   1.000000
   61       -5.522725   1.000000
   62       -5.429926   1.000000
   63       -5.224766   1.000000
   64       -5.121670   1.000000
   65       -5.035547   1.000000
   66       -4.973675   1.000000
   67       -4.888087   1.000000
   68       -4.857824   1.000000
   69       -4.813471   1.000000
   70       -4.745216   1.000000
   71       -4.642598   1.000000
   72       -4.608698   1.000000
   73       -4.494394   1.000000
   74       -4.338708   1.000000
   75       -4.291480   1.000000
   76       -4.118680   1.000000
   77       -3.822014   0.999588
   78       -3.586409   0.953404
   79       -3.511272   0.874412
   80       -3.364189   0.542790
   81       -3.319778   0.418174
   82       -2.865248   0.000312
   83       -2.737451   0.000008
   84       -2.614731   0.000000
   85       -2.521938   0.000000
   86       -2.476442   0.000000
   87       -2.364360   0.000000
   88       -2.245084   0.000000
   89       -2.222108   0.000000
   90       -2.071505   0.000000
   91       -2.045746   0.000000
   92       -1.396015   0.000000
   93       -1.323792   0.000000
   94       -1.263858   0.000000
   95       -1.109965   0.000000
   96       -1.059359   0.000000
   97       -0.999057   0.000000
   98       -0.854048   0.000000
   99       -0.707347   0.000000
  100       -0.698839   0.000000
  101       -0.624901   0.000000
  102       -0.526340   0.000000
  103       -0.493211   0.000000
  104       -0.336281   0.000000
  105       -0.212854   0.000000
  106       -0.125596   0.000000
  107       -0.073421   0.000000
  108       -0.001561   0.000000
  109        0.074151   0.000000
  110        0.279663   0.000000
  111        0.319558   0.000000
  112        0.599625   0.000000
  113        0.754346   0.000000
  114        0.785476   0.000000
  115        0.836364   0.000000
  116        1.039328   0.000000
  117        1.116510   0.000000
  118        1.639886   0.000000
  119        1.837884   0.000000
  120        2.148053   0.000000
 
  0.1250000E+00  0.2775558E-16  0.0000000E+00  0.3125000E-01
    1      -17.773663   1.000000
    2      -16.790075   1.000000
    3      -16.706097   1.000000
    4      -16.646807   1.000000
    5      -16.522998   1.000000
    6      -16.416225   1.000000
    7      -16.366105   1.000000
    8      -16.286493   1.000000
    9      -16.206265   1.000000
   10      -16.163193   1.000000
   11      -16.055581   1.000000
   12      -15.947329   1.000000
   13      -15.853401   1.000000
   14      -15.621509   1.000000
   15      -15.579623   1.000000
   16      -15.460644   1.000000
   17      -15.374762   1.000000
   18      -15.244007   1.000000
   19       -9.326041   1.000000
   20       -9.150714   1.000000
   21       -9.020862   1.000000
   22       -8.961094   1.000000
   23       -8.876926   1.000000
   24       -8.765437   1.000000
   25       -8.674455   1.000000
   26       -8.596050   1.000000
   27       -8.496841   1.000000
   28       -8.393394   1.000000
   29       -8.368455   1.000000
   30       -8.215882   1.000000
   31       -8.107773   1.000000
   32       -8.025103   1.000000
   33       -7.954206   1.000000
   34       -7.906537   1.000000
   35       -7.835010   1.000000
   36       -7.735388   1.000000
   37       -7.639975   1.000000
   38       -7.558985   1.000000
   39       -7.512891   1.000000
   40       -7.491594   1.000000
   41       -7.244933   1.000000
   42       -7.173773   1.000000
   43       -7.105313   1.000000
   44       -7.058629   1.000000
   45       -6.914927   1.000000
   46       -6.790981   1.000000
   47       -6.642230   1.000000
   48       -6.608133   1.000000
   49       -6.583307   1.000000
   50       -6.529859   1.000000
   51       -6.474508   1.000000
   52       -6.409503   1.000000
   53       -6.374889   1.000000
   54       -6.229187   1.000000
   55       -6.197244   1.000000
   56       -6.183524   1.000000
   57       -5.990553   1.000000
   58       -5.908224   1.000000
   59       -5.722667   1.000000
   60       -5.557914   1.000000
   61       -5.528142   1.000000
   62       -5.486232   1.000000
   63       -5.309657   1.000000
   64       -5.273851   1.000000
   65       -5.096545   1.000000
   66       -4.980057   1.000000
   67       -4.916703   1.000000
   68       -4.846334   1.000000
   69       -4.721450   1.000000
   70       -4.679631   1.000000
   71       -4.616674   1.000000
   72       -4.601717   1.000000
   73       -4.451041   1.000000
   74       -4.279745   1.000000
   75       -4.243019   1.000000
   76       -4.136468   1.000000
   77       -3.912658   0.999966
   78       -3.714879   0.995162
   79       -3.510312   0.873005
   80       -3.324768   0.432000
   81       -3.278880   0.310033
   82       -2.822798   0.000099
   83       -2.715489   0.000004
   84       -2.601320   0.000000
   85       -2.515173   0.000000
   86       -2.457213   0.000000
   87       -2.337882   0.000000
   88       -2.215531   0.000000
   89       -2.210663   0.000000
   90       -2.092677   0.000000
   91       -2.029014   0.000000
   92       -1.406183   0.000000
   93       -1.348174   0.000000
   94       -1.249882   0.000000
   95       -1.118012   0.000000
   96       -1.070148   0.000000
   97       -0.984581   0.000000
   98       -0.870941   0.000000
   99       -0.804222   0.000000
  100       -0.738440   0.000000
  101       -0.649864   0.000000
  102       -0.579767   0.000000
  103       -0.523228   0.000000
  104       -0.402948   0.000000
  105       -0.269708   0.000000
  106       -0.129757   0.000000
  107       -0.094164   0.000000
  108        0.004044   0.000000
  109        0.077188   0.000000
  110        0.262390   0.000000
  111        0.323245   0.000000
  112        0.576452   0.000000
  113        0.756429   0.000000
  114        0.813848   0.000000
  115        0.919260   0.000000
  116        1.077391   0.000000
  117        1.123018   0.000000
  118        1.681829   0.000000
  119        1.877981   0.000000
  120        2.182694   0.000000
 
  0.2500000E+00  0.5551115E-16  0.0000000E+00  0.3125000E-01
    1      -17.704296   1.000000
    2      -16.971218   1.000000
    3      -16.736922   1.000000
    4      -16.689274   1.000000
    5      -16.584676   1.000000
    6      -16.363074   1.000000
    7      -16.320486   1.000000
    8      -16.275933   1.000000
    9      -16.161624   1.000000
   10      -16.136201   1.000000
   11      -16.017316   1.000000
   12      -15.865050   1.000000
   13      -15.786506   1.000000
   14      -15.663831   1.000000
   15      -15.613258   1.000000
   16      -15.461729   1.000000
   17      -15.385857   1.000000
   18      -15.253667   1.000000
   19       -9.484914   1.000000
   20       -9.198071   1.000000
   21       -9.138143   1.000000
   22       -9.054531   1.000000
   23       -8.982328   1.000000
   24       -8.831225   1.000000
   25       -8.626041   1.000000
   26       -8.536091   1.000000
   27       -8.494310   1.000000
   28       -8.355463   1.000000
   29       -8.287754   1.000000
   30       -8.168985   1.000000
   31       -8.088502   1.000000
   32       -8.025504   1.000000
   33       -7.855393   1.000000
   34       -7.770181   1.000000
   35       -7.710759   1.000000
   36       -7.689165   1.000000
   37       -7.587504   1.000000
   38       -7.516595   1.000000
   39       -7.483379   1.000000
   40       -7.447011   1.000000
   41       -7.245864   1.000000
   42       -7.184563   1.000000
   43       -7.103062   1.000000
   44       -7.058027   1.000000
   45       -6.957129   1.000000
   46       -6.764090   1.000000
   47       -6.687407   1.000000
   48       -6.615397   1.000000
   49       -6.588618   1.000000
   50       -6.560663   1.000000
   51       -6.432127   1.000000
   52       -6.373288   1.000000
   53       -6.365236   1.000000
   54       -6.220804   1.000000
   55       -6.165827   1.000000
   56       -6.133599   1.000000
   57       -5.929942   1.000000
   58       -5.875078   1.000000
   59       -5.721814   1.000000
   60       -5.678545   1.000000
   61       -5.611107   1.000000
   62       -5.562235   1.000000
   63       -5.540091   1.000000
   64       -5.401347   1.000000
   65       -5.236718   1.000000
   66       -4.993540   1.000000
   67       -4.845137   1.000000
   68       -4.765168   1.000000
   69       -4.698222   1.000000
   70       -4.612411   1.000000
   71       -4.573753   1.000000
   72       -4.532857   1.000000
   73       -4.387284   1.000000
   74       -4.271911   1.000000
   75       -4.172450   1.000000
   76       -4.160889   1.000000
   77       -3.998439   0.999998
   78       -3.912055   0.999966
   79       -3.508478   0.870286
   80       -3.315647   0.406801
   81       -3.203973   0.152579
   82       -2.742877   0.000009
   83       -2.656151   0.000000
   84       -2.557266   0.000000
   85       -2.494259   0.000000
   86       -2.423320   0.000000
   87       -2.272988   0.000000
   88       -2.199388   0.000000
   89       -2.149315   0.000000
   90       -2.083800   0.000000
   91       -1.989181   0.000000
   92       -1.434802   0.000000
   93       -1.395946   0.000000
   94       -1.251460   0.000000
   95       -1.165327   0.000000
   96       -1.084654   0.000000
   97       -0.999409   0.000000
   98       -0.962270   0.000000
   99       -0.896822   0.000000
  100       -0.842793   0.000000
  101       -0.733737   0.000000
  102       -0.667754   0.000000
  103       -0.591424   0.000000
  104       -0.510299   0.000000
  105       -0.395395   0.000000
  106       -0.210239   0.000000
  107       -0.109472   0.000000
  108       -0.013258   0.000000
  109        0.055922   0.000000
  110        0.185848   0.000000
  111        0.386484   0.000000
  112        0.522561   0.000000
  113        0.780196   0.000000
  114        0.873235   0.000000
  115        1.025804   0.000000
  116        1.142240   0.000000
  117        1.222883   0.000000
  118        1.800654   0.000000
  119        1.991267   0.000000
  120        2.285425   0.000000
 
  0.3750000E+00  0.0000000E+00  0.0000000E+00  0.3125000E-01
    1      -17.599378   1.000000
    2      -17.168094   1.000000
    3      -16.770942   1.000000
    4      -16.686145   1.000000
    5      -16.630970   1.000000
    6      -16.345194   1.000000
    7      -16.326287   1.000000
    8      -16.264357   1.000000
    9      -16.093845   1.000000
   10      -16.064935   1.000000
   11      -15.983170   1.000000
   12      -15.845408   1.000000
   13      -15.762278   1.000000
   14      -15.680396   1.000000
   15      -15.613903   1.000000
   16      -15.463721   1.000000
   17      -15.402720   1.000000
   18      -15.264803   1.000000
   19       -9.663829   1.000000
   20       -9.238245   1.000000
   21       -9.228593   1.000000
   22       -9.086730   1.000000
   23       -9.034187   1.000000
   24       -8.882182   1.000000
   25       -8.511356   1.000000
   26       -8.471674   1.000000
   27       -8.443714   1.000000
   28       -8.296498   1.000000
   29       -8.235316   1.000000
   30       -8.165226   1.000000
   31       -8.125944   1.000000
   32       -8.087914   1.000000
   33       -7.917594   1.000000
   34       -7.816093   1.000000
   35       -7.756269   1.000000
   36       -7.574523   1.000000
   37       -7.527027   1.000000
   38       -7.451488   1.000000
   39       -7.404955   1.000000
   40       -7.313280   1.000000
   41       -7.226677   1.000000
   42       -7.180839   1.000000
   43       -7.084874   1.000000
   44       -6.973561   1.000000
   45       -6.843560   1.000000
   46       -6.772110   1.000000
   47       -6.704993   1.000000
   48       -6.621857   1.000000
   49       -6.564678   1.000000
   50       -6.475082   1.000000
   51       -6.398351   1.000000
   52       -6.363484   1.000000
   53       -6.331357   1.000000
   54       -6.193337   1.000000
   55       -6.138957   1.000000
   56       -6.076077   1.000000
   57       -5.956445   1.000000
   58       -5.923142   1.000000
   59       -5.899724   1.000000
   60       -5.839683   1.000000
   61       -5.727370   1.000000
   62       -5.659668   1.000000
   63       -5.586016   1.000000
   64       -5.447029   1.000000
   65       -5.270088   1.000000
   66       -4.950136   1.000000
   67       -4.836999   1.000000
   68       -4.776459   1.000000
   69       -4.702610   1.000000
   70       -4.664011   1.000000
   71       -4.550164   1.000000
   72       -4.520847   1.000000
   73       -4.382091   1.000000
   74       -4.217487   1.000000
   75       -4.164190   1.000000
   76       -4.104456   1.000000
   77       -4.074727   1.000000
   78       -3.931194   0.999981
   79       -3.486869   0.835206
   80       -3.331075   0.449596
   81       -3.161380   0.092319
   82       -2.700066   0.000002
   83       -2.586188   0.000000
   84       -2.527927   0.000000
   85       -2.425977   0.000000
   86       -2.396763   0.000000
   87       -2.238555   0.000000
   88       -2.174014   0.000000
   89       -2.123403   0.000000
   90       -1.984432   0.000000
   91       -1.921671   0.000000
   92       -1.487806   0.000000
   93       -1.448942   0.000000
   94       -1.298602   0.000000
   95       -1.251488   0.000000
   96       -1.148068   0.000000
   97       -1.052122   0.000000
   98       -0.965940   0.000000
   99       -0.944618   0.000000
  100       -0.928180   0.000000
  101       -0.853892   0.000000
  102       -0.737586   0.000000
  103       -0.684982   0.000000
  104       -0.530198   0.000000
  105       -0.491064   0.000000
  106       -0.315996   0.000000
  107       -0.118294   0.000000
  108       -0.041702   0.000000
  109       -0.001221   0.000000
  110        0.119172   0.000000
  111        0.414921   0.000000
  112        0.496297   0.000000
  113        0.816457   0.000000
  114        0.922986   0.000000
  115        1.050570   0.000000
  116        1.245573   0.000000
  117        1.338121   0.000000
  118        1.979816   0.000000
  119        2.160950   0.000000
  120        2.451133   0.000000
 
  0.5000000E+00  0.1110223E-15  0.0000000E+00  0.1562500E-01
    1      -17.520429   1.000000
    2      -17.279938   1.000000
    3      -16.784429   1.000000
    4      -16.678773   1.000000
    5      -16.650187   1.000000
    6      -16.347058   1.000000
    7      -16.329235   1.000000
    8      -16.260447   1.000000
    9      -16.061291   1.000000
   10      -16.016127   1.000000
   11      -15.967281   1.000000
   12      -15.856234   1.000000
   13      -15.784412   1.000000
   14      -15.692276   1.000000
   15      -15.580193   1.000000
   16      -15.463758   1.000000
   17      -15.414378   1.000000
   18      -15.269858   1.000000
   19       -9.732165   1.000000
   20       -9.271267   1.000000
   21       -9.254245   1.000000
   22       -9.105240   1.000000
   23       -9.027777   1.000000
   24       -8.895619   1.000000
   25       -8.464884   1.000000
   26       -8.423432   1.000000
   27       -8.401096   1.000000
   28       -8.273175   1.000000
   29       -8.237960   1.000000
   30       -8.165639   1.000000
   31       -8.138155   1.000000
   32       -8.114257   1.000000
   33       -7.948748   1.000000
   34       -7.894784   1.000000
   35       -7.802878   1.000000
   36       -7.548015   1.000000
   37       -7.499962   1.000000
   38       -7.418353   1.000000
   39       -7.377700   1.000000
   40       -7.302660   1.000000
   41       -7.163988   1.000000
   42       -7.115791   1.000000
   43       -7.052971   1.000000
   44       -6.973804   1.000000
   45       -6.869647   1.000000
   46       -6.770507   1.000000
   47       -6.607565   1.000000
   48       -6.548914   1.000000
   49       -6.527300   1.000000
   50       -6.450842   1.000000
   51       -6.415200   1.000000
   52       -6.331531   1.000000
   53       -6.265599   1.000000
   54       -6.237267   1.000000
   55       -6.226175   1.000000
   56       -6.114717   1.000000
   57       -6.053990   1.000000
   58       -5.949621   1.000000
   59       -5.898333   1.000000
   60       -5.853895   1.000000
   61       -5.735892   1.000000
   62       -5.658675   1.000000
   63       -5.565646   1.000000
   64       -5.525802   1.000000
   65       -5.218695   1.000000
   66       -5.099472   1.000000
   67       -4.918785   1.000000
   68       -4.755117   1.000000
   69       -4.681637   1.000000
   70       -4.641647   1.000000
   71       -4.543868   1.000000
   72       -4.497559   1.000000
   73       -4.351165   1.000000
   74       -4.217099   1.000000
   75       -4.176033   1.000000
   76       -4.141158   1.000000
   77       -4.046198   1.000000
   78       -3.899301   0.999950
   79       -3.462302   0.788500
   80       -3.351784   0.507880
   81       -3.147810   0.077431
   82       -2.689944   0.000002
   83       -2.557410   0.000000
   84       -2.520496   0.000000
   85       -2.386619   0.000000
   86       -2.378402   0.000000
   87       -2.239981   0.000000
   88       -2.164435   0.000000
   89       -2.097987   0.000000
   90       -1.929155   0.000000
   91       -1.880667   0.000000
   92       -1.541565   0.000000
   93       -1.463901   0.000000
   94       -1.329628   0.000000
   95       -1.282805   0.000000
   96       -1.196516   0.000000
   97       -1.051836   0.000000
   98       -0.986934   0.000000
   99       -0.965959   0.000000
  100       -0.953443   0.000000
  101       -0.900794   0.000000
  102       -0.764134   0.000000
  103       -0.715499   0.000000
  104       -0.548787   0.000000
  105       -0.505216   0.000000
  106       -0.363951   0.000000
  107       -0.125958   0.000000
  108       -0.053032   0.000000
  109       -0.028129   0.000000
  110        0.092870   0.000000
  111        0.408744   0.000000
  112        0.502263   0.000000
  113        0.830025   0.000000
  114        0.941785   0.000000
  115        1.056593   0.000000
  116        1.287787   0.000000
  117        1.384504   0.000000
  118        2.185843   0.000000
  119        2.224265   0.000000
  120        2.364656   0.000000
 
  0.0000000E+00  0.1250000E+00  0.0000000E+00  0.3125000E-01
    1      -17.772105   1.000000
    2      -16.789765   1.000000
    3      -16.741488   1.000000
    4      -16.588365   1.000000
    5      -16.528733   1.000000
    6      -16.425449   1.000000
    7      -16.359842   1.000000
    8      -16.326294   1.000000
    9      -16.237214   1.000000
   10      -16.113774   1.000000
   11      -16.025257   1.000000
   12      -15.975629   1.000000
   13      -15.858798   1.000000
   14      -15.615106   1.000000
   15      -15.578794   1.000000
   16      -15.451621   1.000000
   17      -15.372731   1.000000
   18      -15.252294   1.000000
   19       -9.297353   1.000000
   20       -9.216359   1.000000
   21       -9.060759   1.000000
   22       -9.029579   1.000000
   23       -8.776604   1.000000
   24       -8.697046   1.000000
   25       -8.662518   1.000000
   26       -8.562347   1.000000
   27       -8.453181   1.000000
   28       -8.427259   1.000000
   29       -8.393385   1.000000
   30       -8.221096   1.000000
   31       -8.149419   1.000000
   32       -8.064662   1.000000
   33       -8.005555   1.000000
   34       -7.892609   1.000000
   35       -7.821949   1.000000
   36       -7.706952   1.000000
   37       -7.657773   1.000000
   38       -7.567938   1.000000
   39       -7.476141   1.000000
   40       -7.368016   1.000000
   41       -7.331791   1.000000
   42       -7.193102   1.000000
   43       -7.136371   1.000000
   44       -7.021590   1.000000
   45       -6.875743   1.000000
   46       -6.824477   1.000000
   47       -6.743364   1.000000
   48       -6.634052   1.000000
   49       -6.571476   1.000000
   50       -6.469938   1.000000
   51       -6.432589   1.000000
   52       -6.381446   1.000000
   53       -6.346627   1.000000
   54       -6.283802   1.000000
   55       -6.197101   1.000000
   56       -6.151486   1.000000
   57       -6.012212   1.000000
   58       -5.936037   1.000000
   59       -5.705016   1.000000
   60       -5.563973   1.000000
   61       -5.508892   1.000000
   62       -5.470809   1.000000
   63       -5.336062   1.000000
   64       -5.172811   1.000000
   65       -5.119776   1.000000
   66       -5.008193   1.000000
   67       -4.939822   1.000000
   68       -4.876908   1.000000
   69       -4.801344   1.000000
   70       -4.701543   1.000000
   71       -4.616481   1.000000
   72       -4.559679   1.000000
   73       -4.419474   1.000000
   74       -4.315066   1.000000
   75       -4.221880   1.000000
   76       -4.060475   1.000000
   77       -3.879897   0.999913
   78       -3.723223   0.995930
   79       -3.533276   0.903728
   80       -3.446732   0.755259
   81       -3.158250   0.088709
   82       -2.849492   0.000206
   83       -2.726238   0.000005
   84       -2.636018   0.000000
   85       -2.504880   0.000000
   86       -2.463993   0.000000
   87       -2.349952   0.000000
   88       -2.231730   0.000000
   89       -2.197567   0.000000
   90       -2.096802   0.000000
   91       -2.009585   0.000000
   92       -1.405294   0.000000
   93       -1.342073   0.000000
   94       -1.218588   0.000000
   95       -1.113056   0.000000
   96       -1.061683   0.000000
   97       -0.985603   0.000000
   98       -0.887351   0.000000
   99       -0.801668   0.000000
  100       -0.713671   0.000000
  101       -0.687517   0.000000
  102       -0.569052   0.000000
  103       -0.498382   0.000000
  104       -0.342610   0.000000
  105       -0.295567   0.000000
  106       -0.145554   0.000000
  107       -0.115842   0.000000
  108       -0.053051   0.000000
  109        0.114776   0.000000
  110        0.272911   0.000000
  111        0.355268   0.000000
  112        0.611371   0.000000
  113        0.735351   0.000000
  114        0.783694   0.000000
  115        0.913820   0.000000
  116        1.052415   0.000000
  117        1.131156   0.000000
  118        1.685186   0.000000
  119        1.876010   0.000000
  120        2.183527   0.000000
 
  0.1250000E+00  0.1250000E+00  0.0000000E+00  0.3125000E-01
    1      -17.725014   1.000000
    2      -16.894799   1.000000
    3      -16.803626   1.000000
    4      -16.670643   1.000000
    5      -16.459472   1.000000
    6      -16.436028   1.000000
    7      -16.325772   1.000000
    8      -16.294365   1.000000
    9      -16.226060   1.000000
   10      -16.108632   1.000000
   11      -16.013793   1.000000
   12      -15.863103   1.000000
   13      -15.832817   1.000000
   14      -15.646125   1.000000
   15      -15.609336   1.000000
   16      -15.456788   1.000000
   17      -15.369181   1.000000
   18      -15.260594   1.000000
   19       -9.384071   1.000000
   20       -9.326030   1.000000
   21       -9.150743   1.000000
   22       -9.076415   1.000000
   23       -8.824183   1.000000
   24       -8.707746   1.000000
   25       -8.645850   1.000000
   26       -8.581197   1.000000
   27       -8.423544   1.000000
   28       -8.376656   1.000000
   29       -8.334858   1.000000
   30       -8.241519   1.000000
   31       -8.085465   1.000000
   32       -8.025021   1.000000
   33       -7.942763   1.000000
   34       -7.829535   1.000000
   35       -7.717353   1.000000
   36       -7.685631   1.000000
   37       -7.600109   1.000000
   38       -7.529562   1.000000
   39       -7.478124   1.000000
   40       -7.367781   1.000000
   41       -7.303316   1.000000
   42       -7.177029   1.000000
   43       -7.095543   1.000000
   44       -7.035678   1.000000
   45       -6.935987   1.000000
   46       -6.833551   1.000000
   47       -6.776080   1.000000
   48       -6.618811   1.000000
   49       -6.557021   1.000000
   50       -6.503680   1.000000
   51       -6.462647   1.000000
   52       -6.364988   1.000000
   53       -6.334781   1.000000
   54       -6.279937   1.000000
   55       -6.179268   1.000000
   56       -6.105580   1.000000
   57       -5.951594   1.000000
   58       -5.894877   1.000000
   59       -5.728779   1.000000
   60       -5.677306   1.000000
   61       -5.559349   1.000000
   62       -5.515757   1.000000
   63       -5.422907   1.000000
   64       -5.272058   1.000000
   65       -5.211284   1.000000
   66       -5.104133   1.000000
   67       -4.893600   1.000000
   68       -4.863493   1.000000
   69       -4.738813   1.000000
   70       -4.615622   1.000000
   71       -4.582070   1.000000
   72       -4.496326   1.000000
   73       -4.382122   1.000000
   74       -4.253579   1.000000
   75       -4.178593   1.000000
   76       -4.123513   1.000000
   77       -3.955088   0.999991
   78       -3.882203   0.999919
   79       -3.497989   0.853961
   80       -3.394466   0.626107
   81       -3.154597   0.084632
   82       -2.784039   0.000032
   83       -2.668861   0.000001
   84       -2.629884   0.000000
   85       -2.484364   0.000000
   86       -2.442014   0.000000
   87       -2.305737   0.000000
   88       -2.218747   0.000000
   89       -2.158600   0.000000
   90       -2.111607   0.000000
   91       -1.957083   0.000000
   92       -1.436464   0.000000
   93       -1.371183   0.000000
   94       -1.209041   0.000000
   95       -1.153025   0.000000
   96       -1.092146   0.000000
   97       -0.977244   0.000000
   98       -0.930153   0.000000
   99       -0.915912   0.000000
  100       -0.807129   0.000000
  101       -0.730131   0.000000
  102       -0.653806   0.000000
  103       -0.536449   0.000000
  104       -0.448047   0.000000
  105       -0.353959   0.000000
  106       -0.153537   0.000000
  107       -0.129827   0.000000
  108       -0.041685   0.000000
  109        0.076391   0.000000
  110        0.259717   0.000000
  111        0.346781   0.000000
  112        0.601529   0.000000
  113        0.764273   0.000000
  114        0.864242   0.000000
  115        0.954991   0.000000
  116        1.108343   0.000000
  117        1.151531   0.000000
  118        1.765865   0.000000
  119        1.952907   0.000000
  120        2.252514   0.000000
 
  0.2500000E+00  0.1250000E+00  0.0000000E+00  0.3125000E-01
    1      -17.635813   1.000000
    2      -17.066633   1.000000
    3      -16.890010   1.000000
    4      -16.679537   1.000000
    5      -16.489006   1.000000
    6      -16.370520   1.000000
    7      -16.314828   1.000000
    8      -16.261201   1.000000
    9      -16.192039   1.000000
   10      -16.080662   1.000000
   11      -15.982365   1.000000
   12      -15.833280   1.000000
   13      -15.746063   1.000000
   14      -15.680650   1.000000
   15      -15.640236   1.000000
   16      -15.468238   1.000000
   17      -15.371891   1.000000
   18      -15.268729   1.000000
   19       -9.572286   1.000000
   20       -9.410778   1.000000
   21       -9.238536   1.000000
   22       -9.093739   1.000000
   23       -8.880375   1.000000
   24       -8.722746   1.000000
   25       -8.557220   1.000000
   26       -8.499294   1.000000
   27       -8.415078   1.000000
   28       -8.317823   1.000000
   29       -8.276277   1.000000
   30       -8.234717   1.000000
   31       -8.084853   1.000000
   32       -8.054888   1.000000
   33       -7.968673   1.000000
   34       -7.858832   1.000000
   35       -7.731244   1.000000
   36       -7.652623   1.000000
   37       -7.506926   1.000000
   38       -7.473084   1.000000
   39       -7.387628   1.000000
   40       -7.357516   1.000000
   41       -7.197662   1.000000
   42       -7.117244   1.000000
   43       -7.075323   1.000000
   44       -7.008007   1.000000
   45       -6.884729   1.000000
   46       -6.801464   1.000000
   47       -6.766511   1.000000