       N       E                     dE             d eps       ncg     rms          rms(c)
DAV:   1     0.112411454575E+04    0.11241E+04   -0.35869E+04  8160   0.577E+02
DAV:   2    -0.275363535715E+01   -0.11269E+04   -0.10846E+04 11240   0.173E+02
DAV:   3    -0.200110101521E+03   -0.19736E+03   -0.18954E+03 10960   0.820E+01
DAV:   4    -0.209039605994E+03   -0.89295E+01   -0.86595E+01 11680   0.258E+01
DAV:   5    -0.209401032582E+03   -0.36143E+00   -0.36057E+00 11640   0.399E+00    0.278E+01
DAV:   6    -0.241498708896E+03   -0.32098E+02   -0.11396E+02 12480   0.600E+01    0.607E+01
DAV:   7    -0.196132724785E+03    0.45366E+02   -0.18057E+02 13120   0.151E+02    0.198E+01
DAV:   8    -0.189336034427E+03    0.67967E+01   -0.18271E+01 11920   0.126E+01    0.122E+01
DAV:   9    -0.188071404441E+03    0.12646E+01   -0.30400E+00 13080   0.616E+00    0.885E+00
DAV:  10    -0.186953559657E+03    0.11178E+01   -0.15834E+00 13400   0.718E+00    0.207E+00
DAV:  11    -0.187080225357E+03   -0.12667E+00   -0.62002E-01 13480   0.355E+00    0.448E+00
DAV:  12    -0.186954472844E+03    0.12575E+00   -0.66919E-01 13000   0.436E+00    0.293E+00
DAV:  13    -0.186877189458E+03    0.77283E-01   -0.19554E-01 12800   0.231E+00    0.135E+00
DAV:  14    -0.186856948628E+03    0.20241E-01   -0.79110E-02 12240   0.134E+00    0.961E-01
DAV:  15    -0.186853062856E+03    0.38858E-02   -0.26493E-02 12720   0.821E-01    0.718E-01
DAV:  16    -0.186848588962E+03    0.44739E-02   -0.10416E-02 13040   0.436E-01    0.297E-01
DAV:  17    -0.186847443189E+03    0.11458E-02   -0.55363E-03 12600   0.335E-01    0.235E-01
DAV:  18    -0.186846842568E+03    0.60062E-03   -0.18010E-03 12600   0.200E-01    0.778E-02
DAV:  19    -0.186847021447E+03   -0.17888E-03   -0.55222E-04  8880   0.655E-02    0.789E-02
DAV:  20    -0.186847712726E+03   -0.69128E-03   -0.72038E-04  9120   0.836E-02    0.576E-02
DAV:  21    -0.186848708183E+03   -0.99546E-03   -0.26413E-04  8120   0.492E-02    0.321E-02
DAV:  22    -0.186849482846E+03   -0.77466E-03   -0.11387E-04  6600   0.365E-02    0.244E-02
DAV:  23    -0.186850560942E+03   -0.10781E-02   -0.98015E-05  7480   0.237E-02    0.103E-02
DAV:  24    -0.186851186547E+03   -0.62561E-03   -0.24755E-05  6360   0.152E-02    0.665E-03
DAV:  25    -0.186851570114E+03   -0.38357E-03   -0.15426E-05  5920   0.113E-02    0.251E-03
DAV:  26    -0.186851772166E+03   -0.20205E-03   -0.74744E-06  6880   0.621E-03    0.141E-03
DAV:  27    -0.186851857441E+03   -0.85275E-04   -0.37413E-06  6880   0.428E-03
   1 F= -.18685186E+03 E0= -.18667875E+03  d E =-.186852E+03
       N       E                     dE             d eps       ncg     rms          rms(c)
DAV:   1    -0.187531957144E+03   -0.68018E+00   -0.27385E+02  8160   0.351E+01    0.466E+00
DAV:   2    -0.189601008402E+03   -0.20691E+01   -0.20308E+01 12200   0.156E+01    0.104E+01
DAV:   3    -0.189338524331E+03    0.26248E+00   -0.49722E+00 12440   0.127E+01    0.623E+00
DAV:   4    -0.188803521844E+03    0.53500E+00   -0.63392E-01 12520   0.444E+00    0.240E+00
DAV:   5    -0.188904896914E+03   -0.10138E+00   -0.49055E-01 11200   0.389E+00    0.540E+00
DAV:   6    -0.188771009542E+03    0.13389E+00   -0.76919E-01 12720   0.407E+00    0.237E+00
DAV:   7    -0.188729912919E+03    0.41097E-01   -0.23644E-01 11880   0.208E+00    0.206E+00
DAV:   8    -0.188721048446E+03    0.88645E-02   -0.16123E-01 12240   0.214E+00    0.202E+00
DAV:   9    -0.188690117995E+03    0.30930E-01   -0.73357E-02 12560   0.126E+00    0.595E-01
DAV:  10    -0.188687515841E+03    0.26022E-02   -0.72094E-03 10840   0.292E-01    0.309E-01
DAV:  11    -0.188686749320E+03    0.76652E-03   -0.27881E-03 13160   0.227E-01    0.117E-01
DAV:  12    -0.188686737154E+03    0.12166E-04   -0.10671E-03 11800   0.103E-01    0.905E-02
DAV:  13    -0.188686764817E+03   -0.27663E-04   -0.33004E-04  8560   0.608E-02
   2 F= -.18868676E+03 E0= -.18854474E+03  d E =-.183491E+01
       N       E                     dE             d eps       ncg     rms          rms(c)
DAV:   1    -0.190621411903E+03   -0.19347E+01   -0.31436E+01  9000   0.143E+01    0.444E+00
DAV:   2    -0.190552093688E+03    0.69318E-01   -0.27788E+00 11560   0.912E+00    0.722E+00
DAV:   3    -0.190117749228E+03    0.43434E+00   -0.15136E+00 12280   0.841E+00    0.435E+00
DAV:   4    -0.189889714708E+03    0.22803E+00   -0.71854E-01 12680   0.435E+00    0.247E+00
DAV:   5    -0.189867009750E+03    0.22705E-01   -0.37218E-01 12240   0.306E+00    0.288E+00
DAV:   6    -0.189792302350E+03    0.74707E-01   -0.15807E-01 12560   0.245E+00    0.707E-01
DAV:   7    -0.189787442757E+03    0.48596E-02   -0.15023E-02 11640   0.600E-01    0.421E-01
DAV:   8    -0.189787197209E+03    0.24555E-03   -0.66620E-03 12720   0.481E-01    0.358E-01
DAV:   9    -0.189786240821E+03    0.95639E-03   -0.23407E-03 11400   0.247E-01    0.121E-01
DAV:  10    -0.189786674893E+03   -0.43407E-03   -0.96757E-04 10480   0.107E-01    0.127E-01
DAV:  11    -0.189786375820E+03    0.29907E-03   -0.49287E-04  9080   0.776E-02    0.203E-02
DAV:  12    -0.189786396157E+03   -0.20336E-04   -0.65953E-05  7000   0.265E-02
   3 F= -.18978640E+03 E0= -.18966599E+03  d E =-.109963E+01
       N       E                     dE             d eps       ncg     rms          rms(c)
DAV:   1    -0.191399412027E+03   -0.16130E+01   -0.80895E+01  8160   0.205E+01    0.463E+00
DAV:   2    -0.191136383760E+03    0.26303E+00   -0.53840E+00 13280   0.676E+00    0.378E+00
DAV:   3    -0.191450205983E+03   -0.31382E+00   -0.15350E+00 12120   0.863E+00    0.810E+00
DAV:   4    -0.191004639678E+03    0.44557E+00   -0.21473E+00 11240   0.930E+00    0.370E+00
DAV:   5    -0.190994860628E+03    0.97790E-02   -0.73545E-01 11920   0.542E+00    0.368E+00
DAV:   6    -0.190814909076E+03    0.17995E+00   -0.23387E-01 12120   0.326E+00    0.724E-01
DAV:   7    -0.190814750222E+03    0.15885E-03   -0.36650E-02 12440   0.840E-01    0.659E-01
DAV:   8    -0.190812953694E+03    0.17965E-02   -0.18235E-02 11800   0.854E-01    0.619E-01
DAV:   9    -0.190809309200E+03    0.36445E-02   -0.65080E-03 11480   0.519E-01    0.179E-01
DAV:  10    -0.190809608367E+03   -0.29917E-03   -0.16325E-03 11160   0.153E-01    0.124E-01
DAV:  11    -0.190809391096E+03    0.21727E-03   -0.66812E-04 10640   0.100E-01    0.433E-02
DAV:  12    -0.190809398756E+03   -0.76600E-05   -0.96913E-05  7240   0.345E-02
   4 F= -.19080940E+03 E0= -.19070614E+03  d E =-.102300E+01
       N       E                     dE             d eps       ncg     rms          rms(c)
DAV:   1    -0.192260006408E+03   -0.14506E+01   -0.18550E+02  8160   0.303E+01    0.591E+00
DAV:   2    -0.192011204239E+03    0.24880E+00   -0.10212E+01 11080   0.789E+00    0.409E+00
DAV:   3    -0.192461127981E+03   -0.44992E+00   -0.32340E+00 12080   0.113E+01    0.737E+00
DAV:   4    -0.191700927092E+03    0.76020E+00   -0.11257E+00 12240   0.841E+00    0.287E+00
DAV:   5    -0.191751050679E+03   -0.50124E-01   -0.61249E-01 11880   0.554E+00    0.487E+00
DAV:   6    -0.191549213058E+03    0.20184E+00   -0.59775E-01 12200   0.499E+00    0.109E+00
DAV:   7    -0.191542082253E+03    0.71308E-02   -0.59548E-02 11880   0.124E+00    0.758E-01
DAV:   8    -0.191539295982E+03    0.27863E-02   -0.29966E-02 12280   0.107E+00    0.694E-01
DAV:   9    -0.191534646384E+03    0.46496E-02   -0.10988E-02 11480   0.635E-01    0.175E-01
DAV:  10    -0.191534654337E+03   -0.79524E-05   -0.25232E-03 11480   0.164E-01    0.811E-02
DAV:  11    -0.191534673849E+03   -0.19512E-04   -0.40263E-04  9040   0.878E-02
   5 F= -.19153467E+03 E0= -.19143695E+03  d E =-.725275E+00
       N       E                     dE             d eps       ncg     rms          rms(c)
DAV:   1    -0.191602886080E+03   -0.68232E-01   -0.58682E+00  8160   0.513E+00    0.781E-01
DAV:   2    -0.191701079949E+03   -0.98194E-01   -0.36998E-01 12720   0.361E+00    0.283E+00
DAV:   3    -0.191615895225E+03    0.85185E-01   -0.14798E-01 12440   0.286E+00    0.425E-01
DAV:   4    -0.191620077769E+03   -0.41825E-02   -0.21313E-02 11600   0.897E-01    0.838E-01
DAV:   5    -0.191613465361E+03    0.66124E-02   -0.14792E-02 11600   0.777E-01    0.208E-01
DAV:   6    -0.191614801508E+03   -0.13361E-02   -0.57044E-03 11520   0.417E-01    0.419E-01
DAV:   7    -0.191613291214E+03    0.15103E-02   -0.50152E-03 11320   0.443E-01    0.163E-01
DAV:   8    -0.191612981603E+03    0.30961E-03   -0.73170E-04  9600   0.138E-01    0.378E-02
DAV:   9    -0.191612995361E+03   -0.13758E-04   -0.10701E-04  6280   0.382E-02
   6 F= -.19161300E+03 E0= -.19151309E+03  d E =-.783215E-01
       N       E                     dE             d eps       ncg     rms          rms(c)
DAV:   1    -0.191681604419E+03   -0.68623E-01   -0.65594E+00  8160   0.539E+00    0.704E-01
DAV:   2    -0.191750865030E+03   -0.69261E-01   -0.25415E-01 13360   0.278E+00    0.241E+00
DAV:   3    -0.191689555466E+03    0.61310E-01   -0.12066E-01 12440   0.253E+00    0.510E-01
DAV:   4    -0.191692921870E+03   -0.33664E-02   -0.22962E-02 11520   0.903E-01    0.802E-01
DAV:   5    -0.191686748590E+03    0.61733E-02   -0.14051E-02 11640   0.741E-01    0.194E-01
DAV:   6    -0.191687079106E+03   -0.33052E-03   -0.31324E-03 11560   0.278E-01    0.252E-01
DAV:   7    -0.191686912345E+03    0.16676E-03   -0.35641E-03 11400   0.380E-01    0.238E-01
DAV:   8    -0.191686366436E+03    0.54591E-03   -0.12611E-03  9920   0.212E-01    0.463E-02
DAV:   9    -0.191686350661E+03    0.15775E-04   -0.10739E-04  6000   0.431E-02
   7 F= -.19168635E+03 E0= -.19158577E+03  d E =-.733553E-01
       N       E                     dE             d eps       ncg     rms          rms(c)
DAV:   1    -0.191727320592E+03   -0.40954E-01   -0.18554E+00  8160   0.292E+00    0.410E-01
DAV:   2    -0.191749719323E+03   -0.22399E-01   -0.88574E-02 13240   0.174E+00    0.141E+00
DAV:   3    -0.191729551366E+03    0.20168E-01   -0.38057E-02 12280   0.140E+00    0.294E-01
DAV:   4    -0.191731126011E+03   -0.15746E-02   -0.94013E-03 11360   0.586E-01    0.509E-01
DAV:   5    -0.191728501871E+03    0.26241E-02   -0.53983E-03 11200   0.459E-01    0.101E-01
DAV:   6    -0.191728575200E+03   -0.73329E-04   -0.10876E-03 10040   0.122E-01    0.937E-02
DAV:   7    -0.191728471846E+03    0.10335E-03   -0.56271E-04  9800   0.133E-01    0.937E-02
DAV:   8    -0.191728394352E+03    0.77494E-04   -0.22103E-04  6360   0.101E-01
   8 F= -.19172839E+03 E0= -.19162792E+03  d E =-.420437E-01
       N       E                     dE             d eps       ncg     rms          rms(c)
DAV:   1    -0.191785115666E+03   -0.56644E-01   -0.34187E+00  8160   0.397E+00    0.506E-01
DAV:   2    -0.191814802441E+03   -0.29687E-01   -0.13734E-01 13400   0.198E+00    0.163E+00
DAV:   3    -0.191790070179E+03    0.24732E-01   -0.56200E-02 12360   0.164E+00    0.431E-01
DAV:   4    -0.191792080634E+03   -0.20105E-02   -0.15112E-02 11240   0.776E-01    0.626E-01
DAV:   5    -0.191787857839E+03    0.42228E-02   -0.77693E-03 11160   0.593E-01    0.130E-01
DAV:   6    -0.191787943630E+03   -0.85792E-04   -0.17235E-03 10960   0.159E-01    0.118E-01
DAV:   7    -0.191787798392E+03    0.14524E-03   -0.85677E-04 11560   0.174E-01    0.123E-01
DAV:   8    -0.191787659646E+03    0.13875E-03   -0.35402E-04  7840   0.124E-01    0.345E-02
DAV:   9    -0.191787653085E+03    0.65607E-05   -0.45513E-05  6040   0.341E-02
   9 F= -.19178765E+03 E0= -.19168859E+03  d E =-.592587E-01
       N       E                     dE             d eps       ncg     rms          rms(c)
DAV:   1    -0.191775521320E+03    0.12138E-01   -0.12867E-01  8160   0.776E-01    0.945E-02
DAV:   2    -0.191776129946E+03   -0.60863E-03   -0.44055E-03 12680   0.288E-01    0.235E-01
DAV:   3    -0.191775647788E+03    0.48216E-03   -0.15353E-03 10240   0.252E-01    0.901E-02
DAV:   4    -0.191775672013E+03   -0.24225E-04   -0.42524E-04  8000   0.130E-01
  10 F= -.19177567E+03 E0= -.19167571E+03  d E =0.119811E-01
       N       E                     dE             d eps       ncg     rms          rms(c)
DAV:   1    -0.191760512501E+03    0.15135E-01   -0.29068E-01  8160   0.117E+00    0.156E-01
DAV:   2    -0.191760904754E+03   -0.39225E-03   -0.82781E-03 11520   0.331E-01    0.203E-01
DAV:   3    -0.191760873483E+03    0.31271E-04   -0.25948E-03 11800   0.344E-01    0.209E-01
DAV:   4    -0.191760545858E+03    0.32762E-03   -0.15413E-03 10280   0.235E-01    0.144E-01
DAV:   5    -0.191760508059E+03    0.37799E-04   -0.98465E-04  9160   0.207E-01
  11 F= -.19176051E+03 E0= -.19165935E+03  d E =0.151640E-01
       N       E                     dE             d eps       ncg     rms          rms(c)
DAV:   1    -0.191704362230E+03    0.56184E-01   -0.93999E+00  8160   0.670E+00    0.825E-01
DAV:   2    -0.191733774276E+03   -0.29412E-01   -0.28651E-01 12280   0.207E+00    0.172E+00
DAV:   3    -0.191716350467E+03    0.17424E-01   -0.12741E-01 11960   0.202E+00    0.947E-01
DAV:   4    -0.191715575770E+03    0.77470E-03   -0.43815E-02 12200   0.125E+00    0.968E-01
DAV:   5    -0.191705968061E+03    0.96077E-02   -0.22632E-02 10960   0.108E+00    0.346E-01
DAV:   6    -0.191704813576E+03    0.11545E-02   -0.59154E-03 11800   0.353E-01    0.140E-01
DAV:   7    -0.191704629377E+03    0.18420E-03   -0.14927E-03 12960   0.203E-01    0.157E-01
DAV:   8    -0.191704430706E+03    0.19867E-03   -0.75661E-04  8920   0.173E-01    0.733E-02
DAV:   9    -0.191704377996E+03    0.52710E-04   -0.14948E-04  6120   0.694E-02
  12 F= -.19170438E+03 E0= -.19160029E+03  d E =0.561301E-01
       N       E                     dE             d eps       ncg     rms          rms(c)
DAV:   1    -0.191789233519E+03   -0.84803E-01   -0.11824E+01  8160   0.742E+00    0.906E-01
DAV:   2    -0.191848912250E+03   -0.59679E-01   -0.39370E-01 12360   0.252E+00    0.255E+00
DAV:   3    -0.191804799088E+03    0.44113E-01   -0.21407E-01 12040   0.263E+00    0.983E-01
DAV:   4    -0.191802709650E+03    0.20894E-02   -0.37456E-02 11480   0.116E+00    0.906E-01
DAV:   5    -0.191793688972E+03    0.90207E-02   -0.18763E-02 11600   0.105E+00    0.368E-01
DAV:   6    -0.191792693629E+03    0.99534E-03   -0.72057E-03 12200   0.409E-01    0.227E-01
DAV:   7    -0.191793017586E+03   -0.32396E-03   -0.51907E-03 12080   0.443E-01    0.348E-01
DAV:   8    -0.191791891131E+03    0.11265E-02   -0.26185E-03 10160   0.333E-01    0.715E-02
DAV:   9    -0.191791842756E+03    0.48375E-04   -0.18816E-04  5800   0.649E-02
  13 F= -.19179184E+03 E0= -.19169050E+03  d E =-.874648E-01
       N       E                     dE             d eps       ncg     rms          rms(c)
DAV:   1    -0.191803305834E+03   -0.11415E-01   -0.84090E-01  8160   0.199E+00    0.281E-01
DAV:   2    -0.191810757024E+03   -0.74512E-02   -0.33942E-02 12360   0.103E+00    0.830E-01
DAV:   3    -0.191803786285E+03    0.69707E-02   -0.14724E-02 11880   0.857E-01    0.210E-01
DAV:   4    -0.191804781455E+03   -0.99517E-03   -0.54984E-03 11320   0.430E-01    0.399E-01
DAV:   5    -0.191803247958E+03    0.15335E-02   -0.38056E-03 10520   0.371E-01    0.923E-02
DAV:   6    -0.191803243987E+03    0.39708E-05   -0.67065E-04  9760   0.103E-01
  14 F= -.19180324E+03 E0= -.19170101E+03  d E =-.114012E-01
       N       E                     dE             d eps       ncg     rms          rms(c)
DAV:   1    -0.191836759912E+03   -0.33512E-01   -0.23505E+00  8160   0.330E+00    0.398E-01
DAV:   2    -0.191850887890E+03   -0.14128E-01   -0.85125E-02 12400   0.130E+00    0.111E+00
DAV:   3    -0.191840441687E+03    0.10446E-01   -0.35057E-02 12120   0.116E+00    0.386E-01
DAV:   4    -0.191841576026E+03   -0.11343E-02   -0.11067E-02 11360   0.636E-01    0.513E-01
DAV:   5    -0.191838715170E+03    0.28609E-02   -0.59331E-03 11000   0.513E-01    0.121E-01
DAV:   6    -0.191838840838E+03   -0.12567E-03   -0.14582E-03 10440   0.166E-01    0.131E-01
DAV:   7    -0.191838763592E+03    0.77246E-04   -0.11326E-03 10560   0.212E-01    0.145E-01
DAV:   8    -0.191838550025E+03    0.21357E-03   -0.39998E-04  7680   0.129E-01    0.215E-02
DAV:   9    -0.191838554092E+03   -0.40675E-05   -0.32479E-05  5880   0.224E-02
  15 F= -.19183855E+03 E0= -.19173660E+03  d E =-.353101E-01
       N       E                     dE             d eps       ncg     rms          rms(c)
DAV:   1    -0.191877030478E+03   -0.38480E-01   -0.21958E+00  8160   0.319E+00    0.391E-01
DAV:   2    -0.191891686223E+03   -0.14656E-01   -0.86815E-02 12320   0.135E+00    0.115E+00
DAV:   3    -0.191880478848E+03    0.11207E-01   -0.35235E-02 12400   0.116E+00    0.354E-01
DAV:   4    -0.191881410933E+03   -0.93209E-03   -0.94201E-03 11480   0.603E-01    0.473E-01
DAV:   5    -0.191878970655E+03    0.24403E-02   -0.52293E-03 10480   0.500E-01    0.137E-01
DAV:   6    -0.191879398197E+03   -0.42754E-03   -0.21091E-03 11600   0.267E-01    0.244E-01
DAV:   7    -0.191878911727E+03    0.48647E-03   -0.18380E-03  9920   0.289E-01    0.114E-01
DAV:   8    -0.191878753100E+03    0.15863E-03   -0.32508E-04  7200   0.998E-02    0.210E-02
DAV:   9    -0.191878750131E+03    0.29691E-05   -0.43924E-05  7480   0.241E-02
  16 F= -.19187875E+03 E0= -.19177795E+03  d E =-.401960E-01
       N       E                     dE             d eps       ncg     rms          rms(c)
DAV:   1    -0.191949593033E+03   -0.70840E-01   -0.76101E+00  8160   0.600E+00    0.768E-01
DAV:   2    -0.192017040752E+03   -0.67448E-01   -0.33853E-01 11680   0.264E+00    0.278E+00
DAV:   3    -0.191960800946E+03    0.56240E-01   -0.17734E-01 12360   0.246E+00    0.617E-01
DAV:   4    -0.191961749287E+03   -0.94834E-03   -0.18394E-02 11400   0.913E-01    0.798E-01
DAV:   5    -0.191955696645E+03    0.60526E-02   -0.17191E-02 12200   0.930E-01    0.319E-01
DAV:   6    -0.191956592575E+03   -0.89593E-03   -0.66304E-03 11040   0.535E-01    0.408E-01
DAV:   7    -0.191954950854E+03    0.16417E-02   -0.41105E-03 10640   0.510E-01    0.183E-01
DAV:   8    -0.191954471495E+03    0.47936E-03   -0.88197E-04 10200   0.191E-01    0.394E-02
DAV:   9    -0.191954456973E+03    0.14521E-04   -0.12346E-04  7280   0.431E-02
  17 F= -.19195446E+03 E0= -.19185687E+03  d E =-.757068E-01
       N       E                     dE             d eps       ncg     rms          rms(c)
DAV:   1    -0.192034507465E+03   -0.80036E-01   -0.11533E+01  8160   0.737E+00    0.923E-01
DAV:   2    -0.192119539854E+03   -0.85032E-01   -0.47761E-01 12080   0.308E+00    0.296E+00
DAV:   3    -0.192055028442E+03    0.64511E-01   -0.20630E-01 12360   0.285E+00    0.823E-01
DAV:   4    -0.192055356563E+03   -0.32812E-03   -0.27304E-02 11400   0.124E+00    0.937E-01
DAV:   5    -0.192045463763E+03    0.98928E-02   -0.21161E-02 12200   0.114E+00    0.339E-01
DAV:   6    -0.192046449887E+03   -0.98612E-03   -0.82135E-03 11960   0.606E-01    0.463E-01
DAV:   7    -0.192044961823E+03    0.14881E-02   -0.68032E-03 11960   0.652E-01    0.293E-01
DAV:   8    -0.192043852053E+03    0.11098E-02   -0.19147E-03 10560   0.300E-01    0.528E-02
DAV:   9    -0.192043828658E+03    0.23395E-04   -0.23413E-04  8000   0.578E-02
  18 F= -.19204383E+03 E0= -.19194934E+03  d E =-.893717E-01
       N       E                     dE             d eps       ncg     rms          rms(c)
DAV:   1    -0.192059033629E+03   -0.15182E-01   -0.24307E+00  8160   0.331E+00    0.362E-01
DAV:   2    -0.192069653958E+03   -0.10620E-01   -0.89125E-02 12200   0.121E+00    0.701E-01
DAV:   3    -0.192064779569E+03    0.48744E-02   -0.16670E-02 11880   0.959E-01    0.355E-01
DAV:   4    -0.192064210746E+03    0.56882E-03   -0.52432E-03 12160   0.479E-01    0.318E-01
DAV:   5    -0.192063586925E+03    0.62382E-03   -0.29723E-03 11240   0.398E-01    0.215E-01
DAV:   6    -0.192063301497E+03    0.28543E-03   -0.15899E-03 10640   0.257E-01    0.135E-01
DAV:   7    -0.192063536177E+03   -0.23468E-03   -0.15419E-03 10800   0.278E-01    0.200E-01
DAV:   8    -0.192063101059E+03    0.43512E-03   -0.70116E-04  8840   0.194E-01    0.277E-02
DAV:   9    -0.192063102870E+03   -0.18110E-05   -0.51486E-05  5760   0.300E-02
  19 F= -.19206310E+03 E0= -.19196869E+03  d E =-.192742E-01
       N       E                     dE             d eps       ncg     rms          rms(c)
DAV:   1    -0.192084206411E+03   -0.21105E-01   -0.15443E+00  8160   0.274E+00    0.363E-01
DAV:   2    -0.192093948949E+03   -0.97425E-02   -0.47865E-02 12360   0.109E+00    0.107E+00
DAV:   3    -0.192084555674E+03    0.93933E-02   -0.23648E-02 12480   0.104E+00    0.294E-01
DAV:   4    -0.192084518329E+03    0.37346E-04   -0.34845E-03 11400   0.397E-01    0.324E-01
DAV:   5    -0.192083702711E+03    0.81562E-03   -0.36471E-03 12240   0.482E-01    0.213E-01
DAV:   6    -0.192083305763E+03    0.39695E-03   -0.13814E-03  9760   0.241E-01    0.958E-02
DAV:   7    -0.192083258128E+03    0.47635E-04   -0.48135E-04  9240   0.165E-01
  20 F= -.19208326E+03 E0= -.19198917E+03  d E =-.201553E-01
       N       E                     dE             d eps       ncg     rms          rms(c)
DAV:   1    -0.192115367710E+03   -0.32062E-01   -0.26803E+00  8160   0.352E+00    0.440E-01
DAV:   2    -0.192129365758E+03   -0.13998E-01   -0.10238E-01 11520   0.131E+00    0.105E+00
DAV:   3    -0.192120616526E+03    0.87492E-02   -0.31493E-02 12360   0.124E+00    0.451E-01
DAV:   4    -0.192119926710E+03    0.68982E-03   -0.60897E-03 11680   0.556E-01    0.396E-01
DAV:   5    -0.192118139229E+03    0.17875E-02   -0.35976E-03 12480   0.503E-01    0.154E-01
DAV:   6    -0.192118067338E+03    0.71890E-04   -0.13252E-03 12000   0.198E-01    0.100E-01
DAV:   7    -0.192117917105E+03    0.15023E-03   -0.60602E-04 10400   0.134E-01    0.757E-02
DAV:   8    -0.192117865686E+03    0.51419E-04   -0.15378E-04  6960   0.104E-01
  21 F= -.19211787E+03 E0= -.19202464E+03  d E =-.346076E-01
       N       E                     dE             d eps       ncg     rms          rms(c)
DAV:   1    -0.192149126878E+03   -0.31210E-01   -0.44998E+00  8160   0.450E+00    0.497E-01
DAV:   2    -0.192167648487E+03   -0.18522E-01   -0.16122E-01 11480   0.152E+00    0.979E-01
DAV:   3    -0.192160368549E+03    0.72799E-02   -0.35182E-02 12360   0.138E+00    0.575E-01
DAV:   4    -0.192158661347E+03    0.17072E-02   -0.86629E-03 11400   0.689E-01    0.439E-01
DAV:   5    -0.192156798579E+03    0.18628E-02   -0.42117E-03 12080   0.550E-01    0.203E-01
DAV:   6    -0.192156603384E+03    0.19519E-03   -0.19389E-03 12680   0.252E-01    0.119E-01
DAV:   7    -0.192156530916E+03    0.72468E-04   -0.10079E-03 10120   0.197E-01    0.129E-01
DAV:   8    -0.192156354016E+03    0.17690E-03   -0.36249E-04  8880   0.156E-01    0.383E-02
DAV:   9    -0.192156342768E+03    0.11248E-04   -0.55073E-05  5840   0.438E-02
  22 F= -.19215634E+03 E0= -.19206392E+03  d E =-.384771E-01
       N       E                     dE             d eps       ncg     rms          rms(c)
DAV:   1    -0.192156502524E+03   -0.14851E-03   -0.12372E-01  8160   0.778E-01    0.124E-01
DAV:   2    -0.192156738511E+03   -0.23599E-03   -0.51798E-03 11520   0.308E-01    0.176E-01
DAV:   3    -0.192156500970E+03    0.23754E-03   -0.12619E-03 10320   0.286E-01    0.114E-01
DAV:   4    -0.192156336507E+03    0.16446E-03   -0.49874E-04  8480   0.161E-01    0.754E-02
DAV:   5    -0.192156363498E+03   -0.26991E-04   -0.35769E-04  7680   0.140E-01
  23 F= -.19215636E+03 E0= -.19206325E+03  d E =-.207297E-04
       N       E                     dE             d eps       ncg     rms          rms(c)
DAV:   1    -0.192179915215E+03   -0.23579E-01   -0.15225E+00  8160   0.267E+00    0.333E-01
DAV:   2    -0.192182965044E+03   -0.30498E-02   -0.48518E-02 11920   0.679E-01    0.423E-01
DAV:   3    -0.192183635930E+03   -0.67089E-03   -0.11143E-02 12360   0.799E-01    0.513E-01
DAV:   4    -0.192180934454E+03    0.27015E-02   -0.41432E-03 12320   0.475E-01    0.153E-01
DAV:   5    -0.192180995750E+03   -0.61295E-04   -0.16577E-03 10760   0.294E-01    0.194E-01
DAV:   6    -0.192180712908E+03    0.28284E-03   -0.11517E-03 10640   0.281E-01    0.105E-01
DAV:   7    -0.192180575960E+03    0.13695E-03   -0.40199E-04  8920   0.139E-01    0.576E-02
DAV:   8    -0.192180546106E+03    0.29854E-04   -0.10004E-04  6240   0.857E-02
  24 F= -.19218055E+03 E0= -.19208811E+03  d E =-.241826E-01
       N       E                     dE             d eps       ncg     rms          rms(c)
DAV:   1    -0.192198453206E+03   -0.17877E-01   -0.98889E-01  8160   0.213E+00    0.250E-01
DAV:   2    -0.192201804752E+03   -0.33515E-02   -0.34303E-02 11440   0.737E-01    0.404E-01
DAV:   3    -0.192200526525E+03    0.12782E-02   -0.63136E-03 12440   0.638E-01    0.254E-01
DAV:   4    -0.192200198513E+03    0.32801E-03   -0.20301E-03 11360   0.345E-01    0.224E-01
DAV:   5    -0.192199838590E+03    0.35992E-03   -0.11507E-03 10120   0.281E-01    0.123E-01
DAV:   6    -0.192199737449E+03    0.10114E-03   -0.53505E-04 10080   0.133E-01    0.513E-02
DAV:   7    -0.192199697497E+03    0.39953E-04   -0.15444E-04  6720   0.695E-02
  25 F= -.19219970E+03 E0= -.19210778E+03  d E =-.191514E-01
       N       E                     dE             d eps       ncg     rms          rms(c)
DAV:   1    -0.192212607853E+03   -0.12870E-01   -0.36284E-01  8160   0.130E+00    0.161E-01
DAV:   2    -0.192213275786E+03   -0.66793E-03   -0.98429E-03 11040   0.328E-01    0.209E-01
DAV:   3    -0.192213302353E+03   -0.26566E-04   -0.20447E-03 12080   0.369E-01    0.224E-01
DAV:   4    -0.192212888709E+03    0.41364E-03   -0.91925E-04  9880   0.235E-01    0.109E-01
DAV:   5    -0.192212832627E+03    0.56083E-04   -0.47193E-04  8480   0.187E-01
  26 F= -.19221283E+03 E0= -.19212130E+03  d E =-.131351E-01
       N       E                     dE             d eps       ncg     rms          rms(c)
DAV:   1    -0.192191081368E+03    0.21807E-01   -0.11190E+00  8160   0.228E+00    0.290E-01
DAV:   2    -0.192195672916E+03   -0.45915E-02   -0.31475E-02 11440   0.787E-01    0.663E-01
DAV:   3    -0.192192134589E+03    0.35383E-02   -0.10651E-02 12160   0.775E-01    0.280E-01
DAV:   4    -0.192191595376E+03    0.53921E-03   -0.20897E-03 11240   0.287E-01    0.175E-01
DAV:   5    -0.192191536824E+03    0.58552E-04   -0.17732E-03 10720   0.333E-01    0.198E-01
DAV:   6    -0.192191212671E+03    0.32415E-03   -0.99441E-04 10320   0.253E-01    0.833E-02
DAV:   7    -0.192191099720E+03    0.11295E-03   -0.21813E-04  7360   0.781E-02    0.175E-02
DAV:   8    -0.192191096648E+03    0.30722E-05   -0.35823E-05  8000   0.226E-02
  27 F= -.19219110E+03 E0= -.19209881E+03  d E =0.217360E-01
       N       E                     dE             d eps       ncg     rms          rms(c)
DAV:   1    -0.192169030802E+03    0.22069E-01   -0.29328E+00  8160   0.371E+00    0.467E-01
DAV:   2    -0.192177311278E+03   -0.82805E-02   -0.75078E-02 11720   0.110E+00    0.932E-01
DAV:   3    -0.192171853636E+03    0.54576E-02   -0.27159E-02 12360   0.115E+00    0.503E-01
DAV:   4    -0.192169272116E+03    0.25815E-02   -0.48572E-03 11440   0.416E-01    0.180E-01
DAV:   5    -0.192169405202E+03   -0.13309E-03   -0.36091E-03 11040   0.343E-01    0.245E-01
DAV:   6    -0.192169048550E+03    0.35665E-03   -0.21928E-03 10640   0.396E-01    0.187E-01
DAV:   7    -0.192168610297E+03    0.43825E-03   -0.76155E-04 10000   0.208E-01    0.558E-02
DAV:   8    -0.192168599432E+03    0.10865E-04   -0.12952E-04  7080   0.904E-02
  28 F= -.19216860E+03 E0= -.19207538E+03  d E =0.224972E-01
       N       E                     dE             d eps       ncg     rms          rms(c)
DAV:   1    -0.192173130136E+03   -0.45198E-02   -0.12201E+00  8160   0.237E+00    0.276E-01
DAV:   2    -0.192177497982E+03   -0.43678E-02   -0.42815E-02 11800   0.824E-01    0.464E-01
DAV:   3    -0.192175738451E+03    0.17595E-02   -0.88213E-03 12480   0.712E-01    0.291E-01
DAV:   4    -0.192175368674E+03    0.36978E-03   -0.30243E-03 11680   0.385E-01    0.255E-01
DAV:   5    -0.192174902638E+03    0.46604E-03   -0.17941E-03 10160   0.325E-01    0.153E-01
DAV:   6    -0.192174726571E+03    0.17607E-03   -0.84327E-04 11000   0.171E-01    0.648E-02
DAV:   7    -0.192174668432E+03    0.58139E-04   -0.23594E-04  6200   0.848E-02
  29 F= -.19217467E+03 E0= -.19208173E+03  d E =-.606900E-02
       N       E                     dE             d eps       ncg     rms          rms(c)
DAV:   1    -0.192183396961E+03   -0.86704E-02   -0.61373E-01  8160   0.173E+00    0.239E-01
DAV:   2    -0.192184472169E+03   -0.10752E-02   -0.19859E-02 11960   0.528E-01    0.325E-01
DAV:   3    -0.192184278991E+03    0.19318E-03   -0.46877E-03 12160   0.542E-01    0.302E-01
DAV:   4    -0.192183551811E+03    0.72718E-03   -0.23542E-03 11040   0.357E-01    0.199E-01
DAV:   5    -0.192183327845E+03    0.22397E-03   -0.15689E-03 10120   0.313E-01    0.147E-01
DAV:   6    -0.192183132307E+03    0.19554E-03   -0.73792E-04  9760   0.180E-01    0.705E-02
DAV:   7    -0.192183111267E+03    0.21040E-04   -0.23037E-04  8160   0.128E-01
  30 F= -.19218311E+03 E0= -.19208991E+03  d E =-.844284E-02
       N       E                     dE             d eps       ncg     rms          rms(c)
DAV:   1    -0.192190352139E+03   -0.72198E-02   -0.45571E-01  8160   0.144E+00    0.155E-01
DAV:   2    -0.192191857944E+03   -0.15058E-02   -0.15438E-02 11840   0.441E-01    0.253E-01
DAV:   3    -0.192191489518E+03    0.36843E-03   -0.29410E-03 12600   0.406E-01    0.193E-01
DAV:   4    -0.192191252054E+03    0.23746E-03   -0.92159E-04  9760   0.220E-01    0.130E-01
DAV:   5    -0.192191108728E+03    0.14333E-03   -0.40277E-04  8600   0.166E-01    0.688E-02
DAV:   6    -0.192191097497E+03    0.11231E-04   -0.20116E-04  7200   0.905E-02
  31 F= -.19219110E+03 E0= -.19209773E+03  d E =-.798623E-02
       N       E                     dE             d eps       ncg     rms          rms(c)
DAV:   1    -0.192196923279E+03   -0.58146E-02   -0.20508E-01  8160   0.980E-01    0.115E-01
DAV:   2    -0.192197271019E+03   -0.34774E-03   -0.61025E-03 10440   0.225E-01    0.112E-01
DAV:   3    -0.192197483713E+03   -0.21269E-03   -0.11787E-03 11640   0.270E-01    0.185E-01
DAV:   4    -0.192197131906E+03    0.35181E-03   -0.53654E-04  8800   0.187E-01    0.600E-02
DAV:   5    -0.192197172705E+03   -0.40798E-04   -0.21432E-04  7720   0.121E-01
  32 F= -.19219717E+03 E0= -.19210428E+03  d E =-.607521E-02
       N       E                     dE             d eps       ncg     rms          rms(c)
DAV:   1    -0.192203228044E+03   -0.60961E-02   -0.23169E-01  8160   0.106E+00    0.135E-01
DAV:   2    -0.192203656253E+03   -0.42821E-03   -0.85661E-03 12080   0.284E-01    0.131E-01
DAV:   3    -0.192203785326E+03   -0.12907E-03   -0.12196E-03 11040   0.283E-01    0.177E-01
DAV:   4    -0.192203437528E+03    0.34780E-03   -0.63815E-04  9080   0.212E-01    0.774E-02
DAV:   5    -0.192203478162E+03   -0.40634E-04   -0.41693E-04  7960   0.152E-01
  33 F= -.19220348E+03 E0= -.19211018E+03  d E =-.630546E-02
       N       E                     dE             d eps       ncg     rms          rms(c)
DAV:   1    -0.192201675332E+03    0.17622E-02   -0.67800E-02  8160   0.610E-01    0.119E-01
DAV:   2    -0.192202397036E+03   -0.72170E-03   -0.44458E-03 11560   0.361E-01    0.294E-01
DAV:   3    -0.192201574699E+03    0.82234E-03   -0.21137E-03 11120   0.353E-01    0.113E-01
DAV:   4    -0.192201502240E+03    0.72459E-04   -0.46342E-04  7880   0.136E-01
  34 F= -.19220150E+03 E0= -.19210873E+03  d E =0.197592E-02
       N       E                     dE             d eps       ncg     rms          rms(c)
DAV:   1    -0.192200169052E+03    0.14056E-02   -0.92927E-02  8160   0.692E-01    0.202E-01
DAV:   2    -0.192200678788E+03   -0.50974E-03   -0.72933E-03 11400   0.513E-01    0.390E-01
DAV:   3    -0.192199335727E+03    0.13431E-02   -0.37183E-03 11680   0.501E-01    0.191E-01
DAV:   4    -0.192199275608E+03    0.60119E-04   -0.18581E-03 10360   0.309E-01    0.208E-01
DAV:   5    -0.192198938224E+03    0.33738E-03   -0.13264E-03 10000   0.290E-01    0.114E-01
DAV:   6    -0.192198746352E+03    0.19187E-03   -0.41204E-04  8040   0.127E-01    0.287E-02
DAV:   7    -0.192198757004E+03   -0.10652E-04   -0.67006E-05  6640   0.590E-02
  35 F= -.19219876E+03 E0= -.19210613E+03  d E =0.274524E-02
       N       E                     dE             d eps       ncg     rms          rms(c)
DAV:   1    -0.192212865572E+03   -0.14119E-01   -0.95613E-01  8160   0.213E+00    0.270E-01
DAV:   2    -0.192214260942E+03   -0.13954E-02   -0.30669E-02 11320   0.495E-01    0.268E-01
DAV:   3    -0.192215408695E+03   -0.11478E-02   -0.67868E-03 12360   0.626E-01    0.447E-01
DAV:   4    -0.192213328258E+03    0.20804E-02   -0.33448E-03 12280   0.448E-01    0.140E-01
DAV:   5    -0.192213460721E+03   -0.13246E-03   -0.12680E-03 10120   0.288E-01    0.182E-01
DAV:   6    -0.192213114627E+03    0.34609E-03   -0.73118E-04  9800   0.218E-01    0.546E-02
DAV:   7    -0.192213086250E+03    0.28377E-04   -0.12736E-04  6640   0.850E-02
  36 F= -.19221309E+03 E0= -.19212019E+03  d E =-.143292E-01
       N       E                     dE             d eps       ncg     rms          rms(c)
DAV:   1    -0.192205048801E+03    0.80658E-02   -0.26109E-01  8160   0.111E+00    0.133E-01
DAV:   2    -0.192205480481E+03   -0.43168E-03   -0.76464E-03 10920   0.269E-01    0.142E-01
DAV:   3    -0.192205604290E+03   -0.12381E-03   -0.13979E-03 11800   0.307E-01    0.186E-01
DAV:   4    -0.192205208139E+03    0.39615E-03   -0.57009E-04  8640   0.199E-01    0.625E-02
DAV:   5    -0.192205277518E+03   -0.69379E-04   -0.35174E-04  7920   0.148E-01
  37 F= -.19220528E+03 E0= -.19211259E+03  d E =0.780873E-02
       N       E                     dE             d eps       ncg     rms          rms(c)
DAV:   1    -0.192218308319E+03   -0.13100E-01   -0.75231E-01  8160   0.193E+00    0.289E-01
DAV:   2    -0.192218342918E+03   -0.34598E-04   -0.26969E-02 11640   0.467E-01    0.203E-01
DAV:   3    -0.192218493492E+03   -0.15057E-03   -0.39659E-03 11440   0.423E-01    0.288E-01
DAV:   4    -0.192217830077E+03    0.66342E-03   -0.28716E-03 11120   0.464E-01    0.211E-01
DAV:   5    -0.192217332735E+03    0.49734E-03   -0.15704E-03 10520   0.262E-01    0.972E-02
DAV:   6    -0.192217315938E+03    0.16798E-04   -0.58043E-04  9000   0.181E-01
  38 F= -.19221732E+03 E0= -.19212430E+03  d E =-.120384E-01
       N       E                     dE             d eps       ncg     rms          rms(c)
DAV:   1    -0.192225003952E+03   -0.76712E-02   -0.23317E-01  8160   0.105E+00    0.162E-01
DAV:   2    -0.192226134493E+03   -0.11305E-02   -0.92525E-03 10800   0.474E-01    0.332E-01
DAV:   3    -0.192225191293E+03    0.94320E-03   -0.26733E-03 11560   0.418E-01    0.163E-01
DAV:   4    -0.192225042019E+03    0.14927E-03   -0.87959E-04  9200   0.218E-01    0.125E-01
DAV:   5    -0.192224969152E+03    0.72867E-04   -0.60651E-04  8760   0.206E-01
  39 F= -.19222497E+03 E0= -.19213212E+03  d E =-.765321E-02
       N       E                     dE             d eps       ncg     rms          rms(c)
DAV:   1    -0.192239636090E+03   -0.14594E-01   -0.72053E-01  8160   0.183E+00    0.238E-01
DAV:   2    -0.192241101862E+03   -0.14658E-02   -0.19775E-02 11480   0.511E-01    0.339E-01
DAV:   3    -0.192240776720E+03    0.32514E-03   -0.44969E-03 11160   0.537E-01    0.306E-01
DAV:   4    -0.192239961956E+03    0.81476E-03   -0.19212E-03 10480   0.330E-01    0.143E-01
DAV:   5    -0.192239958893E+03    0.30633E-05   -0.10360E-03 10240   0.266E-01    0.142E-01
DAV:   6    -0.192239748751E+03    0.21014E-03   -0.54816E-04  8760   0.186E-01    0.487E-02
DAV:   7    -0.192239709941E+03    0.38810E-04   -0.10282E-04  6640   0.571E-02
  40 F= -.19223971E+03 E0= -.19214714E+03  d E =-.147408E-01
       N       E                     dE             d eps       ncg     rms          rms(c)
DAV:   1    -0.192241007422E+03   -0.12587E-02   -0.57032E-03  8200   0.165E-01    0.247E-02
DAV:   2    -0.192241048579E+03   -0.41157E-04   -0.21258E-04  8400   0.824E-02
  41 F= -.19224105E+03 E0= -.19214873E+03  d E =-.133864E-02
       N       E                     dE             d eps       ncg     rms          rms(c)
DAV:   1    -0.192241718056E+03   -0.71063E-03   -0.21148E-03  9400   0.123E-01    0.241E-02
DAV:   2    -0.192241771471E+03   -0.53416E-04   -0.10261E-04  6800   0.802E-02
  42 F= -.19224177E+03 E0= -.19214956E+03  d E =-.722892E-03
       N       E                     dE             d eps       ncg     rms          rms(c)
DAV:   1    -0.192272273513E+03   -0.30555E-01   -0.20367E+00  8160   0.313E+00    0.409E-01
DAV:   2    -0.192273552938E+03   -0.12794E-02   -0.54214E-02 11040   0.688E-01    0.319E-01
DAV:   3    -0.192275750938E+03   -0.21980E-02   -0.10349E-02 12360   0.798E-01    0.567E-01
DAV:   4    -0.192272479445E+03    0.32715E-02   -0.69675E-03 12320   0.711E-01    0.261E-01
DAV:   5    -0.192272379855E+03    0.99591E-04   -0.29775E-03 10240   0.425E-01    0.268E-01
DAV:   6    -0.192271793897E+03    0.58596E-03   -0.19532E-03 11800   0.356E-01    0.121E-01
DAV:   7    -0.192271545038E+03    0.24886E-03   -0.45808E-04  8960   0.119E-01    0.248E-02
DAV:   8    -0.192271540767E+03    0.42707E-05   -0.60751E-05  7640   0.426E-02
  43 F= -.19227154E+03 E0= -.19217925E+03  d E =-.297693E-01
       N       E                     dE             d eps       ncg     rms          rms(c)
DAV:   1    -0.192276007931E+03   -0.44629E-02   -0.56429E-02  8160   0.506E-01    0.924E-02
DAV:   2    -0.192277465729E+03   -0.14578E-02   -0.41937E-03 11440   0.422E-01    0.358E-01
DAV:   3    -0.192276075671E+03    0.13901E-02   -0.16237E-03 10280   0.352E-01    0.381E-02
DAV:   4    -0.192276084982E+03   -0.93108E-05   -0.72685E-05  5960   0.519E-02
  44 F= -.19227608E+03 E0= -.19218384E+03  d E =-.454421E-02
       N       E                     dE             d eps       ncg     rms          rms(c)
DAV:   1    -0.192300254325E+03   -0.24179E-01   -0.10259E+00  8160   0.219E+00    0.312E-01
DAV:   2    -0.192304563947E+03   -0.43096E-02   -0.30954E-02 11400   0.865E-01    0.631E-01
DAV:   3    -0.192300706523E+03    0.38574E-02   -0.90269E-03 12280   0.804E-01    0.261E-01
DAV:   4    -0.192300313695E+03    0.39283E-03   -0.21992E-03 11240   0.356E-01    0.208E-01
DAV:   5    -0.192300133602E+03    0.18009E-03   -0.18647E-03 10320   0.380E-01    0.180E-01
DAV:   6    -0.192299787209E+03    0.34639E-03   -0.94409E-04 10080   0.222E-01    0.674E-02
DAV:   7    -0.192299762004E+03    0.25205E-04   -0.25962E-04  7880   0.119E-01
  45 F= -.19229976E+03 E0= -.19220828E+03  d E =-.236770E-01
       N       E                     dE             d eps       ncg     rms          rms(c)
DAV:   1    -0.192302982142E+03   -0.31949E-02   -0.28840E-02  8160   0.380E-01    0.797E-02
DAV:   2    -0.192303049875E+03   -0.67733E-04   -0.17254E-03 11080   0.180E-01    0.117E-01
DAV:   3    -0.192302973357E+03    0.76519E-04   -0.54476E-04  8800   0.198E-01
  46 F= -.19230297E+03 E0= -.19221128E+03  d E =-.321135E-02
       N       E                     dE             d eps       ncg     rms          rms(c)
DAV:   1    -0.192335833547E+03   -0.32784E-01   -0.16659E+00  8160   0.282E+00    0.401E-01
DAV:   2    -0.192339142733E+03   -0.33092E-02   -0.50383E-02 11480   0.915E-01    0.580E-01
DAV:   3    -0.192337392022E+03    0.17507E-02   -0.13452E-02 12360   0.965E-01    0.449E-01
DAV:   4    -0.192335422028E+03    0.19700E-02   -0.46631E-03 12200   0.534E-01    0.233E-01
DAV:   5    -0.192335295216E+03    0.12681E-03   -0.27675E-03 11480   0.439E-01    0.247E-01
DAV:   6    -0.192334666183E+03    0.62903E-03   -0.18923E-03 12040   0.330E-01    0.913E-02
DAV:   7    -0.192334515123E+03    0.15106E-03   -0.35416E-04  7880   0.906E-02    0.242E-02
DAV:   8    -0.192334503646E+03    0.11477E-04   -0.51755E-05  8120   0.307E-02
  47 F= -.19233450E+03 E0= -.19224278E+03  d E =-.315303E-01
       N       E                     dE             d eps       ncg     rms          rms(c)
DAV:   1    -0.192349076032E+03   -0.14561E-01   -0.37889E-01  8160   0.138E+00    0.287E-01
DAV:   2    -0.192351852279E+03   -0.27762E-02   -0.20525E-02 11360   0.890E-01    0.588E-01
DAV:   3    -0.192347802040E+03    0.40502E-02   -0.75773E-03 12320   0.752E-01    0.162E-01
DAV:   4    -0.192347547083E+03    0.25496E-03   -0.17896E-03 10120   0.233E-01    0.156E-01
DAV:   5    -0.192347546286E+03    0.79624E-06   -0.14329E-03 11440   0.303E-01    0.192E-01
DAV:   6    -0.192347149486E+03    0.39680E-03   -0.74598E-04  9080   0.226E-01    0.497E-02
DAV:   7    -0.192347129049E+03    0.20437E-04   -0.12140E-04  6000   0.562E-02
  48 F= -.19234713E+03 E0= -.19225632E+03  d E =-.126254E-01
       N       E                     dE             d eps       ncg     rms          rms(c)
DAV:   1    -0.192376956453E+03   -0.29807E-01   -0.14491E+00  8160   0.260E+00    0.370E-01
DAV:   2    -0.192387403132E+03   -0.10447E-01   -0.51361E-02 11240   0.131E+00    0.935E-01
DAV:   3    -0.192377753839E+03    0.96493E-02   -0.16394E-02 12360   0.111E+00    0.229E-01
DAV:   4    -0.192377067278E+03    0.68656E-03   -0.17284E-03 11480   0.219E-01    0.115E-01
DAV:   5    -0.192377169221E+03   -0.10194E-03   -0.12606E-03 11640   0.239E-01    0.162E-01
DAV:   6    -0.192376935132E+03    0.23409E-03   -0.84613E-04 10280   0.253E-01    0.888E-02
DAV:   7    -0.192376812284E+03    0.12285E-03   -0.18237E-04  7920   0.105E-01    0.206E-02
DAV:   8    -0.192376817237E+03   -0.49532E-05   -0.41322E-05  7040   0.467E-02
  49 F= -.19237682E+03 E0= -.19228593E+03  d E =-.296882E-01
       N       E                     dE             d eps       ncg     rms          rms(c)
DAV:   1    -0.192422437139E+03   -0.45625E-01   -0.45559E+00  8160   0.461E+00    0.591E-01
DAV:   2    -0.192442333344E+03   -0.19896E-01   -0.14656E-01 11160   0.176E+00    0.116E+00
DAV:   3    -0.192428142364E+03    0.14191E-01   -0.33506E-02 12200   0.158E+00    0.465E-01
DAV:   4    -0.192425797693E+03    0.23447E-02   -0.57310E-03 11560   0.533E-01    0.269E-01
DAV:   5    -0.192425948468E+03   -0.15077E-03   -0.45126E-03 12680   0.568E-01    0.311E-01
DAV:   6    -0.192424866491E+03    0.10820E-02   -0.24864E-03 11480   0.400E-01    0.955E-02
DAV:   7    -0.192424664927E+03    0.20156E-03   -0.43683E-04 10320   0.107E-01    0.314E-02
DAV:   8    -0.192424670610E+03   -0.56826E-05   -0.75935E-05  7600   0.686E-02
  50 F= -.19242467E+03 E0= -.19233385E+03  d E =-.478534E-01
       N       E                     dE             d eps       ncg     rms          rms(c)
DAV:   1    -0.192465471427E+03   -0.40806E-01   -0.14195E+01  8160   0.818E+00    0.984E-01
DAV:   2    -0.192515709964E+03   -0.50239E-01   -0.46364E-01 11120   0.276E+00    0.162E+00
DAV:   3    -0.192488996012E+03    0.26714E-01   -0.83854E-02 12120   0.249E+00    0.842E-01
DAV:   4    -0.192480785724E+03    0.82103E-02   -0.17508E-02 12360   0.103E+00    0.453E-01
DAV:   5    -0.192481380795E+03   -0.59507E-03   -0.12256E-02 12520   0.952E-01    0.531E-01
DAV:   6    -0.192478167421E+03    0.32134E-02   -0.75643E-03 11880   0.678E-01    0.161E-01
DAV:   7    -0.192477594935E+03    0.57249E-03   -0.12941E-03 10520   0.177E-01    0.539E-02
DAV:   8    -0.192477606407E+03   -0.11472E-04   -0.28366E-04  8880   0.114E-01
  51 F= -.19247761E+03 E0= -.19238781E+03  d E =-.529358E-01
       N       E                     dE             d eps       ncg     rms          rms(c)
DAV:   1    -0.192483450012E+03   -0.58551E-02   -0.10871E+00  8160   0.221E+00    0.266E-01
DAV:   2    -0.192487475877E+03   -0.40259E-02   -0.52749E-02 11520   0.686E-01    0.275E-01
DAV:   3    -0.192488042068E+03   -0.56619E-03   -0.59895E-03 12440   0.653E-01    0.363E-01
DAV:   4    -0.192486380288E+03    0.16618E-02   -0.20480E-03 12200   0.408E-01    0.799E-02
DAV:   5    -0.192486373967E+03    0.63209E-05   -0.68053E-04 10120   0.112E-01
  52 F= -.19248637E+03 E0= -.19239719E+03  d E =-.876756E-02
       N       E                     dE             d eps       ncg     rms          rms(c)
DAV:   1    -0.192488945302E+03   -0.25650E-02   -0.20696E-01  8160   0.954E-01    0.155E-01
DAV:   2    -0.192491574134E+03   -0.26288E-02   -0.13634E-02 11400   0.678E-01    0.414E-01
DAV:   3    -0.192489444219E+03    0.21299E-02   -0.33895E-03 11520   0.504E-01    0.765E-02
DAV:   4    -0.192489395562E+03    0.48657E-04   -0.24493E-04  6560   0.111E-01
  53 F= -.19248940E+03 E0= -.19240078E+03  d E =-.302160E-02
       N       E                     dE             d eps       ncg     rms          rms(c)
DAV:   1    -0.192491728483E+03   -0.22843E-02   -0.39477E-01  8160   0.133E+00    0.146E-01
DAV:   2    -0.192492958663E+03   -0.12302E-02   -0.16560E-02 12240   0.359E-01    0.105E-01
DAV:   3    -0.192493204658E+03   -0.24599E-03   -0.11781E-03 12600   0.278E-01    0.190E-01
DAV:   4    -0.192492778743E+03    0.42591E-03   -0.57153E-04  9760   0.224E-01    0.498E-02
DAV:   5    -0.192492818276E+03   -0.39533E-04   -0.24880E-04  7120   0.912E-02
  54 F= -.19249282E+03 E0= -.19240505E+03  d E =-.342271E-02
       N       E                     dE             d eps       ncg     rms          rms(c)
DAV:   1    -0.192493082262E+03   -0.30352E-03   -0.13556E-02  8400   0.257E-01    0.862E-02
DAV:   2    -0.192493710505E+03   -0.62824E-03   -0.20352E-03 11640   0.373E-01    0.245E-01
DAV:   3    -0.192492938720E+03    0.77179E-03   -0.10136E-03 10360   0.289E-01    0.344E-02
DAV:   4    -0.192492919029E+03    0.19691E-04   -0.85536E-05  6200   0.464E-02
  55 F= -.19249292E+03 E0= -.19240507E+03  d E =-.100754E-03
       N       E                     dE             d eps       ncg     rms          rms(c)
DAV:   1    -0.192494457900E+03   -0.15192E-02   -0.13900E-01  8160   0.810E-01    0.125E-01
DAV:   2    -0.192495082084E+03   -0.62418E-03   -0.65007E-03 10520   0.379E-01    0.227E-01
DAV:   3    -0.192494563874E+03    0.51821E-03   -0.14705E-03 10680   0.328E-01    0.990E-02
DAV:   4    -0.192494435287E+03    0.12859E-03   -0.32245E-04  8720   0.130E-01    0.593E-02
DAV:   5    -0.192494439155E+03   -0.38680E-05   -0.21843E-04  7760   0.129E-01
  56 F= -.19249444E+03 E0= -.19240686E+03  d E =-.152013E-02
       N       E                     dE             d eps       ncg     rms          rms(c)
DAV:   1    -0.192495141298E+03   -0.70601E-03   -0.32557E-02  8160   0.395E-01    0.453E-02
DAV:   2    -0.192495241034E+03   -0.99736E-04   -0.14140E-03 12480   0.112E-01    0.373E-02
DAV:   3    -0.192495232352E+03    0.86824E-05   -0.79354E-05  6400   0.691E-02
  57 F= -.19249523E+03 E0= -.19240798E+03  d E =-.793197E-03
       N       E                     dE             d eps       ncg     rms          rms(c)
DAV:   1    -0.192496182006E+03   -0.94097E-03   -0.56377E-02  8160   0.519E-01    0.742E-02
DAV:   2    -0.192496313482E+03   -0.13148E-03   -0.24072E-03 11240   0.171E-01    0.838E-02
DAV:   3    -0.192496299282E+03    0.14200E-04   -0.35041E-04  8920   0.166E-01
  58 F= -.19249630E+03 E0= -.19240947E+03  d E =-.106693E-02
       N       E                     dE             d eps       ncg     rms          rms(c)
DAV:   1    -0.192497183747E+03   -0.87026E-03   -0.97873E-02  8160   0.672E-01    0.831E-02
DAV:   2    -0.192497386923E+03   -0.20318E-03   -0.33255E-03 12520   0.186E-01    0.858E-02
DAV:   3    -0.192497390062E+03   -0.31388E-05   -0.40821E-04  9400   0.177E-01
  59 F= -.19249739E+03 E0= -.19241114E+03  d E =-.109078E-02
       N       E                     dE             d eps       ncg     rms          rms(c)
DAV:   1    -0.192497790802E+03   -0.40388E-03   -0.23093E-02  8160   0.337E-01    0.523E-02
DAV:   2    -0.192497937004E+03   -0.14620E-03   -0.98158E-04 12800   0.154E-01    0.999E-02
DAV:   3    -0.192497815955E+03    0.12105E-03   -0.25374E-04  8800   0.140E-01    0.398E-02
DAV:   4    -0.192497812119E+03    0.38356E-05   -0.55485E-05  5920   0.550E-02
  60 F= -.19249781E+03 E0= -.19241189E+03  d E =-.422057E-03
