<?xml version="1.0" encoding="ISO-8859-1"?>
<modeling>
 <generator>
  <i name="program" type="string">vasp </i>
  <i name="version" type="string">5.4.1  </i>
  <i name="subversion" type="string">05Feb16 (build Jul 05 2020 17:13:04) complex                          parallel </i>
  <i name="platform" type="string">IFC91_ompi </i>
  <i name="date" type="string">2024 04 28 </i>
  <i name="time" type="string">03:04:33 </i>
 </generator>
 <incar>
  <i type="int" name="ISTART">     0</i>
  <i type="string" name="PREC">normal</i>
  <i type="string" name="ALGO"> Normal</i>
  <i type="int" name="ISPIN">     1</i>
  <i type="int" name="ICHARG">     2</i>
  <i type="int" name="IBRION">     1</i>
  <i type="int" name="NSW">   100</i>
  <i type="int" name="ISIF">     3</i>
  <i type="int" name="ISYM">     0</i>
  <i name="SYMPREC">      0.00000001</i>
  <i name="POTIM">      0.50000000</i>
  <i type="logical" name="LREAL"> F  </i>
  <i type="logical" name="LPLANE"> F  </i>
  <i type="int" name="ISMEAR">     0</i>
  <i type="logical" name="LWAVE"> F  </i>
  <i type="logical" name="LCHARG"> F  </i>
  <v type="int" name="KPOINT_BSE">    -1     0     0     0</v>
 </incar>
 <kpoints>
  <generation param="Gamma">
   <v type="int" name="divisions">       8        8        1 </v>
   <v name="usershift">      0.00000000       0.00000000       0.00000000 </v>
   <v name="genvec1">      0.12500000       0.00000000       0.00000000 </v>
   <v name="genvec2">     -0.00000000       0.12500000       0.00000000 </v>
   <v name="genvec3">      0.00000000       0.00000000       1.00000000 </v>
   <v name="shift">      0.00000000       0.00000000       0.00000000 </v>
  </generation>
  <varray name="kpointlist" >
   <v>       0.00000000       0.00000000       0.00000000 </v>
   <v>       0.12500000       0.00000000       0.00000000 </v>
   <v>       0.25000000       0.00000000       0.00000000 </v>
   <v>       0.37500000       0.00000000       0.00000000 </v>
   <v>       0.50000000       0.00000000       0.00000000 </v>
   <v>       0.00000000       0.12500000       0.00000000 </v>
   <v>       0.12500000       0.12500000       0.00000000 </v>
   <v>       0.25000000       0.12500000       0.00000000 </v>
   <v>       0.37500000       0.12500000       0.00000000 </v>
   <v>       0.50000000       0.12500000       0.00000000 </v>
   <v>      -0.37500000       0.12500000       0.00000000 </v>
   <v>      -0.25000000       0.12500000       0.00000000 </v>
   <v>      -0.12500000       0.12500000       0.00000000 </v>
   <v>       0.00000000       0.25000000       0.00000000 </v>
   <v>       0.12500000       0.25000000       0.00000000 </v>
   <v>       0.25000000       0.25000000       0.00000000 </v>
   <v>       0.37500000       0.25000000       0.00000000 </v>
   <v>       0.50000000       0.25000000       0.00000000 </v>
   <v>      -0.37500000       0.25000000       0.00000000 </v>
   <v>      -0.25000000       0.25000000       0.00000000 </v>
   <v>      -0.12500000       0.25000000       0.00000000 </v>
   <v>      -0.00000000       0.37500000       0.00000000 </v>
   <v>       0.12500000       0.37500000       0.00000000 </v>
   <v>       0.25000000       0.37500000       0.00000000 </v>
   <v>       0.37500000       0.37500000       0.00000000 </v>
   <v>       0.50000000       0.37500000       0.00000000 </v>
   <v>      -0.37500000       0.37500000       0.00000000 </v>
   <v>      -0.25000000       0.37500000       0.00000000 </v>
   <v>      -0.12500000       0.37500000       0.00000000 </v>
   <v>       0.00000000       0.50000000       0.00000000 </v>
   <v>       0.12500000       0.50000000       0.00000000 </v>
   <v>       0.25000000       0.50000000       0.00000000 </v>
   <v>       0.37500000       0.50000000       0.00000000 </v>
   <v>       0.50000000       0.50000000       0.00000000 </v>
  </varray>
  <varray name="weights" >
   <v>       0.01562500 </v>
   <v>       0.03125000 </v>
   <v>       0.03125000 </v>
   <v>       0.03125000 </v>
   <v>       0.01562500 </v>
   <v>       0.03125000 </v>
   <v>       0.03125000 </v>
   <v>       0.03125000 </v>
   <v>       0.03125000 </v>
   <v>       0.03125000 </v>
   <v>       0.03125000 </v>
   <v>       0.03125000 </v>
   <v>       0.03125000 </v>
   <v>       0.03125000 </v>
   <v>       0.03125000 </v>
   <v>       0.03125000 </v>
   <v>       0.03125000 </v>
   <v>       0.03125000 </v>
   <v>       0.03125000 </v>
   <v>       0.03125000 </v>
   <v>       0.03125000 </v>
   <v>       0.03125000 </v>
   <v>       0.03125000 </v>
   <v>       0.03125000 </v>
   <v>       0.03125000 </v>
   <v>       0.03125000 </v>
   <v>       0.03125000 </v>
   <v>       0.03125000 </v>
   <v>       0.03125000 </v>
   <v>       0.01562500 </v>
   <v>       0.03125000 </v>
   <v>       0.03125000 </v>
   <v>       0.03125000 </v>
   <v>       0.01562500 </v>
  </varray>
 </kpoints>
 <parameters>
  <separator name="general" >
   <i type="string" name="SYSTEM">unknown system</i>
   <i type="logical" name="LCOMPAT"> F  </i>
  </separator>
  <separator name="electronic" >
   <i type="string" name="PREC">normal</i>
   <i name="ENMAX">    280.00000000</i>
   <i name="ENAUG">    373.43800000</i>
   <i name="EDIFF">      0.00010000</i>
   <i type="int" name="IALGO">    38</i>
   <i type="int" name="IWAVPR">    11</i>
   <i type="int" name="NBANDS">   120</i>
   <i name="NELECT">    159.00000000</i>
   <i type="int" name="TURBO">     0</i>
   <i type="int" name="IRESTART">     0</i>
   <i type="int" name="NREBOOT">     0</i>
   <i type="int" name="NMIN">     0</i>
   <i name="EREF">      0.00000000</i>
   <separator name="electronic smearing" >
    <i type="int" name="ISMEAR">     0</i>
    <i name="SIGMA">      0.20000000</i>
    <i name="KSPACING">      0.50000000</i>
    <i type="logical" name="KGAMMA"> T  </i>
   </separator>
   <separator name="electronic projectors" >
    <i type="logical" name="LREAL"> F  </i>
    <v name="ROPT">      0.00000000      0.00000000      0.00000000      0.00000000</v>
    <i type="int" name="LMAXPAW">  -100</i>
    <i type="int" name="LMAXMIX">     2</i>
    <i type="logical" name="NLSPLINE"> F  </i>
   </separator>
   <separator name="electronic startup" >
    <i type="int" name="ISTART">     0</i>
    <i type="int" name="ICHARG">     2</i>
    <i type="int" name="INIWAV">     1</i>
   </separator>
   <separator name="electronic spin" >
    <i type="int" name="ISPIN">     1</i>
    <i type="logical" name="LNONCOLLINEAR"> F  </i>
    <v name="MAGMOM">      1.00000000      1.00000000      1.00000000      1.00000000      1.00000000      1.00000000      1.00000000      1.00000000      1.00000000      1.00000000      1.00000000      1.00000000      1.00000000      1.00000000      1.00000000      1.00000000      1.00000000      1.00000000      1.00000000      1.00000000
      1.00000000      1.00000000      1.00000000      1.00000000      1.00000000      1.00000000      1.00000000</v>
    <i name="NUPDOWN">     -1.00000000</i>
    <i type="logical" name="LSORBIT"> F  </i>
    <v name="SAXIS">      0.00000000      0.00000000      1.00000000</v>
    <i type="logical" name="LSPIRAL"> F  </i>
    <v name="QSPIRAL">      0.00000000      0.00000000      0.00000000</v>
    <i type="logical" name="LZEROZ"> F  </i>
   </separator>
   <separator name="electronic exchange-correlation" >
    <i type="logical" name="LASPH"> F  </i>
    <i type="logical" name="LMETAGGA"> F  </i>
   </separator>
   <separator name="electronic convergence" >
    <i type="int" name="NELM">    60</i>
    <i type="int" name="NELMDL">    -5</i>
    <i type="int" name="NELMIN">     2</i>
    <i name="ENINI">    280.00000000</i>
    <separator name="electronic convergence detail" >
     <i type="logical" name="LDIAG"> T  </i>
     <i type="logical" name="LSUBROT"> F  </i>
     <i name="WEIMIN">      0.00100000</i>
     <i name="EBREAK">      0.00000021</i>
     <i name="DEPER">      0.30000000</i>
     <i type="int" name="NRMM">     4</i>
     <i name="TIME">      0.40000000</i>
    </separator>
   </separator>
   <separator name="electronic mixer" >
    <i name="AMIX">      0.40000000</i>
    <i name="BMIX">      1.00000000</i>
    <i name="AMIN">      0.10000000</i>
    <i name="AMIX_MAG">      1.60000000</i>
    <i name="BMIX_MAG">      1.00000000</i>
    <separator name="electronic mixer details" >
     <i type="int" name="IMIX">     4</i>
     <i type="logical" name="MIXFIRST"> F  </i>
     <i type="int" name="MAXMIX">   -45</i>
     <i name="WC">    100.00000000</i>
     <i type="int" name="INIMIX">     1</i>
     <i type="int" name="MIXPRE">     1</i>
     <i type="int" name="MREMOVE">     5</i>
    </separator>
   </separator>
   <separator name="electronic dipolcorrection" >
    <i type="logical" name="LDIPOL"> F  </i>
    <i type="logical" name="LMONO"> F  </i>
    <i type="int" name="IDIPOL">     0</i>
    <i name="EPSILON">      1.00000000</i>
    <v name="DIPOL">   -100.00000000   -100.00000000   -100.00000000</v>
    <i name="EFIELD">      0.00000000</i>
   </separator>
  </separator>
  <separator name="grids" >
   <i type="int" name="NGX">    42</i>
   <i type="int" name="NGY">    42</i>
   <i type="int" name="NGZ">   126</i>
   <i type="int" name="NGXF">    84</i>
   <i type="int" name="NGYF">    84</i>
   <i type="int" name="NGZF">   252</i>
   <i type="logical" name="ADDGRID"> F  </i>
  </separator>
  <separator name="ionic" >
   <i type="int" name="NSW">   100</i>
   <i type="int" name="IBRION">     1</i>
   <i type="int" name="ISIF">     3</i>
   <i name="PSTRESS">      0.00000000</i>
   <i name="EDIFFG">      0.00100000</i>
   <i type="int" name="NFREE">     0</i>
   <i name="POTIM">      0.50000000</i>
   <i name="SMASS">     -3.00000000</i>
   <i name="SCALEE">      1.00000000</i>
  </separator>
  <separator name="ionic md" >
   <i name="TEBEG">      0.00010000</i>
   <i name="TEEND">      0.00010000</i>
   <i type="int" name="NBLOCK">     1</i>
   <i type="int" name="KBLOCK">   100</i>
   <i type="int" name="NPACO">   256</i>
   <i name="APACO">     16.00000000</i>
  </separator>
  <separator name="symmetry" >
   <i type="int" name="ISYM">     0</i>
   <i name="SYMPREC">      0.00000001</i>
  </separator>
  <separator name="dos" >
   <i type="logical" name="LORBIT"> F  </i>
   <v name="RWIGS">     -1.00000000     -1.00000000     -1.00000000     -1.00000000</v>
   <i type="int" name="NEDOS">   301</i>
   <i name="EMIN">     10.00000000</i>
   <i name="EMAX">    -10.00000000</i>
   <i name="EFERMI">      0.00000000</i>
  </separator>
  <separator name="writing" >
   <i type="int" name="NWRITE">     2</i>
   <i type="logical" name="LWAVE"> F  </i>
   <i type="logical" name="LCHARG"> F  </i>
   <i type="logical" name="LPARD"> F  </i>
   <i type="logical" name="LVTOT"> F  </i>
   <i type="logical" name="LVHAR"> F  </i>
   <i type="logical" name="LELF"> F  </i>
   <i type="logical" name="LOPTICS"> F  </i>
   <v name="STM">      0.00000000      0.00000000      0.00000000      0.00000000      0.00000000      0.00000000      0.00000000</v>
  </separator>
  <separator name="performance" >
   <i type="int" name="NPAR">    40</i>
   <i type="int" name="NSIM">     4</i>
   <i type="int" name="NBLK">    -1</i>
   <i type="logical" name="LPLANE"> F  </i>
   <i type="logical" name="LSCALAPACK"> T  </i>
   <i type="logical" name="LSCAAWARE"> F  </i>
   <i type="logical" name="LSCALU"> F  </i>
   <i type="logical" name="LASYNC"> F  </i>
   <i type="logical" name="LORBITALREAL"> F  </i>
  </separator>
  <separator name="miscellaneous" >
   <i type="int" name="IDIOT">     3</i>
   <i type="logical" name="LMUSIC"> F  </i>
   <v name="POMASS">     50.94100000     95.94000000    183.85000000     32.06600000</v>
   <v name="DARWINR">      0.00000000      0.00000000      0.00000000      0.00000000</v>
   <v name="DARWINV">      1.00000000      1.00000000      1.00000000      1.00000000</v>
   <i type="logical" name="LCORR"> T  </i>
  </separator>
  <i type="logical" name="GGA_COMPAT"> T  </i>
  <i type="logical" name="LBERRY"> F  </i>
  <i type="int" name="ICORELEVEL">     0</i>
  <i type="logical" name="LDAU"> F  </i>
  <i type="int" name="I_CONSTRAINED_M">     0</i>
  <separator name="electronic exchange-correlation" >
   <i type="string" name="GGA">--</i>
   <i type="int" name="VOSKOWN">     0</i>
   <i type="logical" name="LHFCALC"> F  </i>
   <i type="string" name="PRECFOCK"></i>
   <i type="logical" name="LSYMGRAD"> F  </i>
   <i type="logical" name="LHFONE"> F  </i>
   <i type="logical" name="LRHFCALC"> F  </i>
   <i type="logical" name="LTHOMAS"> F  </i>
   <i type="logical" name="LMODELHF"> F  </i>
   <i name="ENCUT4O">     -1.00000000</i>
   <i type="int" name="EXXOEP">     0</i>
   <i type="int" name="FOURORBIT">     0</i>
   <i name="AEXX">      0.00000000</i>
   <i name="HFALPHA">      0.00000000</i>
   <i name="MCALPHA">      0.00000000</i>
   <i name="ALDAX">      1.00000000</i>
   <i name="AGGAX">      1.00000000</i>
   <i name="ALDAC">      1.00000000</i>
   <i name="AGGAC">      1.00000000</i>
   <i type="int" name="NKREDX">     1</i>
   <i type="int" name="NKREDY">     1</i>
   <i type="int" name="NKREDZ">     1</i>
   <i type="logical" name="SHIFTRED"> F  </i>
   <i type="logical" name="ODDONLY"> F  </i>
   <i type="logical" name="EVENONLY"> F  </i>
   <i type="int" name="LMAXFOCK">     0</i>
   <i type="int" name="NMAXFOCKAE">     0</i>
   <i type="logical" name="LFOCKAEDFT"> F  </i>
   <i name="HFSCREEN">      0.00000000</i>
   <i name="HFSCREENC">      0.00000000</i>
   <i type="int" name="NBANDSGWLOW">     0</i>
  </separator>
  <separator name="vdW DFT" >
   <i type="logical" name="LUSE_VDW"> F  </i>
   <i name="Zab_VDW">     -0.84910000</i>
   <i name="PARAM1">      0.12340000</i>
   <i name="PARAM2">      1.00000000</i>
   <i name="PARAM3">      0.00000000</i>
  </separator>
  <separator name="model GW" >
   <i type="int" name="MODEL_GW">     0</i>
   <i name="MODEL_EPS0">     58.26239943</i>
   <i name="MODEL_ALPHA">      1.00000000</i>
  </separator>
  <separator name="linear response parameters" >
   <i type="logical" name="LEPSILON"> F  </i>
   <i type="logical" name="LRPA"> F  </i>
   <i type="logical" name="LNABLA"> F  </i>
   <i type="logical" name="LVEL"> F  </i>
   <i type="int" name="KINTER">     0</i>
   <i name="CSHIFT">      0.10000000</i>
   <i name="OMEGAMAX">     -1.00000000</i>
   <i name="DEG_THRESHOLD">      0.00200000</i>
  </separator>
  <separator name="orbital magnetization" >
   <i type="logical" name="NUCIND"> F  </i>
   <v name="MAGPOS">      0.00000000      0.00000000      0.00000000</v>
   <i type="logical" name="LNICSALL"> T  </i>
   <i type="logical" name="ORBITALMAG"> F  </i>
   <i type="logical" name="LMAGBLOCH"> F  </i>
   <i type="logical" name="LCHIMAG"> F  </i>
   <i type="logical" name="LGAUGE"> T  </i>
   <i type="int" name="MAGATOM">     0</i>
   <v name="MAGDIPOL">      0.00000000      0.00000000      0.00000000</v>
   <v name="AVECCONST">      0.00000000      0.00000000      0.00000000</v>
  </separator>
  <separator name="response functions" >
   <i type="logical" name="LADDER"> F  </i>
   <i type="logical" name="LFXC"> F  </i>
   <i type="logical" name="LHARTREE"> T  </i>
   <i type="int" name="IBSE">     0</i>
   <v type="int" name="KPOINT">    -1     0     0     0</v>
   <i type="logical" name="LTCTE"> F  </i>
   <i type="logical" name="LTETE"> F  </i>
   <i type="logical" name="LTRIPLET"> F  </i>
   <i type="logical" name="LFXCEPS"> F  </i>
   <i type="logical" name="LFXHEG"> F  </i>
   <i type="int" name="NATURALO">     0</i>
   <i type="logical" name="L2ORDER"> F  </i>
   <i type="logical" name="LUSEW"> F  </i>
   <i name="ENCUTGW">     -2.00000000</i>
   <i name="ENCUTGWSOFT">     -2.00000000</i>
   <i name="ENCUTLF">     -1.00000000</i>
   <i type="int" name="LMAXMP2">    -1</i>
   <i name="SCISSOR">      0.00000000</i>
   <i type="int" name="NOMEGA">     0</i>
   <i type="int" name="NOMEGAR">     0</i>
   <i type="int" name="NBANDSGW">    -1</i>
   <i type="int" name="NBANDSO">    -1</i>
   <i type="int" name="NBANDSV">    -1</i>
   <i type="int" name="NELM">     1</i>
   <i type="int" name="NELMHF">     1</i>
   <i type="int" name="DIM">     3</i>
   <i type="int" name="ANTIRES">     0</i>
   <i name="OMEGAMAX">    -30.00000000</i>
   <i name="OMEGAMIN">    -30.00000000</i>
   <i name="OMEGATL">   -200.00000000</i>
   <i type="int" name="OMEGAGRID">     0</i>
   <i name="CSHIFT">     -0.10000000</i>
   <i type="logical" name="SELFENERGY"> F  </i>
   <i type="logical" name="LSPECTRAL"> F  </i>
   <i type="logical" name="LSPECTRALGW"> F  </i>
   <i type="logical" name="LSINGLES"> F  </i>
   <i type="logical" name="LFERMIGW"> F  </i>
   <i type="logical" name="ODDONLYGW"> F  </i>
   <i type="logical" name="EVENONLYGW"> F  </i>
   <i type="int" name="NKREDLFX">     1</i>
   <i type="int" name="NKREDLFY">     1</i>
   <i type="int" name="NKREDLFZ">     1</i>
   <i type="int" name="MAXMEM">  1800</i>
   <i type="int" name="TELESCOPE">     0</i>
   <i type="int" name="TAUPAR">     1</i>
   <i type="int" name="OMEGAPAR">    -1</i>
   <i name="LAMBDA">      1.00000000</i>
  </separator>
  <separator name="External order field" >
   <i name="OFIELD_KAPPA">      0.00000000</i>
   <v name="OFIELD_K">      0.00000000      0.00000000      0.00000000</v>
   <i name="OFIELD_Q6_NEAR">      0.00000000</i>
   <i name="OFIELD_Q6_FAR">      0.00000000</i>
   <i name="OFIELD_A">      0.00000000</i>
  </separator>
 </parameters>
 <atominfo>
  <atoms>      27 </atoms>
  <types>       4 </types>
  <array name="atoms" >
   <dimension dim="1">ion</dimension>
   <field type="string">element</field>
   <field type="int">atomtype</field>
   <set>
    <rc><c>V </c><c>   1</c></rc>
    <rc><c>V </c><c>   1</c></rc>
    <rc><c>V </c><c>   1</c></rc>
    <rc><c>Mo</c><c>   2</c></rc>
    <rc><c>Mo</c><c>   2</c></rc>
    <rc><c>Mo</c><c>   2</c></rc>
    <rc><c>W </c><c>   3</c></rc>
    <rc><c>W </c><c>   3</c></rc>
    <rc><c>W </c><c>   3</c></rc>
    <rc><c>S </c><c>   4</c></rc>
    <rc><c>S </c><c>   4</c></rc>
    <rc><c>S </c><c>   4</c></rc>
    <rc><c>S </c><c>   4</c></rc>
    <rc><c>S </c><c>   4</c></rc>
    <rc><c>S </c><c>   4</c></rc>
    <rc><c>S </c><c>   4</c></rc>
    <rc><c>S </c><c>   4</c></rc>
    <rc><c>S </c><c>   4</c></rc>
    <rc><c>S </c><c>   4</c></rc>
    <rc><c>S </c><c>   4</c></rc>
    <rc><c>S </c><c>   4</c></rc>
    <rc><c>S </c><c>   4</c></rc>
    <rc><c>S </c><c>   4</c></rc>
    <rc><c>S </c><c>   4</c></rc>
    <rc><c>S </c><c>   4</c></rc>
    <rc><c>S </c><c>   4</c></rc>
    <rc><c>S </c><c>   4</c></rc>
   </set>
  </array>
  <array name="atomtypes" >
   <dimension dim="1">type</dimension>
   <field type="int">atomspertype</field>
   <field type="string">element</field>
   <field>mass</field>
   <field>valence</field>
   <field type="string">pseudopotential</field>
   <set>
    <rc><c>   3</c><c>V </c><c>     50.94100000</c><c>      5.00000000</c><c> PAW_PBE V 08Apr2002                    </c></rc>
    <rc><c>   3</c><c>Mo</c><c>     95.94000000</c><c>      6.00000000</c><c> PAW_PBE Mo 08Apr2002                   </c></rc>
    <rc><c>   3</c><c>W </c><c>    183.85000000</c><c>      6.00000000</c><c> PAW_PBE W 08Apr2002                    </c></rc>
    <rc><c>  18</c><c>S </c><c>     32.06600000</c><c>      6.00000000</c><c>  PAW_PBE S 17Jan2003                   </c></rc>
   </set>
  </array>
 </atominfo>
 <structure name="initialpos" >
  <crystal>
   <varray name="basis" >
    <v>       8.66999996       5.03999989       0.00000000 </v>
    <v>      -8.66999982       5.04000013       0.00000000 </v>
    <v>       0.00000000       0.00000000      30.00000000 </v>
   </varray>
   <i name="volume">   2621.80797419 </i>
   <varray name="rec_basis" >
    <v>       0.05767013       0.09920635       0.00000000 </v>
    <v>      -0.05767013       0.09920635       0.00000000 </v>
    <v>       0.00000000       0.00000000       0.03333333 </v>
   </varray>
  </crystal>
  <varray name="positions" >
   <v>       0.33333334       0.33333334       0.00000000 </v>
   <v>       0.33333334       0.66666669       0.00000000 </v>
   <v>       0.33333334       0.00000000       0.00000000 </v>
   <v>       0.66666669       0.66666669       0.00000000 </v>
   <v>       0.00000000       0.66666669       0.00000000 </v>
   <v>       1.00000000       0.33333334       0.00000000 </v>
   <v>       0.00000000       0.00000000       0.00000000 </v>
   <v>       0.66666669       0.00000000       0.00000000 </v>
   <v>       0.66666669       0.33333334       0.00000000 </v>
   <v>       0.11068511       0.22244981       0.95539999 </v>
   <v>       0.22244981       0.11068511       0.04460000 </v>
   <v>       0.11068511       0.55578315       0.95539999 </v>
   <v>       0.22244981       0.44401845       0.04460000 </v>
   <v>       0.11068511       0.88911647       0.95539999 </v>
   <v>       0.22244981       0.77735180       0.04460000 </v>
   <v>       0.44401845       0.22244981       0.95539999 </v>
   <v>       0.55578315       0.11068511       0.04460000 </v>
   <v>       0.44401845       0.55578315       0.95539999 </v>
   <v>       0.55578315       0.44401845       0.04460000 </v>
   <v>       0.44401845       0.88911647       0.95539999 </v>
   <v>       0.55578315       0.77735180       0.04460000 </v>
   <v>       0.77735180       0.22244981       0.95539999 </v>
   <v>       0.88911647       0.11068511       0.04460000 </v>
   <v>       0.77735180       0.55578315       0.95539999 </v>
   <v>       0.88911647       0.44401845       0.04460000 </v>
   <v>       0.77735180       0.88911647       0.95539999 </v>
   <v>       0.88911647       0.77735180       0.04460000 </v>
  </varray>
 </structure>
 <calculation>
  <scstep>
   <time name="dav">   22.11   22.16</time>
   <time name="total">   22.15   22.21</time>
   <energy>
    <i name="alphaZ">     81.65567618 </i>
    <i name="ewald">  41891.19379416 </i>
    <i name="hartreedc"> -47723.83796961 </i>
    <i name="XCdc">   -242.92495564 </i>
    <i name="pawpsdc">   3467.42045192 </i>
    <i name="pawaedc">  -2871.19716117 </i>
    <i name="eentropy">     -0.53142382 </i>
    <i name="bandstr">   -239.10639055 </i>
    <i name="atom">   6761.44252427 </i>
    <i name="e_fr_energy">   1124.11454575 </i>
    <i name="e_wo_entrp">   1124.64596957 </i>
    <i name="e_0_energy">   1124.38025766 </i>
   </energy>
  </scstep>
  <scstep>
   <time name="dav">   28.67   28.74</time>
   <time name="total">   28.67   28.75</time>
   <energy>
    <i name="e_fr_energy">     -2.75363536 </i>
    <i name="e_wo_entrp">     -2.54179627 </i>
    <i name="e_0_energy">     -2.64771581 </i>
   </energy>
  </scstep>
  <scstep>
   <time name="dav">   28.09   28.16</time>
   <time name="total">   28.09   28.17</time>
   <energy>
    <i name="e_fr_energy">   -200.11010152 </i>
    <i name="e_wo_entrp">   -199.84400986 </i>
    <i name="e_0_energy">   -199.97705569 </i>
   </energy>
  </scstep>
  <scstep>
   <time name="dav">   29.55   29.63</time>
   <time name="total">   29.55   29.63</time>
   <energy>
    <i name="e_fr_energy">   -209.03960599 </i>
    <i name="e_wo_entrp">   -208.77740674 </i>
    <i name="e_0_energy">   -208.90850637 </i>
   </energy>
  </scstep>
  <scstep>
   <time name="dav">   29.40   29.47</time>
   <time name="total">   29.88   29.95</time>
   <energy>
    <i name="e_fr_energy">   -209.40103258 </i>
    <i name="e_wo_entrp">   -209.14207526 </i>
    <i name="e_0_energy">   -209.27155392 </i>
   </energy>
  </scstep>
  <scstep>
   <time name="dav">   31.14   31.21</time>
   <time name="total">   31.64   31.73</time>
   <energy>
    <i name="e_fr_energy">   -241.49870890 </i>
    <i name="e_wo_entrp">   -241.21782629 </i>
    <i name="e_0_energy">   -241.35826759 </i>
   </energy>
  </scstep>
  <scstep>
   <time name="dav">   32.51   32.59</time>
   <time name="total">   33.02   33.11</time>
   <energy>
    <i name="e_fr_energy">   -196.13272478 </i>
    <i name="e_wo_entrp">   -195.80687571 </i>
    <i name="e_0_energy">   -195.96980025 </i>
   </energy>
  </scstep>
  <scstep>
   <time name="dav">   30.07   30.14</time>
   <time name="total">   30.59   30.67</time>
   <energy>
    <i name="e_fr_energy">   -189.33603443 </i>
    <i name="e_wo_entrp">   -189.00404028 </i>
    <i name="e_0_energy">   -189.17003736 </i>
   </energy>
  </scstep>
  <scstep>
   <time name="dav">   32.61   32.70</time>
   <time name="total">   33.14   33.24</time>
   <energy>
    <i name="e_fr_energy">   -188.07140444 </i>
    <i name="e_wo_entrp">   -187.73794703 </i>
    <i name="e_0_energy">   -187.90467574 </i>
   </energy>
  </scstep>
  <scstep>
   <time name="dav">   33.16   33.23</time>
   <time name="total">   33.69   33.78</time>
   <energy>
    <i name="e_fr_energy">   -186.95355966 </i>
    <i name="e_wo_entrp">   -186.59843850 </i>
    <i name="e_0_energy">   -186.77599908 </i>
   </energy>
  </scstep>
  <scstep>
   <time name="dav">   33.34   33.42</time>
   <time name="total">   33.88   33.97</time>
   <energy>
    <i name="e_fr_energy">   -187.08022536 </i>
    <i name="e_wo_entrp">   -186.74242515 </i>
    <i name="e_0_energy">   -186.91132525 </i>
   </energy>
  </scstep>
  <scstep>
   <time name="dav">   32.40   32.48</time>
   <time name="total">   32.94   33.02</time>
   <energy>
    <i name="e_fr_energy">   -186.95447284 </i>
    <i name="e_wo_entrp">   -186.61129899 </i>
    <i name="e_0_energy">   -186.78288592 </i>
   </energy>
  </scstep>
  <scstep>
   <time name="dav">   31.88   31.96</time>
   <time name="total">   32.42   32.52</time>
   <energy>
    <i name="e_fr_energy">   -186.87718946 </i>
    <i name="e_wo_entrp">   -186.53395297 </i>
    <i name="e_0_energy">   -186.70557122 </i>
   </energy>
  </scstep>
  <scstep>
   <time name="dav">   30.69   30.76</time>
   <time name="total">   31.23   31.31</time>
   <energy>
    <i name="e_fr_energy">   -186.85694863 </i>
    <i name="e_wo_entrp">   -186.50905682 </i>
    <i name="e_0_energy">   -186.68300273 </i>
   </energy>
  </scstep>
  <scstep>
   <time name="dav">   31.76   31.84</time>
   <time name="total">   32.30   32.39</time>
   <energy>
    <i name="e_fr_energy">   -186.85306286 </i>
    <i name="e_wo_entrp">   -186.50538382 </i>
    <i name="e_0_energy">   -186.67922334 </i>
   </energy>
  </scstep>
  <scstep>
   <time name="dav">   32.39   32.47</time>
   <time name="total">   32.93   33.01</time>
   <energy>
    <i name="e_fr_energy">   -186.84858896 </i>
    <i name="e_wo_entrp">   -186.50133111 </i>
    <i name="e_0_energy">   -186.67496003 </i>
   </energy>
  </scstep>
  <scstep>
   <time name="dav">   31.36   31.43</time>
   <time name="total">   31.90   31.98</time>
   <energy>
    <i name="e_fr_energy">   -186.84744319 </i>
    <i name="e_wo_entrp">   -186.50141892 </i>
    <i name="e_0_energy">   -186.67443105 </i>
   </energy>
  </scstep>
  <scstep>
   <time name="dav">   31.42   31.49</time>
   <time name="total">   31.95   32.04</time>
   <energy>
    <i name="e_fr_energy">   -186.84684257 </i>
    <i name="e_wo_entrp">   -186.50024644 </i>
    <i name="e_0_energy">   -186.67354451 </i>
   </energy>
  </scstep>
  <scstep>
   <time name="dav">   23.69   23.75</time>
   <time name="total">   24.23   24.30</time>
   <energy>
    <i name="e_fr_energy">   -186.84702145 </i>
    <i name="e_wo_entrp">   -186.50051504 </i>
    <i name="e_0_energy">   -186.67376824 </i>
   </energy>
  </scstep>
  <scstep>
   <time name="dav">   24.08   24.14</time>
   <time name="total">   24.62   24.69</time>
   <energy>
    <i name="e_fr_energy">   -186.84771273 </i>
    <i name="e_wo_entrp">   -186.50154152 </i>
    <i name="e_0_energy">   -186.67462712 </i>
   </energy>
  </scstep>
  <scstep>
   <time name="dav">   22.04   22.09</time>
   <time name="total">   22.57   22.64</time>
   <energy>
    <i name="e_fr_energy">   -186.84870818 </i>
    <i name="e_wo_entrp">   -186.50253847 </i>
    <i name="e_0_energy">   -186.67562333 </i>
   </energy>
  </scstep>
  <scstep>
   <time name="dav">   18.94   18.98</time>
   <time name="total">   19.47   19.53</time>
   <energy>
    <i name="e_fr_energy">   -186.84948285 </i>
    <i name="e_wo_entrp">   -186.50327337 </i>
    <i name="e_0_energy">   -186.67637811 </i>
   </energy>
  </scstep>
  <scstep>
   <time name="dav">   20.71   20.76</time>
   <time name="total">   21.25   21.30</time>
   <energy>
    <i name="e_fr_energy">   -186.85056094 </i>
    <i name="e_wo_entrp">   -186.50433297 </i>
    <i name="e_0_energy">   -186.67744695 </i>
   </energy>
  </scstep>
  <scstep>
   <time name="dav">   18.51   18.55</time>
   <time name="total">   19.04   19.10</time>
   <energy>
    <i name="e_fr_energy">   -186.85118655 </i>
    <i name="e_wo_entrp">   -186.50496539 </i>
    <i name="e_0_energy">   -186.67807597 </i>
   </energy>
  </scstep>
  <scstep>
   <time name="dav">   17.57   17.61</time>
   <time name="total">   18.11   18.16</time>
   <energy>
    <i name="e_fr_energy">   -186.85157011 </i>
    <i name="e_wo_entrp">   -186.50533668 </i>
    <i name="e_0_energy">   -186.67845339 </i>
   </energy>
  </scstep>
  <scstep>
   <time name="dav">   19.56   19.61</time>
   <time name="total">   20.10   20.15</time>
   <energy>
    <i name="e_fr_energy">   -186.85177217 </i>
    <i name="e_wo_entrp">   -186.50554629 </i>
    <i name="e_0_energy">   -186.67865923 </i>
   </energy>
  </scstep>
  <scstep>
   <time name="dav">   19.58   19.63</time>
   <time name="total">   19.62   19.67</time>
   <energy>
    <i name="alphaZ">     81.65567618 </i>
    <i name="ewald">  41891.19379416 </i>
    <i name="hartreedc"> -47833.70641706 </i>
    <i name="XCdc">   -231.60277760 </i>
    <i name="pawpsdc">   4192.07438310 </i>
    <i name="pawaedc">  -3610.08016653 </i>
    <i name="eentropy">     -0.34622461 </i>
    <i name="bandstr">  -1437.48264935 </i>
    <i name="atom">   6761.44252427 </i>
    <i name="e_fr_energy">   -186.85185744 </i>
    <i name="e_wo_entrp">   -186.50563283 </i>
    <i name="e_0_energy">   -186.67874514 </i>
   </energy>
  </scstep>
  <structure>
   <crystal>
    <varray name="basis" >
     <v>       8.66999996       5.03999989       0.00000000 </v>
     <v>      -8.66999982       5.04000013       0.00000000 </v>
     <v>       0.00000000       0.00000000      30.00000000 </v>
    </varray>
    <i name="volume">   2621.80797419 </i>
    <varray name="rec_basis" >
     <v>       0.05767013       0.09920635       0.00000000 </v>
     <v>      -0.05767013       0.09920635       0.00000000 </v>
     <v>       0.00000000       0.00000000       0.03333333 </v>
    </varray>
   </crystal>
   <varray name="positions" >
    <v>       0.33333334       0.33333334       0.00000000 </v>
    <v>       0.33333334       0.66666669       0.00000000 </v>
    <v>       0.33333334       0.00000000       0.00000000 </v>
    <v>       0.66666669       0.66666669       0.00000000 </v>
    <v>       0.00000000       0.66666669       0.00000000 </v>
    <v>       1.00000000       0.33333334       0.00000000 </v>
    <v>       0.00000000       0.00000000       0.00000000 </v>
    <v>       0.66666669       0.00000000       0.00000000 </v>
    <v>       0.66666669       0.33333334       0.00000000 </v>
    <v>       0.11068511       0.22244981       0.95539999 </v>
    <v>       0.22244981       0.11068511       0.04460000 </v>
    <v>       0.11068511       0.55578315       0.95539999 </v>
    <v>       0.22244981       0.44401845       0.04460000 </v>
    <v>       0.11068511       0.88911647       0.95539999 </v>
    <v>       0.22244981       0.77735180       0.04460000 </v>
    <v>       0.44401845       0.22244981       0.95539999 </v>
    <v>       0.55578315       0.11068511       0.04460000 </v>
    <v>       0.44401845       0.55578315       0.95539999 </v>
    <v>       0.55578315       0.44401845       0.04460000 </v>
    <v>       0.44401845       0.88911647       0.95539999 </v>
    <v>       0.55578315       0.77735180       0.04460000 </v>
    <v>       0.77735180       0.22244981       0.95539999 </v>
    <v>       0.88911647       0.11068511       0.04460000 </v>
    <v>       0.77735180       0.55578315       0.95539999 </v>
    <v>       0.88911647       0.44401845       0.04460000 </v>
    <v>       0.77735180       0.88911647       0.95539999 </v>
    <v>       0.88911647       0.77735180       0.04460000 </v>
   </varray>
  </structure>
  <varray name="forces" >
   <v>      -0.22321053       0.13531077      -0.02797969 </v>
   <v>       0.00155830      -0.24518350       0.01539179 </v>
   <v>       0.00855093      -0.23569689       0.00990838 </v>
   <v>       0.22067472       0.13997877      -0.12269174 </v>
   <v>       0.04940848      -0.27300306       0.14075212 </v>
   <v>      -0.25361358       0.14809611       0.09460289 </v>
   <v>       0.05722650      -0.21428844       0.12309838 </v>
   <v>       0.25508010       0.03971523      -0.12156284 </v>
   <v>      -0.08354787       0.54879627      -0.15432101 </v>
   <v>       0.61119442       0.55077913      -2.10780857 </v>
   <v>       0.23575038       0.51267784       1.41439874 </v>
   <v>       0.52919086       0.70663455      -2.15277848 </v>
   <v>       0.32299539       0.66971942       1.43552769 </v>
   <v>       0.37017719       0.69683686      -2.13911029 </v>
   <v>       0.31946294       0.66437278       1.41033674 </v>
   <v>      -0.23277042      -0.52239781      -1.38140990 </v>
   <v>      -0.47014608      -0.57381961       2.11856549 </v>
   <v>      -0.31694405      -0.67337443      -1.41000408 </v>
   <v>      -0.37735535      -0.71379522       2.14925577 </v>
   <v>      -0.24027150      -0.51673920      -1.40839521 </v>
   <v>      -0.62181454      -0.55444454       2.12273446 </v>
   <v>       0.03102697      -0.17260289      -2.90046840 </v>
   <v>      -0.03767073      -0.09377263       2.92688413 </v>
   <v>       0.18681950      -0.19212500      -2.92987133 </v>
   <v>      -0.18379457      -0.11940682       2.94836636 </v>
   <v>       0.02913816       0.09897720      -2.95077360 </v>
   <v>      -0.18711564       0.18875510       2.89735222 </v>
  </varray>
  <varray name="stress" >
   <v>       7.27984321       0.13250057      -1.60553794 </v>
   <v>       0.13250060       4.48776475       0.00343673 </v>
   <v>      -1.60553799       0.00343669      30.31721832 </v>
  </varray>
  <energy>
   <i name="e_fr_energy">   -186.85185744 </i>
   <i name="e_wo_entrp">   -186.67874514 </i>
   <i name="e_0_energy">     -0.34622461 </i>
  </energy>
  <time name="totalsc">  791.37  793.51</time>
 </calculation>
 <calculation>
  <scstep>
   <time name="dav">   22.05   22.10</time>
   <time name="total">   22.59   22.65</time>
   <energy>
    <i name="alphaZ">     78.91830954 </i>
    <i name="ewald">  39377.30802712 </i>
    <i name="hartreedc"> -45334.59911137 </i>
    <i name="XCdc">   -239.07212391 </i>
    <i name="pawpsdc">   4192.05286867 </i>
    <i name="pawaedc">  -3610.05914424 </i>
    <i name="eentropy">     -0.28533005 </i>
    <i name="bandstr">  -1413.23797717 </i>
    <i name="atom">   6761.44252427 </i>
    <i name="e_fr_energy">   -187.53195714 </i>
    <i name="e_wo_entrp">   -187.24662709 </i>
    <i name="e_0_energy">   -187.38929212 </i>
   </energy>
  </scstep>
  <scstep>
   <time name="dav">   30.70   30.78</time>
   <time name="total">   31.24   31.32</time>
   <energy>
    <i name="e_fr_energy">   -189.60100840 </i>
    <i name="e_wo_entrp">   -189.26299708 </i>
    <i name="e_0_energy">   -189.43200274 </i>
   </energy>
  </scstep>
  <scstep>
   <time name="dav">   31.00   31.07</time>
   <time name="total">   31.55   31.64</time>
   <energy>
    <i name="e_fr_energy">   -189.33852433 </i>
    <i name="e_wo_entrp">   -189.07119984 </i>
    <i name="e_0_energy">   -189.20486208 </i>
   </energy>
  </scstep>
  <scstep>
   <time name="dav">   31.24   31.31</time>
   <time name="total">   31.78   31.86</time>
   <energy>
    <i name="e_fr_energy">   -188.80352184 </i>
    <i name="e_wo_entrp">   -188.51536162 </i>
    <i name="e_0_energy">   -188.65944173 </i>
   </energy>
  </scstep>
  <scstep>
   <time name="dav">   28.42   28.49</time>
   <time name="total">   28.96   29.04</time>
   <energy>
    <i name="e_fr_energy">   -188.90489691 </i>
    <i name="e_wo_entrp">   -188.61604312 </i>
    <i name="e_0_energy">   -188.76047002 </i>
   </energy>
  </scstep>
  <scstep>
   <time name="dav">   31.63   31.71</time>
   <time name="total">   32.18   32.26</time>
   <energy>
    <i name="e_fr_energy">   -188.77100954 </i>
    <i name="e_wo_entrp">   -188.48244111 </i>
    <i name="e_0_energy">   -188.62672532 </i>
   </energy>
  </scstep>
  <scstep>
   <time name="dav">   29.93   30.00</time>
   <time name="total">   30.47   30.55</time>
   <energy>
    <i name="e_fr_energy">   -188.72991292 </i>
    <i name="e_wo_entrp">   -188.44200144 </i>
    <i name="e_0_energy">   -188.58595718 </i>
   </energy>
  </scstep>
  <scstep>
   <time name="dav">   30.64   30.72</time>
   <time name="total">   31.19   31.27</time>
   <energy>
    <i name="e_fr_energy">   -188.72104845 </i>
    <i name="e_wo_entrp">   -188.43434770 </i>
    <i name="e_0_energy">   -188.57769807 </i>
   </energy>
  </scstep>
  <scstep>
   <time name="dav">   31.33   31.40</time>
   <time name="total">   31.87   31.95</time>
   <energy>
    <i name="e_fr_energy">   -188.69011799 </i>
    <i name="e_wo_entrp">   -188.40433145 </i>
    <i name="e_0_energy">   -188.54722472 </i>
   </energy>
  </scstep>
  <scstep>
   <time name="dav">   27.68   27.74</time>
   <time name="total">   28.22   28.30</time>
   <energy>
    <i name="e_fr_energy">   -188.68751584 </i>
    <i name="e_wo_entrp">   -188.40251154 </i>
    <i name="e_0_energy">   -188.54501369 </i>
   </energy>
  </scstep>
  <scstep>
   <time name="dav">   32.62   32.70</time>
   <time name="total">   33.17   33.25</time>
   <energy>
    <i name="e_fr_energy">   -188.68674932 </i>
    <i name="e_wo_entrp">   -188.40265155 </i>
    <i name="e_0_energy">   -188.54470044 </i>
   </energy>
  </scstep>
  <scstep>
   <time name="dav">   29.82   29.89</time>
   <time name="total">   30.36   30.45</time>
   <energy>
    <i name="e_fr_energy">   -188.68673715 </i>
    <i name="e_wo_entrp">   -188.40285207 </i>
    <i name="e_0_energy">   -188.54479461 </i>
   </energy>
  </scstep>
  <scstep>
   <time name="dav">   23.05   23.10</time>
   <time name="total">   23.09   23.15</time>
   <energy>
    <i name="alphaZ">     78.91830954 </i>
    <i name="ewald">  39377.30802712 </i>
    <i name="hartreedc"> -45345.38787307 </i>
    <i name="XCdc">   -237.98299298 </i>
    <i name="pawpsdc">   3950.48087184 </i>
    <i name="pawaedc">  -3364.98845756 </i>
    <i name="eentropy">     -0.28405008 </i>
    <i name="bandstr">  -1408.19312389 </i>
    <i name="atom">   6761.44252427 </i>
    <i name="e_fr_energy">   -188.68676482 </i>
    <i name="e_wo_entrp">   -188.40271474 </i>
    <i name="e_0_energy">   -188.54473978 </i>
   </energy>
  </scstep>
  <structure>
   <crystal>
    <varray name="basis" >
     <v>       8.85649607       5.10949179       0.00000000 </v>
     <v>      -8.85259079       5.10277427       0.00000000 </v>
     <v>       0.00000000       0.00000000      30.00000000 </v>
    </varray>
    <i name="volume">   2712.74820998 </i>
    <varray name="rec_basis" >
     <v>       0.05643105       0.09789988       0.00000000 </v>
     <v>      -0.05650534       0.09794307       0.00000000 </v>
     <v>       0.00000000       0.00000000       0.03333333 </v>
    </varray>
   </crystal>
   <varray name="positions" >
    <v>       0.33335993       0.33460194      -0.00004499 </v>
    <v>       0.33216424       0.66548891       0.00002475 </v>
    <v>       0.33222909      -0.00115183       0.00001593 </v>
    <v>       0.66795057       0.66672267      -0.00019730 </v>
    <v>      -0.00116912       0.66522264       0.00022634 </v>
    <v>       1.00000319       0.33474772       0.00015213 </v>
    <v>      -0.00086637      -0.00118479       0.00019795 </v>
    <v>       0.66756644      -0.00051960      -0.00019548 </v>
    <v>       0.66906077       0.33619231      -0.00024816 </v>
    <v>       0.11502157       0.22338539       0.95201045 </v>
    <v>       0.22555937       0.11248288       0.04687448 </v>
    <v>       0.11553934       0.55769280       0.95193813 </v>
    <v>       0.22655370       0.44632509       0.04690845 </v>
    <v>       0.11505005       0.89142162       0.95196011 </v>
    <v>       0.22651828       0.77964267       0.04686794 </v>
    <v>       0.44087066       0.22059723       0.95317856 </v>
    <v>       0.55172884       0.10924684       0.04800684 </v>
    <v>       0.43991391       0.55344219       0.95313258 </v>
    <v>       0.55131708       0.44165211       0.04805619 </v>
    <v>       0.44087688       0.88731184       0.95313517 </v>
    <v>       0.55139961       0.77642822       0.04801354 </v>
    <v>       0.77661205       0.22153741       0.95073578 </v>
    <v>       0.88856287       0.11034112       0.04930669 </v>
    <v>       0.77695205       0.55434388       0.95068850 </v>
    <v>       0.88803364       0.44395832       0.04934123 </v>
    <v>       0.77790657       0.88950910       0.95065489 </v>
    <v>       0.88949926       0.77877576       0.04925920 </v>
   </varray>
  </structure>
  <varray name="forces" >
   <v>      -0.15429690       0.09653970      -0.08762026 </v>
   <v>      -0.01490031      -0.21100113       0.00634110 </v>
   <v>      -0.01513266      -0.19657299       0.01645884 </v>
   <v>       0.28937959       0.34502661       0.04321345 </v>
   <v>      -0.05503770      -0.50350359       0.02638794 </v>
   <v>      -0.37886179      -0.06439432      -0.05140229 </v>
   <v>      -0.10123555      -0.39122142       0.01954638 </v>
   <v>       0.37478317       0.19899048       0.07873372 </v>
   <v>       0.01683961       0.66085134      -0.01616780 </v>
   <v>       0.08025581      -0.05296405       0.17127889 </v>
   <v>      -0.05926091      -0.06980223      -0.13073687 </v>
   <v>       0.02670425       0.08358465      -0.03402769 </v>
   <v>       0.00354202       0.05613639       0.01593593 </v>
   <v>      -0.10022806       0.04185317       0.08871247 </v>
   <v>       0.01646496       0.03442601      -0.05440378 </v>
   <v>       0.05354118       0.07766750       0.21601745 </v>
   <v>       0.05285342       0.07705855      -0.29604167 </v>
   <v>      -0.01006105      -0.04679846       0.06692496 </v>
   <v>       0.11122170      -0.05357936      -0.08049676 </v>
   <v>       0.06234944       0.06010949       0.12795684 </v>
   <v>      -0.07509309       0.05346371      -0.14651326 </v>
   <v>      -0.08551492      -0.10433118      -0.03113596 </v>
   <v>       0.07401038      -0.09882455       0.02301132 </v>
   <v>       0.06382300      -0.09496586      -0.27825968 </v>
   <v>      -0.06651226      -0.10856706       0.26766732 </v>
   <v>      -0.06115767       0.10356413      -0.14032849 </v>
   <v>      -0.04847568       0.10725449       0.17894788 </v>
  </varray>
  <varray name="stress" >
   <v>     -19.95434399      -0.04797058      -0.02543863 </v>
   <v>      -0.04797067     -19.56197816      -0.07766499 </v>
   <v>      -0.02543849      -0.07766521      -1.77140520 </v>
  </varray>
  <energy>
   <i name="e_fr_energy">   -188.68676482 </i>
   <i name="e_wo_entrp">   -188.54473978 </i>
   <i name="e_0_energy">     -0.28405008 </i>
  </energy>
  <time name="totalsc">  429.02  430.15</time>
 </calculation>
 <calculation>
  <scstep>
   <time name="dav">   23.79   23.85</time>
   <time name="total">   24.32   24.39</time>
   <energy>
    <i name="alphaZ">     82.34867419 </i>
    <i name="ewald">  41304.34667922 </i>
    <i name="hartreedc"> -47303.10664350 </i>
    <i name="XCdc">   -233.85184324 </i>
    <i name="pawpsdc">   3949.96382590 </i>
    <i name="pawaedc">  -3364.46591953 </i>
    <i name="eentropy">     -0.23826261 </i>
    <i name="bandstr">  -1387.06044661 </i>
    <i name="atom">   6761.44252427 </i>
    <i name="e_fr_energy">   -190.62141190 </i>
    <i name="e_wo_entrp">   -190.38314929 </i>
    <i name="e_0_energy">   -190.50228060 </i>
   </energy>
  </scstep>
  <scstep>
   <time name="dav">   29.17   29.24</time>
   <time name="total">   29.70   29.78</time>
   <energy>
    <i name="e_fr_energy">   -190.55209369 </i>
    <i name="e_wo_entrp">   -190.31895494 </i>
    <i name="e_0_energy">   -190.43552431 </i>
   </energy>
  </scstep>
  <scstep>
   <time name="dav">   30.70   30.78</time>
   <time name="total">   31.23   31.31</time>
   <energy>
    <i name="e_fr_energy">   -190.11774923 </i>
    <i name="e_wo_entrp">   -189.86466459 </i>
    <i name="e_0_energy">   -189.99120691 </i>
   </energy>
  </scstep>
  <scstep>
   <time name="dav">   31.58   31.65</time>
   <time name="total">   32.11   32.20</time>
   <energy>
    <i name="e_fr_energy">   -189.88971471 </i>
    <i name="e_wo_entrp">   -189.65538664 </i>
    <i name="e_0_energy">   -189.77255067 </i>
   </energy>
  </scstep>
  <scstep>
   <time name="dav">   30.59   30.67</time>
   <time name="total">   31.12   31.21</time>
   <energy>
    <i name="e_fr_energy">   -189.86700975 </i>
    <i name="e_wo_entrp">   -189.61791459 </i>
    <i name="e_0_energy">   -189.74246217 </i>
   </energy>
  </scstep>
  <scstep>
   <time name="dav">   31.25   31.33</time>
   <time name="total">   31.79   31.87</time>
   <energy>
    <i name="e_fr_energy">   -189.79230235 </i>
    <i name="e_wo_entrp">   -189.55354009 </i>
    <i name="e_0_energy">   -189.67292122 </i>
   </energy>
  </scstep>
  <scstep>
   <time name="dav">   29.39   29.46</time>
   <time name="total">   29.92   30.00</time>
   <energy>
    <i name="e_fr_energy">   -189.78744276 </i>
    <i name="e_wo_entrp">   -189.54659965 </i>
    <i name="e_0_energy">   -189.66702120 </i>
   </energy>
  </scstep>
  <scstep>
   <time name="dav">   31.64   31.71</time>
   <time name="total">   32.17   32.26</time>
   <energy>
    <i name="e_fr_energy">   -189.78719721 </i>
    <i name="e_wo_entrp">   -189.54674271 </i>
    <i name="e_0_energy">   -189.66696996 </i>
   </energy>
  </scstep>
  <scstep>
   <time name="dav">   28.84   28.91</time>
   <time name="total">   29.38   29.45</time>
   <energy>
    <i name="e_fr_energy">   -189.78624082 </i>
    <i name="e_wo_entrp">   -189.54562340 </i>
    <i name="e_0_energy">   -189.66593211 </i>
   </energy>
  </scstep>
  <scstep>
   <time name="dav">   26.88   26.95</time>
   <time name="total">   27.42   27.49</time>
   <energy>
    <i name="e_fr_energy">   -189.78667489 </i>
    <i name="e_wo_entrp">   -189.54593334 </i>
    <i name="e_0_energy">   -189.66630412 </i>
   </energy>
  </scstep>
  <scstep>
   <time name="dav">   24.05   24.11</time>
   <time name="total">   24.59   24.65</time>
   <energy>
    <i name="e_fr_energy">   -189.78637582 </i>
    <i name="e_wo_entrp">   -189.54553770 </i>
    <i name="e_0_energy">   -189.66595676 </i>
   </energy>
  </scstep>
  <scstep>
   <time name="dav">   19.83   19.88</time>
   <time name="total">   19.87   19.92</time>
   <energy>
    <i name="alphaZ">     82.34867419 </i>
    <i name="ewald">  41304.34667922 </i>
    <i name="hartreedc"> -47276.39385560 </i>
    <i name="XCdc">   -235.24866895 </i>
    <i name="pawpsdc">   4038.61828468 </i>
    <i name="pawaedc">  -3454.31949027 </i>
    <i name="eentropy">     -0.24081739 </i>
    <i name="bandstr">  -1410.33972632 </i>
    <i name="atom">   6761.44252427 </i>
    <i name="e_fr_energy">   -189.78639616 </i>
    <i name="e_wo_entrp">   -189.54557877 </i>
    <i name="e_0_energy">   -189.66598746 </i>
   </energy>
  </scstep>
  <structure>
   <crystal>
    <varray name="basis" >
     <v>       8.66795624       5.00255322       0.00000000 </v>
     <v>      -8.66465590       4.99688075       0.00000000 </v>
     <v>       0.00000000       0.00000000      30.00000000 </v>
    </varray>
    <i name="volume">   2599.74438008 </i>
    <varray name="rec_basis" >
     <v>       0.05766199       0.09998663       0.00000000 </v>
     <v>      -0.05772744       0.10002471       0.00000000 </v>
     <v>       0.00000000       0.00000000       0.03333333 </v>
    </varray>
   </crystal>
   <varray name="positions" >
    <v>       0.33337257       0.33491070      -0.00009461 </v>
    <v>       0.33179901       0.66515212       0.00002834 </v>
    <v>       0.33188764      -0.00146439       0.00002525 </v>
    <v>       0.66880186       0.66701898      -0.00017283 </v>
    <v>      -0.00205932       0.66443767       0.00024129 </v>
    <v>       0.99953287       0.33500427       0.00012302 </v>
    <v>      -0.00161411      -0.00173858       0.00020902 </v>
    <v>       0.66825671      -0.00054827      -0.00015090 </v>
    <v>       0.67017605       0.33727577      -0.00025732 </v>
    <v>       0.11501042       0.22322021       0.95210744 </v>
    <v>       0.22538646       0.11242362       0.04680044 </v>
    <v>       0.11570396       0.55780624       0.95191886 </v>
    <v>       0.22665046       0.44641510       0.04691748 </v>
    <v>       0.11502357       0.89158748       0.95201035 </v>
    <v>       0.22659132       0.77968415       0.04683714 </v>
    <v>       0.44105117       0.22067507       0.95330089 </v>
    <v>       0.55190768       0.10932433       0.04783919 </v>
    <v>       0.43982643       0.55337397       0.95317048 </v>
    <v>       0.55133460       0.44145619       0.04801061 </v>
    <v>       0.44103663       0.88735200       0.95320763 </v>
    <v>       0.55141654       0.77658927       0.04793057 </v>
    <v>       0.77635654       0.22144590       0.95071815 </v>
    <v>       0.88846945       0.11010564       0.04931972 </v>
    <v>       0.77685529       0.55412460       0.95053092 </v>
    <v>       0.88778931       0.44384152       0.04949281 </v>
    <v>       0.77802018       0.88974014       0.95057542 </v>
    <v>       0.88963117       0.77900076       0.04936054 </v>
   </varray>
  </structure>
  <varray name="forces" >
   <v>      -0.12751245       0.07237824      -0.08445889 </v>
   <v>      -0.02707317      -0.19663343       0.00218621 </v>
   <v>      -0.02589200      -0.18538482       0.01138343 </v>
   <v>       0.31154541       0.42598891       0.06096515 </v>
   <v>      -0.08905343      -0.58031425      -0.00719879 </v>
   <v>      -0.42095909      -0.14471500      -0.06615858 </v>
   <v>      -0.16159310      -0.45237254      -0.01815961 </v>
   <v>       0.41851831       0.26206666       0.10067900 </v>
   <v>       0.06747778       0.69371495       0.02218000 </v>
   <v>       0.07338455       0.06196162      -0.30185969 </v>
   <v>       0.00860965       0.06249439       0.32683511 </v>
   <v>       0.05170995       0.14840260      -0.52139390 </v>
   <v>       0.03367523       0.10889754       0.46827781 </v>
   <v>       0.01813767       0.08527172      -0.39290626 </v>
   <v>       0.04977981       0.08055617       0.39167168 </v>
   <v>      -0.01262361      -0.03955922      -0.22618209 </v>
   <v>      -0.02493466      -0.02569479       0.17609007 </v>
   <v>      -0.04525713      -0.08872111      -0.37484323 </v>
   <v>      -0.00013332      -0.11136664       0.41012592 </v>
   <v>      -0.00303106      -0.06650881      -0.32382968 </v>
   <v>      -0.06551470      -0.08072164       0.34247334 </v>
   <v>      -0.04998789      -0.04658896      -0.59259993 </v>
   <v>       0.03465256      -0.01926335       0.58917780 </v>
   <v>       0.02309398      -0.00553161      -0.86340471 </v>
   <v>      -0.02905308      -0.04275467       0.84983589 </v>
   <v>      -0.01120115       0.04307255      -0.72661588 </v>
   <v>       0.00323494       0.04132549       0.74772981 </v>
  </varray>
  <varray name="stress" >
   <v>     -10.22752632      -0.02248070      -0.03974839 </v>
   <v>      -0.02248076      -9.88513681      -0.09624622 </v>
   <v>      -0.03974857      -0.09624623       6.49615407 </v>
  </varray>
  <energy>
   <i name="e_fr_energy">   -189.78639616 </i>
   <i name="e_wo_entrp">   -189.66598746 </i>
   <i name="e_0_energy">     -0.24081739 </i>
  </energy>
  <time name="totalsc">  386.41  387.64</time>
 </calculation>
 <calculation>
  <scstep>
   <time name="dav">   22.03   22.08</time>
   <time name="total">   22.55   22.61</time>
   <energy>
    <i name="alphaZ">     85.85410672 </i>
    <i name="ewald">  42849.56463419 </i>
    <i name="hartreedc"> -48866.32857879 </i>
    <i name="XCdc">   -232.93968092 </i>
    <i name="pawpsdc">   4038.62835265 </i>
    <i name="pawaedc">  -3454.32677115 </i>
    <i name="eentropy">     -0.19876836 </i>
    <i name="bandstr">  -1373.09523064 </i>
    <i name="atom">   6761.44252427 </i>
    <i name="e_fr_energy">   -191.39941203 </i>
    <i name="e_wo_entrp">   -191.20064367 </i>
    <i name="e_0_energy">   -191.30002785 </i>
   </energy>
  </scstep>
  <scstep>
   <time name="dav">   32.88   32.96</time>
   <time name="total">   33.39   33.48</time>
   <energy>
    <i name="e_fr_energy">   -191.13638376 </i>
    <i name="e_wo_entrp">   -190.93290630 </i>
    <i name="e_0_energy">   -191.03464503 </i>
   </energy>
  </scstep>
  <scstep>
   <time name="dav">   30.34   30.41</time>
   <time name="total">   30.85   30.93</time>
   <energy>
    <i name="e_fr_energy">   -191.45020598 </i>
    <i name="e_wo_entrp">   -191.23353100 </i>
    <i name="e_0_energy">   -191.34186849 </i>
   </energy>
  </scstep>
  <scstep>
   <time name="dav">   28.47   28.54</time>
   <time name="total">   28.99   29.07</time>
   <energy>
    <i name="e_fr_energy">   -191.00463968 </i>
    <i name="e_wo_entrp">   -190.79291558 </i>
    <i name="e_0_energy">   -190.89877763 </i>
   </energy>
  </scstep>
  <scstep>
   <time name="dav">   29.92   29.99</time>
   <time name="total">   30.44   30.52</time>
   <energy>
    <i name="e_fr_energy">   -190.99486063 </i>
    <i name="e_wo_entrp">   -190.79984067 </i>
    <i name="e_0_energy">   -190.89735065 </i>
   </energy>
  </scstep>
  <scstep>
   <time name="dav">   30.36   30.43</time>
   <time name="total">   30.88   30.96</time>
   <energy>
    <i name="e_fr_energy">   -190.81490908 </i>
    <i name="e_wo_entrp">   -190.60752417 </i>
    <i name="e_0_energy">   -190.71121662 </i>
   </energy>
  </scstep>
  <scstep>
   <time name="dav">   31.02   31.09</time>
   <time name="total">   31.54   31.62</time>
   <energy>
    <i name="e_fr_energy">   -190.81475022 </i>
    <i name="e_wo_entrp">   -190.60860430 </i>
    <i name="e_0_energy">   -190.71167726 </i>
   </energy>
  </scstep>
  <scstep>
   <time name="dav">   29.66   29.73</time>
   <time name="total">   30.17   30.25</time>
   <energy>
    <i name="e_fr_energy">   -190.81295369 </i>
    <i name="e_wo_entrp">   -190.60628434 </i>
    <i name="e_0_energy">   -190.70961902 </i>
   </energy>
  </scstep>
  <scstep>
   <time name="dav">   29.05   29.12</time>
   <time name="total">   29.57   29.65</time>
   <energy>
    <i name="e_fr_energy">   -190.80930920 </i>
    <i name="e_wo_entrp">   -190.60307030 </i>
    <i name="e_0_energy">   -190.70618975 </i>
   </energy>
  </scstep>
  <scstep>
   <time name="dav">   28.31   28.38</time>
   <time name="total">   28.83   28.90</time>
   <energy>
    <i name="e_fr_energy">   -190.80960837 </i>
    <i name="e_wo_entrp">   -190.60323087 </i>
    <i name="e_0_energy">   -190.70641962 </i>
   </energy>
  </scstep>
  <scstep>
   <time name="dav">   27.27   27.33</time>
   <time name="total">   27.78   27.86</time>
   <energy>
    <i name="e_fr_energy">   -190.80939110 </i>
    <i name="e_wo_entrp">   -190.60291203 </i>
    <i name="e_0_energy">   -190.70615156 </i>
   </energy>
  </scstep>
  <scstep>
   <time name="dav">   20.34   20.39</time>
   <time name="total">   20.38   20.44</time>
   <energy>
    <i name="alphaZ">     85.85410672 </i>
    <i name="ewald">  42849.56463419 </i>
    <i name="hartreedc"> -48837.35956845 </i>
    <i name="XCdc">   -234.28496627 </i>
    <i name="pawpsdc">   4064.25836212 </i>
    <i name="pawaedc">  -3480.14555609 </i>
    <i name="eentropy">     -0.20651234 </i>
    <i name="bandstr">  -1399.93242289 </i>
    <i name="atom">   6761.44252427 </i>
    <i name="e_fr_energy">   -190.80939876 </i>
    <i name="e_wo_entrp">   -190.60288641 </i>
    <i name="e_0_energy">   -190.70614258 </i>
   </energy>
  </scstep>
  <structure>
   <crystal>
    <varray name="basis" >
     <v>       8.48398746       4.90190458       0.00000000 </v>
     <v>      -8.48113886       4.89700760       0.00000000 </v>
     <v>       0.00000000       0.00000000      30.00000000 </v>
    </varray>
    <i name="volume">   2493.59653375 </i>
    <varray name="rec_basis" >
     <v>       0.05891500       0.10203502       0.00000000 </v>
     <v>      -0.05897391       0.10206929       0.00000000 </v>
     <v>       0.00000000       0.00000000       0.03333333 </v>
    </varray>
   </crystal>
   <varray name="positions" >
    <v>       0.33334334       0.33572689      -0.00026695 </v>
    <v>       0.33048667       0.66407051       0.00002932 </v>
    <v>       0.33064417      -0.00248975       0.00004451 </v>
    <v>       0.67283466       0.66873404      -0.00003132 </v>
    <v>      -0.00626180       0.66097673       0.00019768 </v>
    <v>       0.99684072       0.33547999      -0.00002669 </v>
    <v>      -0.00527555      -0.00405699       0.00013918 </v>
    <v>       0.67163492      -0.00032476       0.00007650 </v>
    <v>       0.67492530       0.34139172      -0.00017859 </v>
    <v>       0.11594270       0.22364157       0.95107770 </v>
    <v>       0.22623949       0.11301820       0.04786864 </v>
    <v>       0.11702022       0.55867631       0.95042200 </v>
    <v>       0.22763097       0.44706500       0.04827434 </v>
    <v>       0.11590391       0.89199423       0.95078468 </v>
    <v>       0.22744034       0.78007673       0.04802989 </v>
    <v>       0.44036770       0.22027423       0.95245442 </v>
    <v>       0.55128612       0.10910818       0.04860742 </v>
    <v>       0.43895041       0.55292709       0.95201628 </v>
    <v>       0.55032985       0.44077436       0.04927966 </v>
    <v>       0.44019645       0.88672269       0.95215060 </v>
    <v>       0.55035069       0.77596950       0.04905802 </v>
    <v>       0.77607988       0.22142815       0.94901042 </v>
    <v>       0.88861668       0.11011604       0.05102437 </v>
    <v>       0.77706960       0.55428974       0.94824174 </v>
    <v>       0.88763545       0.44378948       0.05175133 </v>
    <v>       0.77817022       0.88982668       0.94856875 </v>
    <v>       0.88981135       0.77900789       0.05139601 </v>
   </varray>
  </structure>
  <varray name="forces" >
   <v>      -0.04941440       0.02684277      -0.05293146 </v>
   <v>      -0.07420886      -0.17312302      -0.00001190 </v>
   <v>      -0.07694100      -0.19053407       0.00746278 </v>
   <v>       0.30555884       0.50139747       0.03355592 </v>
   <v>      -0.09257637      -0.59671635      -0.03320178 </v>
   <v>      -0.46494167      -0.18393974      -0.03577279 </v>
   <v>      -0.17822357      -0.48555445      -0.03911581 </v>
   <v>       0.48425225       0.26476872       0.06175045 </v>
   <v>       0.06392140       0.67529687       0.04126229 </v>
   <v>      -0.02041866      -0.01808325      -0.15011736 </v>
   <v>      -0.04060849      -0.01334168       0.22985887 </v>
   <v>      -0.02161521       0.02494219      -0.36527356 </v>
   <v>      -0.03810558      -0.00410195       0.33368629 </v>
   <v>       0.01462270      -0.05256602      -0.23265084 </v>
   <v>      -0.00258188      -0.06340419       0.30074057 </v>
   <v>       0.02959678       0.06294781      -0.14649099 </v>
   <v>      -0.00445387       0.06911664       0.02011614 </v>
   <v>       0.01210232       0.05218508      -0.25450218 </v>
   <v>       0.00528458       0.02717739       0.23794202 </v>
   <v>       0.05455177      -0.00375821      -0.19892466 </v>
   <v>       0.03719082      -0.03148148       0.19722190 </v>
   <v>      -0.04553543      -0.02957348      -0.42285908 </v>
   <v>       0.02470370       0.08145838       0.45380251 </v>
   <v>      -0.01159803       0.02537763      -0.66216686 </v>
   <v>      -0.00402900       0.02824986       0.67876982 </v>
   <v>       0.02902110      -0.02322319      -0.57730937 </v>
   <v>       0.06444576       0.02964028       0.57515906 </v>
  </varray>
  <varray name="stress" >
   <v>      -5.89704498       0.16066914       0.01216013 </v>
   <v>       0.16066907      -5.70431905       0.08766055 </v>
   <v>       0.01216023       0.08766062       4.63986098 </v>
  </varray>
  <energy>
   <i name="e_fr_energy">   -190.80939876 </i>
   <i name="e_wo_entrp">   -190.70614258 </i>
   <i name="e_0_energy">     -0.20651234 </i>
  </energy>
  <time name="totalsc">  387.72  388.74</time>
 </calculation>
 <calculation>
  <scstep>
   <time name="dav">   22.03   22.09</time>
   <time name="total">   22.55   22.60</time>
   <energy>
    <i name="alphaZ">     90.28418334 </i>
    <i name="ewald">  44708.97823758 </i>
    <i name="hartreedc"> -50752.91026164 </i>
    <i name="XCdc">   -231.81249469 </i>
    <i name="pawpsdc">   4064.18115526 </i>
    <i name="pawaedc">  -3480.06466349 </i>
    <i name="eentropy">     -0.18034937 </i>
    <i name="bandstr">  -1352.17833766 </i>
    <i name="atom">   6761.44252427 </i>
    <i name="e_fr_energy">   -192.26000641 </i>
    <i name="e_wo_entrp">   -192.07965704 </i>
    <i name="e_0_energy">   -192.16983172 </i>
   </energy>
  </scstep>
  <scstep>
   <time name="dav">   28.15   28.21</time>
   <time name="total">   28.65   28.73</time>
   <energy>
    <i name="e_fr_energy">   -192.01120424 </i>
    <i name="e_wo_entrp">   -191.79659293 </i>
    <i name="e_0_energy">   -191.90389859 </i>
   </energy>
  </scstep>
  <scstep>
   <time name="dav">   30.28   30.35</time>
   <time name="total">   30.79   30.87</time>
   <energy>
    <i name="e_fr_energy">   -192.46112798 </i>
    <i name="e_wo_entrp">   -192.28806958 </i>
    <i name="e_0_energy">   -192.37459878 </i>
   </energy>
  </scstep>
  <scstep>
   <time name="dav">   30.55   30.63</time>
   <time name="total">   31.06   31.14</time>
   <energy>
    <i name="e_fr_energy">   -191.70092709 </i>
    <i name="e_wo_entrp">   -191.51139182 </i>
    <i name="e_0_energy">   -191.60615946 </i>
   </energy>
  </scstep>
  <scstep>
   <time name="dav">   29.84   29.92</time>
   <time name="total">   30.35   30.44</time>
   <energy>
    <i name="e_fr_energy">   -191.75105068 </i>
    <i name="e_wo_entrp">   -191.55041397 </i>
    <i name="e_0_energy">   -191.65073233 </i>
   </energy>
  </scstep>
  <scstep>
   <time name="dav">   30.50   30.57</time>
   <time name="total">   31.01   31.09</time>
   <energy>
    <i name="e_fr_energy">   -191.54921306 </i>
    <i name="e_wo_entrp">   -191.35881887 </i>
    <i name="e_0_energy">   -191.45401596 </i>
   </energy>
  </scstep>
  <scstep>
   <time name="dav">   29.91   29.98</time>
   <time name="total">   30.42   30.50</time>
   <energy>
    <i name="e_fr_energy">   -191.54208225 </i>
    <i name="e_wo_entrp">   -191.34506861 </i>
    <i name="e_0_energy">   -191.44357543 </i>
   </energy>
  </scstep>
  <scstep>
   <time name="dav">   30.66   30.73</time>
   <time name="total">   31.17   31.25</time>
   <energy>
    <i name="e_fr_energy">   -191.53929598 </i>
    <i name="e_wo_entrp">   -191.34368242 </i>
    <i name="e_0_energy">   -191.44148920 </i>
   </energy>
  </scstep>
  <scstep>
   <time name="dav">   28.99   29.06</time>
   <time name="total">   29.50   29.58</time>
   <energy>
    <i name="e_fr_energy">   -191.53464638 </i>
    <i name="e_wo_entrp">   -191.33925273 </i>
    <i name="e_0_energy">   -191.43694956 </i>
   </energy>
  </scstep>
  <scstep>
   <time name="dav">   28.99   29.06</time>
   <time name="total">   29.50   29.58</time>
   <energy>
    <i name="e_fr_energy">   -191.53465434 </i>
    <i name="e_wo_entrp">   -191.33946094 </i>
    <i name="e_0_energy">   -191.43705764 </i>
   </energy>
  </scstep>
  <scstep>
   <time name="dav">   23.95   24.00</time>
   <time name="total">   23.98   24.05</time>
   <energy>
    <i name="alphaZ">     90.28418334 </i>
    <i name="ewald">  44708.97823758 </i>
    <i name="hartreedc"> -50718.13215451 </i>
    <i name="XCdc">   -233.34597014 </i>
    <i name="pawpsdc">   4087.47036793 </i>
    <i name="pawaedc">  -3503.46806277 </i>
    <i name="eentropy">     -0.19544678 </i>
    <i name="bandstr">  -1384.56835278 </i>
    <i name="atom">   6761.44252427 </i>
    <i name="e_fr_energy">   -191.53467385 </i>
    <i name="e_wo_entrp">   -191.33922707 </i>
    <i name="e_0_energy">   -191.43695046 </i>
   </energy>
  </scstep>
  <structure>
   <crystal>
    <varray name="basis" >
     <v>       8.27246641       4.79193267       0.00000000 </v>
     <v>      -8.25985396       4.77012304       0.00000000 </v>
     <v>       0.00000000       0.00000000      30.00000000 </v>
    </varray>
    <i name="volume">   2371.24039908 </i>
    <varray name="rec_basis" >
     <v>       0.06034972       0.10450042       0.00000000 </v>
     <v>      -0.06062565       0.10465999       0.00000000 </v>
     <v>       0.00000000       0.00000000       0.03333333 </v>
    </varray>
   </crystal>
   <varray name="positions" >
    <v>       0.33329752       0.33645094      -0.00049480 </v>
    <v>       0.32783743       0.66243229       0.00002631 </v>
    <v>       0.32780506      -0.00429124       0.00007171 </v>
    <v>       0.68139073       0.67282926       0.00013698 </v>
    <v>      -0.01457383       0.65409660       0.00004404 </v>
    <v>       0.99103474       0.33638843      -0.00020256 </v>
    <v>      -0.01277988      -0.00883860      -0.00004523 </v>
    <v>       0.67857376      -0.00033950       0.00036918 </v>
    <v>       0.68397118       0.34934602       0.00001615 </v>
    <v>       0.11612683       0.22395771       0.94991427 </v>
    <v>       0.22646505       0.11349850       0.04930879 </v>
    <v>       0.11768933       0.55942658       0.94837269 </v>
    <v>       0.22777596       0.44751278       0.05014920 </v>
    <v>       0.11592303       0.89139496       0.94927467 </v>
    <v>       0.22712387       0.77958133       0.04974158 </v>
    <v>       0.44068710       0.22047728       0.95137591 </v>
    <v>       0.55149552       0.10968579       0.04924694 </v>
    <v>       0.43920543       0.55324084       0.95047969 </v>
    <v>       0.55010502       0.44086263       0.05082656 </v>
    <v>       0.43989367       0.88597337       0.95082601 </v>
    <v>       0.54966365       0.77491829       0.05042410 </v>
    <v>       0.77558444       0.22147284       0.94664677 </v>
    <v>       0.88980949       0.11106962       0.05349903 </v>
    <v>       0.77747688       0.55493365       0.94487038 </v>
    <v>       0.88806910       0.44420283       0.05517034 </v>
    <v>       0.77806985       0.88921973       0.94556736 </v>
    <v>       0.89049354       0.77871154       0.05438384 </v>
   </varray>
  </structure>
  <varray name="forces" >
   <v>       0.06175355       0.00576434      -0.05385380 </v>
   <v>      -0.14630853      -0.19089912       0.00157196 </v>
   <v>      -0.18681875      -0.24371093       0.04527132 </v>
   <v>       0.02801793       0.28784915      -0.10352238 </v>
   <v>       0.06011753      -0.08864264       0.08128344 </v>
   <v>      -0.24750872      -0.09424823       0.09702664 </v>
   <v>      -0.06503940      -0.26710098       0.10925160 </v>
   <v>       0.40819482       0.17486712      -0.06202794 </v>
   <v>      -0.01085761       0.24724729      -0.05293052 </v>
   <v>      -0.15597968      -0.16237405       0.13306975 </v>
   <v>      -0.10087084      -0.12516125      -0.02823953 </v>
   <v>      -0.12917526      -0.15526121      -0.06008295 </v>
   <v>      -0.09128445      -0.11336252      -0.03024095 </v>
   <v>      -0.04398960      -0.21717476      -0.01990389 </v>
   <v>      -0.05639699      -0.19116597       0.01331980 </v>
   <v>       0.10074960       0.18889551       0.10417393 </v>
   <v>       0.08282046       0.20511963      -0.26759837 </v>
   <v>       0.06059794       0.17433846       0.09868686 </v>
   <v>       0.05167282       0.21089520      -0.03178585 </v>
   <v>       0.10415310       0.09721237       0.12129143 </v>
   <v>       0.17403296       0.08664356      -0.07847761 </v>
   <v>      -0.07594271      -0.07077389      -0.08576555 </v>
   <v>       0.03917926       0.15930543       0.16093468 </v>
   <v>      -0.07694831       0.00898227      -0.25790642 </v>
   <v>       0.02082627       0.06266691       0.29518071 </v>
   <v>       0.04017524      -0.06643170      -0.32512736 </v>
   <v>       0.15482938       0.07652002       0.19640101 </v>
  </varray>
  <varray name="stress" >
   <v>      -0.18721606       0.55204463       0.50966160 </v>
   <v>       0.55204468       0.55767742       0.64580272 </v>
   <v>       0.50966168       0.64580283      -0.43292675 </v>
  </varray>
  <energy>
   <i name="e_fr_energy">   -191.53467385 </i>
   <i name="e_wo_entrp">   -191.43695046 </i>
   <i name="e_0_energy">     -0.19544678 </i>
  </energy>
  <time name="totalsc">  361.62  362.57</time>
 </calculation>
 <calculation>
  <scstep>
   <time name="dav">   22.03   22.09</time>
   <time name="total">   22.54   22.60</time>
   <energy>
    <i name="alphaZ">     90.18786385 </i>
    <i name="ewald">  44642.66746462 </i>
    <i name="hartreedc"> -50651.62191729 </i>
    <i name="XCdc">   -233.50730647 </i>
    <i name="pawpsdc">   4087.70680501 </i>
    <i name="pawaedc">  -3503.70202388 </i>
    <i name="eentropy">     -0.19578030 </i>
    <i name="bandstr">  -1384.58051589 </i>
    <i name="atom">   6761.44252427 </i>
    <i name="e_fr_energy">   -191.60288608 </i>
    <i name="e_wo_entrp">   -191.40710578 </i>
    <i name="e_0_energy">   -191.50499593 </i>
   </energy>
  </scstep>
  <scstep>
   <time name="dav">   31.64   31.72</time>
   <time name="total">   32.15   32.24</time>
   <energy>
    <i name="e_fr_energy">   -191.70107995 </i>
    <i name="e_wo_entrp">   -191.48898084 </i>
    <i name="e_0_energy">   -191.59503039 </i>
   </energy>
  </scstep>
  <scstep>
   <time name="dav">   31.07   31.15</time>
   <time name="total">   31.58   31.66</time>
   <energy>
    <i name="e_fr_energy">   -191.61589522 </i>
    <i name="e_wo_entrp">   -191.41733394 </i>
    <i name="e_0_energy">   -191.51661458 </i>
   </energy>
  </scstep>
  <scstep>
   <time name="dav">   29.25   29.32</time>
   <time name="total">   29.76   29.84</time>
   <energy>
    <i name="e_fr_energy">   -191.62007777 </i>
    <i name="e_wo_entrp">   -191.42102088 </i>
    <i name="e_0_energy">   -191.52054933 </i>
   </energy>
  </scstep>
  <scstep>
   <time name="dav">   29.27   29.34</time>
   <time name="total">   29.78   29.86</time>
   <energy>
    <i name="e_fr_energy">   -191.61346536 </i>
    <i name="e_wo_entrp">   -191.41310573 </i>
    <i name="e_0_energy">   -191.51328555 </i>
   </energy>
  </scstep>
  <scstep>
   <time name="dav">   29.13   29.20</time>
   <time name="total">   29.64   29.72</time>
   <energy>
    <i name="e_fr_energy">   -191.61480151 </i>
    <i name="e_wo_entrp">   -191.41595677 </i>
    <i name="e_0_energy">   -191.51537914 </i>
   </energy>
  </scstep>
  <scstep>
   <time name="dav">   28.72   28.79</time>
   <time name="total">   29.22   29.30</time>
   <energy>
    <i name="e_fr_energy">   -191.61329121 </i>
    <i name="e_wo_entrp">   -191.41300225 </i>
    <i name="e_0_energy">   -191.51314673 </i>
   </energy>
  </scstep>
  <scstep>
   <time name="dav">   25.08   25.14</time>
   <time name="total">   25.59   25.66</time>
   <energy>
    <i name="e_fr_energy">   -191.61298160 </i>
    <i name="e_wo_entrp">   -191.41315839 </i>
    <i name="e_0_energy">   -191.51307000 </i>
   </energy>
  </scstep>
  <scstep>
   <time name="dav">   18.32   18.36</time>
   <time name="total">   18.35   18.40</time>
   <energy>
    <i name="alphaZ">     90.18786385 </i>
    <i name="ewald">  44642.66746462 </i>
    <i name="hartreedc"> -50653.50536337 </i>
    <i name="XCdc">   -233.45049325 </i>
    <i name="pawpsdc">   4083.90558086 </i>
    <i name="pawaedc">  -3499.84618632 </i>
    <i name="eentropy">     -0.19980915 </i>
    <i name="bandstr">  -1382.81457688 </i>
    <i name="atom">   6761.44252427 </i>
    <i name="e_fr_energy">   -191.61299536 </i>
    <i name="e_wo_entrp">   -191.41318621 </i>
    <i name="e_0_energy">   -191.51309078 </i>
   </energy>
  </scstep>
  <structure>
   <crystal>
    <varray name="basis" >
     <v>       8.27575302       4.81116698       0.00000000 </v>
     <v>      -8.24929227       4.76537169       0.00000000 </v>
     <v>       0.00000000       0.00000000      30.00000000 </v>
    </varray>
    <i name="volume">   2373.77285354 </i>
    <varray name="rec_basis" >
     <v>       0.06022529       0.10425545       0.00000000 </v>
     <v>      -0.06080405       0.10458987       0.00000000 </v>
     <v>       0.00000000       0.00000000       0.03333333 </v>
    </varray>
   </crystal>
   <varray name="positions" >
    <v>       0.33350545       0.33629781      -0.00058017 </v>
    <v>       0.32646512       0.66190461       0.00002884 </v>
    <v>       0.32605115      -0.00496583       0.00014403 </v>
    <v>       0.68288704       0.67417983      -0.00002921 </v>
    <v>      -0.01481664       0.65349925       0.00017459 </v>
    <v>       0.98986475       0.33663247      -0.00004674 </v>
    <v>      -0.01428266      -0.00997511       0.00013017 </v>
    <v>       0.68060962      -0.00064909       0.00026893 </v>
    <v>       0.68514960       0.35059329      -0.00006920 </v>
    <v>       0.11485919       0.22359416       0.95013208 </v>
    <v>       0.22554318       0.11316107       0.04925785 </v>
    <v>       0.11653348       0.55901959       0.94828448 </v>
    <v>       0.22694173       0.44720709       0.05009362 </v>
    <v>       0.11470542       0.89043392       0.94924896 </v>
    <v>       0.22600200       0.77878641       0.04975626 </v>
    <v>       0.44192640       0.22113293       0.95154707 </v>
    <v>       0.55276449       0.11047374       0.04881567 </v>
    <v>       0.44025526       0.55393957       0.95064361 </v>
    <v>       0.55131413       0.44177156       0.05076944 </v>
    <v>       0.44068508       0.88616168       0.95102542 </v>
    <v>       0.55060549       0.77485141       0.05029293 </v>
    <v>       0.77501084       0.22133801       0.94651867 </v>
    <v>       0.89071784       0.11175229       0.05374702 </v>
    <v>       0.77729740       0.55519998       0.94447032 </v>
    <v>       0.88844198       0.44445553       0.05562990 </v>
    <v>       0.77785346       0.88877146       0.94505853 </v>
    <v>       0.89132367       0.77864682       0.05468683 </v>
   </varray>
  </structure>
  <varray name="forces" >
   <v>       0.08977924       0.05531921      -0.07845075 </v>
   <v>      -0.16173789      -0.22378102      -0.02867193 </v>
   <v>      -0.23083998      -0.30493926       0.02254905 </v>
   <v>       0.06308361       0.31901190      -0.01899790 </v>
   <v>       0.03827440      -0.12611091      -0.01845206 </v>
   <v>      -0.28347990      -0.09524104       0.02732930 </v>
   <v>      -0.04749648      -0.31502956       0.00761771 </v>
   <v>       0.44768734       0.19134409      -0.01394853 </v>
   <v>      -0.03257294       0.33336317       0.03015827 </v>
   <v>      -0.09270125      -0.10188766       0.18394201 </v>
   <v>      -0.07375029      -0.08271634      -0.01311730 </v>
   <v>      -0.06612122      -0.10304831      -0.02775105 </v>
   <v>      -0.05290812      -0.07639698      -0.04075676 </v>
   <v>      -0.03135700      -0.12096714      -0.00608589 </v>
   <v>      -0.02794426      -0.10784415       0.04506191 </v>
   <v>       0.07750451       0.10894359       0.10994566 </v>
   <v>       0.07409536       0.10774819      -0.31297165 </v>
   <v>       0.03235823       0.11373705       0.11541482 </v>
   <v>       0.01263313       0.14737326      -0.06196501 </v>
   <v>       0.06432176       0.07970275       0.16811985 </v>
   <v>       0.10445586       0.05998217      -0.10817001 </v>
   <v>      -0.02477589      -0.04027057      -0.03183682 </v>
   <v>       0.01678716       0.08490271       0.11770566 </v>
   <v>      -0.02058724       0.05563717      -0.14518212 </v>
   <v>      -0.02364992      -0.00241335       0.19229293 </v>
   <v>       0.05822857       0.01894326      -0.25283193 </v>
   <v>       0.09071320       0.02463779       0.13905255 </v>
  </varray>
  <varray name="stress" >
   <v>      -0.05276085       0.01234257       0.13877123 </v>
   <v>       0.01234266      -0.12141979       0.15826671 </v>
   <v>       0.13877108       0.15826688      -1.33949708 </v>
  </varray>
  <energy>
   <i name="e_fr_energy">   -191.61299536 </i>
   <i name="e_wo_entrp">   -191.51309078 </i>
   <i name="e_0_energy">     -0.19980915 </i>
  </energy>
  <time name="totalsc">  291.48  292.25</time>
 </calculation>
 <calculation>
  <scstep>
   <time name="dav">   22.03   22.09</time>
   <time name="total">   22.54   22.60</time>
   <energy>
    <i name="alphaZ">     90.25419953 </i>
    <i name="ewald">  44676.21971905 </i>
    <i name="hartreedc"> -50687.55823532 </i>
    <i name="XCdc">   -233.39470155 </i>
    <i name="pawpsdc">   4083.76629893 </i>
    <i name="pawaedc">  -3499.70555085 </i>
    <i name="eentropy">     -0.19718839 </i>
    <i name="bandstr">  -1382.50867008 </i>
    <i name="atom">   6761.44252427 </i>
    <i name="e_fr_energy">   -191.68160442 </i>
    <i name="e_wo_entrp">   -191.48441603 </i>
    <i name="e_0_energy">   -191.58301022 </i>
   </energy>
  </scstep>
  <scstep>
   <time name="dav">   33.05   33.13</time>
   <time name="total">   33.56   33.65</time>
   <energy>
    <i name="e_fr_energy">   -191.75086503 </i>
    <i name="e_wo_entrp">   -191.53602755 </i>
    <i name="e_0_energy">   -191.64344629 </i>
   </energy>
  </scstep>
  <scstep>
   <time name="dav">   31.07   31.15</time>
   <time name="total">   31.58   31.67</time>
   <energy>
    <i name="e_fr_energy">   -191.68955547 </i>
    <i name="e_wo_entrp">   -191.48947819 </i>
    <i name="e_0_energy">   -191.58951683 </i>
   </energy>
  </scstep>
  <scstep>
   <time name="dav">   29.07   29.14</time>
   <time name="total">   29.58   29.66</time>
   <energy>
    <i name="e_fr_energy">   -191.69292187 </i>
    <i name="e_wo_entrp">   -191.49388005 </i>
    <i name="e_0_energy">   -191.59340096 </i>
   </energy>
  </scstep>
  <scstep>
   <time name="dav">   29.34   29.41</time>
   <time name="total">   29.86   29.95</time>
   <energy>
    <i name="e_fr_energy">   -191.68674859 </i>
    <i name="e_wo_entrp">   -191.48557026 </i>
    <i name="e_0_energy">   -191.58615943 </i>
   </energy>
  </scstep>
  <scstep>
   <time name="dav">   29.16   29.23</time>
   <time name="total">   29.67   29.75</time>
   <energy>
    <i name="e_fr_energy">   -191.68707911 </i>
    <i name="e_wo_entrp">   -191.48648938 </i>
    <i name="e_0_energy">   -191.58678424 </i>
   </energy>
  </scstep>
  <scstep>
   <time name="dav">   28.86   28.93</time>
   <time name="total">   29.37   29.45</time>
   <energy>
    <i name="e_fr_energy">   -191.68691235 </i>
    <i name="e_wo_entrp">   -191.48490495 </i>
    <i name="e_0_energy">   -191.58590865 </i>
   </energy>
  </scstep>
  <scstep>
   <time name="dav">   25.74   25.80</time>
   <time name="total">   26.24   26.32</time>
   <energy>
    <i name="e_fr_energy">   -191.68636644 </i>
    <i name="e_wo_entrp">   -191.48513006 </i>
    <i name="e_0_energy">   -191.58574825 </i>
   </energy>
  </scstep>
  <scstep>
[...]
      <set comment="kpoint 31">
       <r>  -17.4802    1.0000 </r>
       <r>  -17.3049    1.0000 </r>
       <r>  -16.8988    1.0000 </r>
       <r>  -16.6645    1.0000 </r>
       <r>  -16.5173    1.0000 </r>
       <r>  -16.4262    1.0000 </r>
       <r>  -16.2724    1.0000 </r>
       <r>  -16.2220    1.0000 </r>
       <r>  -16.1465    1.0000 </r>
       <r>  -16.1023    1.0000 </r>
       <r>  -15.9257    1.0000 </r>
       <r>  -15.8641    1.0000 </r>
       <r>  -15.7231    1.0000 </r>
       <r>  -15.6669    1.0000 </r>
       <r>  -15.5612    1.0000 </r>
       <r>  -15.5147    1.0000 </r>
       <r>  -15.3767    1.0000 </r>
       <r>  -15.2776    1.0000 </r>
       <r>   -9.7704    1.0000 </r>
       <r>   -9.5214    1.0000 </r>
       <r>   -9.2752    1.0000 </r>
       <r>   -8.9106    1.0000 </r>
       <r>   -8.8561    1.0000 </r>
       <r>   -8.6979    1.0000 </r>
       <r>   -8.5984    1.0000 </r>
       <r>   -8.5240    1.0000 </r>
       <r>   -8.3994    1.0000 </r>
       <r>   -8.3392    1.0000 </r>
       <r>   -8.2616    1.0000 </r>
       <r>   -8.1456    1.0000 </r>
       <r>   -8.0936    1.0000 </r>
       <r>   -8.0534    1.0000 </r>
       <r>   -8.0092    1.0000 </r>
       <r>   -7.9049    1.0000 </r>
       <r>   -7.7923    1.0000 </r>
       <r>   -7.7164    1.0000 </r>
       <r>   -7.5585    1.0000 </r>
       <r>   -7.4384    1.0000 </r>
       <r>   -7.3863    1.0000 </r>
       <r>   -7.2543    1.0000 </r>
       <r>   -7.1350    1.0000 </r>
       <r>   -7.0313    1.0000 </r>
       <r>   -6.9318    1.0000 </r>
       <r>   -6.9124    1.0000 </r>
       <r>   -6.8475    1.0000 </r>
       <r>   -6.7300    1.0000 </r>
       <r>   -6.6388    1.0000 </r>
       <r>   -6.6299    1.0000 </r>
       <r>   -6.5533    1.0000 </r>
       <r>   -6.5089    1.0000 </r>
       <r>   -6.4314    1.0000 </r>
       <r>   -6.4213    1.0000 </r>
       <r>   -6.3074    1.0000 </r>
       <r>   -6.1716    1.0000 </r>
       <r>   -6.1329    1.0000 </r>
       <r>   -6.0906    1.0000 </r>
       <r>   -6.0154    1.0000 </r>
       <r>   -5.9539    1.0000 </r>
       <r>   -5.8778    1.0000 </r>
       <r>   -5.8208    1.0000 </r>
       <r>   -5.7521    1.0000 </r>
       <r>   -5.6732    1.0000 </r>
       <r>   -5.5242    1.0000 </r>
       <r>   -5.3112    1.0000 </r>
       <r>   -5.2794    1.0000 </r>
       <r>   -5.1271    1.0000 </r>
       <r>   -5.0609    1.0000 </r>
       <r>   -4.8897    1.0000 </r>
       <r>   -4.8096    1.0000 </r>
       <r>   -4.6712    1.0000 </r>
       <r>   -4.5740    1.0000 </r>
       <r>   -4.4283    1.0000 </r>
       <r>   -4.3058    1.0000 </r>
       <r>   -4.2500    1.0000 </r>
       <r>   -4.1390    1.0000 </r>
       <r>   -4.0977    1.0000 </r>
       <r>   -3.9041    1.0000 </r>
       <r>   -3.7571    0.9980 </r>
       <r>   -3.6349    0.9784 </r>
       <r>   -3.3799    0.5865 </r>
       <r>   -2.8535    0.0002 </r>
       <r>   -2.8287    0.0001 </r>
       <r>   -2.6715    0.0000 </r>
       <r>   -2.5928    0.0000 </r>
       <r>   -2.5343    0.0000 </r>
       <r>   -2.4067    0.0000 </r>
       <r>   -2.3415    0.0000 </r>
       <r>   -2.2672    0.0000 </r>
       <r>   -2.1062    0.0000 </r>
       <r>   -2.0192    0.0000 </r>
       <r>   -1.7499    0.0000 </r>
       <r>   -1.4326    0.0000 </r>
       <r>   -1.3784    0.0000 </r>
       <r>   -1.2835    0.0000 </r>
       <r>   -1.2126    0.0000 </r>
       <r>   -1.1392    0.0000 </r>
       <r>   -1.1053    0.0000 </r>
       <r>   -0.9587    0.0000 </r>
       <r>   -0.9299    0.0000 </r>
       <r>   -0.8661    0.0000 </r>
       <r>   -0.8461    0.0000 </r>
       <r>   -0.7533    0.0000 </r>
       <r>   -0.6653    0.0000 </r>
       <r>   -0.5591    0.0000 </r>
       <r>   -0.4948    0.0000 </r>
       <r>   -0.2757    0.0000 </r>
       <r>   -0.2381    0.0000 </r>
       <r>   -0.1068    0.0000 </r>
       <r>    0.0427    0.0000 </r>
       <r>    0.2095    0.0000 </r>
       <r>    0.3049    0.0000 </r>
       <r>    0.4977    0.0000 </r>
       <r>    0.7402    0.0000 </r>
       <r>    0.8717    0.0000 </r>
       <r>    1.0558    0.0000 </r>
       <r>    1.2691    0.0000 </r>
       <r>    1.4400    0.0000 </r>
       <r>    2.1339    0.0000 </r>
       <r>    2.2892    0.0000 </r>
       <r>    2.3935    0.0000 </r>
      </set>
      <set comment="kpoint 32">
       <r>  -17.5027    1.0000 </r>
       <r>  -17.2296    1.0000 </r>
       <r>  -17.0058    1.0000 </r>
       <r>  -16.6648    1.0000 </r>
       <r>  -16.4632    1.0000 </r>
       <r>  -16.3232    1.0000 </r>
       <r>  -16.2869    1.0000 </r>
       <r>  -16.2654    1.0000 </r>
       <r>  -16.1609    1.0000 </r>
       <r>  -16.1057    1.0000 </r>
       <r>  -15.9596    1.0000 </r>
       <r>  -15.8904    1.0000 </r>
       <r>  -15.7123    1.0000 </r>
       <r>  -15.6662    1.0000 </r>
       <r>  -15.5517    1.0000 </r>
       <r>  -15.5014    1.0000 </r>
       <r>  -15.3696    1.0000 </r>
       <r>  -15.2865    1.0000 </r>
       <r>   -9.6945    1.0000 </r>
       <r>   -9.5967    1.0000 </r>
       <r>   -9.3401    1.0000 </r>
       <r>   -8.8965    1.0000 </r>
       <r>   -8.7586    1.0000 </r>
       <r>   -8.6774    1.0000 </r>
       <r>   -8.5879    1.0000 </r>
       <r>   -8.4385    1.0000 </r>
       <r>   -8.3828    1.0000 </r>
       <r>   -8.3430    1.0000 </r>
       <r>   -8.3165    1.0000 </r>
       <r>   -8.1929    1.0000 </r>
       <r>   -8.1044    1.0000 </r>
       <r>   -8.0770    1.0000 </r>
       <r>   -8.0252    1.0000 </r>
       <r>   -8.0113    1.0000 </r>
       <r>   -7.7654    1.0000 </r>
       <r>   -7.7071    1.0000 </r>
       <r>   -7.5630    1.0000 </r>
       <r>   -7.4441    1.0000 </r>
       <r>   -7.3483    1.0000 </r>
       <r>   -7.2973    1.0000 </r>
       <r>   -7.1801    1.0000 </r>
       <r>   -7.0428    1.0000 </r>
       <r>   -6.9300    1.0000 </r>
       <r>   -6.8596    1.0000 </r>
       <r>   -6.7764    1.0000 </r>
       <r>   -6.7228    1.0000 </r>
       <r>   -6.6632    1.0000 </r>
       <r>   -6.6289    1.0000 </r>
       <r>   -6.5783    1.0000 </r>
       <r>   -6.5366    1.0000 </r>
       <r>   -6.4731    1.0000 </r>
       <r>   -6.3865    1.0000 </r>
       <r>   -6.3403    1.0000 </r>
       <r>   -6.1803    1.0000 </r>
       <r>   -6.1297    1.0000 </r>
       <r>   -6.0530    1.0000 </r>
       <r>   -6.0022    1.0000 </r>
       <r>   -5.8937    1.0000 </r>
       <r>   -5.8790    1.0000 </r>
       <r>   -5.7537    1.0000 </r>
       <r>   -5.7133    1.0000 </r>
       <r>   -5.6151    1.0000 </r>
       <r>   -5.4954    1.0000 </r>
       <r>   -5.4204    1.0000 </r>
       <r>   -5.3399    1.0000 </r>
       <r>   -5.0883    1.0000 </r>
       <r>   -5.0032    1.0000 </r>
       <r>   -4.9334    1.0000 </r>
       <r>   -4.8371    1.0000 </r>
       <r>   -4.7180    1.0000 </r>
       <r>   -4.6378    1.0000 </r>
       <r>   -4.4267    1.0000 </r>
       <r>   -4.2981    1.0000 </r>
       <r>   -4.2349    1.0000 </r>
       <r>   -4.1204    1.0000 </r>
       <r>   -4.0757    1.0000 </r>
       <r>   -3.9351    1.0000 </r>
       <r>   -3.7679    0.9985 </r>
       <r>   -3.6362    0.9789 </r>
       <r>   -3.3405    0.4761 </r>
       <r>   -2.8985    0.0007 </r>
       <r>   -2.8185    0.0001 </r>
       <r>   -2.6481    0.0000 </r>
       <r>   -2.6200    0.0000 </r>
       <r>   -2.5087    0.0000 </r>
       <r>   -2.3816    0.0000 </r>
       <r>   -2.3495    0.0000 </r>
       <r>   -2.2506    0.0000 </r>
       <r>   -2.0825    0.0000 </r>
       <r>   -2.0255    0.0000 </r>
       <r>   -1.8504    0.0000 </r>
       <r>   -1.4365    0.0000 </r>
       <r>   -1.3446    0.0000 </r>
       <r>   -1.2423    0.0000 </r>
       <r>   -1.1584    0.0000 </r>
       <r>   -1.1171    0.0000 </r>
       <r>   -1.0558    0.0000 </r>
       <r>   -0.9713    0.0000 </r>
       <r>   -0.9351    0.0000 </r>
       <r>   -0.8820    0.0000 </r>
       <r>   -0.8462    0.0000 </r>
       <r>   -0.7545    0.0000 </r>
       <r>   -0.6879    0.0000 </r>
       <r>   -0.5968    0.0000 </r>
       <r>   -0.4760    0.0000 </r>
       <r>   -0.3309    0.0000 </r>
       <r>   -0.2365    0.0000 </r>
       <r>   -0.1185    0.0000 </r>
       <r>    0.0568    0.0000 </r>
       <r>    0.1786    0.0000 </r>
       <r>    0.3212    0.0000 </r>
       <r>    0.4258    0.0000 </r>
       <r>    0.7662    0.0000 </r>
       <r>    0.8761    0.0000 </r>
       <r>    1.0371    0.0000 </r>
       <r>    1.2875    0.0000 </r>
       <r>    1.4689    0.0000 </r>
       <r>    2.1028    0.0000 </r>
       <r>    2.2569    0.0000 </r>
       <r>    2.5613    0.0000 </r>
      </set>
      <set comment="kpoint 33">
       <r>  -17.4869    1.0000 </r>
       <r>  -17.2933    1.0000 </r>
       <r>  -16.9076    1.0000 </r>
       <r>  -16.6650    1.0000 </r>
       <r>  -16.5192    1.0000 </r>
       <r>  -16.4094    1.0000 </r>
       <r>  -16.2744    1.0000 </r>
       <r>  -16.2279    1.0000 </r>
       <r>  -16.1403    1.0000 </r>
       <r>  -16.1035    1.0000 </r>
       <r>  -15.9099    1.0000 </r>
       <r>  -15.8954    1.0000 </r>
       <r>  -15.7279    1.0000 </r>
       <r>  -15.6599    1.0000 </r>
       <r>  -15.5659    1.0000 </r>
       <r>  -15.4996    1.0000 </r>
       <r>  -15.3638    1.0000 </r>
       <r>  -15.2970    1.0000 </r>
       <r>   -9.7339    1.0000 </r>
       <r>   -9.5031    1.0000 </r>
       <r>   -9.2841    1.0000 </r>
       <r>   -8.9205    1.0000 </r>
       <r>   -8.8217    1.0000 </r>
       <r>   -8.7461    1.0000 </r>
       <r>   -8.6153    1.0000 </r>
       <r>   -8.5223    1.0000 </r>
       <r>   -8.4470    1.0000 </r>
       <r>   -8.3569    1.0000 </r>
       <r>   -8.2470    1.0000 </r>
       <r>   -8.1392    1.0000 </r>
       <r>   -8.0923    1.0000 </r>
       <r>   -8.0419    1.0000 </r>
       <r>   -8.0059    1.0000 </r>
       <r>   -7.9053    1.0000 </r>
       <r>   -7.7754    1.0000 </r>
       <r>   -7.6880    1.0000 </r>
       <r>   -7.6085    1.0000 </r>
       <r>   -7.4805    1.0000 </r>
       <r>   -7.3520    1.0000 </r>
       <r>   -7.2181    1.0000 </r>
       <r>   -7.1540    1.0000 </r>
       <r>   -7.0662    1.0000 </r>
       <r>   -6.9884    1.0000 </r>
       <r>   -6.8720    1.0000 </r>
       <r>   -6.8440    1.0000 </r>
       <r>   -6.7243    1.0000 </r>
       <r>   -6.6600    1.0000 </r>
       <r>   -6.6011    1.0000 </r>
       <r>   -6.5624    1.0000 </r>
       <r>   -6.5038    1.0000 </r>
       <r>   -6.4623    1.0000 </r>
       <r>   -6.4065    1.0000 </r>
       <r>   -6.2769    1.0000 </r>
       <r>   -6.1959    1.0000 </r>
       <r>   -6.1397    1.0000 </r>
       <r>   -6.0531    1.0000 </r>
       <r>   -6.0000    1.0000 </r>
       <r>   -5.9112    1.0000 </r>
       <r>   -5.8749    1.0000 </r>
       <r>   -5.7862    1.0000 </r>
       <r>   -5.7092    1.0000 </r>
       <r>   -5.6829    1.0000 </r>
       <r>   -5.5302    1.0000 </r>
       <r>   -5.3747    1.0000 </r>
       <r>   -5.3027    1.0000 </r>
       <r>   -5.1156    1.0000 </r>
       <r>   -5.0642    1.0000 </r>
       <r>   -4.8928    1.0000 </r>
       <r>   -4.7441    1.0000 </r>
       <r>   -4.7014    1.0000 </r>
       <r>   -4.5849    1.0000 </r>
       <r>   -4.4076    1.0000 </r>
       <r>   -4.3278    1.0000 </r>
       <r>   -4.2382    1.0000 </r>
       <r>   -4.1526    1.0000 </r>
       <r>   -4.0823    1.0000 </r>
       <r>   -3.9416    1.0000 </r>
       <r>   -3.8052    0.9994 </r>
       <r>   -3.6597    0.9860 </r>
       <r>   -3.3057    0.3798 </r>
       <r>   -2.9221    0.0013 </r>
       <r>   -2.8175    0.0001 </r>
       <r>   -2.6761    0.0000 </r>
       <r>   -2.6376    0.0000 </r>
       <r>   -2.4661    0.0000 </r>
       <r>   -2.4099    0.0000 </r>
       <r>   -2.3154    0.0000 </r>
       <r>   -2.2328    0.0000 </r>
       <r>   -2.0525    0.0000 </r>
       <r>   -2.0142    0.0000 </r>
       <r>   -1.8814    0.0000 </r>
       <r>   -1.4587    0.0000 </r>
       <r>   -1.3085    0.0000 </r>
       <r>   -1.2106    0.0000 </r>
       <r>   -1.1717    0.0000 </r>
       <r>   -1.0784    0.0000 </r>
       <r>   -1.0580    0.0000 </r>
       <r>   -0.9557    0.0000 </r>
       <r>   -0.8983    0.0000 </r>
       <r>   -0.8791    0.0000 </r>
       <r>   -0.8333    0.0000 </r>
       <r>   -0.7874    0.0000 </r>
       <r>   -0.6903    0.0000 </r>
       <r>   -0.6279    0.0000 </r>
       <r>   -0.4819    0.0000 </r>
       <r>   -0.4086    0.0000 </r>
       <r>   -0.2318    0.0000 </r>
       <r>   -0.1497    0.0000 </r>
       <r>    0.0029    0.0000 </r>
       <r>    0.1666    0.0000 </r>
       <r>    0.3158    0.0000 </r>
       <r>    0.4245    0.0000 </r>
       <r>    0.7786    0.0000 </r>
       <r>    0.9304    0.0000 </r>
       <r>    1.0295    0.0000 </r>
       <r>    1.3243    0.0000 </r>
       <r>    1.4948    0.0000 </r>
       <r>    2.1321    0.0000 </r>
       <r>    2.2890    0.0000 </r>
       <r>    2.3829    0.0000 </r>
      </set>
      <set comment="kpoint 34">
       <r>  -17.4597    1.0000 </r>
       <r>  -17.3531    1.0000 </r>
       <r>  -16.7700    1.0000 </r>
       <r>  -16.6710    1.0000 </r>
       <r>  -16.6477    1.0000 </r>
       <r>  -16.4274    1.0000 </r>
       <r>  -16.2639    1.0000 </r>
       <r>  -16.2309    1.0000 </r>
       <r>  -16.1258    1.0000 </r>
       <r>  -16.1004    1.0000 </r>
       <r>  -15.8989    1.0000 </r>
       <r>  -15.8358    1.0000 </r>
       <r>  -15.7634    1.0000 </r>
       <r>  -15.6526    1.0000 </r>
       <r>  -15.5801    1.0000 </r>
       <r>  -15.5042    1.0000 </r>
       <r>  -15.3603    1.0000 </r>
       <r>  -15.3023    1.0000 </r>
       <r>   -9.7635    1.0000 </r>
       <r>   -9.4263    1.0000 </r>
       <r>   -9.1510    1.0000 </r>
       <r>   -9.0683    1.0000 </r>
       <r>   -8.8561    1.0000 </r>
       <r>   -8.8168    1.0000 </r>
       <r>   -8.6036    1.0000 </r>
       <r>   -8.5651    1.0000 </r>
       <r>   -8.4852    1.0000 </r>
       <r>   -8.3648    1.0000 </r>
       <r>   -8.1908    1.0000 </r>
       <r>   -8.1424    1.0000 </r>
       <r>   -8.0667    1.0000 </r>
       <r>   -8.0339    1.0000 </r>
       <r>   -7.9412    1.0000 </r>
       <r>   -7.8679    1.0000 </r>
       <r>   -7.7903    1.0000 </r>
       <r>   -7.6403    1.0000 </r>
       <r>   -7.5986    1.0000 </r>
       <r>   -7.4740    1.0000 </r>
       <r>   -7.3948    1.0000 </r>
       <r>   -7.2921    1.0000 </r>
       <r>   -7.0729    1.0000 </r>
       <r>   -7.0651    1.0000 </r>
       <r>   -7.0336    1.0000 </r>
       <r>   -6.8734    1.0000 </r>
       <r>   -6.8488    1.0000 </r>
       <r>   -6.6963    1.0000 </r>
       <r>   -6.6576    1.0000 </r>
       <r>   -6.6085    1.0000 </r>
       <r>   -6.5697    1.0000 </r>
       <r>   -6.5157    1.0000 </r>
       <r>   -6.4563    1.0000 </r>
       <r>   -6.3275    1.0000 </r>
       <r>   -6.3125    1.0000 </r>
       <r>   -6.2332    1.0000 </r>
       <r>   -6.1386    1.0000 </r>
       <r>   -6.0588    1.0000 </r>
       <r>   -5.9634    1.0000 </r>
       <r>   -5.9422    1.0000 </r>
       <r>   -5.8821    1.0000 </r>
       <r>   -5.8145    1.0000 </r>
       <r>   -5.7498    1.0000 </r>
       <r>   -5.6797    1.0000 </r>
       <r>   -5.5762    1.0000 </r>
       <r>   -5.3463    1.0000 </r>
       <r>   -5.2864    1.0000 </r>
       <r>   -5.0961    1.0000 </r>
       <r>   -5.0654    1.0000 </r>
       <r>   -4.9359    1.0000 </r>
       <r>   -4.7330    1.0000 </r>
       <r>   -4.5999    1.0000 </r>
       <r>   -4.4967    1.0000 </r>
       <r>   -4.4083    1.0000 </r>
       <r>   -4.3618    1.0000 </r>
       <r>   -4.2465    1.0000 </r>
       <r>   -4.1885    1.0000 </r>
       <r>   -4.0971    1.0000 </r>
       <r>   -3.9387    1.0000 </r>
       <r>   -3.8321    0.9997 </r>
       <r>   -3.6727    0.9890 </r>
       <r>   -3.2951    0.3517 </r>
       <r>   -2.9221    0.0013 </r>
       <r>   -2.8227    0.0001 </r>
       <r>   -2.6962    0.0000 </r>
       <r>   -2.6468    0.0000 </r>
       <r>   -2.4452    0.0000 </r>
       <r>   -2.4205    0.0000 </r>
       <r>   -2.2996    0.0000 </r>
       <r>   -2.2286    0.0000 </r>
       <r>   -2.0417    0.0000 </r>
       <r>   -2.0083    0.0000 </r>
       <r>   -1.8737    0.0000 </r>
       <r>   -1.4635    0.0000 </r>
       <r>   -1.2929    0.0000 </r>
       <r>   -1.2206    0.0000 </r>
       <r>   -1.1753    0.0000 </r>
       <r>   -1.0732    0.0000 </r>
       <r>   -1.0556    0.0000 </r>
       <r>   -0.9528    0.0000 </r>
       <r>   -0.8638    0.0000 </r>
       <r>   -0.8564    0.0000 </r>
       <r>   -0.8240    0.0000 </r>
       <r>   -0.8139    0.0000 </r>
       <r>   -0.7019    0.0000 </r>
       <r>   -0.6411    0.0000 </r>
       <r>   -0.5133    0.0000 </r>
       <r>   -0.4151    0.0000 </r>
       <r>   -0.2339    0.0000 </r>
       <r>   -0.1765    0.0000 </r>
       <r>   -0.0127    0.0000 </r>
       <r>    0.1505    0.0000 </r>
       <r>    0.2959    0.0000 </r>
       <r>    0.4488    0.0000 </r>
       <r>    0.7887    0.0000 </r>
       <r>    0.9700    0.0000 </r>
       <r>    1.0221    0.0000 </r>
       <r>    1.3427    0.0000 </r>
       <r>    1.5057    0.0000 </r>
       <r>    2.2077    0.0000 </r>
       <r>    2.2442    0.0000 </r>
       <r>    2.3696    0.0000 </r>
      </set>
     </set>
    </set>
   </array>
  </eigenvalues>
  <separator name="orbital magnetization" >
   <v name="MAGDIPOLOUT">      0.00000000      0.00000000      0.00000000</v>
  </separator>
 </calculation>
 <structure name="finalpos" >
  <crystal>
   <varray name="basis" >
    <v>       8.37403446       4.85539665       0.00000000 </v>
    <v>      -8.34561680       4.80648080       0.00000000 </v>
    <v>       0.00000000       0.00000000      30.00000000 </v>
   </varray>
   <i name="volume">   2423.12747214 </i>
   <varray name="rec_basis" >
    <v>       0.05950757       0.10332453       0.00000000 </v>
    <v>      -0.06011318       0.10367636       0.00000000 </v>
    <v>       0.00000000       0.00000000       0.03333333 </v>
   </varray>
  </crystal>
  <varray name="positions" >
   <v>       0.37189482       0.35507310      -0.00306301 </v>
   <v>       0.29397805       0.64762549       0.00205266 </v>
   <v>       0.29731210      -0.02201113       0.00178369 </v>
   <v>       0.69296639       0.67500336      -0.00091362 </v>
   <v>      -0.01167518       0.65867845       0.00062547 </v>
   <v>       0.97863079       0.34456067       0.00089141 </v>
   <v>      -0.01753735      -0.02854491       0.00026063 </v>
   <v>       0.70150837       0.00218212      -0.00194887 </v>
   <v>       0.68949144       0.36337463      -0.00027673 </v>
   <v>       0.11798655       0.22663259       0.95938578 </v>
   <v>       0.22585929       0.11577789       0.04772520 </v>
   <v>       0.10714947       0.55424061       0.94719914 </v>
   <v>       0.22223271       0.44125158       0.04844243 </v>
   <v>       0.11016845       0.88629910       0.94685983 </v>
   <v>       0.21885796       0.77507539       0.05278279 </v>
   <v>       0.44503240       0.21868681       0.95221915 </v>
   <v>       0.55300508       0.10798888       0.04087094 </v>
   <v>       0.44416931       0.56495261       0.95222907 </v>
   <v>       0.55900585       0.44931079       0.05235704 </v>
   <v>       0.44027931       0.88442324       0.95686515 </v>
   <v>       0.54831312       0.77447518       0.04464174 </v>
   <v>       0.77197663       0.22180948       0.94651511 </v>
   <v>       0.89625771       0.11187474       0.05313754 </v>
   <v>       0.78045822       0.55816033       0.94275239 </v>
   <v>       0.88521719       0.44753586       0.05741904 </v>
   <v>       0.78420440       0.88763402       0.94229395 </v>
   <v>       0.89147137       0.77614356       0.05689200 </v>
  </varray>
 </structure>
</modeling>
