unknown system                          
           1
     8.856496    5.109492    0.000000
    -8.852591    5.102774    0.000000
     0.000000    0.000000   30.000000
   V    Mo   W    S 
   3   3   3  18
Direct configuration=     1
   0.33333334  0.33333334  0.00000000
   0.33333334  0.66666669  0.00000000
   0.33333334  0.00000000  0.00000000
   0.66666669  0.66666669  0.00000000
   0.00000000  0.66666669  0.00000000
   1.00000000  0.33333334  0.00000000
   0.00000000  0.00000000  0.00000000
   0.66666669  0.00000000  0.00000000
   0.66666669  0.33333334  0.00000000
   0.11068511  0.22244981  0.95539999
   0.22244981  0.11068511  0.04460000
   0.11068511  0.55578315  0.95539999
   0.22244981  0.44401845  0.04460000
   0.11068511  0.88911647  0.95539999
   0.22244981  0.77735180  0.04460000
   0.44401845  0.22244981  0.95539999
   0.55578315  0.11068511  0.04460000
   0.44401845  0.55578315  0.95539999
   0.55578315  0.44401845  0.04460000
   0.44401845  0.88911647  0.95539999
   0.55578315  0.77735180  0.04460000
   0.77735180  0.22244981  0.95539999
   0.88911647  0.11068511  0.04460000
   0.77735180  0.55578315  0.95539999
   0.88911647  0.44401845  0.04460000
   0.77735180  0.88911647  0.95539999
   0.88911647  0.77735180  0.04460000
unknown system                          
           1
     8.667956    5.002553    0.000000
    -8.664656    4.996881    0.000000
     0.000000    0.000000   30.000000
   V    Mo   W    S 
   3   3   3  18
Direct configuration=     2
   0.33335993  0.33460194 -0.00004499
   0.33216424  0.66548891  0.00002475
   0.33222909 -0.00115183  0.00001593
   0.66795057  0.66672267 -0.00019730
  -0.00116912  0.66522264  0.00022634
   1.00000319  0.33474772  0.00015213
  -0.00086637 -0.00118479  0.00019795
   0.66756644 -0.00051960 -0.00019548
   0.66906077  0.33619231 -0.00024816
   0.11502157  0.22338539  0.95201045
   0.22555937  0.11248288  0.04687448
   0.11553934  0.55769280  0.95193813
   0.22655370  0.44632509  0.04690845
   0.11505005  0.89142162  0.95196011
   0.22651828  0.77964267  0.04686794
   0.44087066  0.22059723  0.95317856
   0.55172884  0.10924684  0.04800684
   0.43991391  0.55344219  0.95313258
   0.55131708  0.44165211  0.04805619
   0.44087688  0.88731184  0.95313517
   0.55139961  0.77642822  0.04801354
   0.77661205  0.22153741  0.95073578
   0.88856287  0.11034112  0.04930669
   0.77695205  0.55434388  0.95068850
   0.88803364  0.44395832  0.04934123
   0.77790657  0.88950910  0.95065489
   0.88949926  0.77877576  0.04925920
unknown system                          
           1
     8.483987    4.901905    0.000000
    -8.481139    4.897008    0.000000
     0.000000    0.000000   30.000000
   V    Mo   W    S 
   3   3   3  18
Direct configuration=     3
   0.33337257  0.33491070 -0.00009461
   0.33179901  0.66515212  0.00002834
   0.33188764 -0.00146439  0.00002525
   0.66880186  0.66701898 -0.00017283
  -0.00205932  0.66443767  0.00024129
   0.99953287  0.33500427  0.00012302
  -0.00161411 -0.00173858  0.00020902
   0.66825671 -0.00054827 -0.00015090
   0.67017605  0.33727577 -0.00025732
   0.11501042  0.22322021  0.95210744
   0.22538646  0.11242362  0.04680044
   0.11570396  0.55780624  0.95191886
   0.22665046  0.44641510  0.04691748
   0.11502357  0.89158748  0.95201035
   0.22659132  0.77968415  0.04683714
   0.44105117  0.22067507  0.95330089
   0.55190768  0.10932433  0.04783919
   0.43982643  0.55337397  0.95317048
   0.55133460  0.44145619  0.04801061
   0.44103663  0.88735200  0.95320763
   0.55141654  0.77658927  0.04793057
   0.77635654  0.22144590  0.95071815
   0.88846945  0.11010564  0.04931972
   0.77685529  0.55412460  0.95053092
   0.88778931  0.44384152  0.04949281
   0.77802018  0.88974014  0.95057542
   0.88963117  0.77900076  0.04936054
unknown system                          
           1
     8.272466    4.791933    0.000000
    -8.259854    4.770123    0.000000
     0.000000    0.000000   30.000000
   V    Mo   W    S 
   3   3   3  18
Direct configuration=     4
   0.33334334  0.33572689 -0.00026695
   0.33048667  0.66407051  0.00002932
   0.33064417 -0.00248975  0.00004451
   0.67283466  0.66873404 -0.00003132
  -0.00626180  0.66097673  0.00019768
   0.99684072  0.33547999 -0.00002669
  -0.00527555 -0.00405699  0.00013918
   0.67163492 -0.00032476  0.00007650
   0.67492530  0.34139172 -0.00017859
   0.11594270  0.22364157  0.95107770
   0.22623949  0.11301820  0.04786864
   0.11702022  0.55867631  0.95042200
   0.22763097  0.44706500  0.04827434
   0.11590391  0.89199423  0.95078468
   0.22744034  0.78007673  0.04802989
   0.44036770  0.22027423  0.95245442
   0.55128612  0.10910818  0.04860742
   0.43895041  0.55292709  0.95201628
   0.55032985  0.44077436  0.04927966
   0.44019645  0.88672269  0.95215060
   0.55035069  0.77596950  0.04905802
   0.77607988  0.22142815  0.94901042
   0.88861668  0.11011604  0.05102437
   0.77706960  0.55428974  0.94824174
   0.88763545  0.44378948  0.05175133
   0.77817022  0.88982668  0.94856875
   0.88981135  0.77900789  0.05139601
unknown system                          
           1
     8.275753    4.811167    0.000000
    -8.249292    4.765372    0.000000
     0.000000    0.000000   30.000000
   V    Mo   W    S 
   3   3   3  18
Direct configuration=     5
   0.33329752  0.33645094 -0.00049480
   0.32783743  0.66243229  0.00002631
   0.32780506 -0.00429124  0.00007171
   0.68139073  0.67282926  0.00013698
  -0.01457383  0.65409660  0.00004404
   0.99103474  0.33638843 -0.00020256
  -0.01277988 -0.00883860 -0.00004523
   0.67857376 -0.00033950  0.00036918
   0.68397118  0.34934602  0.00001615
   0.11612683  0.22395771  0.94991427
   0.22646505  0.11349850  0.04930879
   0.11768933  0.55942658  0.94837269
   0.22777596  0.44751278  0.05014920
   0.11592303  0.89139496  0.94927467
   0.22712387  0.77958133  0.04974158
   0.44068710  0.22047728  0.95137591
   0.55149552  0.10968579  0.04924694
   0.43920543  0.55324084  0.95047969
   0.55010502  0.44086263  0.05082656
   0.43989367  0.88597337  0.95082601
   0.54966365  0.77491829  0.05042410
   0.77558444  0.22147284  0.94664677
   0.88980949  0.11106962  0.05349903
   0.77747688  0.55493365  0.94487038
   0.88806910  0.44420283  0.05517034
   0.77806985  0.88921973  0.94556736
   0.89049354  0.77871154  0.05438384
unknown system                          
           1
     8.273617    4.809595    0.000000
    -8.246539    4.762741    0.000000
     0.000000    0.000000   30.000000
   V    Mo   W    S 
   3   3   3  18
Direct configuration=     6
   0.33350545  0.33629781 -0.00058017
   0.32646512  0.66190461  0.00002884
   0.32605115 -0.00496583  0.00014403
   0.68288704  0.67417983 -0.00002921
  -0.01481664  0.65349925  0.00017459
   0.98986475  0.33663247 -0.00004674
  -0.01428266 -0.00997511  0.00013017
   0.68060962 -0.00064909  0.00026893
   0.68514960  0.35059329 -0.00006920
   0.11485919  0.22359416  0.95013208
   0.22554318  0.11316107  0.04925785
   0.11653348  0.55901959  0.94828448
   0.22694173  0.44720709  0.05009362
   0.11470542  0.89043392  0.94924896
   0.22600200  0.77878641  0.04975626
   0.44192640  0.22113293  0.95154707
   0.55276449  0.11047374  0.04881567
   0.44025526  0.55393957  0.95064361
   0.55131413  0.44177156  0.05076944
   0.44068508  0.88616168  0.95102542
   0.55060549  0.77485141  0.05029293
   0.77501084  0.22133801  0.94651867
   0.89071784  0.11175229  0.05374702
   0.77729740  0.55519998  0.94447032
   0.88844198  0.44445553  0.05562990
   0.77785346  0.88877146  0.94505853
   0.89132367  0.77864682  0.05468683
unknown system                          
           1
     8.280158    4.816341    0.000000
    -8.250050    4.764246    0.000000
     0.000000    0.000000   30.000000
   V    Mo   W    S 
   3   3   3  18
Direct configuration=     7
   0.33406184  0.33631865 -0.00071330
   0.32478022  0.66120837 -0.00001853
   0.32373329 -0.00587811  0.00018264
   0.68482799  0.67570305 -0.00006140
  -0.01543731  0.65265554  0.00014458
   0.98845273  0.33700445 -0.00000101
  -0.01614710 -0.01152758  0.00014359
   0.68303228 -0.00101021  0.00024734
   0.68687926  0.35251355 -0.00001872
   0.11404156  0.22334515  0.95042496
   0.22488771  0.11295603  0.04925205
   0.11579523  0.55868720  0.94821450
   0.22638040  0.44697139  0.05004626
   0.11397160  0.88988182  0.94922083
   0.22534402  0.77829632  0.04985004
   0.44273869  0.22147390  0.95171823
   0.55356021  0.11082469  0.04830143
   0.44095522  0.55444387  0.95081926
   0.55212623  0.44251100  0.05068432
   0.44129430  0.88637494  0.95129059
   0.55123186  0.77483421  0.05012853
   0.77471649  0.22120279  0.94643788
   0.89123195  0.11216208  0.05397247
   0.77752551  0.55556209  0.94418837
   0.88836949  0.44452231  0.05599093
   0.77812067  0.88868083  0.94460070
   0.89174011  0.77849614  0.05495336
unknown system                          
           1
     8.286752    4.824357    0.000000
    -8.252331    4.764801    0.000000
     0.000000    0.000000   30.000000
   V    Mo   W    S 
   3   3   3  18
Direct configuration=     8
   0.33460893  0.33642521 -0.00081241
   0.32365725  0.66072998 -0.00003144
   0.32211739 -0.00650613  0.00023472
   0.68570124  0.67644525 -0.00010209
  -0.01540241  0.65241658  0.00017515
   0.98782636  0.33729851  0.00004713
  -0.01690912 -0.01231486  0.00019486
   0.68427454 -0.00125587  0.00021614
   0.68756287  0.35345959 -0.00001850
   0.11363638  0.22321352  0.95063194
   0.22457449  0.11285730  0.04923101
   0.11542085  0.55848041  0.94816662
   0.22612247  0.44684565  0.04998199
   0.11361781  0.88964811  0.94916875
   0.22509763  0.77809610  0.04989424
   0.44310039  0.22157102  0.95184072
   0.55391972  0.11091751  0.04794765
   0.44127856  0.55470432  0.95094714
   0.55253327  0.44291792  0.05064100
   0.44159382  0.88652356  0.95148915
   0.55153042  0.77483954  0.05000990
   0.77451809  0.22110583  0.94644162
   0.89156975  0.11237732  0.05405822
   0.77763275  0.55575444  0.94406899
   0.88837499  0.44460754  0.05615189
   0.77825322  0.88862447  0.94435763
   0.89200280  0.77843163  0.05506790
unknown system                          
           1
     8.284996    4.823183    0.000000
    -8.250960    4.764290    0.000000
     0.000000    0.000000   30.000000
   V    Mo   W    S 
   3   3   3  18
Direct configuration=     9
   0.33562795  0.33673482 -0.00097212
   0.32196584  0.65998028 -0.00004058
   0.31966407 -0.00749118  0.00032159
   0.68680652  0.67733295 -0.00015503
  -0.01519669  0.65218632  0.00021817
   0.98706610  0.33781517  0.00010772
  -0.01782287 -0.01340723  0.00026043
   0.68589019 -0.00160581  0.00016817
   0.68838645  0.35476058 -0.00001699
   0.11319779  0.22307259  0.95093511
   0.22421547  0.11276433  0.04921914
   0.11499644  0.55820699  0.94807517
   0.22583476  0.44669177  0.04989675
   0.11322796  0.88941759  0.94905052
   0.22487568  0.77787688  0.04998789
   0.44349583  0.22161362  0.95200059
   0.55428409  0.11095220  0.04743397
   0.44164176  0.55504138  0.95110765
   0.55300352  0.44342283  0.05061472
   0.44193909  0.88672461  0.95177457
   0.55184530  0.77483894  0.04984558
   0.77427072  0.22098951  0.94646374
   0.89202942  0.11264035  0.05415939
   0.77781487  0.55601878  0.94391089
   0.88837215  0.44473372  0.05636353
   0.77846376  0.88857013  0.94404047
   0.89231825  0.77833233  0.05522887
unknown system                          
           1
     8.287463    4.823710    0.000000
    -8.255078    4.767664    0.000000
     0.000000    0.000000   30.000000
   V    Mo   W    S 
   3   3   3  18
Direct configuration=    10
   0.33526665  0.33658956 -0.00093209
   0.32235611  0.66015813 -0.00004217
   0.32022298 -0.00725757  0.00030043
   0.68664325  0.67723063 -0.00015073
  -0.01533021  0.65213637  0.00021594
   0.98717752  0.33769260  0.00009903
  -0.01770490 -0.01317028  0.00025676
   0.68562345 -0.00156044  0.00017922
   0.68830256  0.35453606 -0.00002450
   0.11322760  0.22307765  0.95086209
   0.22426165  0.11276596  0.04921767
   0.11504655  0.55825051  0.94810007
   0.22587223  0.44672556  0.04991231
   0.11326449  0.88942984  0.94908646
   0.22488886  0.77790166  0.04995572
   0.44346213  0.22165284  0.95197677
   0.55428429  0.11099137  0.04754374
   0.44159316  0.55497219  0.95108706
   0.55295498  0.44335178  0.05060477
   0.44190168  0.88668556  0.95171099
   0.55182645  0.77484747  0.04988079
   0.77429830  0.22100002  0.94645088
   0.89195239  0.11260452  0.05415223
   0.77775118  0.55595919  0.94393318
   0.88838743  0.44471027  0.05633495
   0.77840014  0.88856963  0.94408586
   0.89228352  0.77836338  0.05520247
unknown system                          
           1
     8.293627    4.821890    0.000000
    -8.270577    4.781939    0.000000
     0.000000    0.000000   30.000000
   V    Mo   W    S 
   3   3   3  18
Direct configuration=    11
   0.33439568  0.33614187 -0.00085962
   0.32294584  0.66053376 -0.00005827
   0.32091829 -0.00700202  0.00025398
   0.68644463  0.67713220 -0.00014873
  -0.01546119  0.65208025  0.00020694
   0.98737676  0.33755267  0.00008950
  -0.01743928 -0.01281623  0.00025138
   0.68518175 -0.00159495  0.00019505
   0.68822496  0.35426845 -0.00003065
   0.11319590  0.22307042  0.95074028
   0.22431180  0.11270715  0.04920953
   0.11510129  0.55831283  0.94813538
   0.22590752  0.44679502  0.04993229
   0.11334966  0.88944662  0.94917237
   0.22494545  0.77798748  0.04987857
   0.44344821  0.22169473  0.95197957
   0.55430715  0.11104162  0.04765709
   0.44154780  0.55489202  0.95109092
   0.55295328  0.44332953  0.05056400
   0.44185851  0.88665596  0.95164829
   0.55183426  0.77484317  0.04993105
   0.77430957  0.22096887  0.94641688
   0.89187438  0.11261327  0.05417850
   0.77765352  0.55591794  0.94392484
   0.88841490  0.44466097  0.05634839
   0.77832515  0.88856526  0.94409804
   0.89228865  0.77841561  0.05519432
unknown system                          
           1
     8.286556    4.825144    0.000000
    -8.252942    4.766966    0.000000
     0.000000    0.000000   30.000000
   V    Mo   W    S 
   3   3   3  18
Direct configuration=    12
   0.32780791  0.33280393 -0.00047562
   0.32624745  0.66218776 -0.00020853
   0.32492847 -0.00511494 -0.00003567
   0.68642405  0.67749388 -0.00019674
  -0.01714443  0.65078555  0.00025131
   0.98840540  0.33686762  0.00009291
  -0.01669832 -0.01077944  0.00029489
   0.68352425 -0.00207974  0.00027892
   0.68863711  0.35363958 -0.00008693
   0.11283264  0.22297423  0.95013333
   0.22445011  0.11245414  0.04916670
   0.11519268  0.55854478  0.94839785
   0.22611864  0.44723649  0.04995235
   0.11336771  0.88924595  0.94966961
   0.22506974  0.77825632  0.04942048
   0.44354142  0.22237101  0.95219694
   0.55498757  0.11157570  0.04811316
   0.44123834  0.55411028  0.95137635
   0.55303471  0.44331983  0.05005025
   0.44200177  0.88656997  0.95135145
   0.55218630  0.77491903  0.05014072
   0.77435337  0.22073383  0.94638713
   0.89138914  0.11253333  0.05418260
   0.77711870  0.55566293  0.94397240
   0.88858991  0.44444272  0.05631237
   0.77813776  0.88868166  0.94424883
   0.89247208  0.77877806  0.05501284
unknown system                          
           1
     8.290798    4.829406    0.000000
    -8.256416    4.769887    0.000000
     0.000000    0.000000   30.000000
   V    Mo   W    S 
   3   3   3  18
Direct configuration=    13
   0.33219002  0.33475827 -0.00088766
   0.32235842  0.66029848 -0.00013917
   0.31988965 -0.00723912  0.00022361
   0.68802503  0.67854513 -0.00021644
  -0.01604992  0.65120692  0.00025504
   0.98711253  0.33789664  0.00014618
  -0.01813122 -0.01312852  0.00031433
   0.68626997 -0.00223202  0.00016765
   0.68946220  0.35557133 -0.00002674
   0.11263232  0.22290728  0.95082578
   0.22403351  0.11254451  0.04922649
   0.11472401  0.55812211  0.94816792
   0.22572772  0.44685076  0.04986517
   0.11293947  0.88913817  0.94925160
   0.22482178  0.77787399  0.04981322
   0.44381136  0.22198538  0.95227105
   0.55488508  0.11121121  0.04721118
   0.44178523  0.55485577  0.95141510
   0.55335499  0.44379372  0.05024361
   0.44232886  0.88687681  0.95186982
   0.55229031  0.77488639  0.04981034
   0.77415666  0.22080094  0.94653025
   0.89207956  0.11276671  0.05420657
   0.77773763  0.55612010  0.94384601
   0.88844430  0.44468534  0.05647775
   0.77866106  0.88865384  0.94391617
   0.89267395  0.77846431  0.05521505
unknown system                          
           1
     8.294683    4.833422    0.000000
    -8.259343    4.772241    0.000000
     0.000000    0.000000   30.000000
   V    Mo   W    S 
   3   3   3  18
Direct configuration=    14
   0.33023736  0.33357970 -0.00087221
   0.32224181  0.66031232 -0.00018903
   0.31958915 -0.00726206  0.00019115
   0.68884895  0.67934090 -0.00025380
  -0.01633664  0.65079285  0.00027643
   0.98722397  0.33803787  0.00018097
  -0.01820584 -0.01301818  0.00035752
   0.68660100 -0.00258580  0.00016128
   0.69003145  0.35606895 -0.00002428
   0.11230294  0.22283136  0.95074447
   0.22393958  0.11243640  0.04929265
   0.11458993  0.55807940  0.94816737
   0.22566260  0.44693745  0.04989037
   0.11278941  0.88898520  0.94929361
   0.22480540  0.77785326  0.04977950
   0.44396892  0.22213127  0.95240793
   0.55513662  0.11128758  0.04703483
   0.44192550  0.55481247  0.95157703
   0.55352241  0.44403089  0.05005321
   0.44254634  0.88698223  0.95193812
   0.55249551  0.77486151  0.04979207
   0.77410806  0.22072958  0.94655973
   0.89215976  0.11285553  0.05425234
   0.77776749  0.55623771  0.94377501
   0.88850190  0.44467491  0.05657695
   0.77884484  0.88870673  0.94379045
   0.89291605  0.77851443  0.05524623
unknown system                          
           1
     8.300371    4.838468    0.000000
    -8.263708    4.774995    0.000000
     0.000000    0.000000   30.000000
   V    Mo   W    S 
   3   3   3  18
Direct configuration=    15
   0.32777047  0.33198020 -0.00092350
   0.32124313  0.65988362 -0.00026154
   0.31802075 -0.00774957  0.00017788
   0.69021952  0.68053880 -0.00031503
  -0.01633639  0.65039859  0.00030875
   0.98741087  0.33852984  0.00024681
  -0.01823459 -0.01313183  0.00042653
   0.68751624 -0.00303951  0.00014188
   0.69091415  0.35707007  0.00000017
   0.11181888  0.22276456  0.95071743
   0.22377214  0.11231975  0.04942663
   0.11433954  0.55792381  0.94810964
   0.22549905  0.44696303  0.04991960
   0.11259001  0.88882075  0.94924580
   0.22477412  0.77777935  0.04983197
   0.44420594  0.22224093  0.95264915
   0.55539132  0.11127953  0.04659115
   0.44226588  0.55487441  0.95186349
   0.55377608  0.44447465  0.04977608
   0.44289551  0.88721229  0.95215599
   0.55280262  0.77480992  0.04968440
   0.77408714  0.22070509  0.94664765
   0.89238094  0.11301611  0.05428437
   0.77796632  0.55649910  0.94367913
   0.88854593  0.44468469  0.05671061
   0.77928565  0.88883513  0.94358372
   0.89329322  0.77853114  0.05532113
unknown system                          
           1
     8.310596    4.844186    0.000000
    -8.271431    4.776419    0.000000
     0.000000    0.000000   30.000000
   V    Mo   W    S 
   3   3   3  18
Direct configuration=    16
   0.32625104  0.33088943 -0.00101407
   0.31997093  0.65930904 -0.00031584
   0.31610177 -0.00841040  0.00019544
   0.69146712  0.68159034 -0.00036847
  -0.01615279  0.65016258  0.00033618
   0.98744954  0.33906323  0.00031100
  -0.01836566 -0.01347502  0.00048908
   0.68856314 -0.00342833  0.00011633
   0.69168304  0.35809117  0.00002852
   0.11139508  0.22270898  0.95077044
   0.22358375  0.11222963  0.04954459
   0.11408283  0.55774713  0.94802864
   0.22531862  0.44693711  0.04993227
   0.11238993  0.88867679  0.94915271
   0.22472242  0.77767854  0.04992309
   0.44443911  0.22228508  0.95285896
   0.55558924  0.11123069  0.04612103
   0.44260883  0.55501681  0.95210880
   0.55403423  0.44491325  0.04957408
   0.44321553  0.88743778  0.95239498
   0.55306422  0.77475170  0.04956120
   0.77404561  0.22068697  0.94672619
   0.89264977  0.11318768  0.05432045
   0.77820191  0.55677731  0.94357607
   0.88856591  0.44471832  0.05684991
   0.77970718  0.88893502  0.94336054
   0.89363215  0.77850365  0.05541777
unknown system                          
           1
     8.323717    4.849541    0.000000
    -8.283735    4.780400    0.000000
     0.000000    0.000000   30.000000
   V    Mo   W    S 
   3   3   3  18
Direct configuration=    17
   0.32862981  0.33182623 -0.00134642
   0.31638732  0.65756491 -0.00026880
   0.31161336 -0.01044260  0.00038850
   0.69253592  0.68199109 -0.00044610
  -0.01462134  0.65091063  0.00037791
   0.98713639  0.34028897  0.00039074
  -0.01863940 -0.01512159  0.00055031
   0.69044489 -0.00338545  0.00000659
   0.69190697  0.35955629  0.00006161
   0.11116077  0.22278059  0.95124163
   0.22329503  0.11235529  0.04963174
   0.11372045  0.55736519  0.94778076
   0.22504562  0.44661967  0.04982871
   0.11210807  0.88863667  0.94874445
   0.22462162  0.77740915  0.05023747
   0.44459778  0.22191275  0.95307854
   0.55536265  0.11082299  0.04525623
   0.44314736  0.55563602  0.95235448
   0.55436410  0.44549361  0.04961975
   0.44337697  0.88765368  0.95295152
   0.55314617  0.77466830  0.04921048
   0.77401907  0.22082332  0.94687787
   0.89332338  0.11341930  0.05429451
   0.77881778  0.55719999  0.94351280
   0.88849475  0.44495726  0.05696154
   0.78033053  0.88902276  0.94312785
   0.89388843  0.77824943  0.05557524
unknown system                          
           1
     8.322081    4.850447    0.000000
    -8.280829    4.779104    0.000000
     0.000000    0.000000   30.000000
   V    Mo   W    S 
   3   3   3  18
Direct configuration=    18
   0.33055509  0.33232172 -0.00180473
   0.31195017  0.65545464 -0.00017816
   0.30646473 -0.01286639  0.00060947
   0.69437242  0.68274723 -0.00048238
  -0.01283791  0.65209861  0.00039249
   0.98724354  0.34201712  0.00048592
  -0.01863371 -0.01712912  0.00060412
   0.69256019 -0.00349924 -0.00013428
   0.69205347  0.36145806  0.00015252
   0.11085137  0.22279388  0.95177858
   0.22301322  0.11244746  0.04980040
   0.11335447  0.55701660  0.94741788
   0.22478832  0.44635846  0.04978269
   0.11170711  0.88854484  0.94823156
   0.22449929  0.77704690  0.05067339
   0.44459792  0.22120290  0.95334943
   0.55485855  0.11028171  0.04418868
   0.44370891  0.55648868  0.95270664
   0.55480183  0.44626025  0.04965926
   0.44342518  0.88782087  0.95366395
   0.55307314  0.77446248  0.04870901
   0.77408357  0.22110235  0.94705707
   0.89419914  0.11362716  0.05421306
   0.77970696  0.55772901  0.94340263
   0.88836092  0.44528365  0.05709185
   0.78123074  0.88924531  0.94286043
   0.89422584  0.77789930  0.05576840
unknown system                          
           1
     8.328446    4.852232    0.000000
    -8.287648    4.781692    0.000000
     0.000000    0.000000   30.000000
   V    Mo   W    S 
   3   3   3  18
Direct configuration=    19
   0.32855133  0.33091358 -0.00196648
   0.31112643  0.65530808 -0.00005216
   0.30713373 -0.01301874  0.00070656
   0.69543582  0.68304384 -0.00066032
  -0.01300302  0.65243195  0.00035784
   0.98823644  0.34307504  0.00050195
  -0.01757909 -0.01758781  0.00063194
   0.69264335 -0.00342990 -0.00021122
   0.69193150  0.36220600  0.00018023
   0.11055360  0.22265349  0.95181918
   0.22305362  0.11237415  0.04990238
   0.11311735  0.55709777  0.94727403
   0.22477487  0.44636915  0.04988557
   0.11130512  0.88830923  0.94807896
   0.22418710  0.77684108  0.05082726
   0.44406026  0.22052633  0.95343840
   0.55446198  0.11010710  0.04384907
   0.44373616  0.55683919  0.95304511
   0.55490242  0.44672211  0.04955855
   0.44301775  0.88749932  0.95392736
   0.55268668  0.77413199  0.04842360
   0.77433232  0.22150707  0.94723815
   0.89459107  0.11351578  0.05401596
   0.77997620  0.55788469  0.94340052
   0.88842208  0.44557197  0.05703650
   0.78178852  0.88938806  0.94284375
   0.89477088  0.77793392  0.05594718
unknown system                          
           1
     8.336277    4.855928    0.000000
    -8.294876    4.784364    0.000000
     0.000000    0.000000   30.000000
   V    Mo   W    S 
   3   3   3  18
Direct configuration=    20
   0.33074556  0.33205945 -0.00204852
   0.30984230  0.65455806 -0.00006924
   0.30485167 -0.01387757  0.00074006
   0.69541771  0.68302574 -0.00056190
  -0.01222361  0.65273678  0.00038387
   0.98764985  0.34316651  0.00052726
  -0.01820110 -0.01825004  0.00063016
   0.69347695 -0.00339858 -0.00022144
   0.69199197  0.36247974  0.00020366
   0.11059164  0.22274665  0.95202831
   0.22295334  0.11247340  0.04988684
   0.11308398  0.55691510  0.94722372
   0.22465573  0.44621238  0.04979827
   0.11143641  0.88843928  0.94797482
   0.22427153  0.77680643  0.05091672
   0.44434398  0.22061949  0.95347273
   0.55451395  0.11002015  0.04364227
   0.44394748  0.55700607  0.95298221
   0.55501019  0.44677717  0.04965435
   0.44323614  0.88770898  0.95404305
   0.55286496  0.77423666  0.04837492
   0.77421148  0.22141219  0.94721111
   0.89471897  0.11366692  0.05407463
   0.78013699  0.55798600  0.94334928
   0.88831955  0.44553440  0.05709919
   0.78181069  0.88939243  0.94276198
   0.89455614  0.77776066  0.05592160
unknown system                          
           1
     8.336846    4.855708    0.000000
    -8.295395    4.784067    0.000000
     0.000000    0.000000   30.000000
   V    Mo   W    S 
   3   3   3  18
Direct configuration=    21
   0.33228322  0.33261116 -0.00229816
   0.30786367  0.65367968  0.00003905
   0.30308922 -0.01490118  0.00087493
   0.69601336  0.68299432 -0.00061223
  -0.01151251  0.65338046  0.00036868
   0.98767797  0.34408765  0.00054686
  -0.01802832 -0.01940871  0.00063479
   0.69434527 -0.00325470 -0.00030883
   0.69179780  0.36330526  0.00023622
   0.11046461  0.22275849  0.95238271
   0.22285743  0.11250382  0.04990317
   0.11283311  0.55676311  0.94707183
   0.22448328  0.44603244  0.04974773
   0.11125060  0.88838711  0.94775044
   0.22407701  0.77658092  0.05112433
   0.44421365  0.22014790  0.95355768
   0.55423495  0.10979156  0.04314937
   0.44413932  0.55751845  0.95316190
   0.55521183  0.44719361  0.04973377
   0.44308753  0.88761020  0.95439507
   0.55268185  0.77408788  0.04807419
   0.77426570  0.22164041  0.94732576
   0.89521439  0.11375310  0.05397689
   0.78050642  0.55821027  0.94331665
   0.88823573  0.44574691  0.05712473
   0.78223205  0.88944763  0.94267539
   0.89469532  0.77754670  0.05604699
unknown system                          
           1
     8.341561    4.858677    0.000000
    -8.299424    4.785855    0.000000
     0.000000    0.000000   30.000000
   V    Mo   W    S 
   3   3   3  18
Direct configuration=    22
   0.33371853  0.33288163 -0.00258032
   0.30575880  0.65290843  0.00025501
   0.30177495 -0.01598753  0.00103241
   0.69705889  0.68308723 -0.00061776
  -0.01118162  0.65424392  0.00036230
   0.98766735  0.34529985  0.00060311
  -0.01771601 -0.02123563  0.00062761
   0.69565101 -0.00295644 -0.00041394
   0.69158948  0.36440957  0.00032681
   0.11018530  0.22268309  0.95282068
   0.22288334  0.11253476  0.04991445
   0.11236823  0.55667809  0.94685604
   0.22417838  0.44563541  0.04974884
   0.11113156  0.88830167  0.94751848
   0.22356189  0.77627289  0.05143982
   0.44386760  0.21939358  0.95360524
   0.55392002  0.10958931  0.04255755
   0.44434356  0.55824342  0.95342971
   0.55534355  0.44778097  0.04980225
   0.44278433  0.88734183  0.95480184
   0.55235726  0.77387117  0.04760253
   0.77435528  0.22207172  0.94749883
   0.89583627  0.11375452  0.05371168
   0.78091502  0.55844382  0.94320905
   0.88804899  0.44604391  0.05707548
   0.78291290  0.88965753  0.94261701
   0.89489958  0.77726573  0.05619518
unknown system                          
           1
     8.348726    4.861759    0.000000
    -8.306897    4.789482    0.000000
     0.000000    0.000000   30.000000
   V    Mo   W    S 
   3   3   3  18
Direct configuration=    23
   0.33420783  0.33322632 -0.00257637
   0.30584280  0.65289107  0.00023174
   0.30175270 -0.01594978  0.00103563
   0.69676462  0.68292962 -0.00065069
  -0.01107031  0.65418666  0.00034717
   0.98756536  0.34517539  0.00057036
  -0.01774492 -0.02104470  0.00061847
   0.69548691 -0.00294313 -0.00042618
   0.69152295  0.36423197  0.00028645
   0.11025754  0.22271158  0.95284353
   0.22284787  0.11253025  0.04989641
   0.11241544  0.55666109  0.94689713
   0.22418155  0.44565961  0.04972577
   0.11113773  0.88830543  0.94752001
   0.22361484  0.77629856  0.05141410
   0.44394666  0.21948328  0.95358248
   0.55396608  0.10959934  0.04261480
   0.44430416  0.55819543  0.95337552
   0.55531289  0.44770866  0.04984866
   0.44282863  0.88736853  0.95476964
   0.55235987  0.77390196  0.04766201
   0.77430626  0.22199829  0.94746579
   0.89584164  0.11379212  0.05377530
   0.78085357  0.55843202  0.94323211
   0.88805771  0.44603600  0.05712060
   0.78280720  0.88956629  0.94260158
   0.89484687  0.77726260  0.05621788
unknown system                          
           1
     8.347540    4.861390    0.000000
    -8.304826    4.787587    0.000000
     0.000000    0.000000   30.000000
   V    Mo   W    S 
   3   3   3  18
Direct configuration=    24
   0.33623108  0.33413605 -0.00274991
   0.30470516  0.65237921  0.00036411
   0.30109785 -0.01649326  0.00114182
   0.69695947  0.68267762 -0.00065032
  -0.01078876  0.65467557  0.00034493
   0.98735800  0.34577066  0.00058472
  -0.01769426 -0.02205824  0.00060472
   0.69607928 -0.00274398 -0.00049349
   0.69120377  0.36464729  0.00031536
   0.11028464  0.22273288  0.95322000
   0.22282380  0.11256307  0.04983564
   0.11219193  0.55661025  0.94683147
   0.22396979  0.44542117  0.04965532
   0.11108415  0.88824835  0.94740026
   0.22330490  0.77609514  0.05155474
   0.44381417  0.21916237  0.95356267
   0.55385729  0.10950912  0.04234155
   0.44429538  0.55856182  0.95345799
   0.55530843  0.44793635  0.04995204
   0.44268174  0.88718867  0.95497552