   27   27  100    1
  0.9710400E+02  0.1002848E-08  0.1002848E-08  0.3000000E-08  0.5000000E-15
  1.000000000000000E-004
  CAR 
 unknown system                          
    159     34    120
 
  0.0000000E+00  0.0000000E+00  0.0000000E+00  0.1562500E-01
    1      -17.820675   1.000000
    2      -16.622422   1.000000
    3      -16.594327   1.000000
    4      -16.463812   1.000000
    5      -16.459620   1.000000
    6      -16.456398   1.000000
    7      -16.400232   1.000000
    8      -16.314131   1.000000
    9      -16.115741   1.000000
   10      -16.063073   1.000000
   11      -16.006187   1.000000
   12      -15.983519   1.000000
   13      -15.930412   1.000000
   14      -15.877336   1.000000
   15      -15.617706   1.000000
   16      -15.519449   1.000000
   17      -15.455616   1.000000
   18      -15.419771   1.000000
   19       -9.298837   1.000000
   20       -8.896541   1.000000
   21       -8.835477   1.000000
   22       -8.755388   1.000000
   23       -8.675622   1.000000
   24       -8.634409   1.000000
   25       -8.619437   1.000000
   26       -8.519893   1.000000
   27       -8.503644   1.000000
   28       -8.412768   1.000000
   29       -8.380221   1.000000
   30       -8.286714   1.000000
   31       -8.273783   1.000000
   32       -8.198467   1.000000
   33       -8.152852   1.000000
   34       -8.039520   1.000000
   35       -7.924979   1.000000
   36       -7.875125   1.000000
   37       -7.731030   1.000000
   38       -7.618625   1.000000
   39       -7.517192   1.000000
   40       -7.386061   1.000000
   41       -7.353858   1.000000
   42       -7.230806   1.000000
   43       -7.210344   1.000000
   44       -6.850872   1.000000
   45       -6.809437   1.000000
   46       -6.743494   1.000000
   47       -6.706235   1.000000
   48       -6.667991   1.000000
   49       -6.551585   1.000000
   50       -6.505207   1.000000
   51       -6.451769   1.000000
   52       -6.378619   1.000000
   53       -6.315262   1.000000
   54       -6.271161   1.000000
   55       -6.241620   1.000000
   56       -6.132286   1.000000
   57       -6.062421   1.000000
   58       -5.855554   1.000000
   59       -5.626625   1.000000
   60       -5.578308   1.000000
   61       -5.503175   1.000000
   62       -5.438475   1.000000
   63       -5.351795   1.000000
   64       -5.228247   1.000000
   65       -4.943527   1.000000
   66       -4.922353   1.000000
   67       -4.783436   1.000000
   68       -4.718778   1.000000
   69       -4.669232   1.000000
   70       -4.586594   1.000000
   71       -4.542550   1.000000
   72       -4.473207   1.000000
   73       -4.463299   1.000000
   74       -4.292653   1.000000
   75       -4.155863   1.000000
   76       -4.070005   1.000000
   77       -3.534709   0.999833
   78       -3.486953   0.999421
   79       -3.424598   0.997508
   80       -3.090577   0.672261
   81       -3.021531   0.483222
   82       -2.662191   0.004897
   83       -2.584266   0.000862
   84       -2.511866   0.000133
   85       -2.480657   0.000055
   86       -2.459951   0.000030
   87       -2.287251   0.000000
   88       -2.200267   0.000000
   89       -2.067713   0.000000
   90       -2.053020   0.000000
   91       -1.843806   0.000000
   92       -1.780275   0.000000
   93       -1.693460   0.000000
   94       -1.565059   0.000000
   95       -1.363777   0.000000
   96       -1.281779   0.000000
   97       -1.092665   0.000000
   98       -1.050179   0.000000
   99       -0.889021   0.000000
  100       -0.438147   0.000000
  101       -0.370515   0.000000
  102       -0.318102   0.000000
  103       -0.293387   0.000000
  104       -0.214906   0.000000
  105       -0.106630   0.000000
  106        0.113371   0.000000
  107        0.237914   0.000000
  108        0.329454   0.000000
  109        0.376252   0.000000
  110        0.391822   0.000000
  111        0.416767   0.000000
  112        0.698151   0.000000
  113        0.847341   0.000000
  114        0.891588   0.000000
  115        0.939543   0.000000
  116        0.987249   0.000000
  117        1.017650   0.000000
  118        1.681946   0.000000
  119        1.836203   0.000000
  120        2.189137   0.000000
 
  0.1250000E+00  0.2775558E-16  0.0000000E+00  0.3125000E-01
    1      -17.794827   1.000000
    2      -16.716047   1.000000
    3      -16.621697   1.000000
    4      -16.564351   1.000000
    5      -16.516396   1.000000
    6      -16.380376   1.000000
    7      -16.298902   1.000000
    8      -16.252253   1.000000
    9      -16.185457   1.000000
   10      -16.054282   1.000000
   11      -16.006253   1.000000
   12      -15.935935   1.000000
   13      -15.909067   1.000000
   14      -15.810878   1.000000
   15      -15.628959   1.000000
   16      -15.537445   1.000000
   17      -15.475184   1.000000
   18      -15.417813   1.000000
   19       -9.283781   1.000000
   20       -9.106615   1.000000
   21       -8.951110   1.000000
   22       -8.854115   1.000000
   23       -8.762772   1.000000
   24       -8.693865   1.000000
   25       -8.577871   1.000000
   26       -8.518102   1.000000
   27       -8.475796   1.000000
   28       -8.391845   1.000000
   29       -8.355455   1.000000
   30       -8.259614   1.000000
   31       -8.202922   1.000000
   32       -8.114661   1.000000
   33       -8.043901   1.000000
   34       -7.963589   1.000000
   35       -7.826276   1.000000
   36       -7.732319   1.000000
   37       -7.679431   1.000000
   38       -7.604187   1.000000
   39       -7.540008   1.000000
   40       -7.436511   1.000000
   41       -7.279318   1.000000
   42       -7.233057   1.000000
   43       -7.187798   1.000000
   44       -6.912369   1.000000
   45       -6.851048   1.000000
   46       -6.797684   1.000000
   47       -6.753658   1.000000
   48       -6.660684   1.000000
   49       -6.587310   1.000000
   50       -6.464735   1.000000
   51       -6.413093   1.000000
   52       -6.370946   1.000000
   53       -6.332224   1.000000
   54       -6.263547   1.000000
   55       -6.224869   1.000000
   56       -6.176161   1.000000
   57       -6.082526   1.000000
   58       -5.798948   1.000000
   59       -5.685501   1.000000
   60       -5.549804   1.000000
   61       -5.463497   1.000000
   62       -5.367397   1.000000
   63       -5.301388   1.000000
   64       -5.151379   1.000000
   65       -5.102607   1.000000
   66       -5.027934   1.000000
   67       -4.985079   1.000000
   68       -4.874264   1.000000
   69       -4.744551   1.000000
   70       -4.647575   1.000000
   71       -4.554512   1.000000
   72       -4.365520   1.000000
   73       -4.267406   1.000000
   74       -4.211803   1.000000
   75       -4.013383   1.000000
   76       -3.881714   1.000000
   77       -3.711613   0.999999
   78       -3.633470   0.999991
   79       -3.481859   0.999343
   80       -2.965185   0.329790
   81       -2.910116   0.203300
   82       -2.726607   0.016690
   83       -2.598150   0.001199
   84       -2.566071   0.000552
   85       -2.492911   0.000078
   86       -2.405426   0.000005
   87       -2.312195   0.000000
   88       -2.239544   0.000000
   89       -2.095740   0.000000
   90       -2.064670   0.000000
   91       -1.856986   0.000000
   92       -1.752667   0.000000
   93       -1.613857   0.000000
   94       -1.538394   0.000000
   95       -1.349036   0.000000
   96       -1.255331   0.000000
   97       -1.094900   0.000000
   98       -1.013818   0.000000
   99       -0.850747   0.000000
  100       -0.519881   0.000000
  101       -0.437930   0.000000
  102       -0.411021   0.000000
  103       -0.347202   0.000000
  104       -0.209240   0.000000
  105       -0.105182   0.000000
  106       -0.036403   0.000000
  107        0.131346   0.000000
  108        0.241427   0.000000
  109        0.307246   0.000000
  110        0.379025   0.000000
  111        0.470409   0.000000
  112        0.734600   0.000000
  113        0.886705   0.000000
  114        0.957531   0.000000
  115        0.989172   0.000000
  116        1.040841   0.000000
  117        1.093748   0.000000
  118        1.725121   0.000000
  119        1.875458   0.000000
  120        2.224674   0.000000
 
  0.2500000E+00  0.5551115E-16  0.0000000E+00  0.3125000E-01
    1      -17.718874   1.000000
    2      -16.943029   1.000000
    3      -16.666979   1.000000
    4      -16.613825   1.000000
    5      -16.532321   1.000000
    6      -16.325821   1.000000
    7      -16.265090   1.000000
    8      -16.188127   1.000000
    9      -16.176643   1.000000
   10      -16.058162   1.000000
   11      -16.024489   1.000000
   12      -15.872000   1.000000
   13      -15.807125   1.000000
   14      -15.714343   1.000000
   15      -15.653842   1.000000
   16      -15.561542   1.000000
   17      -15.518715   1.000000
   18      -15.430176   1.000000
   19       -9.477474   1.000000
   20       -9.238103   1.000000
   21       -9.065795   1.000000
   22       -8.985919   1.000000
   23       -8.883862   1.000000
   24       -8.788212   1.000000
   25       -8.561172   1.000000
   26       -8.498750   1.000000
   27       -8.440663   1.000000
   28       -8.383379   1.000000
   29       -8.284121   1.000000
   30       -8.209498   1.000000
   31       -8.171525   1.000000
   32       -8.061388   1.000000
   33       -7.897782   1.000000
   34       -7.819303   1.000000
   35       -7.742032   1.000000
   36       -7.661651   1.000000
   37       -7.573430   1.000000
   38       -7.504819   1.000000
   39       -7.390667   1.000000
   40       -7.344375   1.000000
   41       -7.243729   1.000000
   42       -7.184250   1.000000
   43       -7.036509   1.000000
   44       -6.997113   1.000000
   45       -6.900449   1.000000
   46       -6.828464   1.000000
   47       -6.807049   1.000000
   48       -6.718538   1.000000
   49       -6.669455   1.000000
   50       -6.514633   1.000000
   51       -6.436333   1.000000
   52       -6.364475   1.000000
   53       -6.270237   1.000000
   54       -6.221551   1.000000
   55       -6.166389   1.000000
   56       -6.120546   1.000000
   57       -6.060365   1.000000
   58       -5.804158   1.000000
   59       -5.642180   1.000000
   60       -5.583386   1.000000
   61       -5.538733   1.000000
   62       -5.480927   1.000000
   63       -5.363331   1.000000
   64       -5.341590   1.000000
   65       -5.212445   1.000000
   66       -5.142598   1.000000
   67       -5.054673   1.000000
   68       -4.915034   1.000000
   69       -4.716861   1.000000
   70       -4.669958   1.000000
   71       -4.597127   1.000000
   72       -4.264161   1.000000
   73       -4.158053   1.000000
   74       -4.039295   1.000000
   75       -3.987703   1.000000
   76       -3.927112   1.000000
   77       -3.753030   1.000000
   78       -3.595287   0.999970
   79       -3.441030   0.998274
   80       -2.912292   0.207678
   81       -2.841940   0.094766
   82       -2.767098   0.032798
   83       -2.621748   0.002059
   84       -2.603908   0.001372
   85       -2.502862   0.000104
   86       -2.380250   0.000002
   87       -2.358124   0.000001
   88       -2.291929   0.000000
   89       -2.139616   0.000000
   90       -2.081467   0.000000
   91       -1.863872   0.000000
   92       -1.713778   0.000000
   93       -1.559309   0.000000
   94       -1.427853   0.000000
   95       -1.295945   0.000000
   96       -1.188431   0.000000
   97       -1.080210   0.000000
   98       -0.954923   0.000000
   99       -0.773413   0.000000
  100       -0.680535   0.000000
  101       -0.603858   0.000000
  102       -0.521610   0.000000
  103       -0.412960   0.000000
  104       -0.336989   0.000000
  105       -0.265726   0.000000
  106       -0.200716   0.000000
  107       -0.037029   0.000000
  108        0.080402   0.000000
  109        0.188695   0.000000
  110        0.383465   0.000000
  111        0.500198   0.000000
  112        0.702279   0.000000
  113        0.942632   0.000000
  114        1.023071   0.000000
  115        1.149090   0.000000
  116        1.195453   0.000000
  117        1.280343   0.000000
  118        1.847059   0.000000
  119        1.988999   0.000000
  120        2.330380   0.000000
 
  0.3750000E+00  0.0000000E+00  0.0000000E+00  0.3125000E-01
    1      -17.600448   1.000000
    2      -17.168087   1.000000
    3      -16.710937   1.000000
    4      -16.646547   1.000000
    5      -16.498457   1.000000
    6      -16.376098   1.000000
    7      -16.247586   1.000000
    8      -16.161917   1.000000
    9      -16.119720   1.000000
   10      -16.024442   1.000000
   11      -15.994709   1.000000
   12      -15.828388   1.000000
   13      -15.748774   1.000000
   14      -15.706024   1.000000
   15      -15.650419   1.000000
   16      -15.578225   1.000000
   17      -15.524586   1.000000
   18      -15.449705   1.000000
   19       -9.718124   1.000000
   20       -9.308580   1.000000
   21       -9.123341   1.000000
   22       -9.017778   1.000000
   23       -8.906712   1.000000
   24       -8.865036   1.000000
   25       -8.538990   1.000000
   26       -8.496332   1.000000
   27       -8.447306   1.000000
   28       -8.334845   1.000000
   29       -8.286789   1.000000
   30       -8.198770   1.000000
   31       -8.152630   1.000000
   32       -7.987945   1.000000
   33       -7.892608   1.000000
   34       -7.827094   1.000000
   35       -7.657279   1.000000
   36       -7.623052   1.000000
   37       -7.541067   1.000000
   38       -7.450485   1.000000
   39       -7.299948   1.000000
   40       -7.252093   1.000000
   41       -7.204133   1.000000
   42       -7.054066   1.000000
   43       -7.026783   1.000000
   44       -6.911279   1.000000
   45       -6.846423   1.000000
   46       -6.816939   1.000000
   47       -6.745530   1.000000
   48       -6.694061   1.000000
   49       -6.620521   1.000000
   50       -6.549551   1.000000
   51       -6.356144   1.000000
   52       -6.319866   1.000000
   53       -6.259535   1.000000
   54       -6.160445   1.000000
   55       -6.129790   1.000000
   56       -5.992530   1.000000
   57       -5.944492   1.000000
   58       -5.891855   1.000000
   59       -5.832166   1.000000
   60       -5.761307   1.000000
   61       -5.728417   1.000000
   62       -5.673978   1.000000
   63       -5.631825   1.000000
   64       -5.548175   1.000000
   65       -5.196985   1.000000
   66       -5.024645   1.000000
   67       -4.924343   1.000000
   68       -4.831623   1.000000
   69       -4.749921   1.000000
   70       -4.678040   1.000000
   71       -4.638869   1.000000
   72       -4.575638   1.000000
   73       -4.192923   1.000000
   74       -4.062239   1.000000
   75       -3.873637   1.000000
   76       -3.785603   1.000000
   77       -3.635833   0.999992
   78       -3.419166   0.997194
   79       -3.309094   0.976777
   80       -3.016057   0.467810
   81       -2.928507   0.242012
   82       -2.769858   0.034253
   83       -2.617937   0.001890
   84       -2.561256   0.000489
   85       -2.501470   0.000100
   86       -2.442435   0.000018
   87       -2.371905   0.000002
   88       -2.271272   0.000000
   89       -2.156043   0.000000
   90       -2.085406   0.000000
   91       -1.869140   0.000000
   92       -1.690312   0.000000
   93       -1.537187   0.000000
   94       -1.377672   0.000000
   95       -1.232171   0.000000
   96       -1.112308   0.000000
   97       -1.058802   0.000000
   98       -0.924540   0.000000
   99       -0.786607   0.000000
  100       -0.753417   0.000000
  101       -0.672525   0.000000
  102       -0.597044   0.000000
  103       -0.559499   0.000000
  104       -0.471861   0.000000
  105       -0.375425   0.000000
  106       -0.335285   0.000000
  107       -0.232340   0.000000
  108        0.005325   0.000000
  109        0.081161   0.000000
  110        0.367604   0.000000
  111        0.526011   0.000000
  112        0.671319   0.000000
  113        0.975649   0.000000
  114        1.076219   0.000000
  115        1.278452   0.000000
  116        1.339085   0.000000
  117        1.428608   0.000000
  118        2.032748   0.000000
  119        2.167461   0.000000
  120        2.504102   0.000000
 
  0.5000000E+00  0.1110223E-15  0.0000000E+00  0.1562500E-01
    1      -17.500575   1.000000
    2      -17.305272   1.000000
    3      -16.726639   1.000000
    4      -16.658877   1.000000
    5      -16.448448   1.000000
    6      -16.436352   1.000000
    7      -16.243701   1.000000
    8      -16.150259   1.000000
    9      -16.110089   1.000000
   10      -15.994119   1.000000
   11      -15.960021   1.000000
   12      -15.831705   1.000000
   13      -15.749943   1.000000
   14      -15.698896   1.000000
   15      -15.625561   1.000000
   16      -15.607623   1.000000
   17      -15.533425   1.000000
   18      -15.438341   1.000000
   19       -9.804837   1.000000
   20       -9.344292   1.000000
   21       -9.163716   1.000000
   22       -9.032177   1.000000
   23       -8.894821   1.000000
   24       -8.788187   1.000000
   25       -8.662618   1.000000
   26       -8.503373   1.000000
   27       -8.428599   1.000000
   28       -8.315578   1.000000
   29       -8.269448   1.000000
   30       -8.178544   1.000000
   31       -8.124229   1.000000
   32       -7.941456   1.000000
   33       -7.903439   1.000000
   34       -7.846475   1.000000
   35       -7.671363   1.000000
   36       -7.617883   1.000000
   37       -7.576136   1.000000
   38       -7.421149   1.000000
   39       -7.327541   1.000000
   40       -7.270071   1.000000
   41       -7.170341   1.000000
   42       -6.984586   1.000000
   43       -6.917522   1.000000
   44       -6.861321   1.000000
   45       -6.836812   1.000000
   46       -6.761253   1.000000
   47       -6.699317   1.000000
   48       -6.636704   1.000000
   49       -6.524361   1.000000
   50       -6.451775   1.000000
   51       -6.429899   1.000000
   52       -6.407013   1.000000
   53       -6.249891   1.000000
   54       -6.173187   1.000000
   55       -6.096584   1.000000
   56       -6.001761   1.000000
   57       -5.974037   1.000000
   58       -5.880014   1.000000
   59       -5.797099   1.000000
   60       -5.774495   1.000000
   61       -5.764740   1.000000
   62       -5.737387   1.000000
   63       -5.671012   1.000000
   64       -5.595341   1.000000
   65       -5.453466   1.000000
   66       -5.035289   1.000000
   67       -4.900966   1.000000
   68       -4.852783   1.000000
   69       -4.789346   1.000000
   70       -4.669970   1.000000
   71       -4.637285   1.000000
   72       -4.495451   1.000000
   73       -4.347732   1.000000
   74       -4.030182   1.000000
   75       -3.787458   1.000000
   76       -3.713666   0.999999
   77       -3.608840   0.999980
   78       -3.345797   0.987802
   79       -3.205881   0.896433
   80       -3.107200   0.713522
   81       -2.975245   0.355930
   82       -2.746367   0.023419
   83       -2.649810   0.003787
   84       -2.606174   0.001446
   85       -2.501192   0.000099
   86       -2.399908   0.000005
   87       -2.370448   0.000002
   88       -2.267765   0.000000
   89       -2.158641   0.000000
   90       -2.082732   0.000000
   91       -1.870783   0.000000
   92       -1.683472   0.000000
   93       -1.529774   0.000000
   94       -1.369913   0.000000
   95       -1.219145   0.000000
   96       -1.096855   0.000000
   97       -1.038988   0.000000
   98       -0.921240   0.000000
   99       -0.782249   0.000000
  100       -0.771670   0.000000
  101       -0.692579   0.000000
  102       -0.656387   0.000000
  103       -0.589745   0.000000
  104       -0.528161   0.000000
  105       -0.443245   0.000000
  106       -0.340647   0.000000
  107       -0.322877   0.000000
  108       -0.037046   0.000000
  109        0.053722   0.000000
  110        0.359701   0.000000
  111        0.528771   0.000000
  112        0.666394   0.000000
  113        0.987884   0.000000
  114        1.098061   0.000000
  115        1.325029   0.000000
  116        1.392843   0.000000
  117        1.478993   0.000000
  118        2.269929   0.000000
  119        2.273206   0.000000
  120        2.372081   0.000000
 
  0.0000000E+00  0.1250000E+00  0.0000000E+00  0.3125000E-01
    1      -17.794453   1.000000
    2      -16.748254   1.000000
    3      -16.610994   1.000000
    4      -16.555272   1.000000
    5      -16.495073   1.000000
    6      -16.342072   1.000000
    7      -16.313556   1.000000
    8      -16.279774   1.000000
    9      -16.160221   1.000000
   10      -16.103784   1.000000
   11      -16.009619   1.000000
   12      -15.927967   1.000000
   13      -15.862026   1.000000
   14      -15.842883   1.000000
   15      -15.637832   1.000000
   16      -15.534692   1.000000
   17      -15.460245   1.000000
   18      -15.428072   1.000000
   19       -9.289775   1.000000
   20       -9.118233   1.000000
   21       -8.918499   1.000000
   22       -8.855320   1.000000
   23       -8.771985   1.000000
   24       -8.647482   1.000000
   25       -8.624821   1.000000
   26       -8.540995   1.000000
   27       -8.486344   1.000000
   28       -8.399553   1.000000
   29       -8.324226   1.000000
   30       -8.245205   1.000000
   31       -8.166882   1.000000
   32       -8.131943   1.000000
   33       -8.021297   1.000000
   34       -7.974014   1.000000
   35       -7.846124   1.000000
   36       -7.751173   1.000000
   37       -7.714507   1.000000
   38       -7.578628   1.000000
   39       -7.493952   1.000000
   40       -7.465647   1.000000
   41       -7.327138   1.000000
   42       -7.207662   1.000000
   43       -7.152325   1.000000
   44       -6.965018   1.000000
   45       -6.860827   1.000000
   46       -6.799115   1.000000
   47       -6.714257   1.000000
   48       -6.612067   1.000000
   49       -6.538150   1.000000
   50       -6.497109   1.000000
   51       -6.429462   1.000000
   52       -6.384573   1.000000
   53       -6.342669   1.000000
   54       -6.303260   1.000000
   55       -6.229833   1.000000
   56       -6.157341   1.000000
   57       -6.084199   1.000000
   58       -5.827468   1.000000
   59       -5.629406   1.000000
   60       -5.575371   1.000000
   61       -5.506504   1.000000
   62       -5.329149   1.000000
   63       -5.270926   1.000000
   64       -5.170763   1.000000
   65       -5.113097   1.000000
   66       -5.068525   1.000000
   67       -4.969745   1.000000
   68       -4.901277   1.000000
   69       -4.669996   1.000000
   70       -4.639501   1.000000
   71       -4.567733   1.000000
   72       -4.406057   1.000000
   73       -4.283385   1.000000
   74       -4.101013   1.000000
   75       -4.017426   1.000000
   76       -3.951599   1.000000
   77       -3.680860   0.999998
   78       -3.636766   0.999992
   79       -3.517100   0.999732
   80       -2.960970   0.319071
   81       -2.906863   0.196859
   82       -2.701923   0.010667
   83       -2.650429   0.003836
   84       -2.518190   0.000158
   85       -2.494817   0.000083
   86       -2.418000   0.000008
   87       -2.280334   0.000000
   88       -2.218077   0.000000
   89       -2.096313   0.000000
   90       -2.054555   0.000000
   91       -1.855268   0.000000
   92       -1.760149   0.000000
   93       -1.680402   0.000000
   94       -1.520613   0.000000
   95       -1.339143   0.000000
   96       -1.268302   0.000000
   97       -1.088723   0.000000
   98       -1.025612   0.000000
   99       -0.849625   0.000000
  100       -0.516370   0.000000
  101       -0.464735   0.000000
  102       -0.397046   0.000000
  103       -0.339384   0.000000
  104       -0.255371   0.000000
  105       -0.124975   0.000000
  106       -0.008896   0.000000
  107        0.143457   0.000000
  108        0.258102   0.000000
  109        0.328634   0.000000
  110        0.436535   0.000000
  111        0.495737   0.000000
  112        0.696818   0.000000
  113        0.826849   0.000000
  114        0.933420   0.000000
  115        0.986988   0.000000
  116        1.059445   0.000000
  117        1.104689   0.000000
  118        1.724896   0.000000
  119        1.876064   0.000000
  120        2.224379   0.000000
 
  0.1250000E+00  0.1250000E+00  0.0000000E+00  0.3125000E-01
    1      -17.743039   1.000000
    2      -16.872398   1.000000
    3      -16.743669   1.000000
    4      -16.558322   1.000000
    5      -16.453283   1.000000
    6      -16.336010   1.000000
    7      -16.258929   1.000000
    8      -16.219261   1.000000
    9      -16.199231   1.000000
   10      -16.098821   1.000000
   11      -15.984420   1.000000
   12      -15.935401   1.000000
   13      -15.778984   1.000000
   14      -15.765047   1.000000
   15      -15.653097   1.000000
   16      -15.551940   1.000000
   17      -15.506828   1.000000
   18      -15.423766   1.000000
   19       -9.360412   1.000000
   20       -9.288744   1.000000
   21       -9.098921   1.000000
   22       -8.965710   1.000000
   23       -8.752647   1.000000
   24       -8.721246   1.000000
   25       -8.589023   1.000000
   26       -8.515037   1.000000
   27       -8.422966   1.000000
   28       -8.363973   1.000000
   29       -8.290242   1.000000
   30       -8.254529   1.000000
   31       -8.161602   1.000000
   32       -8.078854   1.000000
   33       -7.999842   1.000000
   34       -7.840005   1.000000
   35       -7.743162   1.000000
   36       -7.708440   1.000000
   37       -7.659824   1.000000
   38       -7.451430   1.000000
   39       -7.395780   1.000000
   40       -7.337990   1.000000
   41       -7.249639   1.000000
   42       -7.206878   1.000000
   43       -7.157982   1.000000
   44       -6.977004   1.000000
   45       -6.954372   1.000000
   46       -6.830802   1.000000
   47       -6.756792   1.000000
   48       -6.696063   1.000000
   49       -6.590915   1.000000
   50       -6.509826   1.000000
   51       -6.433871   1.000000
   52       -6.366831   1.000000
   53       -6.275684   1.000000
   54       -6.259386   1.000000
   55       -6.203714   1.000000
   56       -6.158863   1.000000
   57       -6.101445   1.000000
   58       -5.807395   1.000000
   59       -5.683679   1.000000
   60       -5.533405   1.000000
   61       -5.470160   1.000000
   62       -5.393214   1.000000
   63       -5.334256   1.000000
   64       -5.300367   1.000000
   65       -5.158438   1.000000
   66       -5.066609   1.000000
   67       -5.008718   1.000000
   68       -4.943603   1.000000
   69       -4.873853   1.000000
   70       -4.808056   1.000000
   71       -4.353705   1.000000
   72       -4.284263   1.000000
   73       -4.189533   1.000000
   74       -4.043697   1.000000
   75       -3.979927   1.000000
   76       -3.905574   1.000000
   77       -3.784801   1.000000
   78       -3.662228   0.999996
   79       -3.512957   0.999701
   80       -2.900288   0.184225
   81       -2.807472   0.059891
   82       -2.750018   0.024884
   83       -2.652514   0.004008
   84       -2.570464   0.000616
   85       -2.504474   0.000109
   86       -2.397124   0.000004
   87       -2.319294   0.000000
   88       -2.267361   0.000000
   89       -2.098902   0.000000
   90       -2.058120   0.000000
   91       -1.879653   0.000000
   92       -1.718931   0.000000
   93       -1.583887   0.000000
   94       -1.506016   0.000000
   95       -1.316637   0.000000
   96       -1.226093   0.000000
   97       -1.084322   0.000000
   98       -0.980552   0.000000
   99       -0.774206   0.000000
  100       -0.633881   0.000000
  101       -0.556902   0.000000
  102       -0.507168   0.000000
  103       -0.395029   0.000000
  104       -0.346353   0.000000
  105       -0.229041   0.000000
  106       -0.132238   0.000000
  107        0.020376   0.000000
  108        0.160142   0.000000
  109        0.298411   0.000000
  110        0.386826   0.000000
  111        0.521832   0.000000
  112        0.655242   0.000000
  113        0.889174   0.000000
  114        1.007878   0.000000
  115        1.100097   0.000000
  116        1.142948   0.000000
  117        1.215942   0.000000
  118        1.806831   0.000000
  119        1.952870   0.000000
  120        2.294669   0.000000
 
  0.2500000E+00  0.1250000E+00  0.0000000E+00  0.3125000E-01
    1      -17.644204   1.000000
    2      -17.059503   1.000000
    3      -16.861123   1.000000
    4      -16.527134   1.000000
    5      -16.445245   1.000000
    6      -16.335194   1.000000
    7      -16.272679   1.000000
    8      -16.192790   1.000000
    9      -16.139701   1.000000
   10      -16.046445   1.000000
   11      -15.988658   1.000000
   12      -15.899189   1.000000
   13      -15.750772   1.000000
   14      -15.714402   1.000000
   15      -15.627018   1.000000
   16      -15.577487   1.000000
   17      -15.532338   1.000000
   18      -15.432632   1.000000
   19       -9.607248   1.000000
   20       -9.405655   1.000000
   21       -9.181531   1.000000
   22       -9.003256   1.000000
   23       -8.791406   1.000000
   24       -8.728978   1.000000
   25       -8.527660   1.000000
   26       -8.467876   1.000000
   27       -8.420142   1.000000
   28       -8.367729   1.000000
   29       -8.260067   1.000000
   30       -8.242006   1.000000
   31       -8.150566   1.000000
   32       -8.086753   1.000000
   33       -7.988040   1.000000
   34       -7.860149   1.000000
   35       -7.783112   1.000000
   36       -7.505705   1.000000
   37       -7.466458   1.000000
   38       -7.426038   1.000000
   39       -7.340574   1.000000
   40       -7.270218   1.000000
   41       -7.155905   1.000000
   42       -7.120924   1.000000
   43       -7.061987   1.000000
   44       -6.976890   1.000000
   45       -6.827728   1.000000
   46       -6.808473   1.000000
   47       -6.789047   1.000000