       N       E                     dE             d eps       ncg     rms          rms(c)
DAV:   1     0.112397067444E+04    0.11240E+04   -0.35869E+04  8160   0.577E+02
DAV:   2    -0.529122641656E+01   -0.11293E+04   -0.10889E+04 11280   0.173E+02
DAV:   3    -0.199877251290E+03   -0.19459E+03   -0.18725E+03 10880   0.818E+01
DAV:   4    -0.208983380063E+03   -0.91061E+01   -0.88180E+01 12280   0.260E+01
DAV:   5    -0.209289634176E+03   -0.30625E+00   -0.30537E+00 11480   0.346E+00    0.275E+01
DAV:   6    -0.236807426295E+03   -0.27518E+02   -0.11027E+02 12840   0.603E+01    0.594E+01
DAV:   7    -0.196669283173E+03    0.40138E+02   -0.17909E+02 13160   0.152E+02    0.203E+01
DAV:   8    -0.190030516489E+03    0.66388E+01   -0.20784E+01 11880   0.134E+01    0.136E+01
DAV:   9    -0.188239969290E+03    0.17905E+01   -0.30921E+00 11760   0.626E+00    0.918E+00
DAV:  10    -0.187056553414E+03    0.11834E+01   -0.18228E+00 13400   0.773E+00    0.297E+00
DAV:  11    -0.186999348718E+03    0.57205E-01   -0.61010E-01 12520   0.239E+00    0.250E+00
DAV:  12    -0.187083015687E+03   -0.83667E-01   -0.62478E-01 12360   0.423E+00    0.458E+00
DAV:  13    -0.186908957502E+03    0.17406E+00   -0.43837E-01 13040   0.367E+00    0.186E+00
DAV:  14    -0.186897671934E+03    0.11286E-01   -0.12157E-01 13000   0.212E+00    0.181E+00
DAV:  15    -0.186872336086E+03    0.25336E-01   -0.59214E-02 12560   0.150E+00    0.723E-01
DAV:  16    -0.186867854411E+03    0.44817E-02   -0.85074E-03 12520   0.367E-01    0.391E-01
DAV:  17    -0.186866089049E+03    0.17654E-02   -0.71684E-03 12800   0.351E-01    0.222E-01
DAV:  18    -0.186865428118E+03    0.66093E-03   -0.17505E-03 11400   0.125E-01    0.131E-01
DAV:  19    -0.186865304859E+03    0.12326E-03   -0.61031E-04 10240   0.101E-01    0.448E-02
DAV:  20    -0.186866148683E+03   -0.84382E-03   -0.76025E-04  8960   0.504E-02    0.378E-02
DAV:  21    -0.186866837660E+03   -0.68898E-03   -0.19322E-04  8280   0.396E-02    0.339E-02
DAV:  22    -0.186867854882E+03   -0.10172E-02   -0.15912E-04  7520   0.446E-02    0.391E-02
DAV:  23    -0.186869014255E+03   -0.11594E-02   -0.13535E-04  7520   0.476E-02    0.163E-02
DAV:  24    -0.186869588200E+03   -0.57395E-03   -0.28568E-05  6760   0.171E-02    0.445E-03
DAV:  25    -0.186869953085E+03   -0.36488E-03   -0.16871E-05  5560   0.960E-03    0.432E-03
DAV:  26    -0.186870197055E+03   -0.24397E-03   -0.93674E-06  6760   0.718E-03    0.159E-03
DAV:  27    -0.186870286912E+03   -0.89857E-04   -0.32594E-06  7280   0.415E-03
   1 F= -.18687029E+03 E0= -.18669809E+03  d E =-.186870E+03
       N       E                     dE             d eps       ncg     rms          rms(c)
DAV:   1    -0.187505759857E+03   -0.63556E+00   -0.27129E+02  8160   0.350E+01    0.465E+00
DAV:   2    -0.189497792928E+03   -0.19920E+01   -0.20355E+01 12240   0.156E+01    0.968E+00
DAV:   3    -0.189355600308E+03    0.14219E+00   -0.46642E+00 12320   0.124E+01    0.655E+00
DAV:   4    -0.188794747543E+03    0.56085E+00   -0.63701E-01 12400   0.461E+00    0.236E+00
DAV:   5    -0.188868046391E+03   -0.73299E-01   -0.43522E-01 11440   0.356E+00    0.490E+00
DAV:   6    -0.188782961992E+03    0.85084E-01   -0.71978E-01 12600   0.414E+00    0.267E+00
DAV:   7    -0.188700004864E+03    0.82957E-01   -0.24057E-01 11640   0.154E+00    0.116E+00
DAV:   8    -0.188683367373E+03    0.16637E-01   -0.63593E-02 11560   0.896E-01    0.851E-01
DAV:   9    -0.188680436831E+03    0.29305E-02   -0.22978E-02 11520   0.833E-01    0.823E-01
DAV:  10    -0.188675962415E+03    0.44744E-02   -0.88017E-03 11880   0.526E-01    0.312E-01
DAV:  11    -0.188675347614E+03    0.61480E-03   -0.29924E-03 13120   0.240E-01    0.138E-01
DAV:  12    -0.188675185618E+03    0.16200E-03   -0.12194E-03 12040   0.112E-01    0.989E-02
DAV:  13    -0.188675218382E+03   -0.32764E-04   -0.28767E-04  7720   0.668E-02
   2 F= -.18867522E+03 E0= -.18853382E+03  d E =-.180493E+01
       N       E                     dE             d eps       ncg     rms          rms(c)
DAV:   1    -0.190594597757E+03   -0.19194E+01   -0.31162E+01  9120   0.142E+01    0.444E+00
DAV:   2    -0.190559573761E+03    0.35024E-01   -0.28011E+00 11160   0.952E+00    0.733E+00
DAV:   3    -0.190079103526E+03    0.48047E+00   -0.13975E+00 12320   0.859E+00    0.422E+00
DAV:   4    -0.189875019360E+03    0.20408E+00   -0.75861E-01 12680   0.419E+00    0.264E+00
DAV:   5    -0.189913658388E+03   -0.38639E-01   -0.47194E-01 12240   0.401E+00    0.372E+00
DAV:   6    -0.189770979819E+03    0.14268E+00   -0.21282E-01 12280   0.314E+00    0.670E-01
DAV:   7    -0.189764436054E+03    0.65438E-02   -0.16452E-02 12200   0.502E-01    0.234E-01
DAV:   8    -0.189765231115E+03   -0.79506E-03   -0.42557E-03 11720   0.335E-01    0.348E-01
DAV:   9    -0.189764473054E+03    0.75806E-03   -0.23385E-03 10320   0.317E-01    0.161E-01
DAV:  10    -0.189764638898E+03   -0.16584E-03   -0.96231E-04 10040   0.143E-01    0.127E-01
DAV:  11    -0.189764460331E+03    0.17857E-03   -0.44736E-04  8760   0.784E-02    0.175E-02
DAV:  12    -0.189764480432E+03   -0.20101E-04   -0.65862E-05  7360   0.259E-02
   3 F= -.18976448E+03 E0= -.18964432E+03  d E =-.108926E+01
       N       E                     dE             d eps       ncg     rms          rms(c)
DAV:   1    -0.191333817194E+03   -0.15694E+01   -0.76223E+01  8160   0.199E+01    0.461E+00
DAV:   2    -0.191180039239E+03    0.15378E+00   -0.54197E+00 13160   0.793E+00    0.486E+00
DAV:   3    -0.191278605530E+03   -0.98566E-01   -0.16087E+00 12240   0.914E+00    0.647E+00
DAV:   4    -0.190880805007E+03    0.39780E+00   -0.12576E+00 12960   0.730E+00    0.269E+00
DAV:   5    -0.190807779120E+03    0.73026E-01   -0.34345E-01 12240   0.306E+00    0.218E+00
DAV:   6    -0.190771844013E+03    0.35935E-01   -0.17792E-01 12400   0.280E+00    0.154E+00
DAV:   7    -0.190752972679E+03    0.18871E-01   -0.59271E-02 11880   0.142E+00    0.469E-01
DAV:   8    -0.190749899330E+03    0.30733E-02   -0.81526E-03 11200   0.426E-01    0.277E-01
DAV:   9    -0.190749619951E+03    0.27938E-03   -0.24761E-03 10840   0.337E-01    0.221E-01
DAV:  10    -0.190749710559E+03   -0.90608E-04   -0.15521E-03 11280   0.219E-01    0.138E-01
DAV:  11    -0.190749480027E+03    0.23053E-03   -0.89480E-04 10040   0.114E-01    0.476E-02
DAV:  12    -0.190749474383E+03    0.56444E-05   -0.13826E-04  7320   0.440E-02
   4 F= -.19074947E+03 E0= -.19064450E+03  d E =-.984994E+00
       N       E                     dE             d eps       ncg     rms          rms(c)
DAV:   1    -0.192120642230E+03   -0.13712E+01   -0.16523E+02  8160   0.287E+01    0.570E+00
DAV:   2    -0.191853283869E+03    0.26736E+00   -0.95771E+00 11240   0.814E+00    0.380E+00
DAV:   3    -0.191984842389E+03   -0.13156E+00   -0.19959E+00 11880   0.844E+00    0.725E+00
DAV:   4    -0.191747787780E+03    0.23705E+00   -0.24284E+00 11440   0.106E+01    0.452E+00
DAV:   5    -0.191577695199E+03    0.17009E+00   -0.75552E-01 12240   0.571E+00    0.338E+00
DAV:   6    -0.191435818346E+03    0.14188E+00   -0.26994E-01 12320   0.375E+00    0.122E+00
DAV:   7    -0.191428194931E+03    0.76234E-02   -0.74420E-02 12240   0.147E+00    0.865E-01
DAV:   8    -0.191425972010E+03    0.22229E-02   -0.35631E-02 12080   0.125E+00    0.778E-01
DAV:   9    -0.191419262127E+03    0.67099E-02   -0.10639E-02 12400   0.698E-01    0.181E-01
DAV:  10    -0.191419569791E+03   -0.30766E-03   -0.23340E-03 11000   0.178E-01    0.109E-01
DAV:  11    -0.191419417188E+03    0.15260E-03   -0.64860E-04 11120   0.972E-02    0.544E-02
DAV:  12    -0.191419401281E+03    0.15908E-04   -0.10664E-04  7080   0.456E-02
   5 F= -.19141940E+03 E0= -.19131687E+03  d E =-.669927E+00
       N       E                     dE             d eps       ncg     rms          rms(c)
DAV:   1    -0.191488562875E+03   -0.69146E-01   -0.56579E+00  8160   0.501E+00    0.664E-01
DAV:   2    -0.191555991320E+03   -0.67428E-01   -0.30404E-01 13520   0.309E+00    0.232E+00
DAV:   3    -0.191501822445E+03    0.54169E-01   -0.11331E-01 12360   0.236E+00    0.478E-01
DAV:   4    -0.191503589093E+03   -0.17666E-02   -0.17314E-02 11400   0.844E-01    0.674E-01
DAV:   5    -0.191499140060E+03    0.44490E-02   -0.99639E-03 11360   0.664E-01    0.220E-01
DAV:   6    -0.191499018174E+03    0.12189E-03   -0.26461E-03 10600   0.241E-01    0.189E-01
DAV:   7    -0.191499577903E+03   -0.55973E-03   -0.35185E-03 11520   0.391E-01    0.328E-01
DAV:   8    -0.191498514728E+03    0.10632E-02   -0.19148E-03  9560   0.288E-01    0.402E-02
DAV:   9    -0.191498526671E+03   -0.11943E-04   -0.98850E-05  5720   0.408E-02
   6 F= -.19149853E+03 E0= -.19139363E+03  d E =-.791254E-01
       N       E                     dE             d eps       ncg     rms          rms(c)
DAV:   1    -0.191545326804E+03   -0.46812E-01   -0.23350E+00  8160   0.321E+00    0.369E-01
DAV:   2    -0.191561933309E+03   -0.16607E-01   -0.78301E-02 13600   0.135E+00    0.115E+00
DAV:   3    -0.191548543869E+03    0.13389E-01   -0.32210E-02 12280   0.123E+00    0.321E-01
DAV:   4    -0.191549071423E+03   -0.52755E-03   -0.63492E-03 11080   0.497E-01    0.401E-01
DAV:   5    -0.191547516536E+03    0.15549E-02   -0.36556E-03 11040   0.403E-01    0.126E-01
DAV:   6    -0.191547460798E+03    0.55738E-04   -0.80646E-04 10120   0.123E-01
   7 F= -.19154746E+03 E0= -.19144169E+03  d E =-.489341E-01
       N       E                     dE             d eps       ncg     rms          rms(c)
DAV:   1    -0.191507036895E+03    0.40480E-01   -0.14568E+00  8160   0.255E+00    0.325E-01
DAV:   2    -0.191522773467E+03   -0.15737E-01   -0.62069E-02 13560   0.141E+00    0.113E+00
DAV:   3    -0.191508855181E+03    0.13918E-01   -0.23042E-02 11440   0.112E+00    0.229E-01
DAV:   4    -0.191509342767E+03   -0.48759E-03   -0.35914E-03 10080   0.397E-01    0.315E-01
DAV:   5    -0.191508340343E+03    0.10024E-02   -0.21609E-03 10240   0.314E-01    0.989E-02
DAV:   6    -0.191508315738E+03    0.24605E-04   -0.54635E-04 10240   0.107E-01
   8 F= -.19150832E+03 E0= -.19140326E+03  d E =0.391451E-01
       N       E                     dE             d eps       ncg     rms          rms(c)
DAV:   1    -0.191407391549E+03    0.10095E+00   -0.11385E+01  8160   0.715E+00    0.774E-01
DAV:   2    -0.191465935078E+03   -0.58544E-01   -0.33566E-01 12840   0.251E+00    0.199E+00
DAV:   3    -0.191422126680E+03    0.43808E-01   -0.89346E-02 11960   0.219E+00    0.647E-01
DAV:   4    -0.191424427113E+03   -0.23004E-02   -0.23314E-02 11680   0.977E-01    0.835E-01
DAV:   5    -0.191417476468E+03    0.69506E-02   -0.15719E-02 11040   0.873E-01    0.253E-01
DAV:   6    -0.191417571400E+03   -0.94932E-04   -0.37037E-03 10760   0.287E-01    0.195E-01
DAV:   7    -0.191417163575E+03    0.40782E-03   -0.23414E-03 12720   0.291E-01    0.209E-01
DAV:   8    -0.191416762044E+03    0.40153E-03   -0.92119E-04  8680   0.206E-01    0.528E-02
DAV:   9    -0.191416752181E+03    0.98633E-05   -0.10752E-04  5960   0.535E-02
   9 F= -.19141675E+03 E0= -.19131442E+03  d E =0.915636E-01
       N       E                     dE             d eps       ncg     rms          rms(c)
DAV:   1    -0.191433065912E+03   -0.16304E-01   -0.15797E+00  8160   0.270E+00    0.345E-01
DAV:   2    -0.191436816372E+03   -0.37505E-02   -0.56917E-02 11120   0.731E-01    0.454E-01
DAV:   3    -0.191437185474E+03   -0.36910E-03   -0.17021E-02 12280   0.840E-01    0.547E-01
DAV:   4    -0.191434434493E+03    0.27510E-02   -0.69637E-03 11280   0.539E-01    0.228E-01
DAV:   5    -0.191434392408E+03    0.42085E-04   -0.27948E-03  9760   0.384E-01    0.243E-01
DAV:   6    -0.191433806919E+03    0.58549E-03   -0.17546E-03 10440   0.265E-01    0.874E-02
DAV:   7    -0.191433755480E+03    0.51439E-04   -0.49958E-04  9800   0.106E-01
  10 F= -.19143376E+03 E0= -.19133093E+03  d E =-.170033E-01
       N       E                     dE             d eps       ncg     rms          rms(c)
DAV:   1    -0.191485781292E+03   -0.51974E-01   -0.39592E+00  8160   0.423E+00    0.584E-01
DAV:   2    -0.191528467680E+03   -0.42686E-01   -0.17246E-01 13600   0.240E+00    0.201E+00
DAV:   3    -0.191489565699E+03    0.38902E-01   -0.80727E-02 12160   0.201E+00    0.451E-01
DAV:   4    -0.191491047767E+03   -0.14821E-02   -0.14125E-02 10280   0.786E-01    0.606E-01
DAV:   5    -0.191487241432E+03    0.38063E-02   -0.82696E-03 10440   0.618E-01    0.214E-01
DAV:   6    -0.191486807632E+03    0.43380E-03   -0.23067E-03 10920   0.210E-01    0.118E-01
DAV:   7    -0.191486933351E+03   -0.12572E-03   -0.15402E-03 10600   0.228E-01    0.194E-01
DAV:   8    -0.191486572402E+03    0.36095E-03   -0.87897E-04  8560   0.193E-01    0.520E-02
DAV:   9    -0.191486550380E+03    0.22022E-04   -0.82593E-05  5800   0.486E-02
  11 F= -.19148655E+03 E0= -.19138134E+03  d E =-.527949E-01
       N       E                     dE             d eps       ncg     rms          rms(c)
DAV:   1    -0.191526513123E+03   -0.39941E-01   -0.22401E+00  8160   0.315E+00    0.396E-01
DAV:   2    -0.191548175107E+03   -0.21662E-01   -0.91425E-02 13600   0.174E+00    0.133E+00
DAV:   3    -0.191529325311E+03    0.18850E-01   -0.36189E-02 12240   0.138E+00    0.256E-01
DAV:   4    -0.191530165128E+03   -0.83982E-03   -0.52608E-03 11320   0.457E-01    0.400E-01
DAV:   5    -0.191528703126E+03    0.14620E-02   -0.36044E-03 10200   0.401E-01    0.149E-01
DAV:   6    -0.191528531812E+03    0.17131E-03   -0.89305E-04  9840   0.137E-01    0.775E-02
DAV:   7    -0.191528484318E+03    0.47495E-04   -0.42748E-04  9560   0.953E-02
  12 F= -.19152848E+03 E0= -.19142191E+03  d E =-.419339E-01
       N       E                     dE             d eps       ncg     rms          rms(c)
DAV:   1    -0.191392559202E+03    0.13597E+00   -0.18916E+01  8160   0.919E+00    0.113E+00
DAV:   2    -0.191547042224E+03   -0.15448E+00   -0.72891E-01 13600   0.466E+00    0.324E+00
DAV:   3    -0.191415994611E+03    0.13105E+00   -0.20088E-01 12240   0.344E+00    0.605E-01
DAV:   4    -0.191416862393E+03   -0.86778E-03   -0.26687E-02 12240   0.902E-01    0.806E-01
DAV:   5    -0.191412501449E+03    0.43609E-02   -0.23736E-02 11200   0.104E+00    0.560E-01
DAV:   6    -0.191409944035E+03    0.25574E-02   -0.89768E-03 12200   0.551E-01    0.232E-01
DAV:   7    -0.191409098464E+03    0.84557E-03   -0.27949E-03 10760   0.207E-01    0.823E-02
DAV:   8    -0.191409073077E+03    0.25387E-04   -0.60120E-04 10960   0.135E-01
  13 F= -.19140907E+03 E0= -.19130676E+03  d E =0.119411E+00
       N       E                     dE             d eps       ncg     rms          rms(c)
DAV:   1    -0.191378963434E+03    0.30135E-01   -0.19740E+00  8160   0.296E+00    0.323E-01
DAV:   2    -0.191387539666E+03   -0.85762E-02   -0.54412E-02 13600   0.982E-01    0.767E-01
DAV:   3    -0.191381803609E+03    0.57361E-02   -0.17389E-02 12200   0.939E-01    0.362E-01
DAV:   4    -0.191381218101E+03    0.58551E-03   -0.42335E-03 11040   0.402E-01    0.274E-01
DAV:   5    -0.191380624111E+03    0.59399E-03   -0.22820E-03 10120   0.338E-01    0.161E-01
DAV:   6    -0.191380382827E+03    0.24128E-03   -0.85706E-04 10360   0.177E-01    0.774E-02
DAV:   7    -0.191380378571E+03    0.42559E-05   -0.38709E-04  8520   0.100E-01
  14 F= -.19138038E+03 E0= -.19127900E+03  d E =0.286945E-01
       N       E                     dE             d eps       ncg     rms          rms(c)
DAV:   1    -0.191414626056E+03   -0.34243E-01   -0.25563E+00  8160   0.337E+00    0.374E-01
DAV:   2    -0.191429631515E+03   -0.15005E-01   -0.89046E-02 13280   0.119E+00    0.990E-01
DAV:   3    -0.191419770312E+03    0.98612E-02   -0.29813E-02 12000   0.119E+00    0.394E-01
DAV:   4    -0.191419189686E+03    0.58063E-03   -0.60484E-03 10920   0.471E-01    0.342E-01
DAV:   5    -0.191418148226E+03    0.10415E-02   -0.31699E-03 11120   0.382E-01    0.160E-01
DAV:   6    -0.191417948890E+03    0.19934E-03   -0.10304E-03 10200   0.159E-01    0.937E-02
DAV:   7    -0.191417981994E+03   -0.33104E-04   -0.72543E-04 10760   0.140E-01
  15 F= -.19141798E+03 E0= -.19131433E+03  d E =-.376034E-01
       N       E                     dE             d eps       ncg     rms          rms(c)
DAV:   1    -0.191435062818E+03   -0.17114E-01   -0.52418E-01  8160   0.155E+00    0.225E-01
DAV:   2    -0.191441184716E+03   -0.61219E-02   -0.24705E-02 13560   0.902E-01    0.760E-01
DAV:   3    -0.191435491731E+03    0.56930E-02   -0.11419E-02 11720   0.765E-01    0.180E-01
DAV:   4    -0.191435644119E+03   -0.15239E-03   -0.18855E-03 10080   0.291E-01    0.214E-01
DAV:   5    -0.191435200748E+03    0.44337E-03   -0.11702E-03  9640   0.239E-01    0.949E-02
DAV:   6    -0.191435110416E+03    0.90332E-04   -0.33502E-04  6920   0.889E-02
  16 F= -.19143511E+03 E0= -.19133073E+03  d E =-.171284E-01
       N       E                     dE             d eps       ncg     rms          rms(c)
DAV:   1    -0.191484897843E+03   -0.49697E-01   -0.38105E+00  8160   0.414E+00    0.565E-01
DAV:   2    -0.191525504257E+03   -0.40606E-01   -0.17032E-01 13600   0.241E+00    0.188E+00
DAV:   3    -0.191488900682E+03    0.36604E-01   -0.72969E-02 12240   0.193E+00    0.376E-01
DAV:   4    -0.191490931248E+03   -0.20306E-02   -0.12943E-02 10480   0.716E-01    0.626E-01
DAV:   5    -0.191487299417E+03    0.36318E-02   -0.92280E-03 10880   0.626E-01    0.224E-01
DAV:   6    -0.191486882801E+03    0.41662E-03   -0.23320E-03 11120   0.224E-01    0.136E-01
DAV:   7    -0.191487252877E+03   -0.37008E-03   -0.21522E-03 10840   0.295E-01    0.260E-01
DAV:   8    -0.191486589298E+03    0.66358E-03   -0.12172E-03  8600   0.231E-01    0.390E-02
DAV:   9    -0.191486592792E+03   -0.34943E-05   -0.79985E-05  5680   0.390E-02
  17 F= -.19148659E+03 E0= -.19137964E+03  d E =-.514824E-01
       N       E                     dE             d eps       ncg     rms          rms(c)
DAV:   1    -0.191502659905E+03   -0.16071E-01   -0.35627E-01  8160   0.125E+00    0.135E-01
DAV:   2    -0.191504581544E+03   -0.19216E-02   -0.10484E-02 13400   0.454E-01    0.382E-01
DAV:   3    -0.191503154638E+03    0.14269E-02   -0.37083E-03 11440   0.421E-01    0.132E-01
DAV:   4    -0.191503218255E+03   -0.63617E-04   -0.84901E-04  8360   0.182E-01
  18 F= -.19150322E+03 E0= -.19139605E+03  d E =-.166255E-01
       N       E                     dE             d eps       ncg     rms          rms(c)
DAV:   1    -0.191308197541E+03    0.19496E+00   -0.44844E+01  8160   0.141E+01    0.149E+00
DAV:   2    -0.191536186434E+03   -0.22799E+00   -0.13024E+00 13560   0.494E+00    0.366E+00
DAV:   3    -0.191367581877E+03    0.16860E+00   -0.31378E-01 12160   0.422E+00    0.107E+00
DAV:   4    -0.191363227538E+03    0.43543E-02   -0.53093E-02 12240   0.131E+00    0.101E+00
DAV:   5    -0.191358095846E+03    0.51317E-02   -0.45142E-02 11280   0.142E+00    0.842E-01
DAV:   6    -0.191352344891E+03    0.57510E-02   -0.18530E-02 12160   0.842E-01    0.347E-01
DAV:   7    -0.191350939995E+03    0.14049E-02   -0.68508E-03 12200   0.381E-01    0.243E-01
DAV:   8    -0.191350678204E+03    0.26179E-03   -0.29650E-03 11920   0.367E-01    0.229E-01
DAV:   9    -0.191350169825E+03    0.50838E-03   -0.99216E-04  9480   0.208E-01    0.513E-02
DAV:  10    -0.191350145536E+03    0.24289E-04   -0.18666E-04  6880   0.522E-02
  19 F= -.19135015E+03 E0= -.19124791E+03  d E =0.153073E+00
       N       E                     dE             d eps       ncg     rms          rms(c)
DAV:   1    -0.191351266009E+03   -0.10962E-02   -0.15471E+00  8160   0.265E+00    0.325E-01
DAV:   2    -0.191355536406E+03   -0.42704E-02   -0.46308E-02 12640   0.883E-01    0.581E-01
DAV:   3    -0.191353308431E+03    0.22280E-02   -0.13169E-02 12320   0.803E-01    0.417E-01
DAV:   4    -0.191351949838E+03    0.13586E-02   -0.47135E-03 11200   0.456E-01    0.227E-01
DAV:   5    -0.191351936797E+03    0.13041E-04   -0.27837E-03 10120   0.372E-01    0.250E-01
DAV:   6    -0.191351324080E+03    0.61272E-03   -0.16243E-03 10800   0.280E-01    0.839E-02
DAV:   7    -0.191351277624E+03    0.46456E-04   -0.42456E-04  9000   0.107E-01
  20 F= -.19135128E+03 E0= -.19124878E+03  d E =-.113209E-02
       N       E                     dE             d eps       ncg     rms          rms(c)
DAV:   1    -0.191332151310E+03    0.19173E-01   -0.54167E+00  8160   0.490E+00    0.532E-01
DAV:   2    -0.191348783337E+03   -0.16632E-01   -0.13729E-01 13120   0.142E+00    0.108E+00
DAV:   3    -0.191340362770E+03    0.84206E-02   -0.42110E-02 12320   0.144E+00    0.687E-01
DAV:   4    -0.191336105368E+03    0.42574E-02   -0.10039E-02 11320   0.618E-01    0.267E-01
DAV:   5    -0.191335762873E+03    0.34249E-03   -0.43582E-03 12080   0.443E-01    0.291E-01
DAV:   6    -0.191335296207E+03    0.46667E-03   -0.36233E-03 11360   0.437E-01    0.203E-01
DAV:   7    -0.191334893193E+03    0.40301E-03   -0.13895E-03 10120   0.228E-01    0.107E-01
DAV:   8    -0.191334848905E+03    0.44289E-04   -0.52064E-04  9000   0.161E-01
  21 F= -.19133485E+03 E0= -.19123259E+03  d E =0.164287E-01
       N       E                     dE             d eps       ncg     rms          rms(c)
DAV:   1    -0.191358662605E+03   -0.23769E-01   -0.30692E+00  8160   0.370E+00    0.429E-01
DAV:   2    -0.191376605038E+03   -0.17942E-01   -0.10627E-01 13440   0.143E+00    0.108E+00
DAV:   3    -0.191364257971E+03    0.12347E-01   -0.34636E-02 12080   0.134E+00    0.426E-01
DAV:   4    -0.191363341245E+03    0.91673E-03   -0.67513E-03 11040   0.495E-01    0.340E-01
DAV:   5    -0.191362581328E+03    0.75992E-03   -0.40663E-03 10400   0.442E-01    0.244E-01
DAV:   6    -0.191361941458E+03    0.63987E-03   -0.15150E-03  9880   0.222E-01    0.786E-02
DAV:   7    -0.191362015593E+03   -0.74135E-04   -0.60329E-04 10600   0.125E-01
  22 F= -.19136202E+03 E0= -.19125789E+03  d E =-.271667E-01
       N       E                     dE             d eps       ncg     rms          rms(c)
DAV:   1    -0.191375508451E+03   -0.13567E-01   -0.80898E-01  8160   0.192E+00    0.272E-01
DAV:   2    -0.191382970100E+03   -0.74616E-02   -0.36459E-02 13480   0.105E+00    0.792E-01
DAV:   3    -0.191376490280E+03    0.64798E-02   -0.14115E-02 11920   0.866E-01    0.223E-01
DAV:   4    -0.191376608788E+03   -0.11851E-03   -0.30464E-03 10520   0.350E-01    0.269E-01
DAV:   5    -0.191376035317E+03    0.57347E-03   -0.21586E-03  9640   0.316E-01    0.141E-01
DAV:   6    -0.191375786472E+03    0.24885E-03   -0.59795E-04  8640   0.129E-01    0.452E-02
DAV:   7    -0.191375902645E+03   -0.11617E-03   -0.36964E-04  8240   0.129E-01    0.117E-01
DAV:   8    -0.191375760879E+03    0.14177E-03   -0.24163E-04  6600   0.117E-01    0.194E-02
DAV:   9    -0.191375767456E+03   -0.65773E-05   -0.27232E-05  5800   0.233E-02
  23 F= -.19137577E+03 E0= -.19127041E+03  d E =-.137519E-01
       N       E                     dE             d eps       ncg     rms          rms(c)
DAV:   1    -0.191407808548E+03   -0.32048E-01   -0.57951E+00  8160   0.509E+00    0.625E-01
DAV:   2    -0.191455059119E+03   -0.47251E-01   -0.22192E-01 13600   0.242E+00    0.200E+00
DAV:   3    -0.191417849360E+03    0.37210E-01   -0.94071E-02 12240   0.214E+00    0.611E-01
DAV:   4    -0.191416890568E+03    0.95879E-03   -0.17530E-02 11400   0.824E-01    0.566E-01
DAV:   5    -0.191414069971E+03    0.28206E-02   -0.94142E-03 11600   0.662E-01    0.285E-01
DAV:   6    -0.191413097179E+03    0.97279E-03   -0.29564E-03 11880   0.285E-01    0.143E-01
DAV:   7    -0.191414242636E+03   -0.11455E-02   -0.33242E-03 11880   0.402E-01    0.367E-01
DAV:   8    -0.191412887670E+03    0.13550E-02   -0.20752E-03  9760   0.314E-01    0.289E-02
DAV:   9    -0.191412922408E+03   -0.34738E-04   -0.79426E-05  5680   0.339E-02
  24 F= -.19141292E+03 E0= -.19130512E+03  d E =-.371550E-01
       N       E                     dE             d eps       ncg     rms          rms(c)
DAV:   1    -0.191401261827E+03    0.11626E-01   -0.55768E-01  8160   0.158E+00    0.187E-01
DAV:   2    -0.191405164479E+03   -0.39027E-02   -0.19851E-02 13520   0.693E-01    0.537E-01
DAV:   3    -0.191402102217E+03    0.30623E-02   -0.67956E-03 11360   0.597E-01    0.177E-01
DAV:   4    -0.191402036296E+03    0.65922E-04   -0.14513E-03  9520   0.235E-01    0.167E-01
DAV:   5    -0.191401818677E+03    0.21762E-03   -0.84222E-04  9200   0.199E-01    0.905E-02
DAV:   6    -0.191401710964E+03    0.10771E-03   -0.23062E-04  6080   0.865E-02    0.306E-02
DAV:   7    -0.191401782506E+03   -0.71542E-04   -0.21277E-04  7400   0.930E-02
  25 F= -.19140178E+03 E0= -.19129470E+03  d E =0.111399E-01
       N       E                     dE             d eps       ncg     rms          rms(c)
DAV:   1    -0.191409841166E+03   -0.81302E-02   -0.29428E-01  8160   0.115E+00    0.155E-01
DAV:   2    -0.191412780027E+03   -0.29389E-02   -0.11750E-02 13600   0.602E-01    0.535E-01
DAV:   3    -0.191410037449E+03    0.27426E-02   -0.56558E-03 11480   0.523E-01    0.122E-01
DAV:   4    -0.191410051596E+03   -0.14147E-04   -0.75881E-04  9040   0.183E-01
  26 F= -.19141005E+03 E0= -.19130264E+03  d E =-.826909E-02
       N       E                     dE             d eps       ncg     rms          rms(c)
DAV:   1    -0.191402151205E+03    0.78862E-02   -0.26714E-01  8160   0.111E+00    0.131E-01
DAV:   2    -0.191404771731E+03   -0.26205E-02   -0.97337E-03 13600   0.515E-01    0.452E-01
DAV:   3    -0.191402401709E+03    0.23700E-02   -0.37792E-03 11080   0.458E-01    0.828E-02
DAV:   4    -0.191402556768E+03   -0.15506E-03   -0.58166E-04  8200   0.154E-01    0.134E-01
DAV:   5    -0.191402376410E+03    0.18036E-03   -0.35335E-04  7760   0.131E-01    0.313E-02
DAV:   6    -0.191402382254E+03   -0.58442E-05   -0.49572E-05  5920   0.371E-02
  27 F= -.19140238E+03 E0= -.19129504E+03  d E =0.766934E-02
       N       E                     dE             d eps       ncg     rms          rms(c)
DAV:   1    -0.191402656476E+03   -0.28007E-03   -0.32376E-01  8160   0.124E+00    0.191E-01
DAV:   2    -0.191404861787E+03   -0.22053E-02   -0.16673E-02 11840   0.609E-01    0.459E-01
DAV:   3    -0.191403033890E+03    0.18279E-02   -0.63196E-03 11440   0.533E-01    0.201E-01
DAV:   4    -0.191402847984E+03    0.18591E-03   -0.15768E-03  9560   0.265E-01    0.167E-01
DAV:   5    -0.191402692385E+03    0.15560E-03   -0.10407E-03  9640   0.236E-01    0.129E-01
DAV:   6    -0.191402516569E+03    0.17582E-03   -0.46937E-04  8080   0.129E-01    0.368E-02
DAV:   7    -0.191402501617E+03    0.14952E-04   -0.12160E-04  6560   0.415E-02
  28 F= -.19140250E+03 E0= -.19129503E+03  d E =-.119362E-03
       N       E                     dE             d eps       ncg     rms          rms(c)
DAV:   1    -0.191422020979E+03   -0.19504E-01   -0.16538E+00  8160   0.275E+00    0.363E-01
DAV:   2    -0.191433310709E+03   -0.11290E-01   -0.60756E-02 13600   0.130E+00    0.995E-01
DAV:   3    -0.191423443915E+03    0.98668E-02   -0.23218E-02 12120   0.109E+00    0.306E-01
DAV:   4    -0.191423765190E+03   -0.32127E-03   -0.55463E-03 10960   0.482E-01    0.380E-01
DAV:   5    -0.191422576017E+03    0.11892E-02   -0.40877E-03 10200   0.441E-01    0.197E-01
DAV:   6    -0.191422099206E+03    0.47681E-03   -0.13126E-03  9560   0.189E-01    0.641E-02
DAV:   7    -0.191422225909E+03   -0.12670E-03   -0.60858E-04  9440   0.153E-01    0.136E-01
DAV:   8    -0.191422045157E+03    0.18075E-03   -0.39733E-04  7720   0.137E-01    0.333E-02
DAV:   9    -0.191422040763E+03    0.43937E-05   -0.40983E-05  5440   0.338E-02
  29 F= -.19142204E+03 E0= -.19131378E+03  d E =-.195391E-01
       N       E                     dE             d eps       ncg     rms          rms(c)
DAV:   1    -0.191439461040E+03   -0.17416E-01   -0.12151E+00  8160   0.234E+00    0.293E-01
DAV:   2    -0.191449526398E+03   -0.10065E-01   -0.47132E-02 13600   0.112E+00    0.941E-01
DAV:   3    -0.191441275917E+03    0.82505E-02   -0.19371E-02 11960   0.971E-01    0.271E-01
DAV:   4    -0.191441205961E+03    0.69956E-04   -0.34714E-03 11080   0.370E-01    0.260E-01
DAV:   5    -0.191440606879E+03    0.59908E-03   -0.20775E-03 10320   0.315E-01    0.137E-01
DAV:   6    -0.191440429563E+03    0.17732E-03   -0.75406E-04  9400   0.153E-01    0.844E-02
DAV:   7    -0.191440610650E+03   -0.18109E-03   -0.77056E-04  9280   0.193E-01    0.159E-01
DAV:   8    -0.191440350909E+03    0.25974E-03   -0.44002E-04  7880   0.142E-01    0.194E-02
DAV:   9    -0.191440362306E+03   -0.11397E-04   -0.37494E-05  5480   0.244E-02
  30 F= -.19144036E+03 E0= -.19133144E+03  d E =-.183215E-01
       N       E                     dE             d eps       ncg     rms          rms(c)
DAV:   1    -0.191380819745E+03    0.59531E-01   -0.10728E+01  8160   0.693E+00    0.827E-01
DAV:   2    -0.191458089504E+03   -0.77270E-01   -0.37893E-01 13320   0.301E+00    0.248E+00
DAV:   3    -0.191397461932E+03    0.60628E-01   -0.14140E-01 12280   0.262E+00    0.793E-01
DAV:   4    -0.191395633942E+03    0.18280E-02   -0.25809E-02 10400   0.104E+00    0.717E-01
DAV:   5    -0.191390991663E+03    0.46423E-02   -0.15180E-02 12160   0.879E-01    0.367E-01
DAV:   6    -0.191389272730E+03    0.17189E-02   -0.51032E-03 11920   0.382E-01    0.136E-01
DAV:   7    -0.191389139342E+03    0.13339E-03   -0.14846E-03 11480   0.134E-01    0.702E-02
DAV:   8    -0.191389037663E+03    0.10168E-03   -0.29520E-04  8840   0.711E-02    0.365E-02
DAV:   9    -0.191389066148E+03   -0.28485E-04   -0.14279E-04  6800   0.844E-02
  31 F= -.19138907E+03 E0= -.19128217E+03  d E =0.512962E-01
       N       E                     dE             d eps       ncg     rms          rms(c)
DAV:   1    -0.191347834640E+03    0.41203E-01   -0.96793E+00  8160   0.658E+00    0.783E-01
DAV:   2    -0.191420694461E+03   -0.72860E-01   -0.33037E-01 13400   0.288E+00    0.250E+00
DAV:   3    -0.191361211105E+03    0.59483E-01   -0.13849E-01 12240   0.257E+00    0.725E-01
DAV:   4    -0.191360108441E+03    0.11027E-02   -0.22218E-02 10600   0.972E-01    0.679E-01
DAV:   5    -0.191355672958E+03    0.44355E-02   -0.13013E-02 12480   0.828E-01    0.328E-01
DAV:   6    -0.191354368189E+03    0.13048E-02   -0.39514E-03 11800   0.344E-01    0.130E-01
DAV:   7    -0.191354238692E+03    0.12950E-03   -0.12747E-03 11360   0.131E-01    0.716E-02
DAV:   8    -0.191354188759E+03    0.49933E-04   -0.35141E-04  9280   0.112E-01
  32 F= -.19135419E+03 E0= -.19124932E+03  d E =0.348774E-01
       N       E                     dE             d eps       ncg     rms          rms(c)
DAV:   1    -0.191355537019E+03   -0.12983E-02   -0.14193E-01  8160   0.805E-01    0.129E-01
DAV:   2    -0.191358069856E+03   -0.25328E-02   -0.76737E-03 13360   0.543E-01    0.506E-01
DAV:   3    -0.191355540374E+03    0.25295E-02   -0.41102E-03 11240   0.475E-01    0.780E-02
DAV:   4    -0.191355555392E+03   -0.15018E-04   -0.34872E-04  8400   0.102E-01
  33 F= -.19135556E+03 E0= -.19125057E+03  d E =-.136663E-02
       N       E                     dE             d eps       ncg     rms          rms(c)
DAV:   1    -0.191371248603E+03   -0.15708E-01   -0.18095E+00  8160   0.286E+00    0.371E-01
DAV:   2    -0.191388370560E+03   -0.17122E-01   -0.75356E-02 13600   0.139E+00    0.128E+00
DAV:   3    -0.191374060522E+03    0.14310E-01   -0.35223E-02 11680   0.127E+00    0.344E-01
DAV:   4    -0.191373429171E+03    0.63135E-03   -0.51453E-03 11280   0.420E-01    0.268E-01
DAV:   5    -0.191372889969E+03    0.53920E-03   -0.29035E-03 11400   0.379E-01    0.201E-01
DAV:   6    -0.191372433998E+03    0.45597E-03   -0.12600E-03  9680   0.212E-01    0.815E-02
DAV:   7    -0.191372742267E+03   -0.30827E-03   -0.88870E-04  9560   0.210E-01    0.192E-01
DAV:   8    -0.191372364761E+03    0.37751E-03   -0.56363E-04  8560   0.173E-01    0.259E-02
DAV:   9    -0.191372375194E+03   -0.10433E-04   -0.43957E-05  5760   0.291E-02
  34 F= -.19137238E+03 E0= -.19126612E+03  d E =-.168198E-01
       N       E                     dE             d eps       ncg     rms          rms(c)
DAV:   1    -0.191386611020E+03   -0.14246E-01   -0.16893E+00  8160   0.275E+00    0.322E-01
DAV:   2    -0.191398683657E+03   -0.12073E-01   -0.56897E-02 13600   0.113E+00    0.103E+00
DAV:   3    -0.191389062626E+03    0.96210E-02   -0.23954E-02 12160   0.106E+00    0.304E-01
DAV:   4    -0.191388653370E+03    0.40926E-03   -0.35574E-03 11120   0.329E-01    0.228E-01
DAV:   5    -0.191388286931E+03    0.36644E-03   -0.21343E-03 10680   0.319E-01    0.176E-01
DAV:   6    -0.191388051938E+03    0.23499E-03   -0.10400E-03 10400   0.208E-01    0.109E-01
DAV:   7    -0.191388225625E+03   -0.17369E-03   -0.82255E-04  9120   0.213E-01    0.164E-01
DAV:   8    -0.191387934990E+03    0.29063E-03   -0.42716E-04  8360   0.152E-01    0.201E-02
DAV:   9    -0.191387946955E+03   -0.11966E-04   -0.37204E-05  5960   0.253E-02
  35 F= -.19138795E+03 E0= -.19128102E+03  d E =-.155718E-01
       N       E                     dE             d eps       ncg     rms          rms(c)
DAV:   1    -0.191381976323E+03    0.59587E-02   -0.76076E-01  8160   0.184E+00    0.209E-01
DAV:   2    -0.191387550461E+03   -0.55741E-02   -0.23011E-02 13560   0.785E-01    0.721E-01
DAV:   3    -0.191382683025E+03    0.48674E-02   -0.10143E-02 11520   0.705E-01    0.164E-01
DAV:   4    -0.191382610237E+03    0.72788E-04   -0.11016E-03  9920   0.182E-01    0.136E-01
DAV:   5    -0.191382506077E+03    0.10416E-03   -0.82736E-04  9840   0.202E-01    0.119E-01
DAV:   6    -0.191382413773E+03    0.92304E-04   -0.45739E-04  8080   0.146E-01
  36 F= -.19138241E+03 E0= -.19127584E+03  d E =0.553318E-02
       N       E                     dE             d eps       ncg     rms          rms(c)
DAV:   1    -0.191379892860E+03    0.26132E-02   -0.36878E-01  8160   0.129E+00    0.170E-01
DAV:   2    -0.191384161337E+03   -0.42685E-02   -0.14132E-02 13480   0.665E-01    0.635E-01
DAV:   3    -0.191380163298E+03    0.39980E-02   -0.71431E-03 11400   0.606E-01    0.126E-01
DAV:   4    -0.191380364925E+03   -0.20163E-03   -0.10366E-03  9600   0.217E-01    0.171E-01
DAV:   5    -0.191380036124E+03    0.32880E-03   -0.54682E-04  8560   0.170E-01    0.377E-02
DAV:   6    -0.191380086879E+03   -0.50756E-04   -0.13312E-04  6600   0.735E-02
  37 F= -.19138009E+03 E0= -.19127377E+03  d E =0.232689E-02
       N       E                     dE             d eps       ncg     rms          rms(c)
DAV:   1    -0.191379809218E+03    0.22691E-03   -0.37700E-03  8160   0.161E-01    0.567E-02
DAV:   2    -0.191380719643E+03   -0.91043E-03   -0.17317E-03 11080   0.304E-01    0.306E-01
DAV:   3    -0.191379757010E+03    0.96263E-03   -0.12374E-03  9200   0.264E-01    0.234E-02
DAV:   4    -0.191379782265E+03   -0.25255E-04   -0.29935E-05  5720   0.268E-02
  38 F= -.19137978E+03 E0= -.19127340E+03  d E =0.304614E-03
       N       E                     dE             d eps       ncg     rms          rms(c)
DAV:   1    -0.191361627092E+03    0.18130E-01   -0.25777E+00  8160   0.339E+00    0.422E-01
DAV:   2    -0.191385427861E+03   -0.23801E-01   -0.88333E-02 13560   0.162E+00    0.144E+00
DAV:   3    -0.191363874035E+03    0.21554E-01   -0.38699E-02 11720   0.142E+00    0.332E-01
DAV:   4    -0.191363878885E+03   -0.48503E-05   -0.56630E-03 10920   0.455E-01    0.336E-01
DAV:   5    -0.191362947027E+03    0.93186E-03   -0.35111E-03 11560   0.429E-01    0.202E-01
DAV:   6    -0.191362604097E+03    0.34293E-03   -0.15499E-03  9840   0.247E-01    0.144E-01
DAV:   7    -0.191362746247E+03   -0.14215E-03   -0.12888E-03 10000   0.253E-01    0.178E-01
DAV:   8    -0.191362410562E+03    0.33568E-03   -0.51037E-04  8280   0.158E-01    0.249E-02
DAV:   9    -0.191362417099E+03   -0.65362E-05   -0.41600E-05  6080   0.274E-02
  39 F= -.19136242E+03 E0= -.19125660E+03  d E =0.173652E-01
       N       E                     dE             d eps       ncg     rms          rms(c)
DAV:   1    -0.191359161192E+03    0.32494E-02   -0.36654E-01  8160   0.132E+00    0.204E-01
DAV:   2    -0.191361407998E+03   -0.22468E-02   -0.15209E-02 12680   0.618E-01    0.511E-01
DAV:   3    -0.191359168764E+03    0.22392E-02   -0.70735E-03 11640   0.578E-01    0.205E-01
DAV:   4    -0.191358904726E+03    0.26404E-03   -0.14937E-03 10040   0.257E-01    0.155E-01
DAV:   5    -0.191358847345E+03    0.57381E-04   -0.11336E-03 10400   0.252E-01    0.148E-01
DAV:   6    -0.191358566450E+03    0.28090E-03   -0.54617E-04  7920   0.146E-01    0.351E-02
DAV:   7    -0.191358605733E+03   -0.39283E-04   -0.16084E-04  5800   0.825E-02
  40 F= -.19135861E+03 E0= -.19125233E+03  d E =0.381137E-02
       N       E                     dE             d eps       ncg     rms          rms(c)
DAV:   1    -0.191332267377E+03    0.26299E-01   -0.82761E+00  8160   0.607E+00    0.759E-01
DAV:   2    -0.191406584395E+03   -0.74317E-01   -0.27879E-01 13480   0.296E+00    0.246E+00
DAV:   3    -0.191338888578E+03    0.67696E-01   -0.11134E-01 11480   0.247E+00    0.576E-01
DAV:   4    -0.191340011534E+03   -0.11230E-02   -0.19012E-02 10720   0.888E-01    0.695E-01
DAV:   5    -0.191335973829E+03    0.40377E-02   -0.13311E-02 11080   0.819E-01    0.364E-01
DAV:   6    -0.191335395342E+03    0.57849E-03   -0.56279E-03 11720   0.495E-01    0.341E-01
DAV:   7    -0.191334869070E+03    0.52627E-03   -0.41477E-03 10320   0.453E-01    0.230E-01
DAV:   8    -0.191334254538E+03    0.61453E-03   -0.10801E-03  9640   0.204E-01    0.420E-02
DAV:   9    -0.191334241819E+03    0.12718E-04   -0.11126E-04  6480   0.436E-02
  41 F= -.19133424E+03 E0= -.19122817E+03  d E =0.243639E-01
       N       E                     dE             d eps       ncg     rms          rms(c)
DAV:   1    -0.191358250602E+03   -0.23996E-01   -0.63611E+00  8160   0.532E+00    0.735E-01
DAV:   2    -0.191460856699E+03   -0.10261E+00   -0.28662E-01 12880   0.316E+00    0.348E+00
DAV:   3    -0.191363878087E+03    0.96979E-01   -0.22584E-01 11760   0.305E+00    0.530E-01
DAV:   4    -0.191362687338E+03    0.11907E-02   -0.14690E-02 11440   0.666E-01    0.503E-01
DAV:   5    -0.191361015680E+03    0.16717E-02   -0.92578E-03 10880   0.675E-01    0.389E-01
DAV:   6    -0.191359740163E+03    0.12755E-02   -0.49562E-03 11800   0.439E-01    0.246E-01
DAV:   7    -0.191359945618E+03   -0.20545E-03   -0.33711E-03 10920   0.407E-01    0.261E-01
DAV:   8    -0.191359179194E+03    0.76642E-03   -0.11683E-03  9840   0.237E-01    0.389E-02
DAV:   9    -0.191359179761E+03   -0.56716E-06   -0.10640E-04  5920   0.436E-02
  42 F= -.19135918E+03 E0= -.19125282E+03  d E =-.249379E-01
       N       E                     dE             d eps       ncg     rms          rms(c)
DAV:   1    -0.191368316496E+03   -0.91373E-02   -0.67955E-01  8160   0.175E+00    0.241E-01
DAV:   2    -0.191377770847E+03   -0.94544E-02   -0.32415E-02 13120   0.102E+00    0.971E-01
DAV:   3    -0.191369215616E+03    0.85552E-02   -0.16705E-02 11120   0.898E-01    0.184E-01
DAV:   4    -0.191369241566E+03   -0.25950E-04   -0.18803E-03 10000   0.265E-01    0.188E-01
DAV:   5    -0.191368917256E+03    0.32431E-03   -0.10847E-03 10400   0.233E-01    0.103E-01
DAV:   6    -0.191368837180E+03    0.80076E-04   -0.44836E-04  8320   0.123E-01
  43 F= -.19136884E+03 E0= -.19126224E+03  d E =-.965742E-02
       N       E                     dE             d eps       ncg     rms          rms(c)
DAV:   1    -0.191363914324E+03    0.50029E-02   -0.26259E-01  8160   0.109E+00    0.148E-01
DAV:   2    -0.191367891203E+03   -0.39769E-02   -0.11678E-02 13560   0.615E-01    0.627E-01
DAV:   3    -0.191364081041E+03    0.38102E-02   -0.65141E-03 11240   0.581E-01    0.100E-01
DAV:   4    -0.191364047236E+03    0.33805E-04   -0.44655E-04  8680   0.101E-01
  44 F= -.19136405E+03 E0= -.19125742E+03  d E =0.478994E-02
       N       E                     dE             d eps       ncg     rms          rms(c)
DAV:   1    -0.191349908221E+03    0.14173E-01   -0.24131E+00  8160   0.330E+00    0.436E-01
DAV:   2    -0.191370283794E+03   -0.20376E-01   -0.84723E-02 13520   0.162E+00    0.131E+00
DAV:   3    -0.191351549301E+03    0.18734E-01   -0.31938E-02 11200   0.133E+00    0.333E-01
DAV:   4    -0.191352478594E+03   -0.92929E-03   -0.72304E-03 11000   0.566E-01    0.450E-01
DAV:   5    -0.191350620790E+03    0.18578E-02   -0.54660E-03 10680   0.518E-01    0.189E-01
DAV:   6    -0.191350263386E+03    0.35740E-03   -0.15207E-03 10720   0.204E-01    0.104E-01
DAV:   7    -0.191350527592E+03   -0.26421E-03   -0.11732E-03 10920   0.236E-01    0.200E-01
DAV:   8    -0.191350128631E+03    0.39896E-03   -0.60011E-04  8280   0.175E-01    0.252E-02
DAV:   9    -0.191350141399E+03   -0.12767E-04   -0.38415E-05  5560   0.271E-02
  45 F= -.19135014E+03 E0= -.19124387E+03  d E =0.139058E-01
       N       E                     dE             d eps       ncg     rms          rms(c)
DAV:   1    -0.191369182481E+03   -0.19054E-01   -0.39411E+00  8160   0.422E+00    0.560E-01
DAV:   2    -0.191416407690E+03   -0.47225E-01   -0.16863E-01 13160   0.226E+00    0.226E+00
DAV:   3    -0.191374046921E+03    0.42361E-01   -0.97703E-02 11960   0.207E+00    0.453E-01
DAV:   4    -0.191374112856E+03   -0.65935E-04   -0.11262E-02 11480   0.668E-01    0.481E-01
DAV:   5    -0.191371931360E+03    0.21815E-02   -0.69735E-03 10960   0.590E-01    0.261E-01
DAV:   6    -0.191371526588E+03    0.40477E-03   -0.31628E-03 11920   0.328E-01    0.223E-01
DAV:   7    -0.191371592986E+03   -0.66397E-04   -0.25565E-03 10440   0.355E-01    0.225E-01
DAV:   8    -0.191371026072E+03    0.56691E-03   -0.87271E-04  8920   0.195E-01    0.306E-02
DAV:   9    -0.191371037418E+03   -0.11346E-04   -0.82902E-05  5960   0.356E-02
  46 F= -.19137104E+03 E0= -.19126430E+03  d E =-.208960E-01
       N       E                     dE             d eps       ncg     rms          rms(c)
DAV:   1    -0.191374174954E+03   -0.31489E-02   -0.13576E-01  8160   0.782E-01    0.106E-01
DAV:   2    -0.191375835841E+03   -0.16609E-02   -0.59510E-03 13600   0.435E-01    0.397E-01
DAV:   3    -0.191374318273E+03    0.15176E-02   -0.28303E-03 10200   0.382E-01    0.819E-02
DAV:   4    -0.191374312576E+03    0.56972E-05   -0.32211E-04  7880   0.970E-02
  47 F= -.19137431E+03 E0= -.19126762E+03  d E =-.327516E-02
       N       E                     dE             d eps       ncg     rms          rms(c)
DAV:   1    -0.191378405574E+03   -0.40873E-02   -0.52833E-01  8160   0.154E+00    0.188E-01
DAV:   2    -0.191382693938E+03   -0.42884E-02   -0.17554E-02 13560   0.703E-01    0.640E-01
DAV:   3    -0.191378699190E+03    0.39947E-02   -0.77646E-03 10560   0.606E-01    0.144E-01
DAV:   4    -0.191378798649E+03   -0.99459E-04   -0.10534E-03  9640   0.225E-01    0.165E-01
DAV:   5    -0.191378592018E+03    0.20663E-03   -0.82642E-04  9640   0.216E-01    0.102E-01
DAV:   6    -0.191378532386E+03    0.59632E-04   -0.35031E-04  7320   0.124E-01
  48 F= -.19137853E+03 E0= -.19127181E+03  d E =-.421981E-02
       N       E                     dE             d eps       ncg     rms          rms(c)
DAV:   1    -0.191378945794E+03   -0.35378E-03   -0.26544E-02  8160   0.365E-01    0.639E-02
DAV:   2    -0.191379700923E+03   -0.75513E-03   -0.18817E-03 12440   0.280E-01    0.272E-01
DAV:   3    -0.191378920915E+03    0.78001E-03   -0.11696E-03  9880   0.250E-01    0.412E-02
DAV:   4    -0.191378955453E+03   -0.34538E-04   -0.84529E-05  5520   0.668E-02
  49 F= -.19137896E+03 E0= -.19127223E+03  d E =-.423067E-03
       N       E                     dE             d eps       ncg     rms          rms(c)
DAV:   1    -0.191389538959E+03   -0.10618E-01   -0.94032E-01  8160   0.206E+00    0.254E-01
DAV:   2    -0.191398967247E+03   -0.94283E-02   -0.36255E-02 13600   0.946E-01    0.951E-01
DAV:   3    -0.191390809554E+03    0.81577E-02   -0.16909E-02 11120   0.896E-01    0.204E-01
DAV:   4    -0.191390802170E+03    0.73832E-05   -0.21770E-03 11080   0.258E-01    0.193E-01
DAV:   5    -0.191390488821E+03    0.31335E-03   -0.12829E-03 10360   0.250E-01    0.132E-01
DAV:   6    -0.191390376753E+03    0.11207E-03   -0.66166E-04  8240   0.159E-01    0.931E-02
DAV:   7    -0.191390458584E+03   -0.81831E-04   -0.54247E-04  8400   0.168E-01
  50 F= -.19139046E+03 E0= -.19128384E+03  d E =-.115031E-01
       N       E                     dE             d eps       ncg     rms          rms(c)
DAV:   1    -0.191382223845E+03    0.81529E-02   -0.38861E-01  8160   0.133E+00    0.156E-01
DAV:   2    -0.191385666972E+03   -0.34431E-02   -0.13835E-02 13600   0.584E-01    0.552E-01
DAV:   3    -0.191382675691E+03    0.29913E-02   -0.55712E-03 11080   0.531E-01    0.117E-01
DAV:   4    -0.191382650834E+03    0.24857E-04   -0.65114E-04  8720   0.136E-01
  51 F= -.19138265E+03 E0= -.19127576E+03  d E =0.780775E-02
       N       E                     dE             d eps       ncg     rms          rms(c)
DAV:   1    -0.191383408828E+03   -0.73314E-03   -0.42378E-01  8160   0.141E+00    0.269E-01
DAV:   2    -0.191386965047E+03   -0.35562E-02   -0.20459E-02 12280   0.863E-01    0.661E-01
DAV:   3    -0.191382365054E+03    0.46000E-02   -0.10097E-02 11440   0.736E-01    0.185E-01
DAV:   4    -0.191382656446E+03   -0.29139E-03   -0.28776E-03 11320   0.327E-01    0.294E-01
DAV:   5    -0.191382083790E+03    0.57266E-03   -0.26552E-03  9840   0.358E-01    0.190E-01
DAV:   6    -0.191381726989E+03    0.35680E-03   -0.10187E-03  9560   0.181E-01    0.637E-02
DAV:   7    -0.191381680385E+03    0.46604E-04   -0.21348E-04  6320   0.818E-02
  52 F= -.19138168E+03 E0= -.19127436E+03  d E =0.970449E-03
       N       E                     dE             d eps       ncg     rms          rms(c)
DAV:   1    -0.191395247044E+03   -0.13520E-01   -0.11751E+00  8160   0.231E+00    0.301E-01
DAV:   2    -0.191408070742E+03   -0.12824E-01   -0.49530E-02 13480   0.115E+00    0.114E+00
DAV:   3    -0.191396548336E+03    0.11522E-01   -0.24804E-02 11440   0.107E+00    0.236E-01
DAV:   4    -0.191396269119E+03    0.27922E-03   -0.23659E-03 11000   0.257E-01    0.186E-01
DAV:   5    -0.191396238003E+03    0.31116E-04   -0.18703E-03 10840   0.305E-01    0.215E-01
DAV:   6    -0.191395878974E+03    0.35903E-03   -0.12215E-03  9520   0.225E-01    0.917E-02
DAV:   7    -0.191395912373E+03   -0.33398E-04   -0.52919E-04  8760   0.155E-01
  53 F= -.19139591E+03 E0= -.19128896E+03  d E =-.142320E-01
       N       E                     dE             d eps       ncg     rms          rms(c)
DAV:   1    -0.191404468676E+03   -0.85897E-02   -0.42466E-01  8160   0.138E+00    0.162E-01
DAV:   2    -0.191407372853E+03   -0.29042E-02   -0.13606E-02 13600   0.537E-01    0.515E-01
DAV:   3    -0.191405004639E+03    0.23682E-02   -0.54528E-03 11120   0.509E-01    0.146E-01
DAV:   4    -0.191405022163E+03   -0.17524E-04   -0.91840E-04  8840   0.180E-01
  54 F= -.19140502E+03 E0= -.19129858E+03  d E =-.910979E-02
       N       E                     dE             d eps       ncg     rms          rms(c)
DAV:   1    -0.191407178178E+03   -0.21735E-02   -0.15508E-01  8160   0.938E-01    0.183E-01
DAV:   2    -0.191408743732E+03   -0.15656E-02   -0.91758E-03 12320   0.499E-01    0.472E-01
DAV:   3    -0.191406888443E+03    0.18553E-02   -0.58019E-03 11440   0.525E-01    0.198E-01
DAV:   4    -0.191406588014E+03    0.30043E-03   -0.12463E-03  9880   0.190E-01    0.115E-01
DAV:   5    -0.191406525448E+03    0.62566E-04   -0.77586E-04  9080   0.207E-01
  55 F= -.19140653E+03 E0= -.19129979E+03  d E =-.150328E-02
       N       E                     dE             d eps       ncg     rms          rms(c)
DAV:   1    -0.191395123757E+03    0.11464E-01   -0.12168E+00  8160   0.235E+00    0.249E-01
DAV:   2    -0.191398316078E+03   -0.31923E-02   -0.26920E-02 13560   0.573E-01    0.452E-01
DAV:   3    -0.191396467877E+03    0.18482E-02   -0.72967E-03 12360   0.601E-01    0.275E-01
DAV:   4    -0.191396299864E+03    0.16801E-03   -0.27455E-03 10480   0.337E-01    0.238E-01
DAV:   5    -0.191395996922E+03    0.30294E-03   -0.22149E-03 10000   0.332E-01    0.187E-01
DAV:   6    -0.191395659020E+03    0.33790E-03   -0.89156E-04  8720   0.189E-01    0.583E-02
DAV:   7    -0.191395725627E+03   -0.66607E-04   -0.36524E-04  8520   0.117E-01
  56 F= -.19139573E+03 E0= -.19128855E+03  d E =0.107998E-01
       N       E                     dE             d eps       ncg     rms          rms(c)
DAV:   1    -0.191376630777E+03    0.19028E-01   -0.52813E+00  8160   0.486E+00    0.483E-01
DAV:   2    -0.191388783641E+03   -0.12153E-01   -0.11163E-01 13600   0.126E+00    0.871E-01
DAV:   3    -0.191383458140E+03    0.53255E-02   -0.26670E-02 11280   0.115E+00    0.577E-01
DAV:   4    -0.191382846247E+03    0.61189E-03   -0.11856E-02 11800   0.702E-01    0.505E-01
DAV:   5    -0.191380727963E+03    0.21183E-02   -0.78016E-03 10880   0.628E-01    0.264E-01
DAV:   6    -0.191380167847E+03    0.56012E-03   -0.25681E-03 11520   0.289E-01    0.115E-01
DAV:   7    -0.191380176742E+03   -0.88952E-05   -0.10145E-03 11200   0.196E-01    0.159E-01
DAV:   8    -0.191379925955E+03    0.25079E-03   -0.42361E-04  8520   0.151E-01    0.286E-02
DAV:   9    -0.191379934554E+03   -0.85985E-05   -0.40616E-05  5680   0.319E-02
  57 F= -.19137993E+03 E0= -.19127272E+03  d E =0.157911E-01
       N       E                     dE             d eps       ncg     rms          rms(c)
DAV:   1    -0.191387845275E+03   -0.79193E-02   -0.18322E+00  8160   0.287E+00    0.310E-01
DAV:   2    -0.191393454219E+03   -0.56089E-02   -0.45065E-02 13600   0.865E-01    0.676E-01
DAV:   3    -0.191390115130E+03    0.33391E-02   -0.14762E-02 12240   0.831E-01    0.364E-01
DAV:   4    -0.191389182236E+03    0.93289E-03   -0.35242E-03 10120   0.363E-01    0.199E-01
DAV:   5    -0.191389100049E+03    0.82188E-04   -0.23388E-03 10040   0.343E-01    0.226E-01
DAV:   6    -0.191388788046E+03    0.31200E-03   -0.15449E-03 10000   0.274E-01    0.136E-01
DAV:   7    -0.191388753993E+03    0.34053E-04   -0.81563E-04  8640   0.200E-01
  58 F= -.19138875E+03 E0= -.19128164E+03  d E =-.881944E-02
       N       E                     dE             d eps       ncg     rms          rms(c)
DAV:   1    -0.191396153033E+03   -0.73650E-02   -0.71243E-01  8160   0.180E+00    0.236E-01
DAV:   2    -0.191402556035E+03   -0.64030E-02   -0.27980E-02 13560   0.896E-01    0.798E-01
DAV:   3    -0.191396850018E+03    0.57060E-02   -0.12631E-02 10600   0.771E-01    0.206E-01
DAV:   4    -0.191396886811E+03   -0.36793E-04   -0.22118E-03 10240   0.306E-01    0.214E-01
DAV:   5    -0.191396473009E+03    0.41380E-03   -0.14461E-03 10160   0.271E-01    0.117E-01
DAV:   6    -0.191396380231E+03    0.92778E-04   -0.60809E-04  8480   0.145E-01
  59 F= -.19139638E+03 E0= -.19128927E+03  d E =-.762624E-02
       N       E                     dE             d eps       ncg     rms          rms(c)
DAV:   1    -0.191407836363E+03   -0.11363E-01   -0.78778E-01  8160   0.190E+00    0.256E-01
DAV:   2    -0.191418450078E+03   -0.10614E-01   -0.36497E-02 13600   0.105E+00    0.105E+00
DAV:   3    -0.191408595350E+03    0.98547E-02   -0.19290E-02 11240   0.933E-01    0.166E-01
DAV:   4    -0.191408778250E+03   -0.18290E-03   -0.15535E-03 10080   0.250E-01    0.201E-01
DAV:   5    -0.191408414236E+03    0.36401E-03   -0.10958E-03 11320   0.252E-01    0.110E-01
DAV:   6    -0.191408398752E+03    0.15484E-04   -0.51559E-04  8400   0.149E-01
  60 F= -.19140840E+03 E0= -.19130112E+03  d E =-.120185E-01
       N       E                     dE             d eps       ncg     rms          rms(c)
DAV:   1    -0.191395642199E+03    0.12772E-01   -0.90124E-01  8160   0.204E+00    0.274E-01
DAV:   2    -0.191406824184E+03   -0.11182E-01   -0.41919E-02 13600   0.108E+00    0.107E+00
DAV:   3    -0.191396616567E+03    0.10208E-01   -0.22618E-02 11000   0.987E-01    0.208E-01
DAV:   4    -0.191396428490E+03    0.18808E-03   -0.20540E-03 11040   0.230E-01    0.163E-01
DAV:   5    -0.191396218414E+03    0.21008E-03   -0.10926E-03 10440   0.243E-01    0.128E-01
DAV:   6    -0.191396072747E+03    0.14567E-03   -0.54610E-04  8760   0.160E-01    0.636E-02
DAV:   7    -0.191396082990E+03   -0.10243E-04   -0.24757E-04  7960   0.966E-02
  61 F= -.19139608E+03 E0= -.19128925E+03  d E =0.123158E-01
       N       E                     dE             d eps       ncg     rms          rms(c)
DAV:   1    -0.191385260388E+03    0.10812E-01   -0.15217E+00  8160   0.264E+00    0.321E-01
DAV:   2    -0.191393656421E+03   -0.83960E-02   -0.50040E-02 13560   0.988E-01    0.905E-01
DAV:   3    -0.191386983608E+03    0.66728E-02   -0.20352E-02 12040   0.922E-01    0.294E-01
DAV:   4    -0.191386200177E+03    0.78343E-03   -0.22713E-03 11000   0.243E-01    0.130E-01
DAV:   5    -0.191386355944E+03   -0.15577E-03   -0.15629E-03 10720   0.259E-01    0.208E-01
DAV:   6    -0.191386092695E+03    0.26325E-03   -0.13306E-03  9880   0.267E-01    0.128E-01
DAV:   7    -0.191385973282E+03    0.11941E-03   -0.50487E-04  8240   0.155E-01    0.819E-02
DAV:   8    -0.191385918954E+03    0.54328E-04   -0.18587E-04  7200   0.103E-01
  62 F= -.19138592E+03 E0= -.19127913E+03  d E =0.101640E-01
       N       E                     dE             d eps       ncg     rms          rms(c)
DAV:   1    -0.191379742018E+03    0.62313E-02   -0.84954E-01  8160   0.196E+00    0.219E-01
DAV:   2    -0.191384220530E+03   -0.44785E-02   -0.24249E-02 13560   0.709E-01    0.647E-01
DAV:   3    -0.191380598223E+03    0.36223E-02   -0.98201E-03 11240   0.644E-01    0.190E-01
DAV:   4    -0.191380695707E+03   -0.97484E-04   -0.15391E-03  9720   0.257E-01    0.198E-01
DAV:   5    -0.191380280838E+03    0.41487E-03   -0.10478E-03  9800   0.248E-01    0.908E-02
DAV:   6    -0.191380283758E+03   -0.29195E-05   -0.36690E-04  8680   0.104E-01
  63 F= -.19138028E+03 E0= -.19127355E+03  d E =0.563520E-02
       N       E                     dE             d eps       ncg     rms          rms(c)
DAV:   1    -0.191386218906E+03   -0.59381E-02   -0.49568E-01  8160   0.150E+00    0.179E-01
DAV:   2    -0.191389974090E+03   -0.37552E-02   -0.20675E-02 13600   0.608E-01    0.555E-01
DAV:   3    -0.191387350600E+03    0.26235E-02   -0.74176E-03 11280   0.574E-01    0.183E-01
DAV:   4    -0.191387134649E+03    0.21595E-03   -0.99328E-04  9600   0.161E-01    0.994E-02
DAV:   5    -0.191387077927E+03    0.56722E-04   -0.46660E-04  9200   0.147E-01
  64 F= -.19138708E+03 E0= -.19128022E+03  d E =-.679417E-02
       N       E                     dE             d eps       ncg     rms          rms(c)
DAV:   1    -0.191387207551E+03   -0.72902E-04   -0.20735E-01  8160   0.976E-01    0.106E-01
DAV:   2    -0.191388266618E+03   -0.10591E-02   -0.54769E-03 13600   0.338E-01    0.300E-01
DAV:   3    -0.191387404786E+03    0.86183E-03   -0.20719E-03  9840   0.327E-01    0.102E-01
DAV:   4    -0.191387350295E+03    0.54491E-04   -0.33559E-04  8280   0.104E-01
  65 F= -.19138735E+03 E0= -.19128042E+03  d E =-.272368E-03
       N       E                     dE             d eps       ncg     rms          rms(c)
DAV:   1    -0.191389486287E+03   -0.20815E-02   -0.20021E-01  8160   0.960E-01    0.127E-01
DAV:   2    -0.191390819077E+03   -0.13328E-02   -0.61546E-03 13600   0.386E-01    0.355E-01
DAV:   3    -0.191389590370E+03    0.12287E-02   -0.29944E-03 11160   0.374E-01    0.113E-01
DAV:   4    -0.191389748408E+03   -0.15804E-03   -0.75032E-04  8360   0.188E-01    0.158E-01
DAV:   5    -0.191389487705E+03    0.26070E-03   -0.49322E-04  8400   0.166E-01    0.457E-02
DAV:   6    -0.191389483432E+03    0.42732E-05   -0.94806E-05  5960   0.507E-02
  66 F= -.19138948E+03 E0= -.19128266E+03  d E =-.213314E-02
       N       E                     dE             d eps       ncg     rms          rms(c)
DAV:   1    -0.191381728626E+03    0.77591E-02   -0.18535E+00  8160   0.291E+00    0.313E-01
DAV:   2    -0.191389188925E+03   -0.74603E-02   -0.46773E-02 13600   0.917E-01    0.800E-01
DAV:   3    -0.191383662315E+03    0.55266E-02   -0.16352E-02 12360   0.871E-01    0.294E-01
DAV:   4    -0.191383336114E+03    0.32620E-03   -0.28842E-03 10720   0.313E-01    0.222E-01
DAV:   5    -0.191382991002E+03    0.34511E-03   -0.20721E-03 10320   0.333E-01    0.184E-01
DAV:   6    -0.191382869751E+03    0.12125E-03   -0.12334E-03 10040   0.229E-01    0.133E-01
DAV:   7    -0.191382843812E+03    0.25939E-04   -0.81560E-04  8680   0.205E-01
  67 F= -.19138284E+03 E0= -.19127630E+03  d E =0.663962E-02
       N       E                     dE             d eps       ncg     rms          rms(c)
DAV:   1    -0.191388904395E+03   -0.60346E-02   -0.19840E+00  8160   0.301E+00    0.309E-01
DAV:   2    -0.191392756011E+03   -0.38516E-02   -0.41382E-02 13600   0.779E-01    0.479E-01
DAV:   3    -0.191391391795E+03    0.13642E-02   -0.10110E-02 12200   0.725E-01    0.360E-01
DAV:   4    -0.191390715048E+03    0.67675E-03   -0.36511E-03 11440   0.414E-01    0.265E-01
DAV:   5    -0.191390377802E+03    0.33725E-03   -0.28442E-03  9960   0.390E-01    0.230E-01
DAV:   6    -0.191389903698E+03    0.47410E-03   -0.12723E-03  9680   0.227E-01    0.718E-02
DAV:   7    -0.191389915220E+03   -0.11522E-04   -0.36437E-04  8440   0.109E-01
  68 F= -.19138992E+03 E0= -.19128336E+03  d E =-.707141E-02
       N       E                     dE             d eps       ncg     rms          rms(c)
DAV:   1    -0.191378421846E+03    0.11482E-01   -0.12062E+00  8160   0.234E+00    0.266E-01
DAV:   2    -0.191385449728E+03   -0.70279E-02   -0.35954E-02 13360   0.881E-01    0.783E-01
DAV:   3    -0.191379726226E+03    0.57235E-02   -0.13635E-02 11480   0.797E-01    0.246E-01
DAV:   4    -0.191379717048E+03    0.91779E-05   -0.27226E-03 10800   0.322E-01    0.235E-01
DAV:   5    -0.191379243059E+03    0.47399E-03   -0.17897E-03 10080   0.302E-01    0.136E-01
DAV:   6    -0.191379091334E+03    0.15173E-03   -0.74505E-04 10000   0.163E-01    0.847E-02
DAV:   7    -0.191379205417E+03   -0.11408E-03   -0.56137E-04  8880   0.173E-01    0.136E-01
DAV:   8    -0.191379010180E+03    0.19524E-03   -0.27758E-04  7160   0.123E-01    0.161E-02
DAV:   9    -0.191379021078E+03   -0.10899E-04   -0.25193E-05  5560   0.209E-02
  69 F= -.19137902E+03 E0= -.19127243E+03  d E =0.108941E-01
       N       E                     dE             d eps       ncg     rms          rms(c)
DAV:   1    -0.191368402665E+03    0.10608E-01   -0.16479E+00  8160   0.272E+00    0.294E-01
DAV:   2    -0.191377140974E+03   -0.87383E-02   -0.46124E-02 13600   0.990E-01    0.881E-01
DAV:   3    -0.191370177768E+03    0.69632E-02   -0.17298E-02 11560   0.879E-01    0.256E-01
DAV:   4    -0.191369983759E+03    0.19401E-03   -0.24108E-03 10240   0.281E-01    0.209E-01
DAV:   5    -0.191369739442E+03    0.24432E-03   -0.17400E-03 10880   0.303E-01    0.177E-01
DAV:   6    -0.191369582882E+03    0.15656E-03   -0.10993E-03  9680   0.221E-01    0.124E-01
DAV:   7    -0.191369606645E+03   -0.23763E-04   -0.73076E-04  8800   0.197E-01
  70 F= -.19136961E+03 E0= -.19126295E+03  d E =0.941443E-02
       N       E                     dE             d eps       ncg     rms          rms(c)
DAV:   1    -0.191370113497E+03   -0.53061E-03   -0.85840E-02  8160   0.628E-01    0.705E-02
DAV:   2    -0.191370458319E+03   -0.34482E-03   -0.24651E-03 13560   0.218E-01    0.162E-01
DAV:   3    -0.191370233291E+03    0.22503E-03   -0.69519E-04  9000   0.191E-01    0.754E-02
DAV:   4    -0.191370228650E+03    0.46416E-05   -0.21505E-04  6520   0.101E-01
  71 F= -.19137023E+03 E0= -.19126337E+03  d E =-.622004E-03
       N       E                     dE             d eps       ncg     rms          rms(c)
DAV:   1    -0.191374865874E+03   -0.46326E-02   -0.40329E-01  8160   0.135E+00    0.179E-01
DAV:   2    -0.191379521444E+03   -0.46556E-02   -0.19928E-02 13600   0.678E-01    0.659E-01
DAV:   3    -0.191375662755E+03    0.38587E-02   -0.91135E-03 11200   0.629E-01    0.161E-01
DAV:   4    -0.191375487256E+03    0.17550E-03   -0.96055E-04  9880   0.159E-01    0.933E-02
DAV:   5    -0.191375447833E+03    0.39422E-04   -0.43011E-04  9320   0.146E-01
  72 F= -.19137545E+03 E0= -.19126817E+03  d E =-.521918E-02
       N       E                     dE             d eps       ncg     rms          rms(c)
DAV:   1    -0.191375231657E+03    0.25560E-03   -0.46839E-02  8160   0.467E-01    0.531E-02
DAV:   2    -0.191375647642E+03   -0.41599E-03   -0.15110E-03 13600   0.206E-01    0.193E-01
DAV:   3    -0.191375266820E+03    0.38082E-03   -0.63867E-04  8400   0.183E-01    0.414E-02
DAV:   4    -0.191375277074E+03   -0.10254E-04   -0.83294E-05  5560   0.541E-02
  73 F= -.19137528E+03 E0= -.19126810E+03  d E =0.170759E-03
       N       E                     dE             d eps       ncg     rms          rms(c)
DAV:   1    -0.191380450626E+03   -0.51838E-02   -0.43968E-01  8160   0.141E+00    0.180E-01
DAV:   2    -0.191384955260E+03   -0.45046E-02   -0.18228E-02 13560   0.677E-01    0.669E-01
DAV:   3    -0.191381019031E+03    0.39362E-02   -0.90455E-03 11360   0.627E-01    0.146E-01
DAV:   4    -0.191380880778E+03    0.13825E-03   -0.71892E-04  9680   0.119E-01    0.710E-02
DAV:   5    -0.191380811050E+03    0.69728E-04   -0.26110E-04  8160   0.881E-02
  74 F= -.19138081E+03 E0= -.19127347E+03  d E =-.553398E-02
       N       E                     dE             d eps       ncg     rms          rms(c)
DAV:   1    -0.191373098208E+03    0.77826E-02   -0.87097E-01  8160   0.200E+00    0.253E-01
DAV:   2    -0.191382585041E+03   -0.94868E-02   -0.36504E-02 13600   0.962E-01    0.942E-01
DAV:   3    -0.191374298692E+03    0.82863E-02   -0.17814E-02 11600   0.898E-01    0.223E-01
DAV:   4    -0.191374247027E+03    0.51665E-04   -0.23815E-03 10280   0.295E-01    0.208E-01
DAV:   5    -0.191373860185E+03    0.38684E-03   -0.12859E-03 11000   0.254E-01    0.101E-01
DAV:   6    -0.191373730204E+03    0.12998E-03   -0.38076E-04  7560   0.110E-01    0.486E-02
DAV:   7    -0.191373867188E+03   -0.13698E-03   -0.35956E-04  8240   0.133E-01    0.126E-01
DAV:   8    -0.191373703671E+03    0.16352E-03   -0.23137E-04  6560   0.118E-01    0.183E-02
DAV:   9    -0.191373712219E+03   -0.85487E-05   -0.26762E-05  5480   0.220E-02
  75 F= -.19137371E+03 E0= -.19126643E+03  d E =0.709883E-02
       N       E                     dE             d eps       ncg     rms          rms(c)
DAV:   1    -0.191373703026E+03    0.64465E-06   -0.31637E-01  8160   0.119E+00    0.118E-01
DAV:   2    -0.191374126644E+03   -0.42362E-03   -0.64660E-03 13240   0.261E-01    0.149E-01
DAV:   3    -0.191374178219E+03   -0.51575E-04   -0.13402E-03 10840   0.260E-01    0.174E-01
DAV:   4    -0.191373928788E+03    0.24943E-03   -0.62188E-04  8160   0.177E-01    0.874E-02
DAV:   5    -0.191373927688E+03    0.11007E-05   -0.36927E-04  7920   0.140E-01
  76 F= -.19137393E+03 E0= -.19126634E+03  d E =-.215468E-03
       N       E                     dE             d eps       ncg     rms          rms(c)
DAV:   1    -0.191378607392E+03   -0.46786E-02   -0.58130E-01  8160   0.163E+00    0.200E-01
DAV:   2    -0.191383827397E+03   -0.52200E-02   -0.22110E-02 13600   0.721E-01    0.708E-01
DAV:   3    -0.191379380037E+03    0.44474E-02   -0.10628E-02 11120   0.678E-01    0.183E-01
DAV:   4    -0.191379343430E+03    0.36607E-04   -0.14776E-03  9640   0.237E-01    0.165E-01
DAV:   5    -0.191379105037E+03    0.23839E-03   -0.84890E-04  9640   0.213E-01    0.911E-02
DAV:   6    -0.191379006614E+03    0.98423E-04   -0.27444E-04  7040   0.942E-02
  77 F= -.19137901E+03 E0= -.19127125E+03  d E =-.507893E-02
       N       E                     dE             d eps       ncg     rms          rms(c)
DAV:   1    -0.191381838216E+03   -0.27332E-02   -0.20031E-01  8160   0.944E-01    0.113E-01
DAV:   2    -0.191383575331E+03   -0.17371E-02   -0.70592E-03 13440   0.441E-01    0.403E-01
DAV:   3    -0.191382065762E+03    0.15096E-02   -0.30803E-03 10440   0.387E-01    0.941E-02
DAV:   4    -0.191382092081E+03   -0.26319E-04   -0.42992E-04  8240   0.130E-01
  78 F= -.19138209E+03 E0= -.19127420E+03  d E =-.308547E-02
       N       E                     dE             d eps       ncg     rms          rms(c)
DAV:   1    -0.191380704468E+03    0.13613E-02   -0.47956E-02  8160   0.474E-01    0.632E-02
DAV:   2    -0.191381610570E+03   -0.90610E-03   -0.27075E-03 13320   0.301E-01    0.282E-01
DAV:   3    -0.191380750261E+03    0.86031E-03   -0.13262E-03  9680   0.252E-01    0.427E-02
DAV:   4    -0.191380774725E+03   -0.24464E-04   -0.99807E-05  5520   0.691E-02
  79 F= -.19138077E+03 E0= -.19127286E+03  d E =0.131736E-02
       N       E                     dE             d eps       ncg     rms          rms(c)
DAV:   1    -0.191384551156E+03   -0.38009E-02   -0.29071E-01  8160   0.115E+00    0.152E-01
DAV:   2    -0.191387488215E+03   -0.29371E-02   -0.12658E-02 13600   0.563E-01    0.541E-01
DAV:   3    -0.191384921394E+03    0.25668E-02   -0.60142E-03 11040   0.511E-01    0.134E-01
DAV:   4    -0.191384871147E+03    0.50248E-04   -0.73972E-04  8560   0.163E-01
  80 F= -.19138487E+03 E0= -.19127690E+03  d E =-.409642E-02
       N       E                     dE             d eps       ncg     rms          rms(c)
DAV:   1    -0.191384982007E+03   -0.60612E-04   -0.16216E-01  8160   0.850E-01    0.993E-02
DAV:   2    -0.191386093990E+03   -0.11120E-02   -0.49790E-03 13600   0.366E-01    0.299E-01
DAV:   3    -0.191385056717E+03    0.10373E-02   -0.18711E-03 10200   0.310E-01    0.628E-02
DAV:   4    -0.191385138487E+03   -0.81770E-04   -0.30606E-04  7280   0.113E-01
  81 F= -.19138514E+03 E0= -.19127714E+03  d E =-.267340E-03
       N       E                     dE             d eps       ncg     rms          rms(c)
DAV:   1    -0.191391415976E+03   -0.63593E-02   -0.51310E-01  8160   0.153E+00    0.205E-01
DAV:   2    -0.191396183817E+03   -0.47678E-02   -0.21071E-02 13600   0.665E-01    0.671E-01
DAV:   3    -0.191392232978E+03    0.39508E-02   -0.11167E-02 11360   0.686E-01    0.229E-01
DAV:   4    -0.191391921147E+03    0.31183E-03   -0.17458E-03  9840   0.230E-01    0.147E-01
DAV:   5    -0.191391795657E+03    0.12549E-03   -0.86026E-04 10200   0.209E-01    0.111E-01
DAV:   6    -0.191391662045E+03    0.13361E-03   -0.37698E-04  7760   0.123E-01    0.496E-02
DAV:   7    -0.191391753417E+03   -0.91371E-04   -0.26133E-04  7600   0.113E-01
  82 F= -.19139175E+03 E0= -.19128353E+03  d E =-.661493E-02
       N       E                     dE             d eps       ncg     rms          rms(c)
DAV:   1    -0.191392541922E+03   -0.87988E-03   -0.90491E-03  8320   0.230E-01    0.356E-02
DAV:   2    -0.191392712690E+03   -0.17077E-03   -0.56100E-04  8600   0.127E-01    0.128E-01
DAV:   3    -0.191392551768E+03    0.16092E-03   -0.35415E-04  7360   0.131E-01    0.341E-02
DAV:   4    -0.191392553228E+03   -0.14600E-05   -0.49023E-05  5440   0.365E-02
  83 F= -.19139255E+03 E0= -.19128413E+03  d E =-.799811E-03
       N       E                     dE             d eps       ncg     rms          rms(c)
DAV:   1    -0.191399371511E+03   -0.68197E-02   -0.48381E-01  8160   0.148E+00    0.190E-01
DAV:   2    -0.191404378771E+03   -0.50073E-02   -0.21057E-02 13160   0.736E-01    0.704E-01
DAV:   3    -0.191400098822E+03    0.42799E-02   -0.10215E-02 10720   0.653E-01    0.170E-01
DAV:   4    -0.191400059158E+03    0.39664E-04   -0.13079E-03  9640   0.221E-01    0.153E-01
DAV:   5    -0.191399843277E+03    0.21588E-03   -0.73357E-04  9320   0.195E-01    0.868E-02
DAV:   6    -0.191399780971E+03    0.62306E-04   -0.30402E-04  6720   0.996E-02
  84 F= -.19139978E+03 E0= -.19129099E+03  d E =-.722774E-02
       N       E                     dE             d eps       ncg     rms          rms(c)
DAV:   1    -0.191397331791E+03    0.25115E-02   -0.73707E-02  8160   0.600E-01    0.145E-01
DAV:   2    -0.191402441871E+03   -0.51101E-02   -0.10788E-02 12360   0.725E-01    0.738E-01
DAV:   3    -0.191397142937E+03    0.52989E-02   -0.70722E-03 10720   0.632E-01    0.607E-02
DAV:   4    -0.191397197717E+03   -0.54780E-04   -0.28929E-04  8320   0.907E-02
  85 F= -.19139720E+03 E0= -.19128835E+03  d E =0.258325E-02
       N       E                     dE             d eps       ncg     rms          rms(c)
DAV:   1    -0.191380896815E+03    0.16246E-01   -0.29800E+00  8160   0.366E+00    0.417E-01
DAV:   2    -0.191398717273E+03   -0.17820E-01   -0.95219E-02 13320   0.132E+00    0.117E+00
DAV:   3    -0.191385688208E+03    0.13029E-01   -0.33700E-02 11640   0.125E+00    0.441E-01
DAV:   4    -0.191385213359E+03    0.47485E-03   -0.74856E-03 10960   0.519E-01    0.376E-01
DAV:   5    -0.191383929075E+03    0.12843E-02   -0.41573E-03 11000   0.452E-01    0.189E-01
DAV:   6    -0.191383687698E+03    0.24138E-03   -0.15678E-03 11080   0.227E-01    0.133E-01
DAV:   7    -0.191384029419E+03   -0.34172E-03   -0.15473E-03 10360   0.281E-01    0.229E-01
DAV:   8    -0.191383495815E+03    0.53360E-03   -0.76103E-04  8240   0.204E-01    0.312E-02
DAV:   9    -0.191383504592E+03   -0.87770E-05   -0.56826E-05  5560   0.323E-02
  86 F= -.19138350E+03 E0= -.19127522E+03  d E =0.136931E-01
       N       E                     dE             d eps       ncg     rms          rms(c)
DAV:   1    -0.191388109864E+03   -0.46140E-02   -0.34756E-01  8160   0.126E+00    0.162E-01
DAV:   2    -0.191391055572E+03   -0.29457E-02   -0.15750E-02 13480   0.571E-01    0.509E-01
DAV:   3    -0.191388816958E+03    0.22386E-02   -0.62649E-03 11280   0.525E-01    0.164E-01
DAV:   4    -0.191388638160E+03    0.17880E-03   -0.82699E-04  9480   0.159E-01    0.933E-02
DAV:   5    -0.191388635809E+03    0.23519E-05   -0.52644E-04  9000   0.163E-01
  87 F= -.19138864E+03 E0= -.19128043E+03  d E =-.513122E-02
       N       E                     dE             d eps       ncg     rms          rms(c)
DAV:   1    -0.191389183224E+03   -0.54506E-03   -0.15343E-02  8160   0.288E-01    0.588E-02
DAV:   2    -0.191389662996E+03   -0.47977E-03   -0.12175E-03 11280   0.222E-01    0.221E-01
DAV:   3    -0.191389158212E+03    0.50478E-03   -0.79773E-04  8520   0.211E-01    0.453E-02
DAV:   4    -0.191389174721E+03   -0.16509E-04   -0.82049E-05  5640   0.494E-02
  88 F= -.19138917E+03 E0= -.19128098E+03  d E =-.538913E-03
       N       E                     dE             d eps       ncg     rms          rms(c)
DAV:   1    -0.191390421431E+03   -0.12632E-02   -0.23292E-02  8160   0.373E-01    0.748E-02
DAV:   2    -0.191390385702E+03    0.35729E-04   -0.10531E-03 10600   0.119E-01    0.917E-02
DAV:   3    -0.191390428976E+03   -0.43274E-04   -0.54298E-04  8680   0.171E-01
  89 F= -.19139043E+03 E0= -.19128223E+03  d E =-.125426E-02
       N       E                     dE             d eps       ncg     rms          rms(c)
DAV:   1    -0.191394840738E+03   -0.44550E-02   -0.28224E-01  8160   0.114E+00    0.147E-01
DAV:   2    -0.191396726913E+03   -0.18862E-02   -0.10751E-02 13280   0.463E-01    0.415E-01
DAV:   3    -0.191395230570E+03    0.14963E-02   -0.43954E-03 11280   0.433E-01    0.153E-01
DAV:   4    -0.191395074519E+03    0.15605E-03   -0.73709E-04  8560   0.151E-01    0.902E-02
DAV:   5    -0.191395097568E+03   -0.23049E-04   -0.49660E-04  8760   0.156E-01
  90 F= -.19139510E+03 E0= -.19128706E+03  d E =-.466859E-02
       N       E                     dE             d eps       ncg     rms          rms(c)
DAV:   1    -0.191394305412E+03    0.76911E-03   -0.65065E-03  9120   0.224E-01    0.541E-02
DAV:   2    -0.191395044281E+03   -0.73887E-03   -0.15338E-03 10120   0.274E-01    0.273E-01
DAV:   3    -0.191394272522E+03    0.77176E-03   -0.10470E-03  8720   0.240E-01    0.323E-02
DAV:   4    -0.191394292818E+03   -0.20296E-04   -0.49750E-05  5480   0.416E-02
  91 F= -.19139429E+03 E0= -.19128600E+03  d E =0.804750E-03
       N       E                     dE             d eps       ncg     rms          rms(c)
DAV:   1    -0.191400619593E+03   -0.63471E-02   -0.45673E-01  8160   0.145E+00    0.182E-01
DAV:   2    -0.191403867841E+03   -0.32482E-02   -0.17409E-02 13520   0.619E-01    0.557E-01
DAV:   3    -0.191401291201E+03    0.25766E-02   -0.74764E-03 11120   0.562E-01    0.186E-01
DAV:   4    -0.191401156436E+03    0.13477E-03   -0.13394E-03  9640   0.220E-01    0.143E-01
DAV:   5    -0.191400994172E+03    0.16226E-03   -0.76466E-04  9320   0.201E-01    0.981E-02
DAV:   6    -0.191400887468E+03    0.10670E-03   -0.32084E-04  6800   0.107E-01    0.316E-02
DAV:   7    -0.191400881286E+03    0.61824E-05   -0.88642E-05  6160   0.364E-02
  92 F= -.19140088E+03 E0= -.19129240E+03  d E =-.658847E-02
       N       E                     dE             d eps       ncg     rms          rms(c)
DAV:   1    -0.191398380382E+03    0.25071E-02   -0.61479E-02  8160   0.534E-01    0.762E-02
DAV:   2    -0.191399058136E+03   -0.67775E-03   -0.29163E-03 12720   0.288E-01    0.262E-01
DAV:   3    -0.191398419051E+03    0.63909E-03   -0.13937E-03  9680   0.254E-01    0.652E-02
DAV:   4    -0.191398432390E+03   -0.13340E-04   -0.19691E-04  6320   0.896E-02
  93 F= -.19139843E+03 E0= -.19128996E+03  d E =0.244890E-02
       N       E                     dE             d eps       ncg     rms          rms(c)
DAV:   1    -0.191393309970E+03    0.51091E-02   -0.39962E-01  8160   0.137E+00    0.203E-01
DAV:   2    -0.191395516624E+03   -0.22067E-02   -0.16531E-02 12040   0.612E-01    0.445E-01
DAV:   3    -0.191393604279E+03    0.19123E-02   -0.56098E-03 12160   0.540E-01    0.200E-01
DAV:   4    -0.191393603276E+03    0.10036E-05   -0.20758E-03  9760   0.283E-01    0.223E-01
DAV:   5    -0.191393292831E+03    0.31044E-03   -0.17445E-03  9640   0.273E-01    0.142E-01
DAV:   6    -0.191393067743E+03    0.22509E-03   -0.61449E-04  8200   0.139E-01    0.548E-02
DAV:   7    -0.191393155103E+03   -0.87360E-04   -0.33141E-04  8040   0.131E-01
  94 F= -.19139316E+03 E0= -.19128489E+03  d E =0.527729E-02
       N       E                     dE             d eps       ncg     rms          rms(c)
DAV:   1    -0.191390011449E+03    0.30563E-02   -0.14366E-01  8160   0.815E-01    0.996E-02
DAV:   2    -0.191390757602E+03   -0.74615E-03   -0.48477E-03 13400   0.278E-01    0.245E-01
DAV:   3    -0.191390259989E+03    0.49761E-03   -0.17960E-03 10000   0.288E-01    0.121E-01
DAV:   4    -0.191390174593E+03    0.85396E-04   -0.43298E-04  7920   0.119E-01
  95 F= -.19139017E+03 E0= -.19128192E+03  d E =0.298051E-02
       N       E                     dE             d eps       ncg     rms          rms(c)
DAV:   1    -0.191392387440E+03   -0.21275E-02   -0.17193E-01  8160   0.879E-01    0.121E-01
DAV:   2    -0.191394546583E+03   -0.21591E-02   -0.86774E-03 13360   0.508E-01    0.437E-01
DAV:   3    -0.191392679202E+03    0.18674E-02   -0.35717E-03 11200   0.421E-01    0.102E-01
DAV:   4    -0.191392734627E+03   -0.55425E-04   -0.60512E-04  8240   0.168E-01
  96 F= -.19139273E+03 E0= -.19128413E+03  d E =-.256003E-02
       N       E                     dE             d eps       ncg     rms          rms(c)
DAV:   1    -0.191393942280E+03   -0.12631E-02   -0.30497E-02  8160   0.393E-01    0.757E-02
DAV:   2    -0.191394831990E+03   -0.88971E-03   -0.27124E-03 12960   0.280E-01    0.305E-01
DAV:   3    -0.191393956740E+03    0.87525E-03   -0.18779E-03  9720   0.280E-01    0.675E-02
DAV:   4    -0.191393937199E+03    0.19541E-04   -0.14270E-04  5560   0.629E-02
  97 F= -.19139394E+03 E0= -.19128511E+03  d E =-.120257E-02
       N       E                     dE             d eps       ncg     rms          rms(c)
DAV:   1    -0.191397330423E+03   -0.33737E-02   -0.16535E-01  8160   0.871E-01    0.124E-01
DAV:   2    -0.191398948099E+03   -0.16177E-02   -0.65989E-03 13240   0.436E-01    0.363E-01
DAV:   3    -0.191397448636E+03    0.14995E-02   -0.29623E-03 11360   0.399E-01    0.973E-02
DAV:   4    -0.191397496260E+03   -0.47625E-04   -0.58581E-04  8160   0.143E-01
  98 F= -.19139750E+03 E0= -.19128874E+03  d E =-.355906E-02
       N       E                     dE             d eps       ncg     rms          rms(c)
DAV:   1    -0.191400129984E+03   -0.26813E-02   -0.12229E-01  8160   0.785E-01    0.184E-01
DAV:   2    -0.191406304845E+03   -0.61749E-02   -0.16888E-02 12240   0.793E-01    0.849E-01
DAV:   3    -0.191399924855E+03    0.63800E-02   -0.12588E-02 10720   0.723E-01    0.123E-01
DAV:   4    -0.191399838518E+03    0.86337E-04   -0.78713E-04  9960   0.122E-01
  99 F= -.19139984E+03 E0= -.19129040E+03  d E =-.234226E-02
       N       E                     dE             d eps       ncg     rms          rms(c)
DAV:   1    -0.191401847597E+03   -0.19227E-02   -0.26746E-01  8160   0.118E+00    0.223E-01
DAV:   2    -0.191408024571E+03   -0.61770E-02   -0.20780E-02 12280   0.801E-01    0.850E-01
DAV:   3    -0.191401560164E+03    0.64644E-02   -0.14438E-02 10080   0.771E-01    0.182E-01
DAV:   4    -0.191401664726E+03   -0.10456E-03   -0.18722E-03  9920   0.254E-01    0.206E-01
DAV:   5    -0.191401246891E+03    0.41783E-03   -0.11395E-03  9680   0.249E-01    0.949E-02
DAV:   6    -0.191401188441E+03    0.58450E-04   -0.45436E-04  8760   0.130E-01
 100 F= -.19140119E+03 E0= -.19129284E+03  d E =-.134992E-02
