<?xml version="1.0" encoding="ISO-8859-1"?>
<modeling>
 <generator>
  <i name="program" type="string">vasp </i>
  <i name="version" type="string">5.4.1  </i>
  <i name="subversion" type="string">05Feb16 (build Jul 05 2020 17:13:04) complex                          parallel </i>
  <i name="platform" type="string">IFC91_ompi </i>
  <i name="date" type="string">2024 04 30 </i>
  <i name="time" type="string">01:37:32 </i>
 </generator>
 <incar>
  <i type="int" name="ISTART">     0</i>
  <i type="string" name="PREC">normal</i>
  <i type="string" name="ALGO"> Normal</i>
  <i type="int" name="ISPIN">     1</i>
  <i type="int" name="ICHARG">     2</i>
  <i type="int" name="IBRION">     1</i>
  <i type="int" name="NSW">   100</i>
  <i type="int" name="ISIF">     3</i>
  <i type="int" name="ISYM">     0</i>
  <i name="SYMPREC">      0.00000001</i>
  <i name="POTIM">      0.50000000</i>
  <i type="logical" name="LREAL"> F  </i>
  <i type="logical" name="LPLANE"> F  </i>
  <i type="int" name="ISMEAR">     0</i>
  <i type="logical" name="LWAVE"> F  </i>
  <i type="logical" name="LCHARG"> F  </i>
  <v type="int" name="KPOINT_BSE">    -1     0     0     0</v>
 </incar>
 <kpoints>
  <generation param="Gamma">
   <v type="int" name="divisions">       8        8        1 </v>
   <v name="usershift">      0.00000000       0.00000000       0.00000000 </v>
   <v name="genvec1">      0.12500000       0.00000000       0.00000000 </v>
   <v name="genvec2">     -0.00000000       0.12500000       0.00000000 </v>
   <v name="genvec3">      0.00000000       0.00000000       1.00000000 </v>
   <v name="shift">      0.00000000       0.00000000       0.00000000 </v>
  </generation>
  <varray name="kpointlist" >
   <v>       0.00000000       0.00000000       0.00000000 </v>
   <v>       0.12500000       0.00000000       0.00000000 </v>
   <v>       0.25000000       0.00000000       0.00000000 </v>
   <v>       0.37500000       0.00000000       0.00000000 </v>
   <v>       0.50000000       0.00000000       0.00000000 </v>
   <v>       0.00000000       0.12500000       0.00000000 </v>
   <v>       0.12500000       0.12500000       0.00000000 </v>
   <v>       0.25000000       0.12500000       0.00000000 </v>
   <v>       0.37500000       0.12500000       0.00000000 </v>
   <v>       0.50000000       0.12500000       0.00000000 </v>
   <v>      -0.37500000       0.12500000       0.00000000 </v>
   <v>      -0.25000000       0.12500000       0.00000000 </v>
   <v>      -0.12500000       0.12500000       0.00000000 </v>
   <v>       0.00000000       0.25000000       0.00000000 </v>
   <v>       0.12500000       0.25000000       0.00000000 </v>
   <v>       0.25000000       0.25000000       0.00000000 </v>
   <v>       0.37500000       0.25000000       0.00000000 </v>
   <v>       0.50000000       0.25000000       0.00000000 </v>
   <v>      -0.37500000       0.25000000       0.00000000 </v>
   <v>      -0.25000000       0.25000000       0.00000000 </v>
   <v>      -0.12500000       0.25000000       0.00000000 </v>
   <v>      -0.00000000       0.37500000       0.00000000 </v>
   <v>       0.12500000       0.37500000       0.00000000 </v>
   <v>       0.25000000       0.37500000       0.00000000 </v>
   <v>       0.37500000       0.37500000       0.00000000 </v>
   <v>       0.50000000       0.37500000       0.00000000 </v>
   <v>      -0.37500000       0.37500000       0.00000000 </v>
   <v>      -0.25000000       0.37500000       0.00000000 </v>
   <v>      -0.12500000       0.37500000       0.00000000 </v>
   <v>       0.00000000       0.50000000       0.00000000 </v>
   <v>       0.12500000       0.50000000       0.00000000 </v>
   <v>       0.25000000       0.50000000       0.00000000 </v>
   <v>       0.37500000       0.50000000       0.00000000 </v>
   <v>       0.50000000       0.50000000       0.00000000 </v>
  </varray>
  <varray name="weights" >
   <v>       0.01562500 </v>
   <v>       0.03125000 </v>
   <v>       0.03125000 </v>
   <v>       0.03125000 </v>
   <v>       0.01562500 </v>
   <v>       0.03125000 </v>
   <v>       0.03125000 </v>
   <v>       0.03125000 </v>
   <v>       0.03125000 </v>
   <v>       0.03125000 </v>
   <v>       0.03125000 </v>
   <v>       0.03125000 </v>
   <v>       0.03125000 </v>
   <v>       0.03125000 </v>
   <v>       0.03125000 </v>
   <v>       0.03125000 </v>
   <v>       0.03125000 </v>
   <v>       0.03125000 </v>
   <v>       0.03125000 </v>
   <v>       0.03125000 </v>
   <v>       0.03125000 </v>
   <v>       0.03125000 </v>
   <v>       0.03125000 </v>
   <v>       0.03125000 </v>
   <v>       0.03125000 </v>
   <v>       0.03125000 </v>
   <v>       0.03125000 </v>
   <v>       0.03125000 </v>
   <v>       0.03125000 </v>
   <v>       0.01562500 </v>
   <v>       0.03125000 </v>
   <v>       0.03125000 </v>
   <v>       0.03125000 </v>
   <v>       0.01562500 </v>
  </varray>
 </kpoints>
 <parameters>
  <separator name="general" >
   <i type="string" name="SYSTEM">unknown system</i>
   <i type="logical" name="LCOMPAT"> F  </i>
  </separator>
  <separator name="electronic" >
   <i type="string" name="PREC">normal</i>
   <i name="ENMAX">    280.00000000</i>
   <i name="ENAUG">    373.43800000</i>
   <i name="EDIFF">      0.00010000</i>
   <i type="int" name="IALGO">    38</i>
   <i type="int" name="IWAVPR">    11</i>
   <i type="int" name="NBANDS">   120</i>
   <i name="NELECT">    159.00000000</i>
   <i type="int" name="TURBO">     0</i>
   <i type="int" name="IRESTART">     0</i>
   <i type="int" name="NREBOOT">     0</i>
   <i type="int" name="NMIN">     0</i>
   <i name="EREF">      0.00000000</i>
   <separator name="electronic smearing" >
    <i type="int" name="ISMEAR">     0</i>
    <i name="SIGMA">      0.20000000</i>
    <i name="KSPACING">      0.50000000</i>
    <i type="logical" name="KGAMMA"> T  </i>
   </separator>
   <separator name="electronic projectors" >
    <i type="logical" name="LREAL"> F  </i>
    <v name="ROPT">      0.00000000      0.00000000      0.00000000      0.00000000</v>
    <i type="int" name="LMAXPAW">  -100</i>
    <i type="int" name="LMAXMIX">     2</i>
    <i type="logical" name="NLSPLINE"> F  </i>
   </separator>
   <separator name="electronic startup" >
    <i type="int" name="ISTART">     0</i>
    <i type="int" name="ICHARG">     2</i>
    <i type="int" name="INIWAV">     1</i>
   </separator>
   <separator name="electronic spin" >
    <i type="int" name="ISPIN">     1</i>
    <i type="logical" name="LNONCOLLINEAR"> F  </i>
    <v name="MAGMOM">      1.00000000      1.00000000      1.00000000      1.00000000      1.00000000      1.00000000      1.00000000      1.00000000      1.00000000      1.00000000      1.00000000      1.00000000      1.00000000      1.00000000      1.00000000      1.00000000      1.00000000      1.00000000      1.00000000      1.00000000
      1.00000000      1.00000000      1.00000000      1.00000000      1.00000000      1.00000000      1.00000000</v>
    <i name="NUPDOWN">     -1.00000000</i>
    <i type="logical" name="LSORBIT"> F  </i>
    <v name="SAXIS">      0.00000000      0.00000000      1.00000000</v>
    <i type="logical" name="LSPIRAL"> F  </i>
    <v name="QSPIRAL">      0.00000000      0.00000000      0.00000000</v>
    <i type="logical" name="LZEROZ"> F  </i>
   </separator>
   <separator name="electronic exchange-correlation" >
    <i type="logical" name="LASPH"> F  </i>
    <i type="logical" name="LMETAGGA"> F  </i>
   </separator>
   <separator name="electronic convergence" >
    <i type="int" name="NELM">    60</i>
    <i type="int" name="NELMDL">    -5</i>
    <i type="int" name="NELMIN">     2</i>
    <i name="ENINI">    280.00000000</i>
    <separator name="electronic convergence detail" >
     <i type="logical" name="LDIAG"> T  </i>
     <i type="logical" name="LSUBROT"> F  </i>
     <i name="WEIMIN">      0.00100000</i>
     <i name="EBREAK">      0.00000021</i>
     <i name="DEPER">      0.30000000</i>
     <i type="int" name="NRMM">     4</i>
     <i name="TIME">      0.40000000</i>
    </separator>
   </separator>
   <separator name="electronic mixer" >
    <i name="AMIX">      0.40000000</i>
    <i name="BMIX">      1.00000000</i>
    <i name="AMIN">      0.10000000</i>
    <i name="AMIX_MAG">      1.60000000</i>
    <i name="BMIX_MAG">      1.00000000</i>
    <separator name="electronic mixer details" >
     <i type="int" name="IMIX">     4</i>
     <i type="logical" name="MIXFIRST"> F  </i>
     <i type="int" name="MAXMIX">   -45</i>
     <i name="WC">    100.00000000</i>
     <i type="int" name="INIMIX">     1</i>
     <i type="int" name="MIXPRE">     1</i>
     <i type="int" name="MREMOVE">     5</i>
    </separator>
   </separator>
   <separator name="electronic dipolcorrection" >
    <i type="logical" name="LDIPOL"> F  </i>
    <i type="logical" name="LMONO"> F  </i>
    <i type="int" name="IDIPOL">     0</i>
    <i name="EPSILON">      1.00000000</i>
    <v name="DIPOL">   -100.00000000   -100.00000000   -100.00000000</v>
    <i name="EFIELD">      0.00000000</i>
   </separator>
  </separator>
  <separator name="grids" >
   <i type="int" name="NGX">    42</i>
   <i type="int" name="NGY">    42</i>
   <i type="int" name="NGZ">   126</i>
   <i type="int" name="NGXF">    84</i>
   <i type="int" name="NGYF">    84</i>
   <i type="int" name="NGZF">   252</i>
   <i type="logical" name="ADDGRID"> F  </i>
  </separator>
  <separator name="ionic" >
   <i type="int" name="NSW">   100</i>
   <i type="int" name="IBRION">     1</i>
   <i type="int" name="ISIF">     3</i>
   <i name="PSTRESS">      0.00000000</i>
   <i name="EDIFFG">      0.00100000</i>
   <i type="int" name="NFREE">     0</i>
   <i name="POTIM">      0.50000000</i>
   <i name="SMASS">     -3.00000000</i>
   <i name="SCALEE">      1.00000000</i>
  </separator>
  <separator name="ionic md" >
   <i name="TEBEG">      0.00010000</i>
   <i name="TEEND">      0.00010000</i>
   <i type="int" name="NBLOCK">     1</i>
   <i type="int" name="KBLOCK">   100</i>
   <i type="int" name="NPACO">   256</i>
   <i name="APACO">     16.00000000</i>
  </separator>
  <separator name="symmetry" >
   <i type="int" name="ISYM">     0</i>
   <i name="SYMPREC">      0.00000001</i>
  </separator>
  <separator name="dos" >
   <i type="logical" name="LORBIT"> F  </i>
   <v name="RWIGS">     -1.00000000     -1.00000000     -1.00000000     -1.00000000</v>
   <i type="int" name="NEDOS">   301</i>
   <i name="EMIN">     10.00000000</i>
   <i name="EMAX">    -10.00000000</i>
   <i name="EFERMI">      0.00000000</i>
  </separator>
  <separator name="writing" >
   <i type="int" name="NWRITE">     2</i>
   <i type="logical" name="LWAVE"> F  </i>
   <i type="logical" name="LCHARG"> F  </i>
   <i type="logical" name="LPARD"> F  </i>
   <i type="logical" name="LVTOT"> F  </i>
   <i type="logical" name="LVHAR"> F  </i>
   <i type="logical" name="LELF"> F  </i>
   <i type="logical" name="LOPTICS"> F  </i>
   <v name="STM">      0.00000000      0.00000000      0.00000000      0.00000000      0.00000000      0.00000000      0.00000000</v>
  </separator>
  <separator name="performance" >
   <i type="int" name="NPAR">    40</i>
   <i type="int" name="NSIM">     4</i>
   <i type="int" name="NBLK">    -1</i>
   <i type="logical" name="LPLANE"> F  </i>
   <i type="logical" name="LSCALAPACK"> T  </i>
   <i type="logical" name="LSCAAWARE"> F  </i>
   <i type="logical" name="LSCALU"> F  </i>
   <i type="logical" name="LASYNC"> F  </i>
   <i type="logical" name="LORBITALREAL"> F  </i>
  </separator>
  <separator name="miscellaneous" >
   <i type="int" name="IDIOT">     3</i>
   <i type="logical" name="LMUSIC"> F  </i>
   <v name="POMASS">     50.94100000     95.94000000    183.85000000     32.06600000</v>
   <v name="DARWINR">      0.00000000      0.00000000      0.00000000      0.00000000</v>
   <v name="DARWINV">      1.00000000      1.00000000      1.00000000      1.00000000</v>
   <i type="logical" name="LCORR"> T  </i>
  </separator>
  <i type="logical" name="GGA_COMPAT"> T  </i>
  <i type="logical" name="LBERRY"> F  </i>
  <i type="int" name="ICORELEVEL">     0</i>
  <i type="logical" name="LDAU"> F  </i>
  <i type="int" name="I_CONSTRAINED_M">     0</i>
  <separator name="electronic exchange-correlation" >
   <i type="string" name="GGA">--</i>
   <i type="int" name="VOSKOWN">     0</i>
   <i type="logical" name="LHFCALC"> F  </i>
   <i type="string" name="PRECFOCK"></i>
   <i type="logical" name="LSYMGRAD"> F  </i>
   <i type="logical" name="LHFONE"> F  </i>
   <i type="logical" name="LRHFCALC"> F  </i>
   <i type="logical" name="LTHOMAS"> F  </i>
   <i type="logical" name="LMODELHF"> F  </i>
   <i name="ENCUT4O">     -1.00000000</i>
   <i type="int" name="EXXOEP">     0</i>
   <i type="int" name="FOURORBIT">     0</i>
   <i name="AEXX">      0.00000000</i>
   <i name="HFALPHA">      0.00000000</i>
   <i name="MCALPHA">      0.00000000</i>
   <i name="ALDAX">      1.00000000</i>
   <i name="AGGAX">      1.00000000</i>
   <i name="ALDAC">      1.00000000</i>
   <i name="AGGAC">      1.00000000</i>
   <i type="int" name="NKREDX">     1</i>
   <i type="int" name="NKREDY">     1</i>
   <i type="int" name="NKREDZ">     1</i>
   <i type="logical" name="SHIFTRED"> F  </i>
   <i type="logical" name="ODDONLY"> F  </i>
   <i type="logical" name="EVENONLY"> F  </i>
   <i type="int" name="LMAXFOCK">     0</i>
   <i type="int" name="NMAXFOCKAE">     0</i>
   <i type="logical" name="LFOCKAEDFT"> F  </i>
   <i name="HFSCREEN">      0.00000000</i>
   <i name="HFSCREENC">      0.00000000</i>
   <i type="int" name="NBANDSGWLOW">     0</i>
  </separator>
  <separator name="vdW DFT" >
   <i type="logical" name="LUSE_VDW"> F  </i>
   <i name="Zab_VDW">     -0.84910000</i>
   <i name="PARAM1">      0.12340000</i>
   <i name="PARAM2">      1.00000000</i>
   <i name="PARAM3">      0.00000000</i>
  </separator>
  <separator name="model GW" >
   <i type="int" name="MODEL_GW">     0</i>
   <i name="MODEL_EPS0">     58.26239943</i>
   <i name="MODEL_ALPHA">      1.00000000</i>
  </separator>
  <separator name="linear response parameters" >
   <i type="logical" name="LEPSILON"> F  </i>
   <i type="logical" name="LRPA"> F  </i>
   <i type="logical" name="LNABLA"> F  </i>
   <i type="logical" name="LVEL"> F  </i>
   <i type="int" name="KINTER">     0</i>
   <i name="CSHIFT">      0.10000000</i>
   <i name="OMEGAMAX">     -1.00000000</i>
   <i name="DEG_THRESHOLD">      0.00200000</i>
  </separator>
  <separator name="orbital magnetization" >
   <i type="logical" name="NUCIND"> F  </i>
   <v name="MAGPOS">      0.00000000      0.00000000      0.00000000</v>
   <i type="logical" name="LNICSALL"> T  </i>
   <i type="logical" name="ORBITALMAG"> F  </i>
   <i type="logical" name="LMAGBLOCH"> F  </i>
   <i type="logical" name="LCHIMAG"> F  </i>
   <i type="logical" name="LGAUGE"> T  </i>
   <i type="int" name="MAGATOM">     0</i>
   <v name="MAGDIPOL">      0.00000000      0.00000000      0.00000000</v>
   <v name="AVECCONST">      0.00000000      0.00000000      0.00000000</v>
  </separator>
  <separator name="response functions" >
   <i type="logical" name="LADDER"> F  </i>
   <i type="logical" name="LFXC"> F  </i>
   <i type="logical" name="LHARTREE"> T  </i>
   <i type="int" name="IBSE">     0</i>
   <v type="int" name="KPOINT">    -1     0     0     0</v>
   <i type="logical" name="LTCTE"> F  </i>
   <i type="logical" name="LTETE"> F  </i>
   <i type="logical" name="LTRIPLET"> F  </i>
   <i type="logical" name="LFXCEPS"> F  </i>
   <i type="logical" name="LFXHEG"> F  </i>
   <i type="int" name="NATURALO">     0</i>
   <i type="logical" name="L2ORDER"> F  </i>
   <i type="logical" name="LUSEW"> F  </i>
   <i name="ENCUTGW">     -2.00000000</i>
   <i name="ENCUTGWSOFT">     -2.00000000</i>
   <i name="ENCUTLF">     -1.00000000</i>
   <i type="int" name="LMAXMP2">    -1</i>
   <i name="SCISSOR">      0.00000000</i>
   <i type="int" name="NOMEGA">     0</i>
   <i type="int" name="NOMEGAR">     0</i>
   <i type="int" name="NBANDSGW">    -1</i>
   <i type="int" name="NBANDSO">    -1</i>
   <i type="int" name="NBANDSV">    -1</i>
   <i type="int" name="NELM">     1</i>
   <i type="int" name="NELMHF">     1</i>
   <i type="int" name="DIM">     3</i>
   <i type="int" name="ANTIRES">     0</i>
   <i name="OMEGAMAX">    -30.00000000</i>
   <i name="OMEGAMIN">    -30.00000000</i>
   <i name="OMEGATL">   -200.00000000</i>
   <i type="int" name="OMEGAGRID">     0</i>
   <i name="CSHIFT">     -0.10000000</i>
   <i type="logical" name="SELFENERGY"> F  </i>
   <i type="logical" name="LSPECTRAL"> F  </i>
   <i type="logical" name="LSPECTRALGW"> F  </i>
   <i type="logical" name="LSINGLES"> F  </i>
   <i type="logical" name="LFERMIGW"> F  </i>
   <i type="logical" name="ODDONLYGW"> F  </i>
   <i type="logical" name="EVENONLYGW"> F  </i>
   <i type="int" name="NKREDLFX">     1</i>
   <i type="int" name="NKREDLFY">     1</i>
   <i type="int" name="NKREDLFZ">     1</i>
   <i type="int" name="MAXMEM">  1800</i>
   <i type="int" name="TELESCOPE">     0</i>
   <i type="int" name="TAUPAR">     1</i>
   <i type="int" name="OMEGAPAR">    -1</i>
   <i name="LAMBDA">      1.00000000</i>
  </separator>
  <separator name="External order field" >
   <i name="OFIELD_KAPPA">      0.00000000</i>
   <v name="OFIELD_K">      0.00000000      0.00000000      0.00000000</v>
   <i name="OFIELD_Q6_NEAR">      0.00000000</i>
   <i name="OFIELD_Q6_FAR">      0.00000000</i>
   <i name="OFIELD_A">      0.00000000</i>
  </separator>
 </parameters>
 <atominfo>
  <atoms>      27 </atoms>
  <types>       4 </types>
  <array name="atoms" >
   <dimension dim="1">ion</dimension>
   <field type="string">element</field>
   <field type="int">atomtype</field>
   <set>
    <rc><c>V </c><c>   1</c></rc>
    <rc><c>V </c><c>   1</c></rc>
    <rc><c>V </c><c>   1</c></rc>
    <rc><c>Mo</c><c>   2</c></rc>
    <rc><c>Mo</c><c>   2</c></rc>
    <rc><c>Mo</c><c>   2</c></rc>
    <rc><c>W </c><c>   3</c></rc>
    <rc><c>W </c><c>   3</c></rc>
    <rc><c>W </c><c>   3</c></rc>
    <rc><c>S </c><c>   4</c></rc>
    <rc><c>S </c><c>   4</c></rc>
    <rc><c>S </c><c>   4</c></rc>
    <rc><c>S </c><c>   4</c></rc>
    <rc><c>S </c><c>   4</c></rc>
    <rc><c>S </c><c>   4</c></rc>
    <rc><c>S </c><c>   4</c></rc>
    <rc><c>S </c><c>   4</c></rc>
    <rc><c>S </c><c>   4</c></rc>
    <rc><c>S </c><c>   4</c></rc>
    <rc><c>S </c><c>   4</c></rc>
    <rc><c>S </c><c>   4</c></rc>
    <rc><c>S </c><c>   4</c></rc>
    <rc><c>S </c><c>   4</c></rc>
    <rc><c>S </c><c>   4</c></rc>
    <rc><c>S </c><c>   4</c></rc>
    <rc><c>S </c><c>   4</c></rc>
    <rc><c>S </c><c>   4</c></rc>
   </set>
  </array>
  <array name="atomtypes" >
   <dimension dim="1">type</dimension>
   <field type="int">atomspertype</field>
   <field type="string">element</field>
   <field>mass</field>
   <field>valence</field>
   <field type="string">pseudopotential</field>
   <set>
    <rc><c>   3</c><c>V </c><c>     50.94100000</c><c>      5.00000000</c><c> PAW_PBE V 08Apr2002                    </c></rc>
    <rc><c>   3</c><c>Mo</c><c>     95.94000000</c><c>      6.00000000</c><c> PAW_PBE Mo 08Apr2002                   </c></rc>
    <rc><c>   3</c><c>W </c><c>    183.85000000</c><c>      6.00000000</c><c> PAW_PBE W 08Apr2002                    </c></rc>
    <rc><c>  18</c><c>S </c><c>     32.06600000</c><c>      6.00000000</c><c>  PAW_PBE S 17Jan2003                   </c></rc>
   </set>
  </array>
 </atominfo>
 <structure name="initialpos" >
  <crystal>
   <varray name="basis" >
    <v>       8.66999996       5.03999989       0.00000000 </v>
    <v>      -8.66999982       5.04000013       0.00000000 </v>
    <v>       0.00000000       0.00000000      30.00000000 </v>
   </varray>
   <i name="volume">   2621.80797419 </i>
   <varray name="rec_basis" >
    <v>       0.05767013       0.09920635       0.00000000 </v>
    <v>      -0.05767013       0.09920635       0.00000000 </v>
    <v>       0.00000000       0.00000000       0.03333333 </v>
   </varray>
  </crystal>
  <varray name="positions" >
   <v>       0.66666669       0.00000000       0.00000000 </v>
   <v>       0.00000000       0.66666669       0.00000000 </v>
   <v>       0.33333334       0.66666669       0.00000000 </v>
   <v>       1.00000000       0.33333334       0.00000000 </v>
   <v>       0.33333334       0.00000000       0.00000000 </v>
   <v>       0.33333334       0.33333334       0.00000000 </v>
   <v>       0.00000000       0.00000000       0.00000000 </v>
   <v>       0.66666669       0.33333334       0.00000000 </v>
   <v>       0.66666669       0.66666669       0.00000000 </v>
   <v>       0.11068511       0.22244981       0.95539999 </v>
   <v>       0.22244981       0.11068511       0.04460000 </v>
   <v>       0.11068511       0.55578315       0.95539999 </v>
   <v>       0.22244981       0.44401845       0.04460000 </v>
   <v>       0.11068511       0.88911647       0.95539999 </v>
   <v>       0.22244981       0.77735180       0.04460000 </v>
   <v>       0.44401845       0.22244981       0.95539999 </v>
   <v>       0.55578315       0.11068511       0.04460000 </v>
   <v>       0.44401845       0.55578315       0.95539999 </v>
   <v>       0.55578315       0.44401845       0.04460000 </v>
   <v>       0.44401845       0.88911647       0.95539999 </v>
   <v>       0.55578315       0.77735180       0.04460000 </v>
   <v>       0.77735180       0.22244981       0.95539999 </v>
   <v>       0.88911647       0.11068511       0.04460000 </v>
   <v>       0.77735180       0.55578315       0.95539999 </v>
   <v>       0.88911647       0.44401845       0.04460000 </v>
   <v>       0.77735180       0.88911647       0.95539999 </v>
   <v>       0.88911647       0.77735180       0.04460000 </v>
  </varray>
 </structure>
 <calculation>
  <scstep>
   <time name="dav">   22.03   22.10</time>
   <time name="total">   22.08   22.15</time>
   <energy>
    <i name="alphaZ">     81.65567618 </i>
    <i name="ewald">  41890.23009643 </i>
    <i name="hartreedc"> -47722.86568680 </i>
    <i name="XCdc">   -242.92872173 </i>
    <i name="pawpsdc">   3467.42045192 </i>
    <i name="pawaedc">  -2871.19716117 </i>
    <i name="eentropy">     -0.53661932 </i>
    <i name="bandstr">   -239.24988533 </i>
    <i name="atom">   6761.44252427 </i>
    <i name="e_fr_energy">   1123.97067444 </i>
    <i name="e_wo_entrp">   1124.50729377 </i>
    <i name="e_0_energy">   1124.23898411 </i>
   </energy>
  </scstep>
  <scstep>
   <time name="dav">   28.71   28.78</time>
   <time name="total">   28.71   28.79</time>
   <energy>
    <i name="e_fr_energy">     -5.29122642 </i>
    <i name="e_wo_entrp">     -5.09969799 </i>
    <i name="e_0_energy">     -5.19546220 </i>
   </energy>
  </scstep>
  <scstep>
   <time name="dav">   27.85   27.92</time>
   <time name="total">   27.86   27.93</time>
   <energy>
    <i name="e_fr_energy">   -199.87725129 </i>
    <i name="e_wo_entrp">   -199.59472508 </i>
    <i name="e_0_energy">   -199.73598818 </i>
   </energy>
  </scstep>
  <scstep>
   <time name="dav">   30.78   30.86</time>
   <time name="total">   30.78   30.87</time>
   <energy>
    <i name="e_fr_energy">   -208.98338006 </i>
    <i name="e_wo_entrp">   -208.66656141 </i>
    <i name="e_0_energy">   -208.82497074 </i>
   </energy>
  </scstep>
  <scstep>
   <time name="dav">   29.07   29.14</time>
   <time name="total">   29.53   29.62</time>
   <energy>
    <i name="e_fr_energy">   -209.28963418 </i>
    <i name="e_wo_entrp">   -208.97549058 </i>
    <i name="e_0_energy">   -209.13256238 </i>
   </energy>
  </scstep>
  <scstep>
   <time name="dav">   31.87   31.95</time>
   <time name="total">   32.37   32.45</time>
   <energy>
    <i name="e_fr_energy">   -236.80742629 </i>
    <i name="e_wo_entrp">   -236.51997439 </i>
    <i name="e_0_energy">   -236.66370034 </i>
   </energy>
  </scstep>
  <scstep>
   <time name="dav">   32.56   32.64</time>
   <time name="total">   33.06   33.15</time>
   <energy>
    <i name="e_fr_energy">   -196.66928317 </i>
    <i name="e_wo_entrp">   -196.34766974 </i>
    <i name="e_0_energy">   -196.50847646 </i>
   </energy>
  </scstep>
  <scstep>
   <time name="dav">   29.89   29.96</time>
   <time name="total">   30.40   30.48</time>
   <energy>
    <i name="e_fr_energy">   -190.03051649 </i>
    <i name="e_wo_entrp">   -189.75668833 </i>
    <i name="e_0_energy">   -189.89360241 </i>
   </energy>
  </scstep>
  <scstep>
   <time name="dav">   29.62   29.70</time>
   <time name="total">   30.14   30.22</time>
   <energy>
    <i name="e_fr_energy">   -188.23996929 </i>
    <i name="e_wo_entrp">   -187.90156837 </i>
    <i name="e_0_energy">   -188.07076883 </i>
   </energy>
  </scstep>
  <scstep>
   <time name="dav">   33.06   33.14</time>
   <time name="total">   33.59   33.68</time>
   <energy>
    <i name="e_fr_energy">   -187.05655341 </i>
    <i name="e_wo_entrp">   -186.71280352 </i>
    <i name="e_0_energy">   -186.88467847 </i>
   </energy>
  </scstep>
  <scstep>
   <time name="dav">   31.29   31.37</time>
   <time name="total">   31.83   31.92</time>
   <energy>
    <i name="e_fr_energy">   -186.99934872 </i>
    <i name="e_wo_entrp">   -186.64793357 </i>
    <i name="e_0_energy">   -186.82364114 </i>
   </energy>
  </scstep>
  <scstep>
   <time name="dav">   30.90   30.98</time>
   <time name="total">   31.43   31.51</time>
   <energy>
    <i name="e_fr_energy">   -187.08301569 </i>
    <i name="e_wo_entrp">   -186.74912057 </i>
    <i name="e_0_energy">   -186.91606813 </i>
   </energy>
  </scstep>
  <scstep>
   <time name="dav">   32.34   32.42</time>
   <time name="total">   32.88   32.97</time>
   <energy>
    <i name="e_fr_energy">   -186.90895750 </i>
    <i name="e_wo_entrp">   -186.57076351 </i>
    <i name="e_0_energy">   -186.73986050 </i>
   </energy>
  </scstep>
  <scstep>
   <time name="dav">   32.24   32.32</time>
   <time name="total">   32.77   32.86</time>
   <energy>
    <i name="e_fr_energy">   -186.89767193 </i>
    <i name="e_wo_entrp">   -186.55362914 </i>
    <i name="e_0_energy">   -186.72565054 </i>
   </energy>
  </scstep>
  <scstep>
   <time name="dav">   31.33   31.41</time>
   <time name="total">   31.86   31.95</time>
   <energy>
    <i name="e_fr_energy">   -186.87233609 </i>
    <i name="e_wo_entrp">   -186.52558904 </i>
    <i name="e_0_energy">   -186.69896256 </i>
   </energy>
  </scstep>
  <scstep>
   <time name="dav">   31.20   31.28</time>
   <time name="total">   31.73   31.82</time>
   <energy>
    <i name="e_fr_energy">   -186.86785441 </i>
    <i name="e_wo_entrp">   -186.52213361 </i>
    <i name="e_0_energy">   -186.69499401 </i>
   </energy>
  </scstep>
  <scstep>
   <time name="dav">   31.74   31.81</time>
   <time name="total">   32.27   32.36</time>
   <energy>
    <i name="e_fr_energy">   -186.86608905 </i>
    <i name="e_wo_entrp">   -186.52189325 </i>
    <i name="e_0_energy">   -186.69399115 </i>
   </energy>
  </scstep>
  <scstep>
   <time name="dav">   28.82   28.89</time>
   <time name="total">   29.36   29.43</time>
   <energy>
    <i name="e_fr_energy">   -186.86542812 </i>
    <i name="e_wo_entrp">   -186.52107232 </i>
    <i name="e_0_energy">   -186.69325022 </i>
   </energy>
  </scstep>
  <scstep>
   <time name="dav">   26.44   26.51</time>
   <time name="total">   26.98   27.05</time>
   <energy>
    <i name="e_fr_energy">   -186.86530486 </i>
    <i name="e_wo_entrp">   -186.52071190 </i>
    <i name="e_0_energy">   -186.69300838 </i>
   </energy>
  </scstep>
  <scstep>
   <time name="dav">   23.66   23.72</time>
   <time name="total">   24.19   24.26</time>
   <energy>
    <i name="e_fr_energy">   -186.86614868 </i>
    <i name="e_wo_entrp">   -186.52174790 </i>
    <i name="e_0_energy">   -186.69394829 </i>
   </energy>
  </scstep>
  <scstep>
   <time name="dav">   22.36   22.41</time>
   <time name="total">   22.89   22.96</time>
   <energy>
    <i name="e_fr_energy">   -186.86683766 </i>
    <i name="e_wo_entrp">   -186.52251249 </i>
    <i name="e_0_energy">   -186.69467508 </i>
   </energy>
  </scstep>
  <scstep>
   <time name="dav">   20.74   20.79</time>
   <time name="total">   21.27   21.33</time>
   <energy>
    <i name="e_fr_energy">   -186.86785488 </i>
    <i name="e_wo_entrp">   -186.52339610 </i>
    <i name="e_0_energy">   -186.69562549 </i>
   </energy>
  </scstep>
  <scstep>
   <time name="dav">   20.78   20.83</time>
   <time name="total">   21.31   21.37</time>
   <energy>
    <i name="e_fr_energy">   -186.86901425 </i>
    <i name="e_wo_entrp">   -186.52468788 </i>
    <i name="e_0_energy">   -186.69685107 </i>
   </energy>
  </scstep>
  <scstep>
   <time name="dav">   19.22   19.27</time>
   <time name="total">   19.76   19.81</time>
   <energy>
    <i name="e_fr_energy">   -186.86958820 </i>
    <i name="e_wo_entrp">   -186.52521317 </i>
    <i name="e_0_energy">   -186.69740069 </i>
   </energy>
  </scstep>
  <scstep>
   <time name="dav">   16.77   16.81</time>
   <time name="total">   17.30   17.35</time>
   <energy>
    <i name="e_fr_energy">   -186.86995308 </i>
    <i name="e_wo_entrp">   -186.52555680 </i>
    <i name="e_0_energy">   -186.69775494 </i>
   </energy>
  </scstep>
  <scstep>
   <time name="dav">   19.23   19.27</time>
   <time name="total">   19.76   19.82</time>
   <energy>
    <i name="e_fr_energy">   -186.87019705 </i>
    <i name="e_wo_entrp">   -186.52581819 </i>
    <i name="e_0_energy">   -186.69800762 </i>
   </energy>
  </scstep>
  <scstep>
   <time name="dav">   20.40   20.45</time>
   <time name="total">   20.43   20.49</time>
   <energy>
    <i name="alphaZ">     81.65567618 </i>
    <i name="ewald">  41890.23009643 </i>
    <i name="hartreedc"> -47832.99245348 </i>
    <i name="XCdc">   -231.60402433 </i>
    <i name="pawpsdc">   4192.12467795 </i>
    <i name="pawaedc">  -3610.13964274 </i>
    <i name="eentropy">     -0.34438424 </i>
    <i name="bandstr">  -1437.24275696 </i>
    <i name="atom">   6761.44252427 </i>
    <i name="e_fr_energy">   -186.87028691 </i>
    <i name="e_wo_entrp">   -186.52590268 </i>
    <i name="e_0_energy">   -186.69809479 </i>
   </energy>
  </scstep>
  <structure>
   <crystal>
    <varray name="basis" >
     <v>       8.66999996       5.03999989       0.00000000 </v>
     <v>      -8.66999982       5.04000013       0.00000000 </v>
     <v>       0.00000000       0.00000000      30.00000000 </v>
    </varray>
    <i name="volume">   2621.80797419 </i>
    <varray name="rec_basis" >
     <v>       0.05767013       0.09920635       0.00000000 </v>
     <v>      -0.05767013       0.09920635       0.00000000 </v>
     <v>       0.00000000       0.00000000       0.03333333 </v>
    </varray>
   </crystal>
   <varray name="positions" >
    <v>       0.66666669       0.00000000       0.00000000 </v>
    <v>       0.00000000       0.66666669       0.00000000 </v>
    <v>       0.33333334       0.66666669       0.00000000 </v>
    <v>       1.00000000       0.33333334       0.00000000 </v>
    <v>       0.33333334       0.00000000       0.00000000 </v>
    <v>       0.33333334       0.33333334       0.00000000 </v>
    <v>       0.00000000       0.00000000       0.00000000 </v>
    <v>       0.66666669       0.33333334       0.00000000 </v>
    <v>       0.66666669       0.66666669       0.00000000 </v>
    <v>       0.11068511       0.22244981       0.95539999 </v>
    <v>       0.22244981       0.11068511       0.04460000 </v>
    <v>       0.11068511       0.55578315       0.95539999 </v>
    <v>       0.22244981       0.44401845       0.04460000 </v>
    <v>       0.11068511       0.88911647       0.95539999 </v>
    <v>       0.22244981       0.77735180       0.04460000 </v>
    <v>       0.44401845       0.22244981       0.95539999 </v>
    <v>       0.55578315       0.11068511       0.04460000 </v>
    <v>       0.44401845       0.55578315       0.95539999 </v>
    <v>       0.55578315       0.44401845       0.04460000 </v>
    <v>       0.44401845       0.88911647       0.95539999 </v>
    <v>       0.55578315       0.77735180       0.04460000 </v>
    <v>       0.77735180       0.22244981       0.95539999 </v>
    <v>       0.88911647       0.11068511       0.04460000 </v>
    <v>       0.77735180       0.55578315       0.95539999 </v>
    <v>       0.88911647       0.44401845       0.04460000 </v>
    <v>       0.77735180       0.88911647       0.95539999 </v>
    <v>       0.88911647       0.77735180       0.04460000 </v>
   </varray>
  </structure>
  <varray name="forces" >
   <v>      -0.22559485       0.02510655       0.06510584 </v>
   <v>       0.28621653       0.15127769      -0.08038977 </v>
   <v>      -0.08295280      -0.19101602      -0.01418570 </v>
   <v>       0.25954978       0.18412998       0.02487546 </v>
   <v>      -0.16744443       0.10928917      -0.05083498 </v>
   <v>      -0.01813710      -0.29351285       0.02435081 </v>
   <v>      -0.00778238       0.60790391       0.12876503 </v>
   <v>       0.05690457      -0.29629051      -0.10911630 </v>
   <v>      -0.09085612      -0.31426443       0.02988933 </v>
   <v>       0.19560679      -0.12769007      -2.93501242 </v>
   <v>      -0.21981871      -0.16473660       2.93666245 </v>
   <v>      -0.34612029       0.67161333      -1.45090019 </v>
   <v>      -0.52181186       0.69220106       2.15158949 </v>
   <v>       0.39354068      -0.72798275      -2.16015177 </v>
   <v>       0.32106158      -0.66627565       1.41996812 </v>
   <v>       0.20265685       0.18063403      -2.89561488 </v>
   <v>       0.69446135       0.14267758       2.14858454 </v>
   <v>      -0.65176065       0.15027992      -2.11323012 </v>
   <v>      -0.08006142       0.12224482       2.89126693 </v>
   <v>       0.88905465       0.00023657      -1.43689066 </v>
   <v>      -0.73740256       0.02208797       1.48304817 </v>
   <v>       0.34681922      -0.68704789      -2.14480440 </v>
   <v>      -0.35888418      -0.73066903       2.17328932 </v>
   <v>       0.48020929       0.58592603      -2.19882465 </v>
   <v>      -0.60667889       0.55425247       2.10711063 </v>
   <v>      -0.59175671      -0.00819568      -2.06505502 </v>
   <v>       0.58098168       0.00782041       2.07050474 </v>
  </varray>
  <varray name="stress" >
   <v>       7.29416646      -0.09675307      -1.50664130 </v>
   <v>      -0.09675304       4.46894668      -0.04748021 </v>
   <v>      -1.50664127      -0.04748019      30.29949514 </v>
  </varray>
  <energy>
   <i name="e_fr_energy">   -186.87028691 </i>
   <i name="e_wo_entrp">   -186.69809479 </i>
   <i name="e_0_energy">     -0.34438424 </i>
  </energy>
  <time name="totalsc">  789.26  791.38</time>
 </calculation>
 <calculation>
  <scstep>
   <time name="dav">   22.03   22.09</time>
   <time name="total">   22.58   22.63</time>
   <energy>
    <i name="alphaZ">     78.91935417 </i>
    <i name="ewald">  39378.96706572 </i>
    <i name="hartreedc"> -45336.45037704 </i>
    <i name="XCdc">   -239.06233181 </i>
    <i name="pawpsdc">   4192.10654906 </i>
    <i name="pawaedc">  -3610.12164562 </i>
    <i name="eentropy">     -0.28526180 </i>
    <i name="bandstr">  -1413.02163680 </i>
    <i name="atom">   6761.44252427 </i>
    <i name="e_fr_energy">   -187.50575986 </i>
    <i name="e_wo_entrp">   -187.22049806 </i>
    <i name="e_0_energy">   -187.36312896 </i>
   </energy>
  </scstep>
  <scstep>
   <time name="dav">   30.71   30.78</time>
   <time name="total">   31.24   31.32</time>
   <energy>
    <i name="e_fr_energy">   -189.49779293 </i>
    <i name="e_wo_entrp">   -189.16412090 </i>
    <i name="e_0_energy">   -189.33095692 </i>
   </energy>
  </scstep>
  <scstep>
   <time name="dav">   30.67   30.74</time>
   <time name="total">   31.21   31.29</time>
   <energy>
    <i name="e_fr_energy">   -189.35560031 </i>
    <i name="e_wo_entrp">   -189.07650363 </i>
    <i name="e_0_energy">   -189.21605197 </i>
   </energy>
  </scstep>
  <scstep>
   <time name="dav">   30.85   30.92</time>
   <time name="total">   31.39   31.47</time>
   <energy>
    <i name="e_fr_energy">   -188.79474754 </i>
    <i name="e_wo_entrp">   -188.50968962 </i>
    <i name="e_0_energy">   -188.65221858 </i>
   </energy>
  </scstep>
  <scstep>
   <time name="dav">   28.84   28.91</time>
   <time name="total">   29.38   29.46</time>
   <energy>
    <i name="e_fr_energy">   -188.86804639 </i>
    <i name="e_wo_entrp">   -188.57784856 </i>
    <i name="e_0_energy">   -188.72294747 </i>
   </energy>
  </scstep>
  <scstep>
   <time name="dav">   31.27   31.35</time>
   <time name="total">   31.81   31.89</time>
   <energy>
    <i name="e_fr_energy">   -188.78296199 </i>
    <i name="e_wo_entrp">   -188.49536490 </i>
    <i name="e_0_energy">   -188.63916344 </i>
   </energy>
  </scstep>
  <scstep>
   <time name="dav">   29.36   29.43</time>
   <time name="total">   29.91   29.99</time>
   <energy>
    <i name="e_fr_energy">   -188.70000486 </i>
    <i name="e_wo_entrp">   -188.41490598 </i>
    <i name="e_0_energy">   -188.55745542 </i>
   </energy>
  </scstep>
  <scstep>
   <time name="dav">   29.12   29.19</time>
   <time name="total">   29.67   29.75</time>
   <energy>
    <i name="e_fr_energy">   -188.68336737 </i>
    <i name="e_wo_entrp">   -188.39967583 </i>
    <i name="e_0_energy">   -188.54152160 </i>
   </energy>
  </scstep>
  <scstep>
   <time name="dav">   29.07   29.14</time>
   <time name="total">   29.62   29.70</time>
   <energy>
    <i name="e_fr_energy">   -188.68043683 </i>
    <i name="e_wo_entrp">   -188.39673559 </i>
    <i name="e_0_energy">   -188.53858621 </i>
   </energy>
  </scstep>
  <scstep>
   <time name="dav">   29.80   29.87</time>
   <time name="total">   30.35   30.43</time>
   <energy>
    <i name="e_fr_energy">   -188.67596242 </i>
    <i name="e_wo_entrp">   -188.39234535 </i>
    <i name="e_0_energy">   -188.53415388 </i>
   </energy>
  </scstep>
  <scstep>
   <time name="dav">   32.46   32.53</time>
   <time name="total">   33.00   33.08</time>
   <energy>
    <i name="e_fr_energy">   -188.67534761 </i>
    <i name="e_wo_entrp">   -188.39236946 </i>
    <i name="e_0_energy">   -188.53385854 </i>
   </energy>
  </scstep>
  <scstep>
   <time name="dav">   30.23   30.30</time>
   <time name="total">   30.78   30.86</time>
   <energy>
    <i name="e_fr_energy">   -188.67518562 </i>
    <i name="e_wo_entrp">   -188.39258747 </i>
    <i name="e_0_energy">   -188.53388654 </i>
   </energy>
  </scstep>
  <scstep>
   <time name="dav">   21.32   21.37</time>
   <time name="total">   21.36   21.42</time>
   <energy>
    <i name="alphaZ">     78.91935417 </i>
    <i name="ewald">  39378.96706572 </i>
    <i name="hartreedc"> -45347.21142587 </i>
    <i name="XCdc">   -237.97583040 </i>
    <i name="pawpsdc">   3950.41775333 </i>
    <i name="pawaedc">  -3364.92960717 </i>
    <i name="eentropy">     -0.28279119 </i>
    <i name="bandstr">  -1408.02226125 </i>
    <i name="atom">   6761.44252427 </i>
    <i name="e_fr_energy">   -188.67521838 </i>
    <i name="e_wo_entrp">   -188.39242720 </i>
    <i name="e_0_energy">   -188.53382279 </i>
   </energy>
  </scstep>
  <structure>
   <crystal>
    <varray name="basis" >
     <v>       8.85348082       5.10340292       0.00000000 </v>
     <v>      -8.85633224       5.10830853       0.00000000 </v>
     <v>       0.00000000       0.00000000      30.00000000 </v>
    </varray>
    <i name="volume">   2712.71230233 </i>
    <varray name="rec_basis" >
     <v>       0.05649300       0.09794255       0.00000000 </v>
     <v>      -0.05643875       0.09791102       0.00000000 </v>
     <v>       0.00000000       0.00000000       0.03333333 </v>
    </varray>
   </crystal>
   <varray name="positions" >
    <v>       0.66615920       0.00074780       0.00010470 </v>
    <v>       0.00152031       0.66659440      -0.00012927 </v>
    <v>       0.33218836       0.66598328      -0.00002281 </v>
    <v>       1.00160335       0.33349248       0.00004000 </v>
    <v>       0.33339054       0.00098891      -0.00008175 </v>
    <v>       0.33187814       0.33197906       0.00003916 </v>
    <v>       0.00288776       0.00293107       0.00020707 </v>
    <v>       0.66540696       0.33175699      -0.00017547 </v>
    <v>       0.66490985       0.66541540       0.00004806 </v>
    <v>       0.11061820       0.22129448       0.95068023 </v>
    <v>       0.22104981       0.11050826       0.04932241 </v>
    <v>       0.11293647       0.55996044       0.95306681 </v>
    <v>       0.22431090       0.44878308       0.04805994 </v>
    <v>       0.10829589       0.88453746       0.95192627 </v>
    <v>       0.22015427       0.77326977       0.04688343 </v>
    <v>       0.44544679       0.22275050       0.95074359 </v>
    <v>       0.55839811       0.10943586       0.04805511 </v>
    <v>       0.44292439       0.55831569       0.95200173 </v>
    <v>       0.55614547       0.44482626       0.04924941 </v>
    <v>       0.44649308       0.88664411       0.95308934 </v>
    <v>       0.55383729       0.77950908       0.04698487 </v>
    <v>       0.77502851       0.21819671       0.95195095 </v>
    <v>       0.88462103       0.10818662       0.04809484 </v>
    <v>       0.78149204       0.55725136       0.95186409 </v>
    <v>       0.89008123       0.44835897       0.04798842 </v>
    <v>       0.77566621       0.89072360       0.95207920 </v>
    <v>       0.89077028       0.77577284       0.04792955 </v>
   </varray>
  </structure>
  <varray name="forces" >
   <v>      -0.19409866       0.05821810      -0.07243539 </v>
   <v>       0.18741638       0.07122154       0.05067022 </v>
   <v>      -0.02550598      -0.15986161      -0.00250619 </v>
   <v>       0.39088504       0.07169494       0.08571701 </v>
   <v>      -0.41274858       0.24418425      -0.08116375 </v>
   <v>       0.11005949      -0.40074274       0.01074855 </v>
   <v>      -0.02248730       0.72681221       0.03334454 </v>
   <v>      -0.11103537      -0.26462213      -0.03952534 </v>
   <v>       0.07204016      -0.35047035      -0.01304451 </v>
   <v>       0.06319209      -0.10213802      -0.22685143 </v>
   <v>      -0.06325512      -0.10495621       0.27815873 </v>
   <v>       0.00569091       0.05531878      -0.03075667 </v>
   <v>      -0.04064516       0.07879740       0.07195499 </v>
   <v>      -0.11832525      -0.05786099       0.03319669 </v>
   <v>       0.01622050      -0.02717352      -0.08726024 </v>
   <v>       0.04148078       0.12102160      -0.17715489 </v>
   <v>      -0.00880827       0.09703286       0.07618471 </v>
   <v>       0.01773381       0.10277062       0.01384719 </v>
   <v>       0.07038545       0.08447803       0.00075045 </v>
   <v>       0.03126036      -0.00774154       0.16131560 </v>
   <v>       0.09382345      -0.00745941      -0.12546684 </v>
   <v>      -0.10259628      -0.05157895       0.05418377 </v>
   <v>       0.11948538      -0.05781210       0.00470515 </v>
   <v>      -0.04468562      -0.06280983       0.10800869 </v>
   <v>      -0.07926257      -0.05459361      -0.16732876 </v>
   <v>       0.09935677      -0.00325299       0.27127168 </v>
   <v>      -0.09557639       0.00152368      -0.23056399 </v>
  </varray>
  <varray name="stress" >
   <v>     -19.90483105       0.01818175       0.01133463 </v>
   <v>       0.01818172     -19.50041754       0.02032094 </v>
   <v>       0.01133474       0.02032083      -1.74843395 </v>
  </varray>
  <energy>
   <i name="e_fr_energy">   -188.67521838 </i>
   <i name="e_wo_entrp">   -188.53382279 </i>
   <i name="e_0_energy">     -0.28279119 </i>
  </energy>
  <time name="totalsc">  425.05  426.17</time>
 </calculation>
 <calculation>
  <scstep>
   <time name="dav">   24.01   24.07</time>
   <time name="total">   24.54   24.61</time>
   <energy>
    <i name="alphaZ">     82.33974263 </i>
    <i name="ewald">  41300.34127577 </i>
    <i name="hartreedc"> -47299.13282208 </i>
    <i name="XCdc">   -233.85604608 </i>
    <i name="pawpsdc">   3949.96290086 </i>
    <i name="pawaedc">  -3364.47022757 </i>
    <i name="eentropy">     -0.23718967 </i>
    <i name="bandstr">  -1386.98475588 </i>
    <i name="atom">   6761.44252427 </i>
    <i name="e_fr_energy">   -190.59459776 </i>
    <i name="e_wo_entrp">   -190.35740809 </i>
    <i name="e_0_energy">   -190.47600292 </i>
   </energy>
  </scstep>
  <scstep>
   <time name="dav">   28.28   28.35</time>
   <time name="total">   28.80   28.88</time>
   <energy>
    <i name="e_fr_energy">   -190.55957376 </i>
    <i name="e_wo_entrp">   -190.31613771 </i>
    <i name="e_0_energy">   -190.43785574 </i>
   </energy>
  </scstep>
  <scstep>
   <time name="dav">   30.66   30.73</time>
   <time name="total">   31.19   31.27</time>
   <energy>
    <i name="e_fr_energy">   -190.07910353 </i>
    <i name="e_wo_entrp">   -189.82832096 </i>
    <i name="e_0_energy">   -189.95371224 </i>
   </energy>
  </scstep>
  <scstep>
   <time name="dav">   31.47   31.55</time>
   <time name="total">   32.00   32.09</time>
   <energy>
    <i name="e_fr_energy">   -189.87501936 </i>
    <i name="e_wo_entrp">   -189.63581035 </i>
    <i name="e_0_energy">   -189.75541485 </i>
   </energy>
  </scstep>
  <scstep>
   <time name="dav">   30.43   30.51</time>
   <time name="total">   30.97   31.26</time>
   <energy>
    <i name="e_fr_energy">   -189.91365839 </i>
    <i name="e_wo_entrp">   -189.66703819 </i>
    <i name="e_0_energy">   -189.79034829 </i>
   </energy>
  </scstep>
  <scstep>
   <time name="dav">   30.54   30.62</time>
   <time name="total">   31.08   31.16</time>
   <energy>
    <i name="e_fr_energy">   -189.77097982 </i>
    <i name="e_wo_entrp">   -189.53076903 </i>
    <i name="e_0_energy">   -189.65087442 </i>
   </energy>
  </scstep>
  <scstep>
   <time name="dav">   30.40   30.47</time>
   <time name="total">   30.93   31.02</time>
   <energy>
    <i name="e_fr_energy">   -189.76443605 </i>
    <i name="e_wo_entrp">   -189.52414397 </i>
    <i name="e_0_energy">   -189.64429001 </i>
   </energy>
  </scstep>
  <scstep>
   <time name="dav">   29.42   29.50</time>
   <time name="total">   29.96   30.03</time>
   <energy>
    <i name="e_fr_energy">   -189.76523112 </i>
    <i name="e_wo_entrp">   -189.52497174 </i>
    <i name="e_0_energy">   -189.64510143 </i>
   </energy>
  </scstep>
  <scstep>
   <time name="dav">   26.47   26.54</time>
   <time name="total">   27.00   27.08</time>
   <energy>
    <i name="e_fr_energy">   -189.76447305 </i>
    <i name="e_wo_entrp">   -189.52424392 </i>
    <i name="e_0_energy">   -189.64435849 </i>
   </energy>
  </scstep>
  <scstep>
   <time name="dav">   25.88   25.94</time>
   <time name="total">   26.41   26.48</time>
   <energy>
    <i name="e_fr_energy">   -189.76463890 </i>
    <i name="e_wo_entrp">   -189.52427298 </i>
    <i name="e_0_energy">   -189.64445594 </i>
   </energy>
  </scstep>
  <scstep>
   <time name="dav">   23.23   23.29</time>
   <time name="total">   23.76   23.83</time>
   <energy>
    <i name="e_fr_energy">   -189.76446033 </i>
    <i name="e_wo_entrp">   -189.52412249 </i>
    <i name="e_0_energy">   -189.64429141 </i>
   </energy>
  </scstep>
  <scstep>
   <time name="dav">   20.50   20.55</time>
   <time name="total">   20.53   20.59</time>
   <energy>
    <i name="alphaZ">     82.33974263 </i>
    <i name="ewald">  41300.34127577 </i>
    <i name="hartreedc"> -47272.61028916 </i>
    <i name="XCdc">   -235.24664251 </i>
    <i name="pawpsdc">   4038.77181560 </i>
    <i name="pawaedc">  -3454.47792954 </i>
    <i name="eentropy">     -0.24032009 </i>
    <i name="bandstr">  -1410.08465741 </i>
    <i name="atom">   6761.44252427 </i>
    <i name="e_fr_energy">   -189.76448043 </i>
    <i name="e_wo_entrp">   -189.52416034 </i>
    <i name="e_0_energy">   -189.64432039 </i>
   </energy>
  </scstep>
  <structure>
   <crystal>
    <varray name="basis" >
     <v>       8.66583571       4.99755212       0.00000000 </v>
     <v>      -8.66842887       5.00201277       0.00000000 </v>
     <v>       0.00000000       0.00000000      30.00000000 </v>
    </varray>
    <i name="volume">   2600.02637969 </i>
    <varray name="rec_basis" >
     <v>       0.05771495       0.10001932       0.00000000 </v>
     <v>      -0.05766348       0.09998940       0.00000000 </v>
     <v>       0.00000000       0.00000000       0.03333333 </v>
    </varray>
   </crystal>
   <varray name="positions" >
    <v>       0.66606979       0.00103075       0.00006368 </v>
    <v>       0.00181869       0.66653317      -0.00010058 </v>
    <v>       0.33189788       0.66574182      -0.00002423 </v>
    <v>       1.00209780       0.33323694       0.00008854 </v>
    <v>       0.33340071       0.00179084      -0.00012771 </v>
    <v>       0.33131696       0.33120694       0.00004525 </v>
    <v>       0.00407555       0.00416160       0.00022595 </v>
    <v>       0.66486008       0.33142328      -0.00019785 </v>
    <v>       0.66439583       0.66476336       0.00004068 </v>
    <v>       0.11050890       0.22106399       0.95055177 </v>
    <v>       0.22081446       0.11039432       0.04947993 </v>
    <v>       0.11303398       0.56004700       0.95304940 </v>
    <v>       0.22440301       0.44895312       0.04810069 </v>
    <v>       0.10808605       0.88455467       0.95194507 </v>
    <v>       0.22012463       0.77320902       0.04683402 </v>
    <v>       0.44568797       0.22291203       0.95064326 </v>
    <v>       0.55855111       0.10960571       0.04809826 </v>
    <v>       0.44311241       0.55846964       0.95200957 </v>
    <v>       0.55635359       0.44489929       0.04924984 </v>
    <v>       0.44651020       0.88660126       0.95318069 </v>
    <v>       0.55391493       0.77940671       0.04691382 </v>
    <v>       0.77484422       0.21820928       0.95198164 </v>
    <v>       0.88463951       0.10797589       0.04809750 </v>
    <v>       0.78134465       0.55718973       0.95192525 </v>
    <v>       0.88991432       0.44834416       0.04789366 </v>
    <v>       0.77575616       0.89062293       0.95223282 </v>
    <v>       0.89068108       0.77586702       0.04779899 </v>
   </varray>
  </structure>
  <varray name="forces" >
   <v>      -0.19719776       0.08427585      -0.08623598 </v>
   <v>       0.14106039       0.03031446       0.07198423 </v>
   <v>       0.00505539      -0.15399135       0.00113468 </v>
   <v>       0.42291818       0.02999925       0.07775619 </v>
   <v>      -0.48665021       0.28976424      -0.06239898 </v>
   <v>       0.16466203      -0.43364445       0.00408672 </v>
   <v>      -0.02287710       0.74355820      -0.00242449 </v>
   <v>      -0.16619898      -0.25772174      -0.00548155 </v>
   <v>       0.13012288      -0.35216220      -0.02184218 </v>
   <v>       0.02219981      -0.02881216      -0.80218584 </v>
   <v>      -0.01027979      -0.02261722       0.87083739 </v>
   <v>      -0.02111762       0.11179028      -0.48849291 </v>
   <v>      -0.06939891       0.15386302       0.56810001 </v>
   <v>      -0.01352970      -0.11616197      -0.46262516 </v>
   <v>       0.04562533      -0.06715516       0.34792425 </v>
   <v>      -0.00884347       0.05215861      -0.75018462 </v>
   <v>       0.09358292       0.02082167       0.57990932 </v>
   <v>      -0.09726039       0.00944960      -0.48860615 </v>
   <v>       0.03944055       0.00206125       0.56303824 </v>
   <v>       0.09563718      -0.01341359      -0.27550089 </v>
   <v>      -0.07455008      -0.01118077       0.33930220 </v>
   <v>       0.02180255      -0.09716335      -0.43767163 </v>
   <v>       0.00453073      -0.12318864       0.51415318 </v>
   <v>       0.04160070       0.06130411      -0.40791854 </v>
   <v>      -0.07281543       0.05983272       0.30456696 </v>
   <v>      -0.02522495       0.01348017      -0.19761939 </v>
   <v>       0.03770576       0.01453918       0.24639495 </v>
  </varray>
  <varray name="stress" >
   <v>     -10.14604564       0.02136201      -0.01395055 </v>
   <v>       0.02136190      -9.85424914       0.03868321 </v>
   <v>      -0.01395037       0.03868302       6.48673455 </v>
  </varray>
  <energy>
   <i name="e_fr_energy">   -189.76448043 </i>
   <i name="e_wo_entrp">   -189.64432039 </i>
   <i name="e_0_energy">     -0.24032009 </i>
  </energy>
  <time name="totalsc">  379.87  381.09</time>
 </calculation>
 <calculation>
  <scstep>
   <time name="dav">   21.93   21.98</time>
   <time name="total">   22.45   22.50</time>
   <energy>
    <i name="alphaZ">     85.81967044 </i>
    <i name="ewald">  42832.62442153 </i>
    <i name="hartreedc"> -48849.36797797 </i>
    <i name="XCdc">   -232.95830404 </i>
    <i name="pawpsdc">   4038.81289022 </i>
    <i name="pawaedc">  -3454.51652904 </i>
    <i name="eentropy">     -0.20362533 </i>
    <i name="bandstr">  -1372.98688727 </i>
    <i name="atom">   6761.44252427 </i>
    <i name="e_fr_energy">   -191.33381719 </i>
    <i name="e_wo_entrp">   -191.13019186 </i>
    <i name="e_0_energy">   -191.23200453 </i>
   </energy>
  </scstep>
  <scstep>
   <time name="dav">   32.48   32.56</time>
   <time name="total">   32.99   33.08</time>
   <energy>
    <i name="e_fr_energy">   -191.18003924 </i>
    <i name="e_wo_entrp">   -190.97059282 </i>
    <i name="e_0_energy">   -191.07531603 </i>
   </energy>
  </scstep>
  <scstep>
   <time name="dav">   30.43   30.50</time>
   <time name="total">   30.94   31.02</time>
   <energy>
    <i name="e_fr_energy">   -191.27860553 </i>
    <i name="e_wo_entrp">   -191.05751747 </i>
    <i name="e_0_energy">   -191.16806150 </i>
   </energy>
  </scstep>
  <scstep>
   <time name="dav">   32.05   32.13</time>
   <time name="total">   32.57   32.66</time>
   <energy>
    <i name="e_fr_energy">   -190.88080501 </i>
    <i name="e_wo_entrp">   -190.67354125 </i>
    <i name="e_0_energy">   -190.77717313 </i>
   </energy>
  </scstep>
  <scstep>
   <time name="dav">   30.42   30.49</time>
   <time name="total">   30.94   31.02</time>
   <energy>
    <i name="e_fr_energy">   -190.80777912 </i>
    <i name="e_wo_entrp">   -190.59739564 </i>
    <i name="e_0_energy">   -190.70258738 </i>
   </energy>
  </scstep>
  <scstep>
   <time name="dav">   30.81   30.89</time>
   <time name="total">   31.34   31.41</time>
   <energy>
    <i name="e_fr_energy">   -190.77184401 </i>
    <i name="e_wo_entrp">   -190.56113338 </i>
    <i name="e_0_energy">   -190.66648870 </i>
   </energy>
  </scstep>
  <scstep>
   <time name="dav">   29.65   29.72</time>
   <time name="total">   30.17   30.25</time>
   <energy>
    <i name="e_fr_energy">   -190.75297268 </i>
    <i name="e_wo_entrp">   -190.54307655 </i>
    <i name="e_0_energy">   -190.64802462 </i>
   </energy>
  </scstep>
  <scstep>
   <time name="dav">   28.31   28.38</time>
   <time name="total">   28.83   28.91</time>
   <energy>
    <i name="e_fr_energy">   -190.74989933 </i>
    <i name="e_wo_entrp">   -190.53994706 </i>
    <i name="e_0_energy">   -190.64492320 </i>
   </energy>
  </scstep>
  <scstep>
   <time name="dav">   27.53   27.59</time>
   <time name="total">   28.04   28.12</time>
   <energy>
    <i name="e_fr_energy">   -190.74961995 </i>
    <i name="e_wo_entrp">   -190.53969220 </i>
    <i name="e_0_energy">   -190.64465608 </i>
   </energy>
  </scstep>
  <scstep>
   <time name="dav">   28.48   28.55</time>
   <time name="total">   29.00   29.07</time>
   <energy>
    <i name="e_fr_energy">   -190.74971056 </i>
    <i name="e_wo_entrp">   -190.53953239 </i>
    <i name="e_0_energy">   -190.64462148 </i>
   </energy>
  </scstep>
  <scstep>
   <time name="dav">   25.83   25.89</time>
   <time name="total">   26.35   26.42</time>
   <energy>
    <i name="e_fr_energy">   -190.74948003 </i>
    <i name="e_wo_entrp">   -190.53956002 </i>
    <i name="e_0_energy">   -190.64452002 </i>
   </energy>
  </scstep>
  <scstep>
   <time name="dav">   20.46   20.50</time>
   <time name="total">   20.49   20.55</time>
   <energy>
    <i name="alphaZ">     85.81967044 </i>
    <i name="ewald">  42832.62442153 </i>
    <i name="hartreedc"> -48820.75917282 </i>
    <i name="XCdc">   -234.28794678 </i>
    <i name="pawpsdc">   4063.76729756 </i>
    <i name="pawaedc">  -3479.65542044 </i>
    <i name="eentropy">     -0.20994622 </i>
    <i name="bandstr">  -1399.49090192 </i>
    <i name="atom">   6761.44252427 </i>
    <i name="e_fr_energy">   -190.74947438 </i>
    <i name="e_wo_entrp">   -190.53952816 </i>
    <i name="e_0_energy">   -190.64450127 </i>
   </energy>
  </scstep>
  <structure>
   <crystal>
    <varray name="basis" >
     <v>       8.48499844       4.89804519       0.00000000 </v>
     <v>      -8.48671624       4.90099297       0.00000000 </v>
     <v>       0.00000000       0.00000000      30.00000000 </v>
    </varray>
    <i name="volume">   2494.59712249 </i>
    <varray name="rec_basis" >
     <v>       0.05893929       0.10206116       0.00000000 </v>
     <v>      -0.05890384       0.10204051       0.00000000 </v>
     <v>       0.00000000       0.00000000       0.03333333 </v>
    </varray>
   </crystal>
   <varray name="positions" >
    <v>       0.66594537       0.00233992      -0.00012650 </v>
    <v>       0.00234967       0.66617819       0.00006648 </v>
    <v>       0.33101038       0.66473018      -0.00001879 </v>
    <v>       1.00375633       0.33174751       0.00024270 </v>
    <v>       0.33346383       0.00558224      -0.00024092 </v>
    <v>       0.32919287       0.32773686       0.00004805 </v>
    <v>       0.00869064       0.00894176       0.00019057 </v>
    <v>       0.66258324       0.33050641      -0.00018030 </v>
    <v>       0.66274004       0.66200096      -0.00001199 </v>
    <v>       0.11053261       0.22104517       0.94840329 </v>
    <v>       0.22091724       0.11041900       0.05178521 </v>
    <v>       0.11376003       0.56100248       0.95164993 </v>
    <v>       0.22526161       0.45039552       0.04969751 </v>
    <v>       0.10731503       0.88358030       0.95056681 </v>
    <v>       0.21981155       0.77248187       0.04792344 </v>
    <v>       0.44573851       0.22317115       0.94860436 </v>
    <v>       0.55897697       0.10906095       0.04972595 </v>
    <v>       0.44242188       0.55881262       0.95057191 </v>
    <v>       0.55625898       0.44460875       0.05089233 </v>
    <v>       0.44685033       0.88606525       0.95223977 </v>
    <v>       0.55332396       0.77983864       0.04801051 </v>
    <v>       0.77437979       0.21722979       0.95065838 </v>
    <v>       0.88355598       0.10719048       0.04959397 </v>
    <v>       0.78231261       0.55760875       0.95064313 </v>
    <v>       0.89032051       0.44925774       0.04892452 </v>
    <v>       0.77561192       0.89101918       0.95142584 </v>
    <v>       0.89113262       0.77566278       0.04871376 </v>
   </varray>
  </structure>
  <varray name="forces" >
   <v>      -0.22316541       0.09350165      -0.08301363 </v>
   <v>       0.09564123      -0.03177841       0.08156455 </v>
   <v>       0.03014378      -0.11578077       0.00688663 </v>
   <v>       0.44546208       0.01939173       0.04262739 </v>
   <v>      -0.50294842       0.31924776      -0.00799154 </v>
   <v>       0.22209259      -0.41642975      -0.00307329 </v>
   <v>      -0.02087556       0.74052794      -0.03150049 </v>
   <v>      -0.23854021      -0.25627766       0.03094016 </v>
   <v>       0.17426046      -0.40054094      -0.03430355 </v>
   <v>       0.00537914       0.04448343      -0.61738441 </v>
   <v>       0.00174957       0.03071542       0.70340278 </v>
   <v>       0.04497292       0.01618232      -0.36576073 </v>
   <v>       0.01562399       0.04781283       0.40001770 </v>
   <v>      -0.02207578       0.01802449      -0.30492426 </v>
   <v>      -0.01257835       0.05672497       0.22411631 </v>
   <v>      -0.04565102       0.00901635      -0.59838641 </v>
   <v>      -0.00523311      -0.02507679       0.39047925 </v>
   <v>      -0.02457730      -0.08246249      -0.31987450 </v>
   <v>      -0.00599331      -0.09325974       0.41354266 </v>
   <v>      -0.05198088      -0.02001588      -0.19201245 </v>
   <v>      -0.04239299      -0.03002140       0.23165120 </v>
   <v>       0.01068512       0.01204489      -0.26075436 </v>
   <v>       0.03082984      -0.02626899       0.38306719 </v>
   <v>       0.06868910       0.00617839      -0.31255751 </v>
   <v>       0.03562435      -0.02055884       0.14666908 </v>
   <v>       0.04928352       0.04800222      -0.00010087 </v>
   <v>      -0.03442531       0.05661726       0.07667310 </v>
  </varray>
  <varray name="stress" >
   <v>      -5.78960142      -0.07921088      -0.04017930 </v>
   <v>      -0.07921089      -5.70816422      -0.05368608 </v>
   <v>      -0.04017952      -0.05368606       4.48948931 </v>
  </varray>
  <energy>
   <i name="e_fr_energy">   -190.74947438 </i>
   <i name="e_wo_entrp">   -190.64450127 </i>
   <i name="e_0_energy">     -0.20994622 </i>
  </energy>
  <time name="totalsc">  386.73  387.74</time>
 </calculation>
 <calculation>
  <scstep>
   <time name="dav">   21.99   22.05</time>
   <time name="total">   22.51   22.56</time>
   <energy>
    <i name="alphaZ">     90.18033450 </i>
    <i name="ewald">  44666.31910621 </i>
    <i name="hartreedc"> -50709.83824092 </i>
    <i name="XCdc">   -231.83540053 </i>
    <i name="pawpsdc">   4063.73670941 </i>
    <i name="pawaedc">  -3479.61948003 </i>
    <i name="eentropy">     -0.19664443 </i>
    <i name="bandstr">  -1352.30955072 </i>
    <i name="atom">   6761.44252427 </i>
    <i name="e_fr_energy">   -192.12064223 </i>
    <i name="e_wo_entrp">   -191.92399780 </i>
    <i name="e_0_energy">   -192.02232001 </i>
   </energy>
  </scstep>
  <scstep>
   <time name="dav">   28.39   28.46</time>
   <time name="total">   28.90   28.98</time>
   <energy>
    <i name="e_fr_energy">   -191.85328387 </i>
    <i name="e_wo_entrp">   -191.64984987 </i>
    <i name="e_0_energy">   -191.75156687 </i>
   </energy>
  </scstep>
  <scstep>
   <time name="dav">   29.65   29.73</time>
   <time name="total">   30.16   30.24</time>
   <energy>
    <i name="e_fr_energy">   -191.98484239 </i>
    <i name="e_wo_entrp">   -191.78088190 </i>
    <i name="e_0_energy">   -191.88286215 </i>
   </energy>
  </scstep>
  <scstep>
   <time name="dav">   28.79   28.86</time>
   <time name="total">   29.30   29.37</time>
   <energy>
    <i name="e_fr_energy">   -191.74778778 </i>
    <i name="e_wo_entrp">   -191.54727362 </i>
    <i name="e_0_energy">   -191.64753070 </i>
   </energy>
  </scstep>
  <scstep>
   <time name="dav">   30.43   30.50</time>
   <time name="total">   30.94   31.02</time>
   <energy>
    <i name="e_fr_energy">   -191.57769520 </i>
    <i name="e_wo_entrp">   -191.37418706 </i>
    <i name="e_0_energy">   -191.47594113 </i>
   </energy>
  </scstep>
  <scstep>
   <time name="dav">   30.59   30.67</time>
   <time name="total">   31.10   31.18</time>
   <energy>
    <i name="e_fr_energy">   -191.43581835 </i>
    <i name="e_wo_entrp">   -191.22994805 </i>
    <i name="e_0_energy">   -191.33288320 </i>
   </energy>
  </scstep>
  <scstep>
   <time name="dav">   30.46   30.54</time>
   <time name="total">   30.97   31.05</time>
   <energy>
    <i name="e_fr_energy">   -191.42819493 </i>
    <i name="e_wo_entrp">   -191.22418714 </i>
    <i name="e_0_energy">   -191.32619103 </i>
   </energy>
  </scstep>
  <scstep>
   <time name="dav">   30.18   30.25</time>
   <time name="total">   30.69   30.77</time>
   <energy>
    <i name="e_fr_energy">   -191.42597201 </i>
    <i name="e_wo_entrp">   -191.22111910 </i>
    <i name="e_0_energy">   -191.32354555 </i>
   </energy>
  </scstep>
  <scstep>
   <time name="dav">   30.77   30.85</time>
   <time name="total">   31.28   31.37</time>
   <energy>
    <i name="e_fr_energy">   -191.41926213 </i>
    <i name="e_wo_entrp">   -191.21440534 </i>
    <i name="e_0_energy">   -191.31683374 </i>
   </energy>
  </scstep>
  <scstep>
   <time name="dav">   27.90   27.97</time>
   <time name="total">   28.40   28.48</time>
   <energy>
    <i name="e_fr_energy">   -191.41956979 </i>
    <i name="e_wo_entrp">   -191.21444290 </i>
    <i name="e_0_energy">   -191.31700635 </i>
   </energy>
  </scstep>
  <scstep>
   <time name="dav">   28.18   28.24</time>
   <time name="total">   28.69   28.76</time>
   <energy>
    <i name="e_fr_energy">   -191.41941719 </i>
    <i name="e_wo_entrp">   -191.21443573 </i>
    <i name="e_0_energy">   -191.31692646 </i>
   </energy>
  </scstep>
  <scstep>
   <time name="dav">   19.91   19.96</time>
   <time name="total">   19.94   20.00</time>
   <energy>
    <i name="alphaZ">     90.18033450 </i>
    <i name="ewald">  44666.31910621 </i>
    <i name="hartreedc"> -50675.87985790 </i>
    <i name="XCdc">   -233.36281804 </i>
    <i name="pawpsdc">   4085.77713504 </i>
    <i name="pawaedc">  -3501.75568628 </i>
    <i name="eentropy">     -0.20506082 </i>
    <i name="bandstr">  -1383.93507827 </i>
    <i name="atom">   6761.44252427 </i>
    <i name="e_fr_energy">   -191.41940128 </i>
    <i name="e_wo_entrp">   -191.21434046 </i>
    <i name="e_0_energy">   -191.31687087 </i>
   </energy>
  </scstep>
  <structure>
   <crystal>
    <varray name="basis" >
     <v>       8.27297358       4.77553336       0.00000000 </v>
     <v>      -8.27909043       4.78610202       0.00000000 </v>
     <v>       0.00000000       0.00000000      30.00000000 </v>
    </varray>
    <i name="volume">   2373.97104502 </i>
    <varray name="rec_basis" >
     <v>       0.06048223       0.10462331       0.00000000 </v>
     <v>      -0.06034867       0.10454601       0.00000000 </v>
     <v>       0.00000000       0.00000000       0.03333333 </v>
    </varray>
   </crystal>
   <varray name="positions" >
    <v>       0.66558978       0.00511691      -0.00047488 </v>
    <v>       0.00258992       0.66512620       0.00040959 </v>
    <v>       0.32977925       0.66301711       0.00000934 </v>
    <v>       1.00709114       0.32868605       0.00042470 </v>
    <v>       0.33379350       0.01327644      -0.00028364 </v>
    <v>       0.32555655       0.32087268       0.00003299 </v>
    <v>       0.01771091       0.01826202       0.00004451 </v>
    <v>       0.65772690       0.32908667      -0.00004212 </v>
    <v>       0.65917781       0.65585351      -0.00015161 </v>
    <v>       0.11115633       0.22169678       0.94526009 </v>
    <v>       0.22153428       0.11085727       0.05528130 </v>
    <v>       0.11449375       0.56131367       0.94966543 </v>
    <v>       0.22622590       0.45139738       0.05188162 </v>
    <v>       0.10717041       0.88338304       0.94877009 </v>
    <v>       0.22020313       0.77284180       0.04931801 </v>
    <v>       0.44534886       0.22352765       0.94555734 </v>
    <v>       0.55875321       0.10837921       0.05189070 </v>
    <v>       0.44085268       0.55811730       0.94870277 </v>
    <v>       0.55498058       0.44343163       0.05318594 </v>
    <v>       0.44647877       0.88593313       0.95099400 </v>
    <v>       0.55236122       0.78010305       0.04945582 </v>
    <v>       0.77450827       0.21676946       0.94903249 </v>
    <v>       0.88288310       0.10651418       0.05170336 </v>
    <v>       0.78344674       0.55753022       0.94882938 </v>
    <v>       0.89069262       0.44931080       0.05006284 </v>
    <v>       0.77626419       0.89153048       0.95085727 </v>
    <v>       0.89184465       0.77627982       0.04958259 </v>
   </varray>
  </structure>
  <varray name="forces" >
   <v>      -0.29880047       0.10742698      -0.01976024 </v>
   <v>       0.08539962      -0.07665624       0.01710273 </v>
   <v>       0.02930897      -0.06857703       0.02212516 </v>
   <v>       0.30389366       0.07541124      -0.02466143 </v>
   <v>      -0.14226524       0.20405422       0.05510809 </v>
   <v>       0.07606363       0.06233704      -0.03383962 </v>
   <v>      -0.01081649       0.29018189       0.04810310 </v>
   <v>      -0.31502867      -0.21418122      -0.04834040 </v>
   <v>       0.21800230      -0.49105076      -0.05978318 </v>
   <v>       0.00709946       0.12203882      -0.28737673 </v>
   <v>       0.00824998       0.04719450       0.29286909 </v>
   <v>       0.06861236      -0.07011784      -0.02118643 </v>
   <v>       0.14554998      -0.07806684       0.06575795 </v>
   <v>      -0.08284444       0.15840315       0.01989310 </v>
   <v>      -0.07279652       0.16083342      -0.07438121 </v>
   <v>      -0.07361758       0.00406115      -0.24513883 </v>
   <v>      -0.10062700      -0.02484122       0.11115618 </v>
   <v>       0.07125861      -0.14705842      -0.05949382 </v>
   <v>      -0.02982519      -0.17333826       0.22994779 </v>
   <v>      -0.23372711      -0.01244520       0.04488544 </v>
   <v>       0.04325046      -0.02398842      -0.07199652 </v>
   <v>      -0.07075682       0.12401541       0.07007032 </v>
   <v>       0.11498931       0.05529930       0.05964342 </v>
   <v>       0.07656876      -0.07844487      -0.06350915 </v>
   <v>       0.16236841      -0.16044126      -0.12054381 </v>
   <v>       0.18528025       0.09269469       0.33820683 </v>
   <v>      -0.16479020       0.11525577      -0.24485784 </v>
  </varray>
  <varray name="stress" >
   <v>       0.10220494      -0.28335574       0.18436072 </v>
   <v>      -0.28335568       0.27098694      -0.29740977 </v>
   <v>       0.18436067      -0.29740966      -0.57833177 </v>
  </varray>
  <energy>
   <i name="e_fr_energy">   -191.41940128 </i>
   <i name="e_wo_entrp">   -191.31687087 </i>
   <i name="e_0_energy">     -0.20506082 </i>
  </energy>
  <time name="totalsc">  385.47  386.49</time>
 </calculation>
 <calculation>
  <scstep>
   <time name="dav">   21.91   21.96</time>
   <time name="total">   22.42   22.47</time>
   <energy>
    <i name="alphaZ">     90.05317703 </i>
    <i name="ewald">  44594.07981197 </i>
    <i name="hartreedc"> -50602.84501260 </i>
    <i name="XCdc">   -233.51076546 </i>
    <i name="pawpsdc">   4085.71255583 </i>
    <i name="pawaedc">  -3501.68680264 </i>
    <i name="eentropy">     -0.20880861 </i>
    <i name="bandstr">  -1384.52524267 </i>
    <i name="atom">   6761.44252427 </i>
    <i name="e_fr_energy">   -191.48856288 </i>
    <i name="e_wo_entrp">   -191.27975427 </i>
    <i name="e_0_energy">   -191.38415857 </i>
   </energy>
  </scstep>
  <scstep>
   <time name="dav">   33.33   33.41</time>
   <time name="total">   33.83   33.92</time>
   <energy>
    <i name="e_fr_energy">   -191.55599132 </i>
    <i name="e_wo_entrp">   -191.34217052 </i>
    <i name="e_0_energy">   -191.44908092 </i>
   </energy>
  </scstep>
  <scstep>
   <time name="dav">   30.67   30.74</time>
   <time name="total">   31.18   31.26</time>
   <energy>
    <i name="e_fr_energy">   -191.50182244 </i>
    <i name="e_wo_entrp">   -191.29216626 </i>
    <i name="e_0_energy">   -191.39699435 </i>
   </energy>
  </scstep>
  <scstep>
   <time name="dav">   28.72   28.78</time>
   <time name="total">   29.22   29.30</time>
   <energy>
    <i name="e_fr_energy">   -191.50358909 </i>
    <i name="e_wo_entrp">   -191.29429251 </i>
    <i name="e_0_energy">   -191.39894080 </i>
   </energy>
  </scstep>
  <scstep>
   <time name="dav">   28.61   28.68</time>
   <time name="total">   29.12   29.19</time>
   <energy>
    <i name="e_fr_energy">   -191.49914006 </i>
    <i name="e_wo_entrp">   -191.28919719 </i>
    <i name="e_0_energy">   -191.39416863 </i>
   </energy>
  </scstep>
  <scstep>
   <time name="dav">   27.04   27.10</time>
   <time name="total">   27.55   27.62</time>
   <energy>
    <i name="e_fr_energy">   -191.49901817 </i>
    <i name="e_wo_entrp">   -191.28907520 </i>
    <i name="e_0_energy">   -191.39404669 </i>
   </energy>
  </scstep>
  <scstep>
   <time name="dav">   29.01   29.08</time>
   <time name="total">   29.53   29.61</time>
   <energy>
    <i name="e_fr_energy">   -191.49957790 </i>
    <i name="e_wo_entrp">   -191.28987228 </i>
    <i name="e_0_energy">   -191.39472509 </i>
   </energy>
  </scstep>
  <scstep>
   <time name="dav">   24.84   24.90</time>
   <time name="total">   25.34   25.41</time>
   <energy>
    <i name="e_fr_energy">   -191.49851473 </i>
    <i name="e_wo_entrp">   -191.28859082 </i>
    <i name="e_0_energy">   -191.39355278 </i>
   </energy>
  </scstep>
  <scstep>
   <time name="dav">   17.06   17.11</time>
   <time name="total">   17.10   17.15</time>
   <energy>
    <i name="alphaZ">     90.05317703 </i>
    <i name="ewald">  44594.07981197 </i>
    <i name="hartreedc"> -50604.81866710 </i>
    <i name="XCdc">   -233.44850896 </i>
    <i name="pawpsdc">   4082.98864442 </i>
    <i name="pawaedc">  -3498.92353674 </i>
    <i name="eentropy">     -0.20978852 </i>
    <i name="bandstr">  -1382.66218305 </i>
    <i name="atom">   6761.44252427 </i>
    <i name="e_fr_energy">   -191.49852667 </i>
    <i name="e_wo_entrp">   -191.28873816 </i>
    <i name="e_0_energy">   -191.39363241 </i>
   </energy>
  </scstep>
  <structure>
   <crystal>
    <varray name="basis" >
     <v>       8.27358458       4.77393312       0.00000000 </v>
     <v>      -8.28663193       4.79650364       0.00000000 </v>
     <v>       0.00000000       0.00000000      30.00000000 </v>
    </varray>
    <i name="volume">   2377.32315497 </i>
    <varray name="rec_basis" >
     <v>       0.06052821       0.10457096       0.00000000 </v>
     <v>      -0.06024338       0.10440631       0.00000000 </v>
     <v>       0.00000000       0.00000000       0.03333333 </v>
    </varray>
   </crystal>
   <varray name="positions" >
    <v>       0.66527336       0.00644866      -0.00050028 </v>
    <v>       0.00245253       0.66452349       0.00043091 </v>
    <v>       0.32954468       0.66262439       0.00004356 </v>
    <v>       1.00827472       0.32824357       0.00038313 </v>
    <v>       0.33438757       0.01456115      -0.00019654 </v>
    <v>       0.32613658       0.32107136      -0.00001976 </v>
    <v>       0.01896648       0.01957325       0.00012233 </v>
    <v>       0.65585376       0.32894943      -0.00012013 </v>
    <v>       0.65743696       0.65291775      -0.00024308 </v>
    <v>       0.11176648       0.22226467       0.94486550 </v>
    <v>       0.22177786       0.11105820       0.05567894 </v>
    <v>       0.11433041       0.56076528       0.94966834 </v>
    <v>       0.22623808       0.45058007       0.05194479 </v>
    <v>       0.10771819       0.88440528       0.94883503 </v>
    <v>       0.22078318       0.77383730       0.04917475 </v>
    <v>       0.44516744       0.22375168       0.94522722 </v>
    <v>       0.55834726       0.10855737       0.05202510 </v>
    <v>       0.44036043       0.55720196       0.94864459 </v>
    <v>       0.55406427       0.44268358       0.05350406 </v>
    <v>       0.44575647       0.88653955       0.95108853 </v>
    <v>       0.55238416       0.77985498       0.04931530 </v>
    <v>       0.77491591       0.21759209       0.94917344 </v>
    <v>       0.88349816       0.10647162       0.05175819 </v>
    <v>       0.78325520       0.55692542       0.94876379 </v>
    <v>       0.89035565       0.44805542       0.04985068 </v>
    <v>       0.77723946       0.89144970       0.95140177 </v>
    <v>       0.89192921       0.77730724       0.04917974 </v>
   </varray>
  </structure>
  <varray name="forces" >
   <v>      -0.36110973       0.11190391      -0.03141749 </v>
   <v>       0.09192372      -0.04360138       0.04536873 </v>
   <v>       0.01477973      -0.07526098       0.04700107 </v>
   <v>       0.38270569       0.09082258      -0.00873766 </v>
   <v>      -0.13717016       0.22477342       0.02541887 </v>
   <v>       0.07375946       0.03972930       0.00052022 </v>
   <v>      -0.03643209       0.42490445      -0.01377557 </v>
   <v>      -0.35741849      -0.24944388      -0.01201257 </v>
   <v>       0.25121329      -0.55196118      -0.03508227 </v>
   <v>       0.03765213       0.06603760      -0.17967774 </v>
   <v>      -0.00427170       0.05775038       0.18600504 </v>
   <v>       0.04383567      -0.03853662      -0.01380172 </v>
   <v>       0.08982898      -0.03641835       0.05257121 </v>
   <v>      -0.04413810       0.09555782       0.05130490 </v>
   <v>      -0.04664699       0.09960525      -0.09292081 </v>
   <v>      -0.04214579      -0.01089446      -0.20975643 </v>
   <v>      -0.06293907       0.01602582       0.11818816 </v>
   <v>       0.02179217      -0.08981491      -0.10943081 </v>
   <v>      -0.00274281      -0.10921652       0.23529687 </v>
   <v>      -0.14056683      -0.00634930       0.06613726 </v>
   <v>       0.05026236      -0.01150262      -0.12019865 </v>
   <v>      -0.06461379       0.09464763       0.08210967 </v>
   <v>       0.05593342       0.03533976       0.03351761 </v>
   <v>       0.05761297      -0.06515190      -0.06834137 </v>
   <v>       0.11057684      -0.12808542      -0.16754974 </v>
   <v>       0.13474430       0.01130700       0.36917955 </v>
   <v>      -0.11642517       0.04783260      -0.24991632 </v>
  </varray>
  <varray name="stress" >
   <v>      -0.07348691      -0.03578622       0.08373696 </v>
   <v>      -0.03578616      -0.16840180      -0.08511295 </v>
   <v>       0.08373683      -0.08511293      -1.18817704 </v>
  </varray>
  <energy>
   <i name="e_fr_energy">   -191.49852667 </i>
   <i name="e_wo_entrp">   -191.39363241 </i>
   <i name="e_0_energy">     -0.20978852 </i>
  </energy>
  <time name="totalsc">  287.93  288.70</time>
 </calculation>
 <calculation>
  <scstep>
   <time name="dav">   21.94   21.99</time>
   <time name="total">   22.44   22.50</time>
   <energy>
    <i name="alphaZ">     90.09435013 </i>
    <i name="ewald">  44613.47660651 </i>
    <i name="hartreedc"> -50624.62061544 </i>
    <i name="XCdc">   -233.41942906 </i>
    <i name="pawpsdc">   4082.81842709 </i>
    <i name="pawaedc">  -3498.75157724 </i>
    <i name="eentropy">     -0.21081953 </i>
    <i name="bandstr">  -1382.37479352 </i>
    <i name="atom">   6761.44252427 </i>
    <i name="e_fr_energy">   -191.54532680 </i>
    <i name="e_wo_entrp">   -191.33450727 </i>
    <i name="e_0_energy">   -191.43991704 </i>
   </energy>
  </scstep>
  <scstep>
   <time name="dav">   33.44   33.52</time>
   <time name="total">   33.95   34.04</time>
   <energy>
    <i name="e_fr_energy">   -191.56193331 </i>
    <i name="e_wo_entrp">   -191.34774050 </i>
    <i name="e_0_energy">   -191.45483691 </i>
   </energy>
  </scstep>
  <scstep>
   <time name="dav">   30.57   30.65</time>
   <time name="total">   31.08   31.16</time>
   <energy>
    <i name="e_fr_energy">   -191.54854387 </i>
    <i name="e_wo_entrp">   -191.33736276 </i>
    <i name="e_0_energy">   -191.44295332 </i>
   </energy>
  </scstep>
  <scstep>
   <time name="dav">   28.03   28.10</time>
   <time name="total">   28.55   28.62</time>
   <energy>
    <i name="e_fr_energy">   -191.54907142 </i>
    <i name="e_wo_entrp">   -191.33803941 </i>
    <i name="e_0_energy">   -191.44355542 </i>
   </energy>
  </scstep>
  <scstep>
   <time name="dav">   27.98   28.05</time>
   <time name="total">   28.49   28.57</time>
   <energy>
    <i name="e_fr_energy">   -191.54751654 </i>
    <i name="e_wo_entrp">   -191.33596648 </i>
    <i name="e_0_energy">   -191.44174151 </i>
   </energy>
  </scstep>
  <scstep>
   <time name="dav">   26.06   26.12</time>
   <time name="total">   26.09   26.16</time>
   <energy>
    <i name="alphaZ">     90.09435013 </i>
    <i name="ewald">  44613.47660651 </i>
    <i name="hartreedc"> -50624.63563495 </i>
    <i name="XCdc">   -233.42321748 </i>
    <i name="pawpsdc">   4083.83566715 </i>
    <i name="pawaedc">  -3499.78117429 </i>
    <i name="eentropy">     -0.21153550 </i>
    <i name="bandstr">  -1382.34504664 </i>
    <i name="atom">   6761.44252427 </i>
    <i name="e_fr_energy">   -191.54746080 </i>
    <i name="e_wo_entrp">   -191.33592530 </i>
[...]
      <set comment="kpoint 31">
       <r>  -17.4927    1.0000 </r>
       <r>  -17.3056    1.0000 </r>
       <r>  -16.8799    1.0000 </r>
       <r>  -16.5089    1.0000 </r>
       <r>  -16.4143    1.0000 </r>
       <r>  -16.3584    1.0000 </r>
       <r>  -16.2795    1.0000 </r>
       <r>  -16.1310    1.0000 </r>
       <r>  -16.1000    1.0000 </r>
       <r>  -16.0669    1.0000 </r>
       <r>  -15.9620    1.0000 </r>
       <r>  -15.8892    1.0000 </r>
       <r>  -15.7855    1.0000 </r>
       <r>  -15.6854    1.0000 </r>
       <r>  -15.6267    1.0000 </r>
       <r>  -15.5862    1.0000 </r>
       <r>  -15.5006    1.0000 </r>
       <r>  -15.4509    1.0000 </r>
       <r>   -9.7642    1.0000 </r>
       <r>   -9.3848    1.0000 </r>
       <r>   -9.3690    1.0000 </r>
       <r>   -8.8950    1.0000 </r>
       <r>   -8.8479    1.0000 </r>
       <r>   -8.7021    1.0000 </r>
       <r>   -8.5815    1.0000 </r>
       <r>   -8.4634    1.0000 </r>
       <r>   -8.3701    1.0000 </r>
       <r>   -8.3374    1.0000 </r>
       <r>   -8.2497    1.0000 </r>
       <r>   -8.2080    1.0000 </r>
       <r>   -8.1400    1.0000 </r>
       <r>   -8.0961    1.0000 </r>
       <r>   -7.9434    1.0000 </r>
       <r>   -7.8732    1.0000 </r>
       <r>   -7.8339    1.0000 </r>
       <r>   -7.5384    1.0000 </r>
       <r>   -7.4938    1.0000 </r>
       <r>   -7.3593    1.0000 </r>
       <r>   -7.2854    1.0000 </r>
       <r>   -7.1775    1.0000 </r>
       <r>   -7.1251    1.0000 </r>
       <r>   -7.0214    1.0000 </r>
       <r>   -6.9985    1.0000 </r>
       <r>   -6.9287    1.0000 </r>
       <r>   -6.8454    1.0000 </r>
       <r>   -6.7881    1.0000 </r>
       <r>   -6.6996    1.0000 </r>
       <r>   -6.6604    1.0000 </r>
       <r>   -6.5833    1.0000 </r>
       <r>   -6.5073    1.0000 </r>
       <r>   -6.4117    1.0000 </r>
       <r>   -6.2901    1.0000 </r>
       <r>   -6.2436    1.0000 </r>
       <r>   -6.1526    1.0000 </r>
       <r>   -6.1156    1.0000 </r>
       <r>   -6.0157    1.0000 </r>
       <r>   -5.9781    1.0000 </r>
       <r>   -5.9497    1.0000 </r>
       <r>   -5.8708    1.0000 </r>
       <r>   -5.8317    1.0000 </r>
       <r>   -5.7710    1.0000 </r>
       <r>   -5.6549    1.0000 </r>
       <r>   -5.6047    1.0000 </r>
       <r>   -5.5161    1.0000 </r>
       <r>   -5.2368    1.0000 </r>
       <r>   -5.1341    1.0000 </r>
       <r>   -5.0511    1.0000 </r>
       <r>   -4.9408    1.0000 </r>
       <r>   -4.8750    1.0000 </r>
       <r>   -4.7041    1.0000 </r>
       <r>   -4.5460    1.0000 </r>
       <r>   -4.4008    1.0000 </r>
       <r>   -4.1901    1.0000 </r>
       <r>   -4.1178    1.0000 </r>
       <r>   -3.9255    1.0000 </r>
       <r>   -3.6555    1.0000 </r>
       <r>   -3.5645    0.9999 </r>
       <r>   -3.4222    0.9974 </r>
       <r>   -3.2489    0.9413 </r>
       <r>   -3.0102    0.4513 </r>
       <r>   -2.8897    0.1650 </r>
       <r>   -2.7201    0.0149 </r>
       <r>   -2.6663    0.0053 </r>
       <r>   -2.5924    0.0010 </r>
       <r>   -2.4695    0.0000 </r>
       <r>   -2.4172    0.0000 </r>
       <r>   -2.3201    0.0000 </r>
       <r>   -2.2706    0.0000 </r>
       <r>   -2.1800    0.0000 </r>
       <r>   -2.0280    0.0000 </r>
       <r>   -1.8353    0.0000 </r>
       <r>   -1.7268    0.0000 </r>
       <r>   -1.5690    0.0000 </r>
       <r>   -1.3746    0.0000 </r>
       <r>   -1.2466    0.0000 </r>
       <r>   -1.1705    0.0000 </r>
       <r>   -1.0911    0.0000 </r>
       <r>   -0.9476    0.0000 </r>
       <r>   -0.8385    0.0000 </r>
       <r>   -0.7752    0.0000 </r>
       <r>   -0.7119    0.0000 </r>
       <r>   -0.6577    0.0000 </r>
       <r>   -0.6014    0.0000 </r>
       <r>   -0.5381    0.0000 </r>
       <r>   -0.4744    0.0000 </r>
       <r>   -0.2771    0.0000 </r>
       <r>   -0.1706    0.0000 </r>
       <r>    0.0173    0.0000 </r>
       <r>    0.1053    0.0000 </r>
       <r>    0.2889    0.0000 </r>
       <r>    0.5136    0.0000 </r>
       <r>    0.7181    0.0000 </r>
       <r>    0.8528    0.0000 </r>
       <r>    1.1742    0.0000 </r>
       <r>    1.2410    0.0000 </r>
       <r>    1.3749    0.0000 </r>
       <r>    1.4693    0.0000 </r>
       <r>    2.1667    0.0000 </r>
       <r>    2.2984    0.0000 </r>
       <r>    2.4253    0.0000 </r>
      </set>
      <set comment="kpoint 32">
       <r>  -17.5223    1.0000 </r>
       <r>  -17.1971    1.0000 </r>
       <r>  -17.0162    1.0000 </r>
       <r>  -16.4991    1.0000 </r>
       <r>  -16.3538    1.0000 </r>
       <r>  -16.3251    1.0000 </r>
       <r>  -16.2319    1.0000 </r>
       <r>  -16.1864    1.0000 </r>
       <r>  -16.1114    1.0000 </r>
       <r>  -16.0482    1.0000 </r>
       <r>  -15.9661    1.0000 </r>
       <r>  -15.9190    1.0000 </r>
       <r>  -15.8350    1.0000 </r>
       <r>  -15.6816    1.0000 </r>
       <r>  -15.6449    1.0000 </r>
       <r>  -15.5697    1.0000 </r>
       <r>  -15.4927    1.0000 </r>
       <r>  -15.4215    1.0000 </r>
       <r>   -9.6797    1.0000 </r>
       <r>   -9.5465    1.0000 </r>
       <r>   -9.4132    1.0000 </r>
       <r>   -8.8939    1.0000 </r>
       <r>   -8.7217    1.0000 </r>
       <r>   -8.5696    1.0000 </r>
       <r>   -8.4884    1.0000 </r>
       <r>   -8.4149    1.0000 </r>
       <r>   -8.3932    1.0000 </r>
       <r>   -8.3479    1.0000 </r>
       <r>   -8.2957    1.0000 </r>
       <r>   -8.2564    1.0000 </r>
       <r>   -8.2143    1.0000 </r>
       <r>   -8.1264    1.0000 </r>
       <r>   -8.0895    1.0000 </r>
       <r>   -7.9095    1.0000 </r>
       <r>   -7.8053    1.0000 </r>
       <r>   -7.4867    1.0000 </r>
       <r>   -7.3991    1.0000 </r>
       <r>   -7.3743    1.0000 </r>
       <r>   -7.3167    1.0000 </r>
       <r>   -7.1974    1.0000 </r>
       <r>   -7.1510    1.0000 </r>
       <r>   -7.0540    1.0000 </r>
       <r>   -6.9889    1.0000 </r>
       <r>   -6.9226    1.0000 </r>
       <r>   -6.8530    1.0000 </r>
       <r>   -6.7891    1.0000 </r>
       <r>   -6.7514    1.0000 </r>
       <r>   -6.6402    1.0000 </r>
       <r>   -6.5004    1.0000 </r>
       <r>   -6.4575    1.0000 </r>
       <r>   -6.4349    1.0000 </r>
       <r>   -6.3768    1.0000 </r>
       <r>   -6.2845    1.0000 </r>
       <r>   -6.2286    1.0000 </r>
       <r>   -6.1221    1.0000 </r>
       <r>   -6.0083    1.0000 </r>
       <r>   -5.9502    1.0000 </r>
       <r>   -5.8750    1.0000 </r>
       <r>   -5.8404    1.0000 </r>
       <r>   -5.7546    1.0000 </r>
       <r>   -5.6817    1.0000 </r>
       <r>   -5.5247    1.0000 </r>
       <r>   -5.4315    1.0000 </r>
       <r>   -5.4000    1.0000 </r>
       <r>   -5.3267    1.0000 </r>
       <r>   -5.3006    1.0000 </r>
       <r>   -5.1558    1.0000 </r>
       <r>   -5.0874    1.0000 </r>
       <r>   -4.9555    1.0000 </r>
       <r>   -4.6820    1.0000 </r>
       <r>   -4.5886    1.0000 </r>
       <r>   -4.4310    1.0000 </r>
       <r>   -4.2160    1.0000 </r>
       <r>   -3.9734    1.0000 </r>
       <r>   -3.9199    1.0000 </r>
       <r>   -3.6404    1.0000 </r>
       <r>   -3.5581    0.9999 </r>
       <r>   -3.4347    0.9980 </r>
       <r>   -3.2267    0.9205 </r>
       <r>   -2.9938    0.4057 </r>
       <r>   -2.8424    0.0953 </r>
       <r>   -2.7176    0.0142 </r>
       <r>   -2.6529    0.0040 </r>
       <r>   -2.6026    0.0013 </r>
       <r>   -2.5066    0.0001 </r>
       <r>   -2.4683    0.0000 </r>
       <r>   -2.3765    0.0000 </r>
       <r>   -2.3288    0.0000 </r>
       <r>   -2.1703    0.0000 </r>
       <r>   -2.0710    0.0000 </r>
       <r>   -1.8216    0.0000 </r>
       <r>   -1.7243    0.0000 </r>
       <r>   -1.4704    0.0000 </r>
       <r>   -1.3856    0.0000 </r>
       <r>   -1.2405    0.0000 </r>
       <r>   -1.1593    0.0000 </r>
       <r>   -1.0752    0.0000 </r>
       <r>   -0.9686    0.0000 </r>
       <r>   -0.8272    0.0000 </r>
       <r>   -0.7866    0.0000 </r>
       <r>   -0.7416    0.0000 </r>
       <r>   -0.6901    0.0000 </r>
       <r>   -0.5664    0.0000 </r>
       <r>   -0.5085    0.0000 </r>
       <r>   -0.3658    0.0000 </r>
       <r>   -0.2720    0.0000 </r>
       <r>   -0.2092    0.0000 </r>
       <r>   -0.0205    0.0000 </r>
       <r>    0.1135    0.0000 </r>
       <r>    0.2173    0.0000 </r>
       <r>    0.4756    0.0000 </r>
       <r>    0.7417    0.0000 </r>
       <r>    0.8746    0.0000 </r>
       <r>    1.1342    0.0000 </r>
       <r>    1.2675    0.0000 </r>
       <r>    1.4055    0.0000 </r>
       <r>    1.4477    0.0000 </r>
       <r>    2.1367    0.0000 </r>
       <r>    2.2709    0.0000 </r>
       <r>    2.6040    0.0000 </r>
      </set>
      <set comment="kpoint 33">
       <r>  -17.5127    1.0000 </r>
       <r>  -17.2608    1.0000 </r>
       <r>  -16.9038    1.0000 </r>
       <r>  -16.4930    1.0000 </r>
       <r>  -16.4567    1.0000 </r>
       <r>  -16.3814    1.0000 </r>
       <r>  -16.2660    1.0000 </r>
       <r>  -16.1390    1.0000 </r>
       <r>  -16.0862    1.0000 </r>
       <r>  -16.0274    1.0000 </r>
       <r>  -15.9339    1.0000 </r>
       <r>  -15.8650    1.0000 </r>
       <r>  -15.8426    1.0000 </r>
       <r>  -15.7177    1.0000 </r>
       <r>  -15.6357    1.0000 </r>
       <r>  -15.5753    1.0000 </r>
       <r>  -15.4742    1.0000 </r>
       <r>  -15.4496    1.0000 </r>
       <r>   -9.7491    1.0000 </r>
       <r>   -9.4362    1.0000 </r>
       <r>   -9.3223    1.0000 </r>
       <r>   -8.9176    1.0000 </r>
       <r>   -8.8220    1.0000 </r>
       <r>   -8.7789    1.0000 </r>
       <r>   -8.5165    1.0000 </r>
       <r>   -8.4749    1.0000 </r>
       <r>   -8.3981    1.0000 </r>
       <r>   -8.2956    1.0000 </r>
       <r>   -8.2706    1.0000 </r>
       <r>   -8.2384    1.0000 </r>
       <r>   -8.1429    1.0000 </r>
       <r>   -8.0763    1.0000 </r>
       <r>   -7.9517    1.0000 </r>
       <r>   -7.9152    1.0000 </r>
       <r>   -7.7144    1.0000 </r>
       <r>   -7.5795    1.0000 </r>
       <r>   -7.5217    1.0000 </r>
       <r>   -7.4097    1.0000 </r>
       <r>   -7.3331    1.0000 </r>
       <r>   -7.1890    1.0000 </r>
       <r>   -7.0997    1.0000 </r>
       <r>   -7.0119    1.0000 </r>
       <r>   -6.9582    1.0000 </r>
       <r>   -6.9021    1.0000 </r>
       <r>   -6.8476    1.0000 </r>
       <r>   -6.8020    1.0000 </r>
       <r>   -6.7000    1.0000 </r>
       <r>   -6.6280    1.0000 </r>
       <r>   -6.5894    1.0000 </r>
       <r>   -6.4491    1.0000 </r>
       <r>   -6.3952    1.0000 </r>
       <r>   -6.3274    1.0000 </r>
       <r>   -6.2769    1.0000 </r>
       <r>   -6.2138    1.0000 </r>
       <r>   -6.0825    1.0000 </r>
       <r>   -5.9930    1.0000 </r>
       <r>   -5.9277    1.0000 </r>
       <r>   -5.8523    1.0000 </r>
       <r>   -5.8233    1.0000 </r>
       <r>   -5.8051    1.0000 </r>
       <r>   -5.7365    1.0000 </r>
       <r>   -5.6735    1.0000 </r>
       <r>   -5.6353    1.0000 </r>
       <r>   -5.5558    1.0000 </r>
       <r>   -5.3068    1.0000 </r>
       <r>   -5.1488    1.0000 </r>
       <r>   -5.0511    1.0000 </r>
       <r>   -4.9467    1.0000 </r>
       <r>   -4.8696    1.0000 </r>
       <r>   -4.7579    1.0000 </r>
       <r>   -4.5713    1.0000 </r>
       <r>   -4.3963    1.0000 </r>
       <r>   -4.3577    1.0000 </r>
       <r>   -3.9427    1.0000 </r>
       <r>   -3.8210    1.0000 </r>
       <r>   -3.6547    1.0000 </r>
       <r>   -3.5494    0.9999 </r>
       <r>   -3.4449    0.9984 </r>
       <r>   -3.2285    0.9224 </r>
       <r>   -2.9837    0.3786 </r>
       <r>   -2.9745    0.3540 </r>
       <r>   -2.7097    0.0123 </r>
       <r>   -2.6513    0.0039 </r>
       <r>   -2.5960    0.0011 </r>
       <r>   -2.5117    0.0001 </r>
       <r>   -2.4285    0.0000 </r>
       <r>   -2.3823    0.0000 </r>
       <r>   -2.3271    0.0000 </r>
       <r>   -2.1890    0.0000 </r>
       <r>   -2.1388    0.0000 </r>
       <r>   -1.7934    0.0000 </r>
       <r>   -1.7257    0.0000 </r>
       <r>   -1.4143    0.0000 </r>
       <r>   -1.3929    0.0000 </r>
       <r>   -1.2304    0.0000 </r>
       <r>   -1.1366    0.0000 </r>
       <r>   -1.0412    0.0000 </r>
       <r>   -0.9555    0.0000 </r>
       <r>   -0.8666    0.0000 </r>
       <r>   -0.7713    0.0000 </r>
       <r>   -0.7124    0.0000 </r>
       <r>   -0.6636    0.0000 </r>
       <r>   -0.6013    0.0000 </r>
       <r>   -0.5449    0.0000 </r>
       <r>   -0.4014    0.0000 </r>
       <r>   -0.3118    0.0000 </r>
       <r>   -0.1851    0.0000 </r>
       <r>   -0.1091    0.0000 </r>
       <r>    0.0712    0.0000 </r>
       <r>    0.2386    0.0000 </r>
       <r>    0.5560    0.0000 </r>
       <r>    0.7057    0.0000 </r>
       <r>    0.9645    0.0000 </r>
       <r>    1.0840    0.0000 </r>
       <r>    1.2973    0.0000 </r>
       <r>    1.4463    0.0000 </r>
       <r>    1.4818    0.0000 </r>
       <r>    2.1715    0.0000 </r>
       <r>    2.3055    0.0000 </r>
       <r>    2.4352    0.0000 </r>
      </set>
      <set comment="kpoint 34">
       <r>  -17.4945    1.0000 </r>
       <r>  -17.3176    1.0000 </r>
       <r>  -16.7279    1.0000 </r>
       <r>  -16.6515    1.0000 </r>
       <r>  -16.4666    1.0000 </r>
       <r>  -16.4197    1.0000 </r>
       <r>  -16.2328    1.0000 </r>
       <r>  -16.1617    1.0000 </r>
       <r>  -16.0701    1.0000 </r>
       <r>  -16.0318    1.0000 </r>
       <r>  -15.9145    1.0000 </r>
       <r>  -15.8380    1.0000 </r>
       <r>  -15.7915    1.0000 </r>
       <r>  -15.7121    1.0000 </r>
       <r>  -15.6824    1.0000 </r>
       <r>  -15.5311    1.0000 </r>
       <r>  -15.5186    1.0000 </r>
       <r>  -15.4586    1.0000 </r>
       <r>   -9.7916    1.0000 </r>
       <r>   -9.3096    1.0000 </r>
       <r>   -9.1591    1.0000 </r>
       <r>   -9.0588    1.0000 </r>
       <r>   -8.9825    1.0000 </r>
       <r>   -8.8502    1.0000 </r>
       <r>   -8.5582    1.0000 </r>
       <r>   -8.4778    1.0000 </r>
       <r>   -8.4005    1.0000 </r>
       <r>   -8.3107    1.0000 </r>
       <r>   -8.2502    1.0000 </r>
       <r>   -8.1976    1.0000 </r>
       <r>   -8.1447    1.0000 </r>
       <r>   -7.9638    1.0000 </r>
       <r>   -7.8932    1.0000 </r>
       <r>   -7.8318    1.0000 </r>
       <r>   -7.7448    1.0000 </r>
       <r>   -7.6230    1.0000 </r>
       <r>   -7.5344    1.0000 </r>
       <r>   -7.4138    1.0000 </r>
       <r>   -7.3407    1.0000 </r>
       <r>   -7.3023    1.0000 </r>
       <r>   -7.1031    1.0000 </r>
       <r>   -7.0155    1.0000 </r>
       <r>   -6.9620    1.0000 </r>
       <r>   -6.8435    1.0000 </r>
       <r>   -6.8261    1.0000 </r>
       <r>   -6.7059    1.0000 </r>
       <r>   -6.6764    1.0000 </r>
       <r>   -6.6307    1.0000 </r>
       <r>   -6.5025    1.0000 </r>
       <r>   -6.4415    1.0000 </r>
       <r>   -6.4133    1.0000 </r>
       <r>   -6.3742    1.0000 </r>
       <r>   -6.2852    1.0000 </r>
       <r>   -6.1733    1.0000 </r>
       <r>   -6.0945    1.0000 </r>
       <r>   -6.0632    1.0000 </r>
       <r>   -5.9968    1.0000 </r>
       <r>   -5.8521    1.0000 </r>
       <r>   -5.8086    1.0000 </r>
       <r>   -5.7694    1.0000 </r>
       <r>   -5.7481    1.0000 </r>
       <r>   -5.7373    1.0000 </r>
       <r>   -5.6569    1.0000 </r>
       <r>   -5.5847    1.0000 </r>
       <r>   -5.5389    1.0000 </r>
       <r>   -4.9874    1.0000 </r>
       <r>   -4.9695    1.0000 </r>
       <r>   -4.8779    1.0000 </r>
       <r>   -4.8111    1.0000 </r>
       <r>   -4.6686    1.0000 </r>
       <r>   -4.6232    1.0000 </r>
       <r>   -4.5002    1.0000 </r>
       <r>   -4.3344    1.0000 </r>
       <r>   -3.9414    1.0000 </r>
       <r>   -3.8262    1.0000 </r>
       <r>   -3.6168    1.0000 </r>
       <r>   -3.5586    0.9999 </r>
       <r>   -3.4540    0.9987 </r>
       <r>   -3.2299    0.9239 </r>
       <r>   -3.0458    0.5516 </r>
       <r>   -2.9783    0.3639 </r>
       <r>   -2.7249    0.0162 </r>
       <r>   -2.7051    0.0113 </r>
       <r>   -2.5761    0.0007 </r>
       <r>   -2.4737    0.0000 </r>
       <r>   -2.4170    0.0000 </r>
       <r>   -2.3370    0.0000 </r>
       <r>   -2.3018    0.0000 </r>
       <r>   -2.2325    0.0000 </r>
       <r>   -2.1715    0.0000 </r>
       <r>   -1.7755    0.0000 </r>
       <r>   -1.7322    0.0000 </r>
       <r>   -1.4010    0.0000 </r>
       <r>   -1.3937    0.0000 </r>
       <r>   -1.2258    0.0000 </r>
       <r>   -1.1256    0.0000 </r>
       <r>   -1.0151    0.0000 </r>
       <r>   -0.9382    0.0000 </r>
       <r>   -0.9103    0.0000 </r>
       <r>   -0.7202    0.0000 </r>
       <r>   -0.6704    0.0000 </r>
       <r>   -0.6615    0.0000 </r>
       <r>   -0.6189    0.0000 </r>
       <r>   -0.5760    0.0000 </r>
       <r>   -0.4728    0.0000 </r>
       <r>   -0.3787    0.0000 </r>
       <r>   -0.1943    0.0000 </r>
       <r>   -0.1036    0.0000 </r>
       <r>    0.0536    0.0000 </r>
       <r>    0.2793    0.0000 </r>
       <r>    0.6119    0.0000 </r>
       <r>    0.6637    0.0000 </r>
       <r>    1.0037    0.0000 </r>
       <r>    1.0818    0.0000 </r>
       <r>    1.3094    0.0000 </r>
       <r>    1.4667    0.0000 </r>
       <r>    1.5057    0.0000 </r>
       <r>    2.2643    0.0000 </r>
       <r>    2.2780    0.0000 </r>
       <r>    2.3907    0.0000 </r>
      </set>
     </set>
    </set>
   </array>
  </eigenvalues>
  <separator name="orbital magnetization" >
   <v name="MAGDIPOLOUT">      0.00000000      0.00000000      0.00000000</v>
  </separator>
 </calculation>
 <structure name="finalpos" >
  <crystal>
   <varray name="basis" >
    <v>       8.27023906       4.77326119       0.00000000 </v>
    <v>      -8.29595169       4.81776134       0.00000000 </v>
    <v>       0.00000000       0.00000000      30.00000000 </v>
   </varray>
   <i name="volume">   2383.28346923 </i>
   <varray name="rec_basis" >
    <v>       0.06064442       0.10442675       0.00000000 </v>
    <v>      -0.06008427       0.10410309       0.00000000 </v>
    <v>       0.00000000       0.00000000       0.03333333 </v>
   </varray>
  </crystal>
  <varray name="positions" >
   <v>       0.66852677       0.00764719       0.00009961 </v>
   <v>       0.00237815       0.66625113       0.00032540 </v>
   <v>       0.33268593       0.66404190      -0.00025458 </v>
   <v>       1.00034108       0.32131840       0.00009058 </v>
   <v>       0.33244591       0.02079567       0.00023471 </v>
   <v>       0.31545871       0.31138291      -0.00017305 </v>
   <v>       0.02158620       0.01950092       0.00032618 </v>
   <v>       0.66020681       0.31874683      -0.00017212 </v>
   <v>       0.66528575       0.66857397      -0.00033350 </v>
   <v>       0.10964860       0.22082083       0.94404839 </v>
   <v>       0.22113759       0.11231363       0.05738834 </v>
   <v>       0.11344378       0.55911009       0.95046658 </v>
   <v>       0.22461379       0.44817935       0.05103620 </v>
   <v>       0.10981887       0.88744250       0.94850429 </v>
   <v>       0.22222921       0.77637156       0.04863877 </v>
   <v>       0.44557614       0.22619132       0.94520681 </v>
   <v>       0.55685792       0.10708971       0.05262215 </v>
   <v>       0.43964256       0.55418085       0.94987111 </v>
   <v>       0.55344996       0.44245252       0.05035568 </v>
   <v>       0.44443404       0.88989553       0.95223097 </v>
   <v>       0.55330828       0.78122983       0.04980068 </v>
   <v>       0.77353540       0.21415764       0.94746857 </v>
   <v>       0.88382726       0.10492412       0.05247475 </v>
   <v>       0.78366832       0.55570978       0.94982591 </v>
   <v>       0.89054076       0.44691487       0.04968610 </v>
   <v>       0.77991458       0.89430107       0.95059557 </v>
   <v>       0.89365211       0.77867035       0.04963579 </v>
  </varray>
 </structure>
</modeling>
