unknown system                          
           1
     8.853481    5.103403    0.000000
    -8.856332    5.108309    0.000000
     0.000000    0.000000   30.000000
   V    Mo   W    S 
   3   3   3  18
Direct configuration=     1
   0.66666669  0.00000000  0.00000000
   0.00000000  0.66666669  0.00000000
   0.33333334  0.66666669  0.00000000
   1.00000000  0.33333334  0.00000000
   0.33333334  0.00000000  0.00000000
   0.33333334  0.33333334  0.00000000
   0.00000000  0.00000000  0.00000000
   0.66666669  0.33333334  0.00000000
   0.66666669  0.66666669  0.00000000
   0.11068511  0.22244981  0.95539999
   0.22244981  0.11068511  0.04460000
   0.11068511  0.55578315  0.95539999
   0.22244981  0.44401845  0.04460000
   0.11068511  0.88911647  0.95539999
   0.22244981  0.77735180  0.04460000
   0.44401845  0.22244981  0.95539999
   0.55578315  0.11068511  0.04460000
   0.44401845  0.55578315  0.95539999
   0.55578315  0.44401845  0.04460000
   0.44401845  0.88911647  0.95539999
   0.55578315  0.77735180  0.04460000
   0.77735180  0.22244981  0.95539999
   0.88911647  0.11068511  0.04460000
   0.77735180  0.55578315  0.95539999
   0.88911647  0.44401845  0.04460000
   0.77735180  0.88911647  0.95539999
   0.88911647  0.77735180  0.04460000
unknown system                          
           1
     8.665836    4.997552    0.000000
    -8.668429    5.002013    0.000000
     0.000000    0.000000   30.000000
   V    Mo   W    S 
   3   3   3  18
Direct configuration=     2
   0.66615920  0.00074780  0.00010470
   0.00152031  0.66659440 -0.00012927
   0.33218836  0.66598328 -0.00002281
   1.00160335  0.33349248  0.00004000
   0.33339054  0.00098891 -0.00008175
   0.33187814  0.33197906  0.00003916
   0.00288776  0.00293107  0.00020707
   0.66540696  0.33175699 -0.00017547
   0.66490985  0.66541540  0.00004806
   0.11061820  0.22129448  0.95068023
   0.22104981  0.11050826  0.04932241
   0.11293647  0.55996044  0.95306681
   0.22431090  0.44878308  0.04805994
   0.10829589  0.88453746  0.95192627
   0.22015427  0.77326977  0.04688343
   0.44544679  0.22275050  0.95074359
   0.55839811  0.10943586  0.04805511
   0.44292439  0.55831569  0.95200173
   0.55614547  0.44482626  0.04924941
   0.44649308  0.88664411  0.95308934
   0.55383729  0.77950908  0.04698487
   0.77502851  0.21819671  0.95195095
   0.88462103  0.10818662  0.04809484
   0.78149204  0.55725136  0.95186409
   0.89008123  0.44835897  0.04798842
   0.77566621  0.89072360  0.95207920
   0.89077028  0.77577284  0.04792955
unknown system                          
           1
     8.484998    4.898045    0.000000
    -8.486716    4.900993    0.000000
     0.000000    0.000000   30.000000
   V    Mo   W    S 
   3   3   3  18
Direct configuration=     3
   0.66606979  0.00103075  0.00006368
   0.00181869  0.66653317 -0.00010058
   0.33189788  0.66574182 -0.00002423
   1.00209780  0.33323694  0.00008854
   0.33340071  0.00179084 -0.00012771
   0.33131696  0.33120694  0.00004525
   0.00407555  0.00416160  0.00022595
   0.66486008  0.33142328 -0.00019785
   0.66439583  0.66476336  0.00004068
   0.11050890  0.22106399  0.95055177
   0.22081446  0.11039432  0.04947993
   0.11303398  0.56004700  0.95304940
   0.22440301  0.44895312  0.04810069
   0.10808605  0.88455467  0.95194507
   0.22012463  0.77320902  0.04683402
   0.44568797  0.22291203  0.95064326
   0.55855111  0.10960571  0.04809826
   0.44311241  0.55846964  0.95200957
   0.55635359  0.44489929  0.04924984
   0.44651020  0.88660126  0.95318069
   0.55391493  0.77940671  0.04691382
   0.77484422  0.21820928  0.95198164
   0.88463951  0.10797589  0.04809750
   0.78134465  0.55718973  0.95192525
   0.88991432  0.44834416  0.04789366
   0.77575616  0.89062293  0.95223282
   0.89068108  0.77586702  0.04779899
unknown system                          
           1
     8.272974    4.775533    0.000000
    -8.279090    4.786102    0.000000
     0.000000    0.000000   30.000000
   V    Mo   W    S 
   3   3   3  18
Direct configuration=     4
   0.66594537  0.00233992 -0.00012650
   0.00234967  0.66617819  0.00006648
   0.33101038  0.66473018 -0.00001879
   1.00375633  0.33174751  0.00024270
   0.33346383  0.00558224 -0.00024092
   0.32919287  0.32773686  0.00004805
   0.00869064  0.00894176  0.00019057
   0.66258324  0.33050641 -0.00018030
   0.66274004  0.66200096 -0.00001199
   0.11053261  0.22104517  0.94840329
   0.22091724  0.11041900  0.05178521
   0.11376003  0.56100248  0.95164993
   0.22526161  0.45039552  0.04969751
   0.10731503  0.88358030  0.95056681
   0.21981155  0.77248187  0.04792344
   0.44573851  0.22317115  0.94860436
   0.55897697  0.10906095  0.04972595
   0.44242188  0.55881262  0.95057191
   0.55625898  0.44460875  0.05089233
   0.44685033  0.88606525  0.95223977
   0.55332396  0.77983864  0.04801051
   0.77437979  0.21722979  0.95065838
   0.88355598  0.10719048  0.04959397
   0.78231261  0.55760875  0.95064313
   0.89032051  0.44925774  0.04892452
   0.77561192  0.89101918  0.95142584
   0.89113262  0.77566278  0.04871376
unknown system                          
           1
     8.273585    4.773933    0.000000
    -8.286632    4.796504    0.000000
     0.000000    0.000000   30.000000
   V    Mo   W    S 
   3   3   3  18
Direct configuration=     5
   0.66558978  0.00511691 -0.00047488
   0.00258992  0.66512620  0.00040959
   0.32977925  0.66301711  0.00000934
   1.00709114  0.32868605  0.00042470
   0.33379350  0.01327644 -0.00028364
   0.32555655  0.32087268  0.00003299
   0.01771091  0.01826202  0.00004451
   0.65772690  0.32908667 -0.00004212
   0.65917781  0.65585351 -0.00015161
   0.11115633  0.22169678  0.94526009
   0.22153428  0.11085727  0.05528130
   0.11449375  0.56131367  0.94966543
   0.22622590  0.45139738  0.05188162
   0.10717041  0.88338304  0.94877009
   0.22020313  0.77284180  0.04931801
   0.44534886  0.22352765  0.94555734
   0.55875321  0.10837921  0.05189070
   0.44085268  0.55811730  0.94870277
   0.55498058  0.44343163  0.05318594
   0.44647877  0.88593313  0.95099400
   0.55236122  0.78010305  0.04945582
   0.77450827  0.21676946  0.94903249
   0.88288310  0.10651418  0.05170336
   0.78344674  0.55753022  0.94882938
   0.89069262  0.44931080  0.05006284
   0.77626419  0.89153048  0.95085727
   0.89184465  0.77627982  0.04958259
unknown system                          
           1
     8.271966    4.772041    0.000000
    -8.285571    4.795572    0.000000
     0.000000    0.000000   30.000000
   V    Mo   W    S 
   3   3   3  18
Direct configuration=     6
   0.66527336  0.00644866 -0.00050028
   0.00245253  0.66452349  0.00043091
   0.32954468  0.66262439  0.00004356
   1.00827472  0.32824357  0.00038313
   0.33438757  0.01456115 -0.00019654
   0.32613658  0.32107136 -0.00001976
   0.01896648  0.01957325  0.00012233
   0.65585376  0.32894943 -0.00012013
   0.65743696  0.65291775 -0.00024308
   0.11176648  0.22226467  0.94486550
   0.22177786  0.11105820  0.05567894
   0.11433041  0.56076528  0.94966834
   0.22623808  0.45058007  0.05194479
   0.10771819  0.88440528  0.94883503
   0.22078318  0.77383730  0.04917475
   0.44516744  0.22375168  0.94522722
   0.55834726  0.10855737  0.05202510
   0.44036043  0.55720196  0.94864459
   0.55406427  0.44268358  0.05350406
   0.44575647  0.88653955  0.95108853
   0.55238416  0.77985498  0.04931530
   0.77491591  0.21759209  0.94917344
   0.88349816  0.10647162  0.05175819
   0.78325520  0.55692542  0.94876379
   0.89035565  0.44805542  0.04985068
   0.77723946  0.89144970  0.95140177
   0.89192921  0.77730724  0.04917974
unknown system                          
           1
     8.269872    4.771629    0.000000
    -8.282088    4.792757    0.000000
     0.000000    0.000000   30.000000
   V    Mo   W    S 
   3   3   3  18
Direct configuration=     7
   0.66500150  0.00735287 -0.00052956
   0.00247901  0.66424855  0.00047244
   0.32935373  0.66238346  0.00008533
   1.00915935  0.32786920  0.00037590
   0.33479477  0.01543981 -0.00017375
   0.32635370  0.32103723 -0.00001972
   0.02012742  0.02085027  0.00011007
   0.65456016  0.32882369 -0.00013066
   0.65628737  0.65094976 -0.00027517
   0.11201598  0.22239373  0.94469030
   0.22193539  0.11122771  0.05586116
   0.11429641  0.56058779  0.94964697
   0.22628575  0.45033635  0.05200173
   0.10791429  0.88474390  0.94887206
   0.22098878  0.77419352  0.04909873
   0.44506664  0.22379143  0.94502636
   0.55828758  0.10869928  0.05214032
   0.44013646  0.55691083  0.94853879
   0.55374649  0.44237659  0.05372434
   0.44550830  0.88674878  0.95114127
   0.55242837  0.77974343  0.04921550
   0.77507718  0.21795857  0.94923879
   0.88368532  0.10647677  0.05179796
   0.78317198  0.55665031  0.94869445
   0.89017867  0.44751898  0.04970753
   0.77749469  0.89126845  0.95172706
   0.89187920  0.77763318  0.04896169
unknown system                          
           1
     8.268239    4.771305    0.000000
    -8.278152    4.788445    0.000000
     0.000000    0.000000   30.000000
   V    Mo   W    S 
   3   3   3  18
Direct configuration=     8
   0.66527091  0.00653760 -0.00050206
   0.00238636  0.66443056  0.00043292
   0.32955219  0.66260192  0.00005894
   1.00839267  0.32809479  0.00037341
   0.33443706  0.01492139 -0.00019135
   0.32611491  0.32083286 -0.00000895
   0.01935506  0.01998318  0.00009777
   0.65556613  0.32889641 -0.00011695
   0.65721756  0.65257253 -0.00022584
   0.11179029  0.22225600  0.94482665
   0.22180809  0.11111384  0.05574762
   0.11430694  0.56069962  0.94964597
   0.22625343  0.45048147  0.05195818
   0.10779446  0.88453606  0.94882894
   0.22086116  0.77397945  0.04916519
   0.44513944  0.22376484  0.94516758
   0.55830968  0.10858069  0.05204291
   0.44027402  0.55704576  0.94862194
   0.55396031  0.44262730  0.05352741
   0.44566292  0.88662318  0.95109099
   0.55236536  0.77984109  0.04931739
   0.77492535  0.21761615  0.94916767
   0.88353736  0.10646437  0.05179265
   0.78326875  0.55686197  0.94873324
   0.89032871  0.44795279  0.04985440
   0.77737387  0.89146421  0.95143684
   0.89196148  0.77743441  0.04915644
unknown system                          
           1
     8.256726    4.764460    0.000000
    -8.268970    4.785640    0.000000
     0.000000    0.000000   30.000000
   V    Mo   W    S 
   3   3   3  18
Direct configuration=     9
   0.66630599  0.00372287 -0.00042452
   0.00141501  0.66441350  0.00029702
   0.33073741  0.66356644 -0.00002460
   1.00580087  0.32832244  0.00035405
   0.33359583  0.01459782 -0.00019017
   0.32578635  0.31964567  0.00000390
   0.01751334  0.01786702  0.00008805
   0.65812396  0.32908101 -0.00010451
   0.65963271  0.65721455 -0.00009334
   0.11143033  0.22206697  0.94502599
   0.22143915  0.11092884  0.05568367
   0.11427766  0.56089732  0.94956156
   0.22628834  0.45051399  0.05184208
   0.10772779  0.88435853  0.94860520
   0.22075509  0.77382819  0.04932732
   0.44535645  0.22392973  0.94536441
   0.55829790  0.10823219  0.05178513
   0.44040081  0.55679814  0.94887146
   0.55410069  0.44306276  0.05303815
   0.44581173  0.88654210  0.95096212
   0.55208502  0.78016908  0.04972862
   0.77424242  0.21646074  0.94891912
   0.88307178  0.10624270  0.05191953
   0.78360578  0.55735767  0.94876021
   0.89057024  0.44892981  0.05038900
   0.77752735  0.89215549  0.95057600
   0.89231443  0.77730890  0.04973447
unknown system                          
           1
     8.266246    4.768919    0.000000
    -8.279970    4.792659    0.000000
     0.000000    0.000000   30.000000
   V    Mo   W    S 
   3   3   3  18
Direct configuration=    10
   0.66689487  0.00330692 -0.00045077
   0.00077292  0.66316137  0.00036400
   0.33075173  0.66356728  0.00000991
   1.00562009  0.32808196  0.00035507
   0.33330664  0.01571492 -0.00015265
   0.32537896  0.31857263 -0.00002385
   0.01826435  0.01882439  0.00007782
   0.65798650  0.32926430 -0.00008866
   0.65960276  0.65743238 -0.00010590
   0.11163104  0.22232972  0.94497602
   0.22142543  0.11102622  0.05595945
   0.11413565  0.56065531  0.94963237
   0.22613354  0.45001050  0.05170030
   0.10814504  0.88502035  0.94868806
   0.22098015  0.77435247  0.04909541
   0.44551988  0.22414332  0.94511797
   0.55817303  0.10834171  0.05175733
   0.44027605  0.55629013  0.94890802
   0.55384295  0.44290689  0.05306168
   0.44538531  0.88695828  0.95110091
   0.55205297  0.78000362  0.04978619
   0.77422930  0.21647423  0.94895184
   0.88333902  0.10627667  0.05198573
   0.78347068  0.55722105  0.94873351
   0.89050394  0.44853740  0.05034120
   0.77803829  0.89202625  0.95064736
   0.89235336  0.77771417  0.04957160
unknown system                          
           1
     8.268994    4.769648    0.000000
    -8.284285    4.796100    0.000000
     0.000000    0.000000   30.000000
   V    Mo   W    S 
   3   3   3  18
Direct configuration=    11
   0.66643894  0.00471883 -0.00048483
   0.00097153  0.66277133  0.00041069
   0.33030520  0.66314344  0.00004384
   1.00694971  0.32781329  0.00034427
   0.33394980  0.01648233 -0.00014721
   0.32579849  0.31902121 -0.00003728
   0.01946185  0.02021986  0.00011330
   0.65632710  0.32916573 -0.00011894
   0.65804656  0.65467934 -0.00016393
   0.11193032  0.22253606  0.94475187
   0.22162133  0.11119701  0.05610905
   0.11412301  0.56051940  0.94961884
   0.22620314  0.44989119  0.05180360
   0.10823063  0.88520642  0.94878039
   0.22112408  0.77460164  0.04901520
   0.44540244  0.22413497  0.94493469
   0.55817708  0.10851757  0.05191344
   0.44007902  0.55622409  0.94874852
   0.55359768  0.44258757  0.05337497
   0.44521953  0.88709562  0.95118485
   0.55217194  0.77986099  0.04960817
   0.77452188  0.21703105  0.94906444
   0.88354554  0.10633076  0.05199362
   0.78335656  0.55692728  0.94866403
   0.89029443  0.44789282  0.05012589
   0.77814316  0.89170951  0.95109439
   0.89222353  0.77793515  0.04925405
unknown system                          
           1
     8.259417    4.767014    0.000000
    -8.269758    4.784901    0.000000
     0.000000    0.000000   30.000000
   V    Mo   W    S 
   3   3   3  18
Direct configuration=    12
   0.66641579  0.00539967 -0.00051290
   0.00069191  0.66178542  0.00044263
   0.33010920  0.66293694  0.00007167
   1.00772860  0.32754841  0.00032715
   0.33440299  0.01758367 -0.00012767
   0.32607673  0.31892886 -0.00005867
   0.02047311  0.02153382  0.00014692
   0.65515436  0.32922918 -0.00014940
   0.65687083  0.65284300 -0.00019335
   0.11220363  0.22276315  0.94457872
   0.22172490  0.11135862  0.05629307
   0.11407400  0.56038058  0.94961089
   0.22624406  0.44966485  0.05182496
   0.10839608  0.88553422  0.94889464
   0.22128799  0.77494573  0.04887797
   0.44540489  0.22423208  0.94474385
   0.55816452  0.10866987  0.05198167
   0.43990073  0.55602421  0.94865941
   0.55335671  0.44235013  0.05357892
   0.44498420  0.88731332  0.95130832
   0.55221409  0.77972153  0.04951856
   0.77464813  0.21733002  0.94915825
   0.88373074  0.10636215  0.05203641
   0.78326048  0.55671847  0.94860407
   0.89009271  0.44734121  0.05001307
   0.77842824  0.89149461  0.95139029
   0.89217482  0.77822073  0.04898042
unknown system                          
           1
     8.261000    4.768589    0.000000
    -8.270725    4.785411    0.000000
     0.000000    0.000000   30.000000
   V    Mo   W    S 
   3   3   3  18
Direct configuration=    13
   0.66643896  0.00336502 -0.00040949
   0.00176341  0.66525217  0.00035198
   0.33036846  0.66325044 -0.00003546
   1.00545359  0.32825873  0.00034865
   0.33273948  0.01454499 -0.00022741
   0.32503229  0.31875603  0.00000169
   0.01803569  0.01783559  0.00006023
   0.65842459  0.32895774 -0.00007176
   0.66048361  0.65818793 -0.00007731
   0.11132748  0.22213075  0.94504376
   0.22136488  0.11087067  0.05585351
   0.11415354  0.56073083  0.94968045
   0.22609527  0.45023421  0.05177259
   0.10798662  0.88463318  0.94845103
   0.22087850  0.77402359  0.04932355
   0.44539240  0.22392205  0.94531142
   0.55808586  0.10817667  0.05182747
   0.44033118  0.55642216  0.94895766
   0.55402698  0.44307413  0.05293381
   0.44549020  0.88671738  0.95091493
   0.55204896  0.78012267  0.04982538
   0.77434110  0.21646944  0.94880554
   0.88326778  0.10621212  0.05193366
   0.78367722  0.55729825  0.94879092
   0.89081539  0.44905574  0.05032647
   0.77778362  0.89223195  0.95043884
   0.89240741  0.77748002  0.04986777
unknown system                          
           1
     8.256738    4.764437    0.000000
    -8.268637    4.785019    0.000000
     0.000000    0.000000   30.000000
   V    Mo   W    S 
   3   3   3  18
Direct configuration=    14
   0.66649284  0.00286761 -0.00040351
   0.00225799  0.66677153  0.00036381
   0.33045657  0.66325022 -0.00007113
   1.00460248  0.32814321  0.00037226
   0.33201623  0.01379964 -0.00021739
   0.32446411  0.31838641  0.00001574
   0.01745411  0.01662819  0.00003729
   0.65927651  0.32853825 -0.00002615
   0.66179696  0.66010030 -0.00007990
   0.11110374  0.22201446  0.94509719
   0.22129603  0.11074568  0.05587036
   0.11408422  0.56075197  0.94970734
   0.22599549  0.45022026  0.05176226
   0.10798653  0.88457024  0.94821178
   0.22090732  0.77397197  0.04944688
   0.44539795  0.22389028  0.94538220
   0.55794897  0.10798439  0.05177161
   0.44043273  0.55634107  0.94908408
   0.55409576  0.44321558  0.05275032
   0.44549352  0.88666603  0.95085461
   0.55200783  0.78021511  0.04990912
   0.77422802  0.21617968  0.94869406
   0.88321871  0.10611484  0.05189780
   0.78386671  0.55743842  0.94884998
   0.89103378  0.44947666  0.05036119
   0.77775765  0.89246026  0.95020900
   0.89254171  0.77747221  0.05014911
unknown system                          
           1
     8.260340    4.766297    0.000000
    -8.272727    4.787726    0.000000
     0.000000    0.000000   30.000000
   V    Mo   W    S 
   3   3   3  18
Direct configuration=    15
   0.66639715  0.00380711 -0.00044268
   0.00238061  0.66664950  0.00041737
   0.33013775  0.66278678 -0.00005169
   1.00543034  0.32764939  0.00035845
   0.33211651  0.01504934 -0.00018880
   0.32434712  0.31792552 -0.00000309
   0.01875887  0.01770108  0.00006266
   0.65784886  0.32812078 -0.00003821
   0.66100885  0.65862171 -0.00014265
   0.11135032  0.22219040  0.94492363
   0.22140451  0.11091926  0.05611719
   0.11393574  0.56056742  0.94977412
   0.22595232  0.44982323  0.05174964
   0.10828775  0.88510711  0.94825261
   0.22119778  0.77449327  0.04927197
   0.44538754  0.22401753  0.94518864
   0.55780534  0.10807723  0.05182247
   0.44029144  0.55601195  0.94908461
   0.55382732  0.44296340  0.05286568
   0.44506808  0.88692974  0.95107422
   0.55210142  0.78001090  0.04975067
   0.77434323  0.21650911  0.94879561
   0.88350077  0.10606295  0.05189795
   0.78383010  0.55719388  0.94888238
   0.89080769  0.44888692  0.05011629
   0.77814683  0.89221260  0.95058659
   0.89255018  0.77792635  0.04987427
unknown system                          
           1
     8.269357    4.770513    0.000000
    -8.283313    4.794655    0.000000
     0.000000    0.000000   30.000000
   V    Mo   W    S 
   3   3   3  18
Direct configuration=    16
   0.66636288  0.00414460 -0.00045715
   0.00219057  0.66604336  0.00042704
   0.33012452  0.66278446 -0.00003135
   1.00581495  0.32757710  0.00035694
   0.33248316  0.01540259 -0.00017357
   0.32462790  0.31813694 -0.00001044
   0.01904171  0.01829582  0.00007249
   0.65736659  0.32824077 -0.00005345
   0.66032897  0.65763667 -0.00015669
   0.11148489  0.22227148  0.94485712
   0.22146962  0.11099418  0.05615496
   0.11395480  0.56053247  0.94974452
   0.22600002  0.44979654  0.05177417
   0.10830591  0.88517230  0.94833330
   0.22122500  0.77457077  0.04922133
   0.44537390  0.22404751  0.94510644
   0.55785284  0.10816267  0.05185875
   0.44022291  0.55600933  0.94900952
   0.55374388  0.44285448  0.05299320
   0.44505742  0.88699127  0.95110725
   0.55212313  0.77997082  0.04970791
   0.77439780  0.21664633  0.94885066
   0.88353685  0.10609984  0.05191576
   0.78374814  0.55710621  0.94883484
   0.89069716  0.44863805  0.05008601
   0.77818846  0.89210913  0.95072828
   0.89249049  0.77797874  0.04974203
unknown system                          
           1
     8.268643    4.769761    0.000000
    -8.283111    4.794787    0.000000
     0.000000    0.000000   30.000000
   V    Mo   W    S 
   3   3   3  18
Direct configuration=    17
   0.66620700  0.00537676 -0.00049881
   0.00223399  0.66563281  0.00047814
   0.32985767  0.66237131  0.00000794
   1.00692602  0.32703036  0.00034412
   0.33303559  0.01654443 -0.00013277
   0.32498541  0.31830228 -0.00002595
   0.02030289  0.01977161  0.00008768
   0.65564937  0.32801255 -0.00008475
   0.65881292  0.65514656 -0.00021526
   0.11179420  0.22243118  0.94464233
   0.22164451  0.11123805  0.05637860
   0.11388204  0.56036459  0.94974209
   0.22604997  0.44952608  0.05183349
   0.10852330  0.88556919  0.94841308
   0.22147327  0.77499468  0.04907734
   0.44529968  0.22415843  0.94485268
   0.55781206  0.10829878  0.05198298
   0.44000310  0.55580253  0.94887429
   0.55347652  0.44254966  0.05326655
   0.44478253  0.88722227  0.95127909
   0.55220129  0.77981396  0.04954692
   0.77455252  0.21703202  0.94896737
   0.88372531  0.10607435  0.05194244
   0.78364853  0.55679509  0.94878249
   0.89041709  0.44795605  0.04986098
   0.77849464  0.89188797  0.95115975
   0.89242303  0.77831091  0.04943707
unknown system                          
           1
     8.267532    4.776822    0.000000
    -8.275178    4.790064    0.000000
     0.000000    0.000000   30.000000
   V    Mo   W    S 
   3   3   3  18
Direct configuration=    18
   0.66613437  0.00571964 -0.00051064
   0.00222457  0.66540069  0.00049279
   0.32976774  0.66227863  0.00002156
   1.00731114  0.32695131  0.00034316
   0.33324851  0.01681617 -0.00012562
   0.32515548  0.31844846 -0.00003067
   0.02063612  0.02023470  0.00009435
   0.65518394  0.32804277 -0.00009664
   0.65827774  0.65429759 -0.00023116
   0.11189305  0.22247952  0.94460166
   0.22169290  0.11129968  0.05639951
   0.11388864  0.56032788  0.94974522
   0.22606867  0.44948938  0.05184174
   0.10855934  0.88564930  0.94846846
   0.22151201  0.77506343  0.04902973
   0.44527934  0.22417235  0.94480569
   0.55782906  0.10836940  0.05201103
   0.43995565  0.55579853  0.94883220
   0.55342030  0.44246164  0.05335043
   0.44473869  0.88725938  0.95131929
   0.55221805  0.77975870  0.04949340
   0.77460955  0.21717225  0.94901580
   0.88377902  0.10609366  0.05194159
   0.78358582  0.55670747  0.94876993
   0.89032966  0.44776006  0.04979580
   0.77854221  0.89179540  0.95129359
   0.89237288  0.77836646  0.04932773
unknown system                          
           1
     8.258664    4.768546    0.000000
    -8.269295    4.786947    0.000000
     0.000000    0.000000   30.000000
   V    Mo   W    S 
   3   3   3  18
Direct configuration=    19
   0.66688019  0.00123290 -0.00039130
   0.00271583  0.66758385  0.00031730
   0.33079891  0.66308141 -0.00013756
   1.00346502  0.32813123  0.00035847
   0.33093087  0.01408694 -0.00021276
   0.32268352  0.31645284  0.00001980
   0.01714415  0.01560409  0.00002825
   0.66026516  0.32724686 -0.00000631
   0.66356109  0.66425717 -0.00002326
   0.11073534  0.22188383  0.94517814
   0.22099745  0.11058492  0.05607537
   0.11415472  0.56084952  0.94986234
   0.22595410  0.45012727  0.05149322
   0.10831458  0.88506902  0.94798787
   0.22134042  0.77423493  0.04934153
   0.44566395  0.22410184  0.94542312
   0.55759115  0.10759754  0.05159904
   0.44042576  0.55601077  0.94952543
   0.55414834  0.44357007  0.05224487
   0.44508399  0.88662487  0.95112393
   0.55167442  0.78023662  0.04995346
   0.77383732  0.21539156  0.94859045
   0.88322510  0.10589638  0.05186213
   0.78414460  0.55764635  0.94902316
   0.89123408  0.44982856  0.05049275
   0.77824754  0.89307228  0.94981366
   0.89299687  0.77781084  0.05045680
unknown system                          
           1
     8.266762    4.775009    0.000000
    -8.276477    4.791831    0.000000
     0.000000    0.000000   30.000000
   V    Mo   W    S 
   3   3   3  18
Direct configuration=    20
   0.66720819  0.00089488 -0.00037608
   0.00272261  0.66743911  0.00034177
   0.33074647  0.66281799 -0.00017304
   1.00312552  0.32802932  0.00037478
   0.33057213  0.01486228 -0.00020572
   0.32185433  0.31532609  0.00001697
   0.01735450  0.01548938  0.00009862
   0.66033841  0.32655088  0.00001648
   0.66459476  0.66601696 -0.00002790
   0.11067958  0.22190140  0.94514858
   0.22084153  0.11057851  0.05616240
   0.11404214  0.56074320  0.94989022
   0.22583646  0.44981983  0.05145648
   0.10846721  0.88535223  0.94799916
   0.22148243  0.77450205  0.04924375
   0.44572189  0.22428696  0.94543886
   0.55747634  0.10746988  0.05152738
   0.44050626  0.55571830  0.94963632
   0.55412705  0.44365245  0.05195534
   0.44488126  0.88680917  0.95127801
   0.55171440  0.78028489  0.05001734
   0.77379421  0.21524774  0.94859562
   0.88332014  0.10589413  0.05182584
   0.78411970  0.55769575  0.94921291
   0.89114987  0.44975635  0.05040464
   0.77847853  0.89315007  0.94975622
   0.89305852  0.77792464  0.05038494
unknown system                          
           1
     8.264154    4.768457    0.000000
    -8.278646    4.793532    0.000000
     0.000000    0.000000   30.000000
   V    Mo   W    S 
   3   3   3  18
Direct configuration=    21
   0.66763778 -0.00049175 -0.00032611
   0.00289248  0.66779825  0.00028890
   0.33097848  0.66272074 -0.00023723
   1.00202602  0.32832767  0.00035818
   0.32985894  0.01472961 -0.00021513
   0.32067855  0.31414891  0.00000994
   0.01648578  0.01422274  0.00006876
   0.66153763  0.32569378  0.00005143
   0.66659768  0.66993092  0.00002037
   0.11028940  0.22172319  0.94524215
   0.22060884  0.11041732  0.05624258
   0.11403276  0.56080488  0.94990100
   0.22579182  0.44982275  0.05137893
   0.10849410  0.88536316  0.94784497
   0.22158590  0.77448603  0.04928500
   0.44584241  0.22443724  0.94553270
   0.55731047  0.10711269  0.05143109
   0.44062473  0.55555595  0.94987989
   0.55427461  0.44400334  0.05150078
   0.44479731  0.88676536  0.95132750
   0.55158271  0.78048083  0.05020353
   0.77355274  0.21464925  0.94843195
   0.88317618  0.10581938  0.05185179
   0.78429703  0.55795696  0.94935087
   0.89134292  0.45022514  0.05059173
   0.77857586  0.89364604  0.94926741
   0.89334131  0.77786405  0.05071692
unknown system                          
           1
     8.267747    4.770466    0.000000
    -8.283540    4.797794    0.000000
     0.000000    0.000000   30.000000
   V    Mo   W    S 
   3   3   3  18
Direct configuration=    22
   0.66776681  0.00079625 -0.00034335
   0.00265656  0.66663497  0.00034611
   0.33055325  0.66213306 -0.00020971
   1.00308533  0.32796665  0.00035911
   0.33044318  0.01634229 -0.00017748
   0.32065153  0.31383578 -0.00001406
   0.01762592  0.01561699  0.00011751
   0.65987943  0.32510515  0.00004696
   0.66596822  0.66863009 -0.00004476
   0.11056520  0.22189358  0.94501632
   0.22071574  0.11064345  0.05645487
   0.11383404  0.56051959  0.94984836
   0.22575162  0.44938322  0.05148925
   0.10865923  0.88569478  0.94802254
   0.22174320  0.77495456  0.04911369
   0.44575881  0.22463922  0.94531062
   0.55729323  0.10721024  0.05154374
   0.44061002  0.55526187  0.94975923
   0.55402961  0.44376915  0.05158330
   0.44453314  0.88714770  0.95151897
   0.55185159  0.78040895  0.05012648
   0.77378024  0.21513937  0.94852891
   0.88340957  0.10593755  0.05189230
   0.78408115  0.55768615  0.94939317
   0.89097137  0.44943945  0.05034628
   0.77879149  0.89334545  0.94962374
   0.89320495  0.77807894  0.05034782
unknown system                          
           1
     8.269629    4.770577    0.000000
    -8.289074    4.804230    0.000000
     0.000000    0.000000   30.000000
   V    Mo   W    S 
   3   3   3  18
Direct configuration=    23
   0.66797682  0.00124002 -0.00034079
   0.00255095  0.66586967  0.00035986
   0.33029398  0.66159594 -0.00020734
   1.00362719  0.32786688  0.00033485
   0.33080869  0.01732862 -0.00014421
   0.32039655  0.31346495 -0.00003520
   0.01800331  0.01624494  0.00012369
   0.65897158  0.32445367  0.00002704
   0.66598954  0.66885315 -0.00006206
   0.11061115  0.22191840  0.94490412
   0.22072379  0.11077151  0.05660722
   0.11375152  0.56035513  0.94980798
   0.22577772  0.44914423  0.05154363
   0.10876796  0.88591069  0.94811577
   0.22189687  0.77521972  0.04899982
   0.44570670  0.22483820  0.94516897
   0.55721873  0.10716447  0.05162314
   0.44056700  0.55506411  0.94975166
   0.55390150  0.44370637  0.05153011
   0.44433665  0.88734518  0.95168142
   0.55194589  0.78042790  0.05009076
   0.77384616  0.21526585  0.94855216
   0.88352223  0.10599147  0.05193679
   0.78398493  0.55752011  0.94943869
   0.89076827  0.44902384  0.05026367
   0.77898222  0.89343731  0.94970168
   0.89328652  0.77819211  0.05022647
unknown system                          
           1
     8.269374    4.770859    0.000000
    -8.287584    4.802372    0.000000
     0.000000    0.000000   30.000000
   V    Mo   W    S 
   3   3   3  18
Direct configuration=    24
   0.66834558  0.00256120 -0.00033821
   0.00227290  0.66372705  0.00041179
   0.32930681  0.66001200 -0.00019448
   1.00551997  0.32786752  0.00029164
   0.33200437  0.01972974 -0.00005603
   0.32014285  0.31296213 -0.00008234
   0.01908011  0.01809408  0.00017683
   0.65630116  0.32315554 -0.00004255
   0.66555216  0.66839003 -0.00010542
   0.11082454  0.22201140  0.94463022
   0.22074908  0.11110293  0.05687369
   0.11363849  0.55997086  0.94971206
   0.22588913  0.44864341  0.05167804
   0.10904339  0.88642751  0.94844312
   0.22222446  0.77576571  0.04866732
   0.44551949  0.22527480  0.94482389
   0.55706279  0.10721479  0.05184310
   0.44043429  0.55476695  0.94970114
   0.55359488  0.44348931  0.05149858
   0.44382546  0.88771647  0.95209884