   27   27  100    1
  0.9710400E+02  0.1002848E-08  0.1002848E-08  0.3000000E-08  0.5000000E-15
  1.000000000000000E-004
  CAR 
 unknown system                          
    159     34    120
 
  0.0000000E+00  0.0000000E+00  0.0000000E+00  0.1562500E-01
    1      -17.796395   1.000000
    2      -16.678471   1.000000
    3      -16.584261   1.000000
    4      -16.553485   1.000000
    5      -16.458495   1.000000
    6      -16.408565   1.000000
    7      -16.360455   1.000000
    8      -16.360028   1.000000
    9      -16.129236   1.000000
   10      -16.037005   1.000000
   11      -16.013828   1.000000
   12      -15.978494   1.000000
   13      -15.910713   1.000000
   14      -15.802103   1.000000
   15      -15.642775   1.000000
   16      -15.532595   1.000000
   17      -15.352293   1.000000
   18      -15.276258   1.000000
   19       -9.371736   1.000000
   20       -9.065806   1.000000
   21       -8.887369   1.000000
   22       -8.753854   1.000000
   23       -8.698748   1.000000
   24       -8.610132   1.000000
   25       -8.569916   1.000000
   26       -8.513169   1.000000
   27       -8.422419   1.000000
   28       -8.373052   1.000000
   29       -8.340697   1.000000
   30       -8.278082   1.000000
   31       -8.210776   1.000000
   32       -8.191303   1.000000
   33       -8.117135   1.000000
   34       -8.106197   1.000000
   35       -7.922776   1.000000
   36       -7.769028   1.000000
   37       -7.761247   1.000000
   38       -7.673432   1.000000
   39       -7.476087   1.000000
   40       -7.444608   1.000000
   41       -7.317745   1.000000
   42       -7.228683   1.000000
   43       -7.222075   1.000000
   44       -6.917915   1.000000
   45       -6.820132   1.000000
   46       -6.793195   1.000000
   47       -6.694165   1.000000
   48       -6.658837   1.000000
   49       -6.536699   1.000000
   50       -6.532197   1.000000
   51       -6.448168   1.000000
   52       -6.396619   1.000000
   53       -6.275368   1.000000
   54       -6.247685   1.000000
   55       -6.133877   1.000000
   56       -6.121872   1.000000
   57       -6.047408   1.000000
   58       -5.756142   1.000000
   59       -5.734392   1.000000
   60       -5.633022   1.000000
   61       -5.557670   1.000000
   62       -5.353875   1.000000
   63       -5.338975   1.000000
   64       -5.052371   1.000000
   65       -4.966831   1.000000
   66       -4.920880   1.000000
   67       -4.908572   1.000000
   68       -4.809894   1.000000
   69       -4.680886   1.000000
   70       -4.639195   1.000000
   71       -4.529255   1.000000
   72       -4.450989   1.000000
   73       -4.362401   1.000000
   74       -4.303454   1.000000
   75       -4.182093   1.000000
   76       -4.005798   1.000000
   77       -3.652344   0.992989
   78       -3.552035   0.959716
   79       -3.468204   0.875878
   80       -3.384342   0.712816
   81       -3.303173   0.495083
   82       -2.729266   0.000023
   83       -2.559723   0.000000
   84       -2.556070   0.000000
   85       -2.447717   0.000000
   86       -2.432489   0.000000
   87       -2.333233   0.000000
   88       -2.184863   0.000000
   89       -2.084630   0.000000
   90       -2.054964   0.000000
   91       -1.908096   0.000000
   92       -1.906636   0.000000
   93       -1.543578   0.000000
   94       -1.440161   0.000000
   95       -1.265118   0.000000
   96       -1.163813   0.000000
   97       -1.139130   0.000000
   98       -0.979977   0.000000
   99       -0.694786   0.000000
  100       -0.504053   0.000000
  101       -0.487927   0.000000
  102       -0.477130   0.000000
  103       -0.378352   0.000000
  104       -0.171784   0.000000
  105       -0.170133   0.000000
  106        0.098385   0.000000
  107        0.139406   0.000000
  108        0.288325   0.000000
  109        0.306271   0.000000
  110        0.389795   0.000000
  111        0.431111   0.000000
  112        0.550947   0.000000
  113        0.717857   0.000000
  114        0.744241   0.000000
  115        0.883064   0.000000
  116        0.904482   0.000000
  117        1.073156   0.000000
  118        1.661115   0.000000
  119        1.837406   0.000000
  120        2.170226   0.000000
 
  0.1250000E+00  0.2775558E-16  0.0000000E+00  0.3125000E-01
    1      -17.770173   1.000000
    2      -16.773022   1.000000
    3      -16.605671   1.000000
    4      -16.555648   1.000000
    5      -16.514154   1.000000
    6      -16.416967   1.000000
    7      -16.343942   1.000000
    8      -16.260359   1.000000
    9      -16.132648   1.000000
   10      -16.050928   1.000000
   11      -16.018955   1.000000
   12      -15.973444   1.000000
   13      -15.838517   1.000000
   14      -15.767674   1.000000
   15      -15.654094   1.000000
   16      -15.541039   1.000000
   17      -15.361836   1.000000
   18      -15.282486   1.000000
   19       -9.350116   1.000000
   20       -9.176523   1.000000
   21       -9.046923   1.000000
   22       -8.865477   1.000000
   23       -8.757614   1.000000
   24       -8.635706   1.000000
   25       -8.539368   1.000000
   26       -8.468985   1.000000
   27       -8.423742   1.000000
   28       -8.406470   1.000000
   29       -8.353322   1.000000
   30       -8.263815   1.000000
   31       -8.168703   1.000000
   32       -8.129683   1.000000
   33       -8.016444   1.000000
   34       -7.958650   1.000000
   35       -7.851044   1.000000
   36       -7.724604   1.000000
   37       -7.688545   1.000000
   38       -7.608669   1.000000
   39       -7.507837   1.000000
   40       -7.356304   1.000000
   41       -7.341100   1.000000
   42       -7.273468   1.000000
   43       -7.157189   1.000000
   44       -6.995671   1.000000
   45       -6.879024   1.000000
   46       -6.839503   1.000000
   47       -6.750083   1.000000
   48       -6.629812   1.000000
   49       -6.599425   1.000000
   50       -6.468896   1.000000
   51       -6.420381   1.000000
   52       -6.364375   1.000000
   53       -6.299638   1.000000
   54       -6.210432   1.000000
   55       -6.182901   1.000000
   56       -6.126858   1.000000
   57       -6.035261   1.000000
   58       -5.766171   1.000000
   59       -5.678090   1.000000
   60       -5.589509   1.000000
   61       -5.538286   1.000000
   62       -5.356960   1.000000
   63       -5.320416   1.000000
   64       -5.232703   1.000000
   65       -5.069938   1.000000
   66       -4.957429   1.000000
   67       -4.880371   1.000000
   68       -4.844713   1.000000
   69       -4.718802   1.000000
   70       -4.701647   1.000000
   71       -4.563243   1.000000
   72       -4.482069   1.000000
   73       -4.265093   1.000000
   74       -4.169982   1.000000
   75       -4.000534   1.000000
   76       -3.877596   0.999974
   77       -3.765210   0.999433
   78       -3.692789   0.996953
   79       -3.630813   0.989401
   80       -3.278565   0.426095
   81       -3.203357   0.236339
   82       -2.725808   0.000021
   83       -2.583830   0.000000
   84       -2.535583   0.000000
   85       -2.476964   0.000000
   86       -2.425931   0.000000
   87       -2.338563   0.000000
   88       -2.168660   0.000000
   89       -2.110601   0.000000
   90       -2.042896   0.000000
   91       -1.916697   0.000000
   92       -1.897421   0.000000
   93       -1.548026   0.000000
   94       -1.389723   0.000000
   95       -1.291353   0.000000
   96       -1.132381   0.000000
   97       -1.089328   0.000000
   98       -0.957974   0.000000
   99       -0.711810   0.000000
  100       -0.574502   0.000000
  101       -0.543115   0.000000
  102       -0.512928   0.000000
  103       -0.419896   0.000000
  104       -0.260530   0.000000
  105       -0.169095   0.000000
  106       -0.001110   0.000000
  107        0.061819   0.000000
  108        0.244188   0.000000
  109        0.290632   0.000000
  110        0.385210   0.000000
  111        0.412492   0.000000
  112        0.517486   0.000000
  113        0.602080   0.000000
  114        0.888411   0.000000
  115        0.924449   0.000000
  116        1.030726   0.000000
  117        1.171512   0.000000
  118        1.705069   0.000000
  119        1.876944   0.000000
  120        2.205862   0.000000
 
  0.2500000E+00  0.5551115E-16  0.0000000E+00  0.3125000E-01
    1      -17.692447   1.000000
    2      -16.973476   1.000000
    3      -16.645748   1.000000
    4      -16.610733   1.000000
    5      -16.531908   1.000000
    6      -16.399533   1.000000
    7      -16.299343   1.000000
    8      -16.196927   1.000000
    9      -16.093107   1.000000
   10      -16.069197   1.000000
   11      -16.039881   1.000000
   12      -15.913342   1.000000
   13      -15.775310   1.000000
   14      -15.685971   1.000000
   15      -15.653468   1.000000
   16      -15.568422   1.000000
   17      -15.382507   1.000000
   18      -15.296247   1.000000
   19       -9.484507   1.000000
   20       -9.310929   1.000000
   21       -9.149588   1.000000
   22       -9.005650   1.000000
   23       -8.834562   1.000000
   24       -8.737943   1.000000
   25       -8.571750   1.000000
   26       -8.463529   1.000000
   27       -8.434574   1.000000
   28       -8.380079   1.000000
   29       -8.269507   1.000000
   30       -8.197377   1.000000
   31       -8.169140   1.000000
   32       -8.044498   1.000000
   33       -7.938099   1.000000
   34       -7.849378   1.000000
   35       -7.733120   1.000000
   36       -7.597149   1.000000
   37       -7.585764   1.000000
   38       -7.470439   1.000000
   39       -7.383156   1.000000
   40       -7.362722   1.000000
   41       -7.279201   1.000000
   42       -7.209079   1.000000
   43       -7.091634   1.000000
   44       -7.014044   1.000000
   45       -6.944113   1.000000
   46       -6.878254   1.000000
   47       -6.800995   1.000000
   48       -6.687114   1.000000
   49       -6.624894   1.000000
   50       -6.484932   1.000000
   51       -6.476601   1.000000
   52       -6.309690   1.000000
   53       -6.270283   1.000000
   54       -6.183870   1.000000
   55       -6.136307   1.000000
   56       -6.107236   1.000000
   57       -5.994934   1.000000
   58       -5.773342   1.000000
   59       -5.673492   1.000000
   60       -5.610394   1.000000
   61       -5.547884   1.000000
   62       -5.494015   1.000000
   63       -5.429565   1.000000
   64       -5.325745   1.000000
   65       -5.224328   1.000000
   66       -5.105428   1.000000
   67       -4.901092   1.000000
   68       -4.853953   1.000000
   69       -4.780835   1.000000
   70       -4.616339   1.000000
   71       -4.553095   1.000000
   72       -4.325226   1.000000
   73       -4.267435   1.000000
   74       -4.080366   1.000000
   75       -4.007427   1.000000
   76       -3.911411   0.999991
   77       -3.746050   0.999094
   78       -3.662501   0.994273
   79       -3.632607   0.989752
   80       -3.251392   0.352542
   81       -3.092516   0.066562
   82       -2.743284   0.000036
   83       -2.639498   0.000001
   84       -2.516984   0.000000
   85       -2.485785   0.000000
   86       -2.443223   0.000000
   87       -2.321007   0.000000
   88       -2.194246   0.000000
   89       -2.102782   0.000000
   90       -2.031995   0.000000
   91       -1.930476   0.000000
   92       -1.881362   0.000000
   93       -1.536551   0.000000
   94       -1.323466   0.000000
   95       -1.280188   0.000000
   96       -1.085360   0.000000
   97       -0.991175   0.000000
   98       -0.921064   0.000000
   99       -0.791851   0.000000
  100       -0.730288   0.000000
  101       -0.631527   0.000000
  102       -0.564718   0.000000
  103       -0.501795   0.000000
  104       -0.407264   0.000000
  105       -0.321516   0.000000
  106       -0.138101   0.000000
  107       -0.046059   0.000000
  108        0.133313   0.000000
  109        0.176847   0.000000
  110        0.358594   0.000000
  111        0.431201   0.000000
  112        0.446012   0.000000
  113        0.525343   0.000000
  114        0.958360   0.000000
  115        1.148816   0.000000
  116        1.214958   0.000000
  117        1.371075   0.000000
  118        1.828631   0.000000
  119        1.990518   0.000000
  120        2.311803   0.000000
 
  0.3750000E+00  0.0000000E+00  0.0000000E+00  0.3125000E-01
    1      -17.566233   1.000000
    2      -17.193433   1.000000
    3      -16.696517   1.000000
    4      -16.634479   1.000000
    5      -16.514797   1.000000
    6      -16.424687   1.000000
    7      -16.256612   1.000000
    8      -16.173201   1.000000
    9      -16.107068   1.000000
   10      -16.026905   1.000000
   11      -16.009160   1.000000
   12      -15.854835   1.000000
   13      -15.746075   1.000000
   14      -15.708773   1.000000
   15      -15.616242   1.000000
   16      -15.560869   1.000000
   17      -15.404249   1.000000
   18      -15.298440   1.000000
   19       -9.714891   1.000000
   20       -9.318953   1.000000
   21       -9.255763   1.000000
   22       -8.958529   1.000000
   23       -8.887605   1.000000
   24       -8.838416   1.000000
   25       -8.594584   1.000000
   26       -8.533629   1.000000
   27       -8.391671   1.000000
   28       -8.316748   1.000000
   29       -8.277630   1.000000
   30       -8.197042   1.000000
   31       -8.133216   1.000000
   32       -7.976311   1.000000
   33       -7.892654   1.000000
   34       -7.882047   1.000000
   35       -7.674834   1.000000
   36       -7.518404   1.000000
   37       -7.481509   1.000000
   38       -7.429385   1.000000
   39       -7.366725   1.000000
   40       -7.326697   1.000000
   41       -7.211591   1.000000
   42       -7.139536   1.000000
   43       -7.049845   1.000000
   44       -6.947900   1.000000
   45       -6.845344   1.000000
   46       -6.802905   1.000000
   47       -6.727723   1.000000
   48       -6.656693   1.000000
   49       -6.635630   1.000000
   50       -6.533061   1.000000
   51       -6.430658   1.000000
   52       -6.275591   1.000000
   53       -6.226372   1.000000
   54       -6.168754   1.000000
   55       -6.141090   1.000000
   56       -6.013491   1.000000
   57       -5.968655   1.000000
   58       -5.924307   1.000000
   59       -5.871682   1.000000
   60       -5.726721   1.000000
   61       -5.649577   1.000000
   62       -5.590994   1.000000
   63       -5.533186   1.000000
   64       -5.416791   1.000000
   65       -5.252083   1.000000
   66       -5.063392   1.000000
   67       -4.905788   1.000000
   68       -4.849341   1.000000
   69       -4.699025   1.000000
   70       -4.665132   1.000000
   71       -4.604891   1.000000
   72       -4.459681   1.000000
   73       -4.259923   1.000000
   74       -4.121922   1.000000
   75       -4.008485   1.000000
   76       -3.836415   0.999914
   77       -3.654967   0.993343
   78       -3.612896   0.985288
   79       -3.438257   0.827126
   80       -3.203570   0.236805
   81       -3.068433   0.047244
   82       -2.767701   0.000073
   83       -2.730251   0.000024
   84       -2.530899   0.000000
   85       -2.511726   0.000000
   86       -2.397111   0.000000
   87       -2.283888   0.000000
   88       -2.215514   0.000000
   89       -2.110936   0.000000
   90       -2.034280   0.000000
   91       -1.922662   0.000000
   92       -1.880777   0.000000
   93       -1.473186   0.000000
   94       -1.304584   0.000000
   95       -1.236082   0.000000
   96       -1.092984   0.000000
   97       -0.937321   0.000000
   98       -0.906586   0.000000
   99       -0.886270   0.000000
  100       -0.804956   0.000000
  101       -0.712656   0.000000
  102       -0.607134   0.000000
  103       -0.584227   0.000000
  104       -0.527609   0.000000
  105       -0.483906   0.000000
  106       -0.211206   0.000000
  107       -0.101669   0.000000
  108       -0.009884   0.000000
  109        0.090934   0.000000
  110        0.205602   0.000000
  111        0.405700   0.000000
  112        0.459314   0.000000
  113        0.589010   0.000000
  114        0.999847   0.000000
  115        1.314558   0.000000
  116        1.349684   0.000000
  117        1.537641   0.000000
  118        2.015752   0.000000
  119        2.167115   0.000000
  120        2.485456   0.000000
 
  0.5000000E+00  0.1110223E-15  0.0000000E+00  0.1562500E-01
    1      -17.404362   1.000000
    2      -17.389073   1.000000
    3      -16.713504   1.000000
    4      -16.645747   1.000000
    5      -16.486544   1.000000
    6      -16.456979   1.000000
    7      -16.235963   1.000000
    8      -16.177179   1.000000
    9      -16.109587   1.000000
   10      -16.004392   1.000000
   11      -15.990351   1.000000
   12      -15.824466   1.000000
   13      -15.743028   1.000000
   14      -15.703606   1.000000
   15      -15.655895   1.000000
   16      -15.526682   1.000000
   17      -15.419602   1.000000
   18      -15.290848   1.000000
   19       -9.797961   1.000000
   20       -9.335467   1.000000
   21       -9.297608   1.000000
   22       -8.908355   1.000000
   23       -8.894384   1.000000
   24       -8.785869   1.000000
   25       -8.749882   1.000000
   26       -8.548249   1.000000
   27       -8.374842   1.000000
   28       -8.294123   1.000000
   29       -8.265666   1.000000
   30       -8.201835   1.000000
   31       -8.063332   1.000000
   32       -7.974803   1.000000
   33       -7.892969   1.000000
   34       -7.872128   1.000000
   35       -7.637369   1.000000
   36       -7.581128   1.000000
   37       -7.539818   1.000000
   38       -7.479476   1.000000
   39       -7.366554   1.000000
   40       -7.274086   1.000000
   41       -7.123432   1.000000
   42       -7.048831   1.000000
   43       -6.931737   1.000000
   44       -6.921141   1.000000
   45       -6.810929   1.000000
   46       -6.751902   1.000000
   47       -6.667861   1.000000
   48       -6.656334   1.000000
   49       -6.599334   1.000000
   50       -6.544471   1.000000
   51       -6.426386   1.000000
   52       -6.403116   1.000000
   53       -6.213872   1.000000
   54       -6.195154   1.000000
   55       -6.069673   1.000000
   56       -6.039560   1.000000
   57       -5.962569   1.000000
   58       -5.884095   1.000000
   59       -5.875270   1.000000
   60       -5.840215   1.000000
   61       -5.700270   1.000000
   62       -5.549777   1.000000
   63       -5.505460   1.000000
   64       -5.474420   1.000000
   65       -5.390590   1.000000
   66       -5.107935   1.000000
   67       -4.983077   1.000000
   68       -4.865770   1.000000
   69       -4.708528   1.000000
   70       -4.618777   1.000000
   71       -4.518457   1.000000
   72       -4.456324   1.000000
   73       -4.434294   1.000000
   74       -4.017734   1.000000
   75       -3.990062   0.999999
   76       -3.834802   0.999910
   77       -3.649052   0.992521
   78       -3.581309   0.974673
   79       -3.320967   0.545183
   80       -3.194618   0.217718
   81       -3.059867   0.041570
   82       -2.792614   0.000146
   83       -2.767004   0.000071
   84       -2.556269   0.000000
   85       -2.517637   0.000000
   86       -2.364862   0.000000
   87       -2.266865   0.000000
   88       -2.216276   0.000000
   89       -2.122004   0.000000
   90       -2.040429   0.000000
   91       -1.914280   0.000000
   92       -1.887339   0.000000
   93       -1.398209   0.000000
   94       -1.320469   0.000000
   95       -1.229557   0.000000
   96       -1.125716   0.000000
   97       -0.977742   0.000000
   98       -0.902656   0.000000
   99       -0.884406   0.000000
  100       -0.780601   0.000000
  101       -0.736604   0.000000
  102       -0.698150   0.000000
  103       -0.601897   0.000000
  104       -0.567800   0.000000
  105       -0.525244   0.000000
  106       -0.230260   0.000000
  107       -0.110337   0.000000
  108       -0.063407   0.000000
  109        0.050039   0.000000
  110        0.142735   0.000000
  111        0.391494   0.000000
  112        0.469301   0.000000
  113        0.615377   0.000000
  114        1.015780   0.000000
  115        1.368058   0.000000
  116        1.402277   0.000000
  117        1.595328   0.000000
  118        2.240678   0.000000
  119        2.268700   0.000000
  120        2.388159   0.000000
 
  0.0000000E+00  0.1250000E+00  0.0000000E+00  0.3125000E-01
    1      -17.771875   1.000000
    2      -16.763513   1.000000
    3      -16.627305   1.000000
    4      -16.567796   1.000000
    5      -16.498679   1.000000
    6      -16.373670   1.000000
    7      -16.343908   1.000000
    8      -16.294628   1.000000
    9      -16.120847   1.000000
   10      -16.088686   1.000000
   11      -16.004882   1.000000
   12      -15.917088   1.000000
   13      -15.858780   1.000000
   14      -15.787570   1.000000
   15      -15.659170   1.000000
   16      -15.540560   1.000000
   17      -15.366218   1.000000
   18      -15.278036   1.000000
   19       -9.369673   1.000000
   20       -9.180966   1.000000
   21       -8.991222   1.000000
   22       -8.846531   1.000000
   23       -8.765661   1.000000
   24       -8.637883   1.000000
   25       -8.556208   1.000000
   26       -8.512649   1.000000
   27       -8.457206   1.000000
   28       -8.395990   1.000000
   29       -8.310448   1.000000
   30       -8.232325   1.000000
   31       -8.192014   1.000000
   32       -8.094725   1.000000
   33       -8.026343   1.000000
   34       -7.945012   1.000000
   35       -7.837139   1.000000
   36       -7.731673   1.000000
   37       -7.689267   1.000000
   38       -7.649689   1.000000
   39       -7.503610   1.000000
   40       -7.467807   1.000000
   41       -7.300317   1.000000
   42       -7.216016   1.000000
   43       -7.176440   1.000000
   44       -7.034263   1.000000
   45       -6.851816   1.000000
   46       -6.795005   1.000000
   47       -6.706206   1.000000
   48       -6.635317   1.000000
   49       -6.575374   1.000000
   50       -6.505369   1.000000
   51       -6.445107   1.000000
   52       -6.361053   1.000000
   53       -6.293559   1.000000
   54       -6.237173   1.000000
   55       -6.160204   1.000000
   56       -6.122032   1.000000
   57       -6.059913   1.000000
   58       -5.801331   1.000000
   59       -5.716938   1.000000
   60       -5.573063   1.000000
   61       -5.490884   1.000000
   62       -5.351875   1.000000
   63       -5.316670   1.000000
   64       -5.217880   1.000000
   65       -5.087345   1.000000
   66       -5.039402   1.000000
   67       -4.890459   1.000000
   68       -4.852044   1.000000
   69       -4.733883   1.000000
   70       -4.619277   1.000000
   71       -4.525091   1.000000
   72       -4.416261   1.000000
   73       -4.236560   1.000000
   74       -4.167900   1.000000
   75       -4.085728   1.000000
   76       -3.927401   0.999995
   77       -3.796682   0.999747
   78       -3.692561   0.996938
   79       -3.561951   0.965431
   80       -3.348552   0.621172
   81       -3.177296   0.183420
   82       -2.701932   0.000010
   83       -2.582142   0.000000
   84       -2.540659   0.000000
   85       -2.441379   0.000000
   86       -2.403468   0.000000
   87       -2.332554   0.000000
   88       -2.191541   0.000000
   89       -2.106652   0.000000
   90       -2.072177   0.000000
   91       -1.897565   0.000000
   92       -1.874569   0.000000
   93       -1.528446   0.000000
   94       -1.426827   0.000000
   95       -1.278254   0.000000
   96       -1.157916   0.000000
   97       -1.098859   0.000000
   98       -0.959248   0.000000
   99       -0.706837   0.000000
  100       -0.597896   0.000000
  101       -0.547762   0.000000
  102       -0.517185   0.000000
  103       -0.449870   0.000000
  104       -0.241084   0.000000
  105       -0.168578   0.000000
  106       -0.009195   0.000000
  107        0.147983   0.000000
  108        0.236248   0.000000
  109        0.280024   0.000000
  110        0.355234   0.000000
  111        0.432838   0.000000
  112        0.583385   0.000000
  113        0.686913   0.000000
  114        0.833648   0.000000
  115        0.909092   0.000000
  116        0.968588   0.000000
  117        1.135702   0.000000
  118        1.704328   0.000000
  119        1.876498   0.000000
  120        2.205086   0.000000
 
  0.1250000E+00  0.1250000E+00  0.0000000E+00  0.3125000E-01
    1      -17.720282   1.000000
    2      -16.897763   1.000000
    3      -16.712120   1.000000
    4      -16.568300   1.000000
    5      -16.474714   1.000000
    6      -16.390913   1.000000
    7      -16.320004   1.000000
    8      -16.229058   1.000000
    9      -16.120798   1.000000
   10      -16.082071   1.000000
   11      -15.997554   1.000000
   12      -15.935351   1.000000
   13      -15.771387   1.000000
   14      -15.717888   1.000000
   15      -15.670539   1.000000
   16      -15.562077   1.000000
   17      -15.377484   1.000000
   18      -15.291131   1.000000
   19       -9.397050   1.000000
   20       -9.321515   1.000000
   21       -9.153851   1.000000
   22       -8.965927   1.000000
   23       -8.798347   1.000000
   24       -8.687486   1.000000
   25       -8.559762   1.000000
   26       -8.462725   1.000000
   27       -8.408927   1.000000
   28       -8.371085   1.000000
   29       -8.288901   1.000000
   30       -8.228378   1.000000
   31       -8.141525   1.000000
   32       -8.095301   1.000000
   33       -8.023158   1.000000
   34       -7.855295   1.000000
   35       -7.756172   1.000000
   36       -7.697936   1.000000
   37       -7.556968   1.000000
   38       -7.500499   1.000000
   39       -7.413082   1.000000
   40       -7.334388   1.000000
   41       -7.277468   1.000000
   42       -7.237989   1.000000
   43       -7.154295   1.000000
   44       -7.041242   1.000000
   45       -6.933022   1.000000
   46       -6.873840   1.000000
   47       -6.787988   1.000000
   48       -6.649024   1.000000
   49       -6.604878   1.000000
   50       -6.494814   1.000000
   51       -6.424193   1.000000
   52       -6.344847   1.000000
   53       -6.282835   1.000000
   54       -6.197451   1.000000
   55       -6.148752   1.000000
   56       -6.120750   1.000000
   57       -6.026865   1.000000
   58       -5.786313   1.000000
   59       -5.659879   1.000000
   60       -5.589903   1.000000
   61       -5.534877   1.000000
   62       -5.459991   1.000000
   63       -5.398721   1.000000
   64       -5.274176   1.000000
   65       -5.159980   1.000000
   66       -5.041058   1.000000
   67       -4.995662   1.000000
   68       -4.905539   1.000000
   69       -4.762791   1.000000
   70       -4.620135   1.000000
   71       -4.470197   1.000000
   72       -4.394967   1.000000
   73       -4.143345   1.000000
   74       -4.089049   1.000000
   75       -4.039468   1.000000
   76       -3.884595   0.999979
   77       -3.869799   0.999968
   78       -3.733126   0.998769
   79       -3.590638   0.978327
   80       -3.254188   0.359911
   81       -3.148671   0.134619
   82       -2.706583   0.000012
   83       -2.624956   0.000001
   84       -2.525526   0.000000
   85       -2.461944   0.000000
   86       -2.397143   0.000000
   87       -2.321738   0.000000
   88       -2.185018   0.000000
   89       -2.117912   0.000000
   90       -2.046363   0.000000
   91       -1.908426   0.000000
   92       -1.875094   0.000000
   93       -1.533002   0.000000
   94       -1.360135   0.000000
   95       -1.308552   0.000000
   96       -1.105777   0.000000
   97       -1.036012   0.000000
   98       -0.919468   0.000000
   99       -0.760554   0.000000
  100       -0.685009   0.000000
  101       -0.612402   0.000000
  102       -0.573255   0.000000
  103       -0.508247   0.000000
  104       -0.374142   0.000000
  105       -0.235458   0.000000
  106       -0.161150   0.000000
  107        0.059726   0.000000
  108        0.157570   0.000000
  109        0.231531   0.000000
  110        0.360577   0.000000
  111        0.442966   0.000000
  112        0.527759   0.000000
  113        0.575871   0.000000
  114        0.910465   0.000000
  115        1.034271   0.000000
  116        1.130731   0.000000
  117        1.300516   0.000000
  118        1.787883   0.000000
  119        1.953757   0.000000
  120        2.275748   0.000000
 
  0.2500000E+00  0.1250000E+00  0.0000000E+00  0.3125000E-01
    1      -17.619016   1.000000
    2      -17.083723   1.000000
    3      -16.824413   1.000000
    4      -16.542458   1.000000
    5      -16.458423   1.000000
    6      -16.397590   1.000000
    7      -16.289721   1.000000
    8      -16.195809   1.000000
    9      -16.106264   1.000000
   10      -16.039410   1.000000
   11      -16.017163   1.000000
   12      -15.905012   1.000000
   13      -15.737152   1.000000
   14      -15.699829   1.000000
   15      -15.610032   1.000000
   16      -15.585658   1.000000
   17      -15.392717   1.000000
   18      -15.300218   1.000000
   19       -9.606285   1.000000
   20       -9.412203   1.000000
   21       -9.241997   1.000000
   22       -9.027382   1.000000
   23       -8.769425   1.000000
   24       -8.742129   1.000000
   25       -8.560208   1.000000
   26       -8.464008   1.000000
   27       -8.406886   1.000000
   28       -8.320176   1.000000
   29       -8.248042   1.000000
   30       -8.232193   1.000000
   31       -8.163936   1.000000
   32       -8.033005   1.000000
   33       -7.998615   1.000000
   34       -7.867724   1.000000
   35       -7.778829   1.000000
   36       -7.536893   1.000000
   37       -7.453577   1.000000
   38       -7.406885   1.000000
   39       -7.356543   1.000000
   40       -7.295861   1.000000
   41       -7.221424   1.000000
   42       -7.163117   1.000000
   43       -7.062779   1.000000
   44       -6.975148   1.000000
   45       -6.919271   1.000000
   46       -6.817054   1.000000
   47       -6.745674   1.000000