       N       E                     dE             d eps       ncg     rms          rms(c)
DAV:   1     0.112369700372E+04    0.11237E+04   -0.35858E+04  8160   0.577E+02
DAV:   2    -0.142549511324E+01   -0.11251E+04   -0.10818E+04 11160   0.173E+02
DAV:   3    -0.199816965026E+03   -0.19839E+03   -0.19031E+03 10880   0.821E+01
DAV:   4    -0.209067317864E+03   -0.92504E+01   -0.89733E+01 12200   0.263E+01
DAV:   5    -0.209394292361E+03   -0.32697E+00   -0.32614E+00 11520   0.356E+00    0.275E+01
DAV:   6    -0.237102612766E+03   -0.27708E+02   -0.11228E+02 12720   0.603E+01    0.597E+01
DAV:   7    -0.196370905196E+03    0.40732E+02   -0.17976E+02 13480   0.151E+02    0.198E+01
DAV:   8    -0.189119732822E+03    0.72512E+01   -0.15955E+01 12040   0.124E+01    0.119E+01
DAV:   9    -0.187444612652E+03    0.16751E+01   -0.27448E+00 13480   0.859E+00    0.611E+00
DAV:  10    -0.186969548965E+03    0.47506E+00   -0.11831E+00 13400   0.426E+00    0.239E+00
DAV:  11    -0.186976209247E+03   -0.66603E-02   -0.46524E-01 12760   0.215E+00    0.291E+00
DAV:  12    -0.186921373394E+03    0.54836E-01   -0.38661E-01 13200   0.292E+00    0.274E+00
DAV:  13    -0.186861885214E+03    0.59488E-01   -0.18106E-01 13040   0.257E+00    0.149E+00
DAV:  14    -0.186846868789E+03    0.15016E-01   -0.79673E-02 12920   0.146E+00    0.897E-01
DAV:  15    -0.186838162524E+03    0.87063E-02   -0.18160E-02 12080   0.564E-01    0.629E-01
DAV:  16    -0.186836989190E+03    0.11733E-02   -0.85252E-03 13240   0.513E-01    0.533E-01
DAV:  17    -0.186834753799E+03    0.22354E-02   -0.93235E-03 12280   0.528E-01    0.325E-01
DAV:  18    -0.186833693706E+03    0.10601E-02   -0.20200E-03 12640   0.228E-01    0.549E-02
DAV:  19    -0.186834239762E+03   -0.54606E-03   -0.82375E-04 10520   0.739E-02    0.999E-02
DAV:  20    -0.186834637336E+03   -0.39757E-03   -0.59211E-04  9440   0.634E-02    0.698E-02
DAV:  21    -0.186835506620E+03   -0.86928E-03   -0.26473E-04  7760   0.612E-02    0.287E-02
DAV:  22    -0.186836234608E+03   -0.72799E-03   -0.97004E-05  6400   0.353E-02    0.352E-02
DAV:  23    -0.186837458334E+03   -0.12237E-02   -0.15900E-04  7480   0.407E-02    0.826E-03
DAV:  24    -0.186838015117E+03   -0.55678E-03   -0.22760E-05  6720   0.118E-02    0.895E-03
DAV:  25    -0.186838445220E+03   -0.43010E-03   -0.17598E-05  5520   0.161E-02    0.663E-03
DAV:  26    -0.186838642532E+03   -0.19731E-03   -0.84008E-06  6840   0.787E-03    0.217E-03
DAV:  27    -0.186838743029E+03   -0.10050E-03   -0.43354E-06  6880   0.423E-03    0.102E-03
DAV:  28    -0.186838791363E+03   -0.48335E-04   -0.21668E-06  7280   0.297E-03
   1 F= -.18683879E+03 E0= -.18666559E+03  d E =-.186839E+03
       N       E                     dE             d eps       ncg     rms          rms(c)
DAV:   1    -0.187434685359E+03   -0.59594E+00   -0.26825E+02  8160   0.347E+01    0.456E+00
DAV:   2    -0.189157286472E+03   -0.17226E+01   -0.19762E+01 12240   0.146E+01    0.728E+00
DAV:   3    -0.189354685718E+03   -0.19740E+00   -0.33358E+00 12440   0.114E+01    0.716E+00
DAV:   4    -0.188722995086E+03    0.63169E+00   -0.73672E-01 12600   0.505E+00    0.220E+00
DAV:   5    -0.188704455919E+03    0.18539E-01   -0.29640E-01 10920   0.194E+00    0.254E+00
DAV:   6    -0.188756626482E+03   -0.52171E-01   -0.45196E-01 12680   0.391E+00    0.416E+00
DAV:   7    -0.188620433825E+03    0.13619E+00   -0.32706E-01 12720   0.338E+00    0.107E+00
DAV:   8    -0.188614834836E+03    0.55990E-02   -0.58645E-02 12560   0.122E+00    0.113E+00
DAV:   9    -0.188603803086E+03    0.11032E-01   -0.23588E-02 12720   0.908E-01    0.385E-01
DAV:  10    -0.188602956241E+03    0.84684E-03   -0.48822E-03 11720   0.286E-01    0.212E-01
DAV:  11    -0.188602295197E+03    0.66104E-03   -0.26045E-03 12240   0.151E-01    0.789E-02
DAV:  12    -0.188602424475E+03   -0.12928E-03   -0.83047E-04 11040   0.855E-02    0.636E-02
DAV:  13    -0.188602405130E+03    0.19345E-04   -0.22353E-04  8000   0.494E-02
   2 F= -.18860241E+03 E0= -.18845502E+03  d E =-.176361E+01
       N       E                     dE             d eps       ncg     rms          rms(c)
DAV:   1    -0.190504727847E+03   -0.19023E+01   -0.30376E+01  9360   0.141E+01    0.448E+00
DAV:   2    -0.190569396364E+03   -0.64669E-01   -0.29386E+00 11120   0.100E+01    0.791E+00
DAV:   3    -0.189970654459E+03    0.59874E+00   -0.13752E+00 12360   0.870E+00    0.409E+00
DAV:   4    -0.189769243320E+03    0.20141E+00   -0.67223E-01 12720   0.377E+00    0.250E+00
DAV:   5    -0.189707976236E+03    0.61267E-01   -0.32606E-01 12240   0.237E+00    0.192E+00
DAV:   6    -0.189672008181E+03    0.35968E-01   -0.87155E-02 12200   0.189E+00    0.791E-01
DAV:   7    -0.189665759345E+03    0.62488E-02   -0.13948E-02 12080   0.603E-01    0.180E-01
DAV:   8    -0.189665872031E+03   -0.11269E-03   -0.23151E-03 10960   0.167E-01    0.135E-01
DAV:   9    -0.189666233628E+03   -0.36160E-03   -0.12566E-03 10600   0.171E-01    0.192E-01
DAV:  10    -0.189666407880E+03   -0.17425E-03   -0.15107E-03 10480   0.267E-01    0.220E-01
DAV:  11    -0.189665930744E+03    0.47714E-03   -0.76186E-04  9360   0.169E-01    0.290E-02
DAV:  12    -0.189665949479E+03   -0.18735E-04   -0.78112E-05  6160   0.335E-02
   3 F= -.18966595E+03 E0= -.18954105E+03  d E =-.106354E+01
       N       E                     dE             d eps       ncg     rms          rms(c)
DAV:   1    -0.191175845309E+03   -0.15099E+01   -0.63698E+01  8160   0.184E+01    0.466E+00
DAV:   2    -0.191129338050E+03    0.46507E-01   -0.53754E+00 13440   0.894E+00    0.597E+00
DAV:   3    -0.191024958551E+03    0.10438E+00   -0.16246E+00 12240   0.936E+00    0.587E+00
DAV:   4    -0.190660860676E+03    0.36410E+00   -0.10133E+00 13200   0.613E+00    0.238E+00
DAV:   5    -0.190605986777E+03    0.54874E-01   -0.30486E-01 12240   0.289E+00    0.211E+00
DAV:   6    -0.190565622572E+03    0.40364E-01   -0.12294E-01 12400   0.249E+00    0.962E-01
DAV:   7    -0.190561129234E+03    0.44933E-02   -0.25278E-02 12240   0.925E-01    0.453E-01
DAV:   8    -0.190557414501E+03    0.37147E-02   -0.65280E-03 10600   0.302E-01    0.156E-01
DAV:   9    -0.190558188112E+03   -0.77361E-03   -0.20660E-03 11520   0.291E-01    0.286E-01
DAV:  10    -0.190557675753E+03    0.51236E-03   -0.18878E-03 11160   0.299E-01    0.111E-01
DAV:  11    -0.190557542889E+03    0.13286E-03   -0.41250E-04  8720   0.996E-02    0.459E-02
DAV:  12    -0.190557537338E+03    0.55516E-05   -0.96156E-05  7360   0.478E-02
   4 F= -.19055754E+03 E0= -.19045482E+03  d E =-.891588E+00
       N       E                     dE             d eps       ncg     rms          rms(c)
DAV:   1    -0.191982520195E+03   -0.14250E+01   -0.12864E+02  8160   0.258E+01    0.591E+00
DAV:   2    -0.191669245540E+03    0.31327E+00   -0.94415E+00 13000   0.903E+00    0.482E+00
DAV:   3    -0.191986875883E+03   -0.31763E+00   -0.22321E+00 12160   0.111E+01    0.868E+00
DAV:   4    -0.191344971081E+03    0.64190E+00   -0.23098E+00 12240   0.111E+01    0.360E+00
DAV:   5    -0.191296538060E+03    0.48433E-01   -0.68688E-01 12200   0.572E+00    0.350E+00
DAV:   6    -0.191123826824E+03    0.17271E+00   -0.25076E-01 12080   0.380E+00    0.780E-01
DAV:   7    -0.191122239207E+03    0.15876E-02   -0.31283E-02 12280   0.880E-01    0.435E-01
DAV:   8    -0.191118966133E+03    0.32731E-02   -0.64922E-03 10800   0.309E-01    0.191E-01
DAV:   9    -0.191119785143E+03   -0.81901E-03   -0.32114E-03 11360   0.303E-01    0.262E-01
DAV:  10    -0.191119399159E+03    0.38598E-03   -0.24525E-03 12200   0.352E-01    0.164E-01
DAV:  11    -0.191119159280E+03    0.23988E-03   -0.63886E-04  9840   0.153E-01    0.640E-02
DAV:  12    -0.191119111642E+03    0.47638E-04   -0.12088E-04  7240   0.624E-02
   5 F= -.19111911E+03 E0= -.19103404E+03  d E =-.561574E+00
       N       E                     dE             d eps       ncg     rms          rms(c)
DAV:   1    -0.191166081951E+03   -0.46923E-01   -0.51077E+00  8160   0.479E+00    0.664E-01
DAV:   2    -0.191197656606E+03   -0.31575E-01   -0.19230E-01 13440   0.189E+00    0.155E+00
DAV:   3    -0.191172637798E+03    0.25019E-01   -0.69993E-02 12520   0.201E+00    0.626E-01
DAV:   4    -0.191169493267E+03    0.31445E-02   -0.12518E-02 10680   0.660E-01    0.421E-01
DAV:   5    -0.191168672583E+03    0.82068E-03   -0.78402E-03 11600   0.667E-01    0.393E-01
DAV:   6    -0.191167272871E+03    0.13997E-02   -0.39129E-03 11680   0.411E-01    0.149E-01
DAV:   7    -0.191167003368E+03    0.26950E-03   -0.13682E-03 10480   0.143E-01    0.622E-02
DAV:   8    -0.191166954562E+03    0.48806E-04   -0.21006E-04  7000   0.572E-02
   6 F= -.19116695E+03 E0= -.19108001E+03  d E =-.478429E-01
       N       E                     dE             d eps       ncg     rms          rms(c)
DAV:   1    -0.191203002349E+03   -0.35999E-01   -0.37400E+00  8160   0.404E+00    0.536E-01
DAV:   2    -0.191244147421E+03   -0.41145E-01   -0.14828E-01 13600   0.245E+00    0.181E+00
DAV:   3    -0.191206876576E+03    0.37271E-01   -0.61326E-02 12600   0.194E+00    0.288E-01
DAV:   4    -0.191206605753E+03    0.27082E-03   -0.50805E-03 11560   0.343E-01    0.268E-01
DAV:   5    -0.191206309708E+03    0.29604E-03   -0.32636E-03 11960   0.408E-01    0.269E-01
DAV:   6    -0.191205674485E+03    0.63522E-03   -0.17364E-03 10400   0.283E-01    0.100E-01
DAV:   7    -0.191205644709E+03    0.29776E-04   -0.55191E-04 10120   0.101E-01
   7 F= -.19120564E+03 E0= -.19111540E+03  d E =-.386901E-01
       N       E                     dE             d eps       ncg     rms          rms(c)
DAV:   1    -0.191258279792E+03   -0.52605E-01   -0.89321E+00  8160   0.625E+00    0.760E-01
DAV:   2    -0.191333080500E+03   -0.74801E-01   -0.29530E-01 13560   0.317E+00    0.242E+00
DAV:   3    -0.191267446731E+03    0.65634E-01   -0.12434E-01 12600   0.270E+00    0.470E-01
DAV:   4    -0.191266084395E+03    0.13623E-02   -0.10761E-02 10880   0.483E-01    0.377E-01
DAV:   5    -0.191265731317E+03    0.35308E-03   -0.71500E-03 12640   0.595E-01    0.416E-01
DAV:   6    -0.191264272510E+03    0.14588E-02   -0.42245E-03 11680   0.442E-01    0.164E-01
DAV:   7    -0.191264086723E+03    0.18579E-03   -0.12077E-03 10920   0.153E-01    0.665E-02
DAV:   8    -0.191264011600E+03    0.75123E-04   -0.28283E-04  8120   0.816E-02
   8 F= -.19126401E+03 E0= -.19116848E+03  d E =-.583669E-01
       N       E                     dE             d eps       ncg     rms          rms(c)
DAV:   1    -0.191246339868E+03    0.17747E-01   -0.80242E-01  8160   0.187E+00    0.226E-01
DAV:   2    -0.191253301683E+03   -0.69618E-02   -0.26613E-02 13560   0.895E-01    0.718E-01
DAV:   3    -0.191247090055E+03    0.62116E-02   -0.10263E-02 11720   0.782E-01    0.146E-01
DAV:   4    -0.191247101870E+03   -0.11814E-04   -0.12838E-03 10160   0.200E-01    0.152E-01
DAV:   5    -0.191246931843E+03    0.17003E-03   -0.82607E-04  9840   0.201E-01    0.103E-01
DAV:   6    -0.191246831633E+03    0.10021E-03   -0.30373E-04  7280   0.103E-01    0.430E-02
DAV:   7    -0.191246819152E+03    0.12481E-04   -0.11432E-04  6200   0.425E-02
   9 F= -.19124682E+03 E0= -.19115286E+03  d E =0.171924E-01
       N       E                     dE             d eps       ncg     rms          rms(c)
DAV:   1    -0.191265544016E+03   -0.18712E-01   -0.10103E+00  8160   0.209E+00    0.233E-01
DAV:   2    -0.191272271995E+03   -0.67280E-02   -0.26807E-02 13400   0.943E-01    0.723E-01
DAV:   3    -0.191266198897E+03    0.60731E-02   -0.10615E-02 12080   0.792E-01    0.139E-01
DAV:   4    -0.191266156764E+03    0.42133E-04   -0.94740E-04 10120   0.149E-01
  10 F= -.19126616E+03 E0= -.19117051E+03  d E =-.193376E-01
       N       E                     dE             d eps       ncg     rms          rms(c)
DAV:   1    -0.191219547312E+03    0.46652E-01   -0.55469E+00  8160   0.494E+00    0.593E-01
DAV:   2    -0.191268234173E+03   -0.48687E-01   -0.18609E-01 13480   0.266E+00    0.191E+00
DAV:   3    -0.191223426536E+03    0.44808E-01   -0.61059E-02 12400   0.197E+00    0.269E-01
DAV:   4    -0.191223907652E+03   -0.48112E-03   -0.62151E-03 11600   0.426E-01    0.363E-01
DAV:   5    -0.191223090565E+03    0.81709E-03   -0.51978E-03 11200   0.514E-01    0.285E-01
DAV:   6    -0.191222339088E+03    0.75148E-03   -0.22966E-03 11920   0.294E-01    0.104E-01
DAV:   7    -0.191222225193E+03    0.11390E-03   -0.54130E-04 10600   0.966E-02    0.386E-02
DAV:   8    -0.191222230006E+03   -0.48131E-05   -0.11023E-04  7080   0.741E-02
  11 F= -.19122223E+03 E0= -.19113065E+03  d E =0.439268E-01
       N       E                     dE             d eps       ncg     rms          rms(c)
DAV:   1    -0.191258139219E+03   -0.35914E-01   -0.36518E+00  8160   0.404E+00    0.584E-01
DAV:   2    -0.191302900020E+03   -0.44761E-01   -0.16572E-01 13480   0.262E+00    0.195E+00
DAV:   3    -0.191260599206E+03    0.42301E-01   -0.70918E-02 12320   0.204E+00    0.288E-01
DAV:   4    -0.191260388027E+03    0.21118E-03   -0.60883E-03 12360   0.362E-01    0.318E-01
DAV:   5    -0.191260158112E+03    0.22991E-03   -0.54054E-03 12160   0.513E-01    0.367E-01
DAV:   6    -0.191258915791E+03    0.12423E-02   -0.33158E-03 11680   0.382E-01    0.116E-01
DAV:   7    -0.191258779697E+03    0.13609E-03   -0.62521E-04 10320   0.115E-01    0.412E-02
DAV:   8    -0.191258753694E+03    0.26003E-04   -0.10653E-04  7920   0.583E-02
  12 F= -.19125875E+03 E0= -.19116321E+03  d E =-.365237E-01
       N       E                     dE             d eps       ncg     rms          rms(c)
DAV:   1    -0.191277939431E+03   -0.19160E-01   -0.10684E+00  8160   0.217E+00    0.240E-01
DAV:   2    -0.191282796793E+03   -0.48574E-02   -0.28799E-02 13480   0.697E-01    0.576E-01
DAV:   3    -0.191279204038E+03    0.35928E-02   -0.10020E-02 12480   0.731E-01    0.224E-01
DAV:   4    -0.191278838309E+03    0.36573E-03   -0.14186E-03  9920   0.209E-01    0.141E-01
DAV:   5    -0.191278824191E+03    0.14117E-04   -0.10736E-03 10160   0.230E-01    0.152E-01
DAV:   6    -0.191278645519E+03    0.17867E-03   -0.61281E-04  8640   0.159E-01    0.628E-02
DAV:   7    -0.191278607174E+03    0.38345E-04   -0.15882E-04  6560   0.568E-02
  13 F= -.19127861E+03 E0= -.19118145E+03  d E =-.198535E-01
       N       E                     dE             d eps       ncg     rms          rms(c)
DAV:   1    -0.191301911732E+03   -0.23266E-01   -0.15169E+00  8160   0.258E+00    0.296E-01
DAV:   2    -0.191312856302E+03   -0.10945E-01   -0.46571E-02 13400   0.123E+00    0.914E-01
DAV:   3    -0.191303288004E+03    0.95683E-02   -0.17324E-02 12240   0.999E-01    0.169E-01
DAV:   4    -0.191303140422E+03    0.14758E-03   -0.13009E-03 10400   0.144E-01    0.110E-01
DAV:   5    -0.191303092610E+03    0.47812E-04   -0.77518E-04 11640   0.166E-01
  14 F= -.19130309E+03 E0= -.19120395E+03  d E =-.244854E-01
       N       E                     dE             d eps       ncg     rms          rms(c)
DAV:   1    -0.191260701461E+03    0.42439E-01   -0.42934E+00  8160   0.435E+00    0.527E-01
DAV:   2    -0.191299585975E+03   -0.38885E-01   -0.15107E-01 13400   0.236E+00    0.171E+00
DAV:   3    -0.191264149343E+03    0.35437E-01   -0.52331E-02 12240   0.178E+00    0.292E-01
DAV:   4    -0.191264689389E+03   -0.54005E-03   -0.72332E-03 11480   0.503E-01    0.400E-01
DAV:   5    -0.191263514359E+03    0.11750E-02   -0.52216E-03 10640   0.498E-01    0.238E-01
DAV:   6    -0.191262853399E+03    0.66096E-03   -0.16413E-03 10560   0.222E-01    0.786E-02
DAV:   7    -0.191262857436E+03   -0.40370E-05   -0.48127E-04 10480   0.987E-02
  15 F= -.19126286E+03 E0= -.19116713E+03  d E =0.402352E-01
       N       E                     dE             d eps       ncg     rms          rms(c)
DAV:   1    -0.191207028164E+03    0.55825E-01   -0.97031E+00  8160   0.652E+00    0.670E-01
DAV:   2    -0.191250585159E+03   -0.43557E-01   -0.23330E-01 13480   0.214E+00    0.168E+00
DAV:   3    -0.191216742475E+03    0.33843E-01   -0.66456E-02 12400   0.194E+00    0.512E-01
DAV:   4    -0.191215920860E+03    0.82161E-03   -0.11233E-02 11680   0.598E-01    0.429E-01
DAV:   5    -0.191214979131E+03    0.94173E-03   -0.84797E-03 12040   0.653E-01    0.396E-01
DAV:   6    -0.191213789482E+03    0.11896E-02   -0.44390E-03 11800   0.444E-01    0.179E-01
DAV:   7    -0.191213425097E+03    0.36438E-03   -0.13383E-03 11320   0.172E-01    0.582E-02
DAV:   8    -0.191213357058E+03    0.68039E-04   -0.19575E-04  7920   0.671E-02
  16 F= -.19121336E+03 E0= -.19112182E+03  d E =0.495004E-01
       N       E                     dE             d eps       ncg     rms          rms(c)
DAV:   1    -0.191173421434E+03    0.40004E-01   -0.10933E+01  8160   0.693E+00    0.807E-01
DAV:   2    -0.191239743483E+03   -0.66322E-01   -0.31566E-01 13560   0.331E+00    0.220E+00
DAV:   3    -0.191180688321E+03    0.59055E-01   -0.90987E-02 12320   0.238E+00    0.449E-01
DAV:   4    -0.191180259078E+03    0.42924E-03   -0.12421E-02 11520   0.574E-01    0.456E-01
DAV:   5    -0.191179635297E+03    0.62378E-03   -0.10823E-02 12040   0.744E-01    0.491E-01
DAV:   6    -0.191177412954E+03    0.22223E-02   -0.60977E-03 11840   0.540E-01    0.171E-01
DAV:   7    -0.191177127460E+03    0.28549E-03   -0.11712E-03 11080   0.161E-01    0.552E-02
DAV:   8    -0.191177067339E+03    0.60122E-04   -0.15899E-04  7400   0.555E-02
  17 F= -.19117707E+03 E0= -.19108926E+03  d E =0.362897E-01
       N       E                     dE             d eps       ncg     rms          rms(c)
DAV:   1    -0.191217118639E+03   -0.39991E-01   -0.11786E+01  8160   0.722E+00    0.869E-01
DAV:   2    -0.191308161987E+03   -0.91043E-01   -0.40391E-01 13600   0.372E+00    0.271E+00
DAV:   3    -0.191230617703E+03    0.77544E-01   -0.16156E-01 12320   0.297E+00    0.564E-01
DAV:   4    -0.191231339665E+03   -0.72196E-03   -0.21324E-02 12360   0.914E-01    0.723E-01
DAV:   5    -0.191227221746E+03    0.41179E-02   -0.16250E-02 12440   0.918E-01    0.428E-01
DAV:   6    -0.191225147112E+03    0.20746E-02   -0.55570E-03 11720   0.412E-01    0.148E-01
DAV:   7    -0.191224974436E+03    0.17268E-03   -0.15516E-03 11520   0.145E-01    0.779E-02
DAV:   8    -0.191224942069E+03    0.32367E-04   -0.40699E-04  9800   0.132E-01
  18 F= -.19122494E+03 E0= -.19113226E+03  d E =-.478747E-01
       N       E                     dE             d eps       ncg     rms          rms(c)
DAV:   1    -0.191248523343E+03   -0.23549E-01   -0.24543E+00  8160   0.330E+00    0.432E-01
DAV:   2    -0.191272678246E+03   -0.24155E-01   -0.96863E-02 13600   0.188E+00    0.139E+00
DAV:   3    -0.191250996164E+03    0.21682E-01   -0.38752E-02 12440   0.150E+00    0.233E-01
DAV:   4    -0.191250685945E+03    0.31022E-03   -0.29869E-03 10520   0.221E-01    0.174E-01
DAV:   5    -0.191250551937E+03    0.13401E-03   -0.18928E-03 11480   0.275E-01    0.209E-01
DAV:   6    -0.191250301960E+03    0.24998E-03   -0.16706E-03 10200   0.280E-01    0.130E-01
DAV:   7    -0.191250146505E+03    0.15546E-03   -0.47009E-04  8760   0.122E-01    0.362E-02
DAV:   8    -0.191250125756E+03    0.20749E-04   -0.81240E-05  6800   0.466E-02
  19 F= -.19125013E+03 E0= -.19115436E+03  d E =-.251837E-01
       N       E                     dE             d eps       ncg     rms          rms(c)
DAV:   1    -0.191250634763E+03   -0.48826E-03   -0.56262E-03  8320   0.163E-01    0.243E-02
DAV:   2    -0.191250704971E+03   -0.70208E-04   -0.22375E-04  8720   0.897E-02
  20 F= -.19125070E+03 E0= -.19115484E+03  d E =-.579215E-03
       N       E                     dE             d eps       ncg     rms          rms(c)
DAV:   1    -0.191252340904E+03   -0.17061E-02   -0.17299E-02  8160   0.286E-01    0.310E-02
DAV:   2    -0.191252424199E+03   -0.83295E-04   -0.36427E-04  9440   0.106E-01
  21 F= -.19125242E+03 E0= -.19115648E+03  d E =-.171923E-02
       N       E                     dE             d eps       ncg     rms          rms(c)
DAV:   1    -0.191251876090E+03    0.46481E-03   -0.38277E-03 12120   0.198E-01    0.386E-02
DAV:   2    -0.191251895724E+03   -0.19634E-04   -0.21191E-04  6280   0.795E-02
  22 F= -.19125190E+03 E0= -.19115605E+03  d E =0.528474E-03
       N       E                     dE             d eps       ncg     rms          rms(c)
DAV:   1    -0.191275364821E+03   -0.23489E-01   -0.21969E+00  8160   0.312E+00    0.384E-01
DAV:   2    -0.191293920320E+03   -0.18555E-01   -0.78251E-02 13520   0.163E+00    0.120E+00
DAV:   3    -0.191277757683E+03    0.16163E-01   -0.30200E-02 12400   0.131E+00    0.230E-01
DAV:   4    -0.191277724153E+03    0.33531E-04   -0.30236E-03 11600   0.294E-01    0.240E-01
DAV:   5    -0.191277456685E+03    0.26747E-03   -0.25657E-03 10360   0.352E-01    0.217E-01
DAV:   6    -0.191277017019E+03    0.43967E-03   -0.11980E-03 10000   0.210E-01    0.693E-02
DAV:   7    -0.191276993863E+03    0.23156E-04   -0.26151E-04  7880   0.651E-02
  23 F= -.19127699E+03 E0= -.19117848E+03  d E =-.250981E-01
       N       E                     dE             d eps       ncg     rms          rms(c)
DAV:   1    -0.191206627781E+03    0.70389E-01   -0.15565E+01  8160   0.830E+00    0.103E+00
DAV:   2    -0.191331773489E+03   -0.12515E+00   -0.54210E-01 13400   0.438E+00    0.298E+00
DAV:   3    -0.191219983761E+03    0.11179E+00   -0.16178E-01 12320   0.318E+00    0.515E-01
DAV:   4    -0.191218324703E+03    0.16591E-02   -0.16944E-02 11800   0.576E-01    0.467E-01
DAV:   5    -0.191217763772E+03    0.56093E-03   -0.13130E-02 11840   0.768E-01    0.557E-01
DAV:   6    -0.191215270048E+03    0.24937E-02   -0.89372E-03 11760   0.647E-01    0.247E-01
DAV:   7    -0.191214628055E+03    0.64199E-03   -0.19476E-03 12240   0.223E-01    0.654E-02
DAV:   8    -0.191214603323E+03    0.24732E-04   -0.31972E-04  8480   0.105E-01
  24 F= -.19121460E+03 E0= -.19112286E+03  d E =0.623905E-01
       N       E                     dE             d eps       ncg     rms          rms(c)
DAV:   1    -0.191267938401E+03   -0.53310E-01   -0.14647E+01  8160   0.808E+00    0.103E+00
DAV:   2    -0.191399521573E+03   -0.13158E+00   -0.54589E-01 13520   0.440E+00    0.336E+00
DAV:   3    -0.191283163356E+03    0.11636E+00   -0.23761E-01 12320   0.359E+00    0.638E-01
DAV:   4    -0.191284438539E+03   -0.12752E-02   -0.29221E-02 12280   0.104E+00    0.863E-01
DAV:   5    -0.191278716389E+03    0.57222E-02   -0.23699E-02 11360   0.107E+00    0.532E-01
DAV:   6    -0.191275539835E+03    0.31766E-02   -0.85234E-03 11760   0.496E-01    0.170E-01
DAV:   7    -0.191275271546E+03    0.26829E-03   -0.21213E-03 11440   0.171E-01    0.906E-02
DAV:   8    -0.191275257664E+03    0.13882E-04   -0.65173E-04 10600   0.169E-01
  25 F= -.19127526E+03 E0= -.19117658E+03  d E =-.606543E-01
       N       E                     dE             d eps       ncg     rms          rms(c)
DAV:   1    -0.191271592566E+03    0.36790E-02   -0.67669E-02  8160   0.571E-01    0.869E-02
DAV:   2    -0.191272060788E+03   -0.46822E-03   -0.25014E-03 12280   0.275E-01    0.221E-01
DAV:   3    -0.191271531631E+03    0.52916E-03   -0.10252E-03 10160   0.241E-01    0.647E-02
DAV:   4    -0.191271555685E+03   -0.24054E-04   -0.29061E-04  7680   0.107E-01
  26 F= -.19127156E+03 E0= -.19117322E+03  d E =0.370198E-02
       N       E                     dE             d eps       ncg     rms          rms(c)
DAV:   1    -0.191289154302E+03   -0.17623E-01   -0.12348E+00  8160   0.234E+00    0.285E-01
DAV:   2    -0.191300704766E+03   -0.11550E-01   -0.45084E-02 13440   0.120E+00    0.951E-01
DAV:   3    -0.191290467876E+03    0.10237E-01   -0.18491E-02 11800   0.101E+00    0.159E-01
DAV:   4    -0.191290668236E+03   -0.20036E-03   -0.18196E-03 11120   0.246E-01    0.210E-01
DAV:   5    -0.191290286089E+03    0.38215E-03   -0.12945E-03  9640   0.245E-01    0.101E-01
DAV:   6    -0.191290221828E+03    0.64261E-04   -0.38118E-04  8000   0.105E-01
  27 F= -.19129022E+03 E0= -.19119010E+03  d E =-.186661E-01
       N       E                     dE             d eps       ncg     rms          rms(c)
DAV:   1    -0.191278395779E+03    0.11890E-01   -0.48677E-01  8160   0.150E+00    0.246E-01
DAV:   2    -0.191284864685E+03   -0.64689E-02   -0.26983E-02 12360   0.101E+00    0.747E-01
DAV:   3    -0.191278402248E+03    0.64624E-02   -0.10229E-02 11720   0.774E-01    0.120E-01
DAV:   4    -0.191278456447E+03   -0.54199E-04   -0.13015E-03  9840   0.187E-01    0.162E-01
DAV:   5    -0.191278348694E+03    0.10775E-03   -0.13785E-03  9760   0.251E-01    0.155E-01
DAV:   6    -0.191278105024E+03    0.24367E-03   -0.65134E-04  8240   0.157E-01    0.448E-02
DAV:   7    -0.191278096787E+03    0.82371E-05   -0.12394E-04  6000   0.502E-02
  28 F= -.19127810E+03 E0= -.19117944E+03  d E =0.121250E-01
       N       E                     dE             d eps       ncg     rms          rms(c)
DAV:   1    -0.191319250125E+03   -0.41145E-01   -0.57143E+00  8160   0.506E+00    0.658E-01
DAV:   2    -0.191372521571E+03   -0.53271E-01   -0.22452E-01 13440   0.282E+00    0.211E+00
DAV:   3    -0.191324592872E+03    0.47929E-01   -0.90465E-02 12400   0.223E+00    0.355E-01
DAV:   4    -0.191324248781E+03    0.34409E-03   -0.84193E-03 12280   0.458E-01    0.398E-01
DAV:   5    -0.191323804078E+03    0.44470E-03   -0.86213E-03 11640   0.620E-01    0.423E-01
DAV:   6    -0.191322163861E+03    0.16402E-02   -0.47801E-03 11640   0.420E-01    0.131E-01
DAV:   7    -0.191322041192E+03    0.12267E-03   -0.98463E-04 10600   0.143E-01    0.906E-02
DAV:   8    -0.191321991754E+03    0.49438E-04   -0.42462E-04  9200   0.134E-01
  29 F= -.19132199E+03 E0= -.19121933E+03  d E =-.438950E-01
       N       E                     dE             d eps       ncg     rms          rms(c)
DAV:   1    -0.191335613289E+03   -0.13572E-01   -0.56563E-01  8160   0.158E+00    0.190E-01
DAV:   2    -0.191339546303E+03   -0.39330E-02   -0.17776E-02 13280   0.757E-01    0.561E-01
DAV:   3    -0.191336036829E+03    0.35095E-02   -0.65555E-03 11760   0.604E-01    0.119E-01
DAV:   4    -0.191336078303E+03   -0.41474E-04   -0.84564E-04 10080   0.154E-01
  30 F= -.19133608E+03 E0= -.19123270E+03  d E =-.140865E-01
       N       E                     dE             d eps       ncg     rms          rms(c)
DAV:   1    -0.191268645360E+03    0.67391E-01   -0.15971E+01  8160   0.845E+00    0.109E+00
DAV:   2    -0.191393136105E+03   -0.12449E+00   -0.56637E-01 13440   0.445E+00    0.309E+00
DAV:   3    -0.191274628502E+03    0.11851E+00   -0.17989E-01 12360   0.321E+00    0.544E-01
DAV:   4    -0.191273537781E+03    0.10907E-02   -0.23724E-02 10920   0.681E-01    0.546E-01
DAV:   5    -0.191271343798E+03    0.21940E-02   -0.17498E-02 11160   0.813E-01    0.580E-01
DAV:   6    -0.191269165315E+03    0.21785E-02   -0.12410E-02 11800   0.762E-01    0.341E-01
DAV:   7    -0.191267993560E+03    0.11718E-02   -0.31640E-03 12320   0.319E-01    0.859E-02
DAV:   8    -0.191267915061E+03    0.78498E-04   -0.51632E-04  9960   0.106E-01
  31 F= -.19126792E+03 E0= -.19116928E+03  d E =0.681632E-01
       N       E                     dE             d eps       ncg     rms          rms(c)
DAV:   1    -0.191226279500E+03    0.41714E-01   -0.90587E+00  8160   0.631E+00    0.660E-01
DAV:   2    -0.191264050912E+03   -0.37771E-01   -0.21635E-01 13320   0.224E+00    0.158E+00
DAV:   3    -0.191234353945E+03    0.29697E-01   -0.61474E-02 12520   0.185E+00    0.484E-01
DAV:   4    -0.191232964532E+03    0.13894E-02   -0.98151E-03 10800   0.516E-01    0.325E-01
DAV:   5    -0.191232470501E+03    0.49403E-03   -0.65442E-03 11800   0.503E-01    0.385E-01
DAV:   6    -0.191231546238E+03    0.92426E-03   -0.49778E-03 11360   0.487E-01    0.217E-01
DAV:   7    -0.191231117311E+03    0.42893E-03   -0.12974E-03 10480   0.205E-01    0.551E-02
DAV:   8    -0.191231055492E+03    0.61818E-04   -0.15778E-04  6800   0.579E-02
  32 F= -.19123106E+03 E0= -.19113553E+03  d E =0.368596E-01
       N       E                     dE             d eps       ncg     rms          rms(c)
DAV:   1    -0.191195030278E+03    0.36087E-01   -0.16931E+01  8160   0.861E+00    0.878E-01
DAV:   2    -0.191261477435E+03   -0.66447E-01   -0.37984E-01 13600   0.297E+00    0.209E+00
DAV:   3    -0.191210218158E+03    0.51259E-01   -0.10428E-01 12080   0.246E+00    0.712E-01
DAV:   4    -0.191209536394E+03    0.68176E-03   -0.24437E-02 12160   0.944E-01    0.690E-01
DAV:   5    -0.191206672642E+03    0.28638E-02   -0.19538E-02 10640   0.951E-01    0.519E-01
DAV:   6    -0.191203781758E+03    0.28909E-02   -0.70602E-03 11520   0.531E-01    0.159E-01
DAV:   7    -0.191203622534E+03    0.15922E-03   -0.15779E-03 11320   0.169E-01    0.781E-02
DAV:   8    -0.191203512376E+03    0.11016E-03   -0.37637E-04  9400   0.108E-01    0.637E-02
DAV:   9    -0.191203496559E+03    0.15816E-04   -0.16526E-04  6240   0.984E-02
  33 F= -.19120350E+03 E0= -.19110992E+03  d E =0.275589E-01
       N       E                     dE             d eps       ncg     rms          rms(c)
DAV:   1    -0.191238536794E+03   -0.35024E-01   -0.72573E+00  8160   0.584E+00    0.931E-01
DAV:   2    -0.191302434674E+03   -0.63898E-01   -0.34473E-01 13400   0.328E+00    0.247E+00
DAV:   3    -0.191238960309E+03    0.63474E-01   -0.13468E-01 12280   0.275E+00    0.586E-01
DAV:   4    -0.191238486468E+03    0.47384E-03   -0.24357E-02 12160   0.884E-01    0.734E-01
DAV:   5    -0.191236146781E+03    0.23397E-02   -0.24500E-02 12000   0.113E+00    0.679E-01
DAV:   6    -0.191231208806E+03    0.49380E-02   -0.11603E-02 11560   0.678E-01    0.162E-01
DAV:   7    -0.191230932152E+03    0.27665E-03   -0.17989E-03 11080   0.169E-01    0.715E-02
DAV:   8    -0.191230887435E+03    0.44717E-04   -0.39840E-04  9000   0.115E-01
  34 F= -.19123089E+03 E0= -.19113424E+03  d E =-.273909E-01
       N       E                     dE             d eps       ncg     rms          rms(c)
DAV:   1    -0.191218997657E+03    0.11934E-01   -0.71445E+00  8160   0.562E+00    0.576E-01
DAV:   2    -0.191243920943E+03   -0.24923E-01   -0.17004E-01 13560   0.198E+00    0.126E+00
DAV:   3    -0.191226467318E+03    0.17454E-01   -0.40677E-02 12400   0.153E+00    0.484E-01
DAV:   4    -0.191225602318E+03    0.86500E-03   -0.10086E-02 11480   0.603E-01    0.418E-01
DAV:   5    -0.191224957305E+03    0.64501E-03   -0.87526E-03 10520   0.631E-01    0.401E-01
DAV:   6    -0.191223396845E+03    0.15605E-02   -0.41431E-03 10520   0.416E-01    0.122E-01
DAV:   7    -0.191223278379E+03    0.11847E-03   -0.78657E-04 10560   0.120E-01    0.524E-02
DAV:   8    -0.191223225104E+03    0.53275E-04   -0.15996E-04  7320   0.564E-02
  35 F= -.19122323E+03 E0= -.19112705E+03  d E =0.766233E-02
       N       E                     dE             d eps       ncg     rms          rms(c)
DAV:   1    -0.191234745012E+03   -0.11467E-01   -0.47443E+00  8160   0.460E+00    0.537E-01
DAV:   2    -0.191260741330E+03   -0.25996E-01   -0.14250E-01 13600   0.198E+00    0.144E+00
DAV:   3    -0.191239409549E+03    0.21332E-01   -0.48581E-02 12240   0.163E+00    0.413E-01
DAV:   4    -0.191239551485E+03   -0.14194E-03   -0.98867E-03 11680   0.618E-01    0.479E-01
DAV:   5    -0.191237879641E+03    0.16718E-02   -0.79737E-03 10680   0.628E-01    0.319E-01
DAV:   6    -0.191236755524E+03    0.11241E-02   -0.29963E-03 11040   0.309E-01    0.916E-02
DAV:   7    -0.191236693304E+03    0.62220E-04   -0.63279E-04 10520   0.904E-02
  36 F= -.19123669E+03 E0= -.19113918E+03  d E =-.134682E-01
       N       E                     dE             d eps       ncg     rms          rms(c)
DAV:   1    -0.191242427428E+03   -0.56719E-02   -0.24017E-01  8160   0.105E+00    0.122E-01
DAV:   2    -0.191243354776E+03   -0.92735E-03   -0.77611E-03 12200   0.329E-01    0.236E-01
DAV:   3    -0.191242889026E+03    0.46575E-03   -0.20913E-03 11480   0.329E-01    0.137E-01
DAV:   4    -0.191242794687E+03    0.94340E-04   -0.52035E-04  8320   0.154E-01
  37 F= -.19124279E+03 E0= -.19114486E+03  d E =-.610138E-02
       N       E                     dE             d eps       ncg     rms          rms(c)
DAV:   1    -0.191239540602E+03    0.33484E-02   -0.84584E-02  8160   0.638E-01    0.116E-01
DAV:   2    -0.191241751491E+03   -0.22109E-02   -0.63844E-03 12200   0.529E-01    0.446E-01
DAV:   3    -0.191239490564E+03    0.22609E-02   -0.30760E-03 10480   0.427E-01    0.602E-02
DAV:   4    -0.191239595388E+03   -0.10482E-03   -0.34074E-04  8200   0.134E-01    0.994E-02
DAV:   5    -0.191239485994E+03    0.10939E-03   -0.19909E-04  6360   0.108E-01    0.326E-02
DAV:   6    -0.191239485057E+03    0.93624E-06   -0.66326E-05  5920   0.351E-02
  38 F= -.19123949E+03 E0= -.19114180E+03  d E =0.330963E-02
       N       E                     dE             d eps       ncg     rms          rms(c)
DAV:   1    -0.191252610190E+03   -0.13124E-01   -0.11204E+00  8160   0.228E+00    0.290E-01
DAV:   2    -0.191259130351E+03   -0.65202E-02   -0.38021E-02 13440   0.974E-01    0.730E-01
DAV:   3    -0.191253670995E+03    0.54594E-02   -0.12427E-02 12000   0.837E-01    0.227E-01
DAV:   4    -0.191253816756E+03   -0.14576E-03   -0.30240E-03 11160   0.353E-01    0.281E-01
DAV:   5    -0.191253133037E+03    0.68372E-03   -0.23524E-03  9880   0.344E-01    0.149E-01
DAV:   6    -0.191252903618E+03    0.22942E-03   -0.80158E-04  9840   0.149E-01    0.551E-02
DAV:   7    -0.191252867754E+03    0.35864E-04   -0.19012E-04  6680   0.579E-02
  39 F= -.19125287E+03 E0= -.19115410E+03  d E =-.133827E-01
       N       E                     dE             d eps       ncg     rms          rms(c)
DAV:   1    -0.191257496218E+03   -0.45926E-02   -0.13366E-01  8160   0.791E-01    0.104E-01
DAV:   2    -0.191258146222E+03   -0.65000E-03   -0.49740E-03 13320   0.321E-01    0.218E-01
DAV:   3    -0.191257647112E+03    0.49911E-03   -0.13633E-03 10280   0.276E-01    0.857E-02
DAV:   4    -0.191257603002E+03    0.44110E-04   -0.28981E-04  7160   0.101E-01
  40 F= -.19125760E+03 E0= -.19115850E+03  d E =-.473525E-02
       N       E                     dE             d eps       ncg     rms          rms(c)
DAV:   1    -0.191236212369E+03    0.21435E-01   -0.46655E+00  8160   0.465E+00    0.676E-01
DAV:   2    -0.191274872931E+03   -0.38661E-01   -0.18739E-01 13320   0.245E+00    0.179E+00
DAV:   3    -0.191236509970E+03    0.38363E-01   -0.61345E-02 11840   0.195E+00    0.436E-01
DAV:   4    -0.191237438378E+03   -0.92841E-03   -0.15029E-02 11240   0.769E-01    0.592E-01
DAV:   5    -0.191234622193E+03    0.28162E-02   -0.11739E-02 11440   0.789E-01    0.370E-01
DAV:   6    -0.191233024000E+03    0.15982E-02   -0.41580E-03 10560   0.378E-01    0.116E-01
DAV:   7    -0.191232942558E+03    0.81442E-04   -0.11057E-03 11440   0.137E-01    0.848E-02
DAV:   8    -0.191232886726E+03    0.55832E-04   -0.44623E-04  8440   0.128E-01
  41 F= -.19123289E+03 E0= -.19113595E+03  d E =0.247163E-01
       N       E                     dE             d eps       ncg     rms          rms(c)
DAV:   1    -0.191229018055E+03    0.39245E-02   -0.15921E-01  8160   0.853E-01    0.102E-01
DAV:   2    -0.191229747750E+03   -0.72970E-03   -0.49443E-03 13440   0.295E-01    0.222E-01
DAV:   3    -0.191229253973E+03    0.49378E-03   -0.15467E-03 10600   0.287E-01    0.107E-01
DAV:   4    -0.191229204563E+03    0.49410E-04   -0.38031E-04  8200   0.127E-01
  42 F= -.19122920E+03 E0= -.19113235E+03  d E =0.368216E-02
       N       E                     dE             d eps       ncg     rms          rms(c)
DAV:   1    -0.191213363741E+03    0.15890E-01   -0.56481E+00  8160   0.505E+00    0.550E-01
DAV:   2    -0.191224582249E+03   -0.11219E-01   -0.13883E-01 12640   0.110E+00    0.659E-01
DAV:   3    -0.191223063251E+03    0.15190E-02   -0.32515E-02 12760   0.115E+00    0.784E-01
DAV:   4    -0.191218227985E+03    0.48353E-02   -0.14329E-02 11720   0.846E-01    0.352E-01
DAV:   5    -0.191217337758E+03    0.89023E-03   -0.59352E-03 10840   0.474E-01    0.328E-01
DAV:   6    -0.191216744540E+03    0.59322E-03   -0.40900E-03 10560   0.451E-01    0.218E-01
DAV:   7    -0.191216250528E+03    0.49401E-03   -0.14337E-03 11000   0.246E-01    0.597E-02
DAV:   8    -0.191216182098E+03    0.68430E-04   -0.18272E-04  6800   0.739E-02
  43 F= -.19121618E+03 E0= -.19111895E+03  d E =0.130225E-01
       N       E                     dE             d eps       ncg     rms          rms(c)
DAV:   1    -0.191222325864E+03   -0.60753E-02   -0.49392E-01  8160   0.151E+00    0.175E-01
DAV:   2    -0.191224533472E+03   -0.22076E-02   -0.18323E-02 12600   0.554E-01    0.385E-01
DAV:   3    -0.191223196121E+03    0.13374E-02   -0.44457E-03 11120   0.457E-01    0.160E-01
DAV:   4    -0.191223175969E+03    0.20152E-04   -0.11621E-03 10080   0.231E-01    0.168E-01
DAV:   5    -0.191222913831E+03    0.26214E-03   -0.67805E-04  8600   0.200E-01    0.756E-02
DAV:   6    -0.191222905932E+03    0.78985E-05   -0.29145E-04  6440   0.853E-02
  44 F= -.19122291E+03 E0= -.19112490E+03  d E =-.672383E-02
       N       E                     dE             d eps       ncg     rms          rms(c)
DAV:   1    -0.191223250540E+03   -0.33671E-03   -0.92709E-02  8160   0.641E-01    0.657E-02
DAV:   2    -0.191223590124E+03   -0.33958E-03   -0.21443E-03 13600   0.211E-01    0.155E-01
DAV:   3    -0.191223338714E+03    0.25141E-03   -0.66162E-04  9320   0.188E-01    0.652E-02
DAV:   4    -0.191223322634E+03    0.16080E-04   -0.14875E-04  5680   0.819E-02
  45 F= -.19122332E+03 E0= -.19112545E+03  d E =-.416702E-03
       N       E                     dE             d eps       ncg     rms          rms(c)
DAV:   1    -0.191231237457E+03   -0.78987E-02   -0.12572E+00  8160   0.239E+00    0.274E-01
DAV:   2    -0.191235336585E+03   -0.40991E-02   -0.33860E-02 13600   0.717E-01    0.507E-01
DAV:   3    -0.191233095135E+03    0.22414E-02   -0.97025E-03 11720   0.715E-01    0.315E-01
DAV:   4    -0.191232478534E+03    0.61660E-03   -0.29586E-03 11080   0.347E-01    0.207E-01
DAV:   5    -0.191232254842E+03    0.22369E-03   -0.19066E-03  9960   0.296E-01    0.186E-01
DAV:   6    -0.191231937401E+03    0.31744E-03   -0.96266E-04  9880   0.198E-01    0.662E-02
DAV:   7    -0.191231920925E+03    0.16476E-04   -0.23590E-04  7160   0.767E-02
  46 F= -.19123192E+03 E0= -.19113370E+03  d E =-.859829E-02
       N       E                     dE             d eps       ncg     rms          rms(c)
DAV:   1    -0.191221360583E+03    0.10577E-01   -0.39507E+00  8160   0.421E+00    0.440E-01
DAV:   2    -0.191232109713E+03   -0.10749E-01   -0.91308E-02 13560   0.108E+00    0.778E-01
DAV:   3    -0.191226850857E+03    0.52589E-02   -0.24674E-02 12040   0.111E+00    0.545E-01
DAV:   4    -0.191224890637E+03    0.19602E-02   -0.85015E-03 11560   0.593E-01    0.323E-01
DAV:   5    -0.191224274752E+03    0.61588E-03   -0.46275E-03 10400   0.448E-01    0.280E-01
DAV:   6    -0.191223571671E+03    0.70308E-03   -0.23401E-03 10080   0.326E-01    0.118E-01
DAV:   7    -0.191223488990E+03    0.82681E-04   -0.75177E-04 10480   0.140E-01
  47 F= -.19122349E+03 E0= -.19112489E+03  d E =0.843194E-02
       N       E                     dE             d eps       ncg     rms          rms(c)
DAV:   1    -0.191224776862E+03   -0.12052E-02   -0.11316E-01  8160   0.710E-01    0.704E-02
DAV:   2    -0.191224983906E+03   -0.20704E-03   -0.22999E-03 13400   0.157E-01    0.104E-01
DAV:   3    -0.191224922127E+03    0.61780E-04   -0.61594E-04  9880   0.165E-01
  48 F= -.19122492E+03 E0= -.19112614E+03  d E =-.143314E-02
       N       E                     dE             d eps       ncg     rms          rms(c)
DAV:   1    -0.191228688926E+03   -0.37050E-02   -0.60550E-01  8160   0.166E+00    0.187E-01
DAV:   2    -0.191232034703E+03   -0.33458E-02   -0.18358E-02 13600   0.608E-01    0.524E-01
DAV:   3    -0.191229425940E+03    0.26088E-02   -0.67922E-03 11440   0.585E-01    0.168E-01
DAV:   4    -0.191229263839E+03    0.16210E-03   -0.10087E-03  9720   0.176E-01    0.116E-01
DAV:   5    -0.191229162456E+03    0.10138E-03   -0.48764E-04  8640   0.164E-01    0.845E-02
DAV:   6    -0.191229100485E+03    0.61971E-04   -0.24115E-04  7600   0.105E-01
  49 F= -.19122910E+03 E0= -.19113023E+03  d E =-.417836E-02
       N       E                     dE             d eps       ncg     rms          rms(c)
DAV:   1    -0.191231376259E+03   -0.22138E-02   -0.24763E-01  8160   0.106E+00    0.123E-01
DAV:   2    -0.191232470835E+03   -0.10946E-02   -0.71348E-03 13600   0.354E-01    0.284E-01
DAV:   3    -0.191231715426E+03    0.75541E-03   -0.25657E-03 11320   0.356E-01    0.143E-01
DAV:   4    -0.191231592602E+03    0.12282E-03   -0.65983E-04  8360   0.152E-01    0.833E-02
DAV:   5    -0.191231545173E+03    0.47429E-04   -0.28215E-04  7160   0.111E-01
  50 F= -.19123155E+03 E0= -.19113269E+03  d E =-.244469E-02
       N       E                     dE             d eps       ncg     rms          rms(c)
DAV:   1    -0.191233582996E+03   -0.19904E-02   -0.24561E+00  8160   0.328E+00    0.325E-01
DAV:   2    -0.191242127071E+03   -0.85441E-02   -0.51172E-02 13560   0.103E+00    0.841E-01
DAV:   3    -0.191235797939E+03    0.63291E-02   -0.20447E-02 11840   0.986E-01    0.352E-01
DAV:   4    -0.191234706954E+03    0.10910E-02   -0.37419E-03 11160   0.330E-01    0.156E-01
DAV:   5    -0.191234409592E+03    0.29736E-03   -0.12533E-03 11080   0.181E-01    0.129E-01
DAV:   6    -0.191234450694E+03   -0.41102E-04   -0.97984E-04 10400   0.232E-01
  51 F= -.19123445E+03 E0= -.19113485E+03  d E =-.290552E-02
       N       E                     dE             d eps       ncg     rms          rms(c)
DAV:   1    -0.191236575566E+03   -0.21660E-02   -0.86165E+00  8160   0.618E+00    0.657E-01
DAV:   2    -0.191276369042E+03   -0.39793E-01   -0.21387E-01 13560   0.220E+00    0.182E+00
DAV:   3    -0.191246297798E+03    0.30071E-01   -0.86558E-02 12200   0.208E+00    0.654E-01
DAV:   4    -0.191243736906E+03    0.25609E-02   -0.15788E-02 11160   0.751E-01    0.472E-01
DAV:   5    -0.191242276713E+03    0.14602E-02   -0.88045E-03 11120   0.676E-01    0.382E-01
DAV:   6    -0.191240673671E+03    0.16030E-02   -0.40885E-03 11280   0.418E-01    0.127E-01
DAV:   7    -0.191240692577E+03   -0.18906E-04   -0.12488E-03 10960   0.178E-01    0.118E-01
DAV:   8    -0.191240593957E+03    0.98620E-04   -0.67607E-04  9240   0.188E-01
  52 F= -.19124059E+03 E0= -.19114129E+03  d E =-.614326E-02
       N       E                     dE             d eps       ncg     rms          rms(c)
DAV:   1    -0.191245804369E+03   -0.51118E-02   -0.98292E-01  8160   0.209E+00    0.197E-01
DAV:   2    -0.191248611273E+03   -0.28069E-02   -0.22069E-02 13400   0.622E-01    0.416E-01
DAV:   3    -0.191247122182E+03    0.14891E-02   -0.50329E-03 12120   0.522E-01    0.211E-01
DAV:   4    -0.191246867387E+03    0.25480E-03   -0.13617E-03  9520   0.237E-01    0.137E-01
DAV:   5    -0.191246773607E+03    0.93780E-04   -0.88470E-04 10960   0.210E-01
  53 F= -.19124677E+03 E0= -.19114732E+03  d E =-.617965E-02
       N       E                     dE             d eps       ncg     rms          rms(c)
DAV:   1    -0.191252591865E+03   -0.57245E-02   -0.37667E-01  8160   0.132E+00    0.165E-01
DAV:   2    -0.191253794484E+03   -0.12026E-02   -0.11427E-02 13080   0.358E-01    0.261E-01
DAV:   3    -0.191253333177E+03    0.46131E-03   -0.38344E-03 11640   0.412E-01    0.245E-01
DAV:   4    -0.191252854869E+03    0.47831E-03   -0.14637E-03  9560   0.252E-01    0.956E-02
DAV:   5    -0.191252717413E+03    0.13746E-03   -0.29417E-04  6880   0.788E-02    0.358E-02
DAV:   6    -0.191252744582E+03   -0.27169E-04   -0.16199E-04  6880   0.611E-02
  54 F= -.19125274E+03 E0= -.19115321E+03  d E =-.597098E-02
       N       E                     dE             d eps       ncg     rms          rms(c)
DAV:   1    -0.191256025453E+03   -0.33080E-02   -0.36800E-01  8160   0.128E+00    0.135E-01
DAV:   2    -0.191257569028E+03   -0.15436E-02   -0.83377E-03 13440   0.435E-01    0.360E-01
DAV:   3    -0.191256297126E+03    0.12719E-02   -0.31414E-03 11280   0.413E-01    0.123E-01
DAV:   4    -0.191256210982E+03    0.86145E-04   -0.50455E-04  9280   0.130E-01
  55 F= -.19125621E+03 E0= -.19115634E+03  d E =-.346640E-02
       N       E                     dE             d eps       ncg     rms          rms(c)
DAV:   1    -0.191257497439E+03   -0.12003E-02   -0.22824E+00  8160   0.317E+00    0.306E-01
DAV:   2    -0.191264454764E+03   -0.69573E-02   -0.46399E-02 13440   0.842E-01    0.676E-01
DAV:   3    -0.191259935256E+03    0.45195E-02   -0.13971E-02 11800   0.869E-01    0.326E-01
DAV:   4    -0.191259429899E+03    0.50536E-03   -0.35540E-03 10920   0.375E-01    0.238E-01
DAV:   5    -0.191259023483E+03    0.40642E-03   -0.21144E-03 10040   0.327E-01    0.179E-01
DAV:   6    -0.191258728319E+03    0.29516E-03   -0.97872E-04  9800   0.200E-01    0.701E-02
DAV:   7    -0.191258722731E+03    0.55878E-05   -0.28989E-04  8000   0.935E-02
  56 F= -.19125872E+03 E0= -.19115926E+03  d E =-.251175E-02
       N       E                     dE             d eps       ncg     rms          rms(c)
DAV:   1    -0.191272327876E+03   -0.13600E-01   -0.14492E+00  8160   0.260E+00    0.321E-01
DAV:   2    -0.191276847768E+03   -0.45199E-02   -0.44400E-02 13600   0.849E-01    0.558E-01
DAV:   3    -0.191274088938E+03    0.27588E-02   -0.10900E-02 12240   0.781E-01    0.325E-01
DAV:   4    -0.191273339486E+03    0.74945E-03   -0.35430E-03 11280   0.389E-01    0.233E-01
DAV:   5    -0.191273095728E+03    0.24376E-03   -0.26090E-03  9960   0.348E-01    0.231E-01
DAV:   6    -0.191272620971E+03    0.47476E-03   -0.15900E-03  9640   0.264E-01    0.872E-02
DAV:   7    -0.191272539952E+03    0.81020E-04   -0.33090E-04  7560   0.909E-02
  57 F= -.19127254E+03 E0= -.19117269E+03  d E =-.138172E-01
       N       E                     dE             d eps       ncg     rms          rms(c)
DAV:   1    -0.191278354315E+03   -0.57333E-02   -0.24850E-01  8160   0.107E+00    0.121E-01
DAV:   2    -0.191279398231E+03   -0.10439E-02   -0.72557E-03 11520   0.354E-01    0.279E-01
DAV:   3    -0.191278693887E+03    0.70434E-03   -0.20078E-03 10360   0.331E-01    0.113E-01
DAV:   4    -0.191278642390E+03    0.51497E-04   -0.38471E-04  8280   0.135E-01
  58 F= -.19127864E+03 E0= -.19117869E+03  d E =-.610244E-02
       N       E                     dE             d eps       ncg     rms          rms(c)
DAV:   1    -0.191287062921E+03   -0.83690E-02   -0.40094E-01  8160   0.136E+00    0.168E-01
DAV:   2    -0.191288481409E+03   -0.14185E-02   -0.11676E-02 13600   0.385E-01    0.296E-01
DAV:   3    -0.191287605812E+03    0.87560E-03   -0.33259E-03 11560   0.412E-01    0.171E-01
DAV:   4    -0.191287442595E+03    0.16322E-03   -0.94132E-04  9560   0.197E-01    0.113E-01
DAV:   5    -0.191287372489E+03    0.70106E-04   -0.56116E-04  8520   0.173E-01
  59 F= -.19128737E+03 E0= -.19118776E+03  d E =-.873010E-02
       N       E                     dE             d eps       ncg     rms          rms(c)
DAV:   1    -0.191275112152E+03    0.12330E-01   -0.13344E+00  8160   0.245E+00    0.251E-01
DAV:   2    -0.191278716069E+03   -0.36039E-02   -0.33083E-02 13520   0.586E-01    0.422E-01
DAV:   3    -0.191277299007E+03    0.14171E-02   -0.86195E-03 11520   0.624E-01    0.338E-01
DAV:   4    -0.191276452847E+03    0.84616E-03   -0.33172E-03 11240   0.385E-01    0.163E-01
DAV:   5    -0.191276155093E+03    0.29775E-03   -0.86662E-04 10000   0.178E-01    0.110E-01
DAV:   6    -0.191276146974E+03    0.81196E-05   -0.56703E-04  9640   0.184E-01
  60 F= -.19127615E+03 E0= -.19117610E+03  d E =0.112255E-01
       N       E                     dE             d eps       ncg     rms          rms(c)
DAV:   1    -0.191261727337E+03    0.14428E-01   -0.47045E+00  8160   0.458E+00    0.452E-01
DAV:   2    -0.191268963942E+03   -0.72366E-02   -0.95006E-02 12520   0.864E-01    0.492E-01
DAV:   3    -0.191267682748E+03    0.12812E-02   -0.18181E-02 12760   0.824E-01    0.525E-01
DAV:   4    -0.191265400826E+03    0.22819E-02   -0.70206E-03 11600   0.645E-01    0.278E-01
DAV:   5    -0.191264382315E+03    0.10185E-02   -0.30710E-03 11520   0.314E-01    0.162E-01
DAV:   6    -0.191264892183E+03   -0.50987E-03   -0.26302E-03 12160   0.347E-01    0.268E-01
DAV:   7    -0.191264235351E+03    0.65683E-03   -0.15897E-03  9520   0.295E-01    0.871E-02
DAV:   8    -0.191264128224E+03    0.10713E-03   -0.23546E-04  5960   0.786E-02    0.265E-02
DAV:   9    -0.191264130009E+03   -0.17843E-05   -0.73344E-05  7560   0.431E-02
  61 F= -.19126413E+03 E0= -.19116362E+03  d E =0.120170E-01
       N       E                     dE             d eps       ncg     rms          rms(c)
DAV:   1    -0.191274217615E+03   -0.10089E-01   -0.56147E-01  8160   0.162E+00    0.176E-01
DAV:   2    -0.191275643907E+03   -0.14263E-02   -0.15959E-02 12160   0.437E-01    0.282E-01
DAV:   3    -0.191275317598E+03    0.32631E-03   -0.36615E-03 11560   0.422E-01    0.226E-01
DAV:   4    -0.191274871530E+03    0.44607E-03   -0.11864E-03  9560   0.237E-01    0.104E-01
DAV:   5    -0.191274800865E+03    0.70665E-04   -0.44352E-04  8520   0.137E-01
  62 F= -.19127480E+03 E0= -.19117423E+03  d E =-.106709E-01
       N       E                     dE             d eps       ncg     rms          rms(c)
DAV:   1    -0.191275368066E+03   -0.49654E-03   -0.29684E-02  8160   0.483E-01    0.115E-01
DAV:   2    -0.191275632516E+03   -0.26445E-03   -0.24988E-03 11200   0.273E-01    0.215E-01
DAV:   3    -0.191275202232E+03    0.43028E-03   -0.17007E-03 10040   0.314E-01    0.141E-01
DAV:   4    -0.191275049605E+03    0.15263E-03   -0.58396E-04  8240   0.159E-01    0.735E-02
DAV:   5    -0.191275030473E+03    0.19132E-04   -0.31312E-04  8200   0.134E-01
  63 F= -.19127503E+03 E0= -.19117469E+03  d E =-.229608E-03
       N       E                     dE             d eps       ncg     rms          rms(c)
DAV:   1    -0.191289270311E+03   -0.14221E-01   -0.88054E-01  8160   0.205E+00    0.282E-01
DAV:   2    -0.191291532983E+03   -0.22627E-02   -0.27902E-02 12680   0.664E-01    0.477E-01
DAV:   3    -0.191289931740E+03    0.16012E-02   -0.86925E-03 10920   0.661E-01    0.304E-01
DAV:   4    -0.191289411382E+03    0.52036E-03   -0.33104E-03 11720   0.400E-01    0.248E-01
DAV:   5    -0.191288926283E+03    0.48510E-03   -0.18591E-03  9680   0.330E-01    0.165E-01
DAV:   6    -0.191288672842E+03    0.25344E-03   -0.88188E-04  9800   0.200E-01    0.646E-02
DAV:   7    -0.191288601988E+03    0.70853E-04   -0.22489E-04  7280   0.732E-02
  64 F= -.19128860E+03 E0= -.19118809E+03  d E =-.135715E-01
       N       E                     dE             d eps       ncg     rms          rms(c)
DAV:   1    -0.191296280390E+03   -0.76075E-02   -0.29015E-01  8160   0.116E+00    0.140E-01
DAV:   2    -0.191297743645E+03   -0.14633E-02   -0.90169E-03 11520   0.436E-01    0.344E-01
DAV:   3    -0.191296593983E+03    0.11497E-02   -0.28138E-03 11320   0.400E-01    0.121E-01
DAV:   4    -0.191296558361E+03    0.35621E-04   -0.53036E-04  8480   0.159E-01
  65 F= -.19129656E+03 E0= -.19119616E+03  d E =-.795637E-02
       N       E                     dE             d eps       ncg     rms          rms(c)
DAV:   1    -0.191302815722E+03   -0.62217E-02   -0.18723E-01  8160   0.946E-01    0.145E-01
DAV:   2    -0.191305057789E+03   -0.22421E-02   -0.85386E-03 13320   0.491E-01    0.456E-01
DAV:   3    -0.191302918652E+03    0.21391E-02   -0.40680E-03 10680   0.466E-01    0.106E-01
DAV:   4    -0.191303000597E+03   -0.81945E-04   -0.53791E-04  8720   0.139E-01
  66 F= -.19130300E+03 E0= -.19120287E+03  d E =-.644224E-02
       N       E                     dE             d eps       ncg     rms          rms(c)
DAV:   1    -0.191305497406E+03   -0.25788E-02   -0.31185E-02  8160   0.408E-01    0.940E-02
DAV:   2    -0.191306635506E+03   -0.11381E-02   -0.27767E-03 12320   0.381E-01    0.324E-01
DAV:   3    -0.191305460534E+03    0.11750E-02   -0.16301E-03 10040   0.333E-01    0.677E-02
DAV:   4    -0.191305473921E+03   -0.13388E-04   -0.22383E-04  7360   0.105E-01
  67 F= -.19130547E+03 E0= -.19120533E+03  d E =-.247332E-02
       N       E                     dE             d eps       ncg     rms          rms(c)
DAV:   1    -0.191309501256E+03   -0.40407E-02   -0.10531E-01  8160   0.691E-01    0.978E-02
DAV:   2    -0.191310045607E+03   -0.54435E-03   -0.32253E-03 13480   0.240E-01    0.211E-01
DAV:   3    -0.191309581043E+03    0.46456E-03   -0.15174E-03 10040   0.274E-01    0.118E-01
DAV:   4    -0.191309472670E+03    0.10837E-03   -0.37676E-04  8120   0.129E-01    0.532E-02
DAV:   5    -0.191309465549E+03    0.71207E-05   -0.11830E-04  6400   0.723E-02
  68 F= -.19130947E+03 E0= -.19120951E+03  d E =-.399163E-02
       N       E                     dE             d eps       ncg     rms          rms(c)
DAV:   1    -0.191311916378E+03   -0.24437E-02   -0.97277E-02  8160   0.685E-01    0.864E-02
DAV:   2    -0.191312206034E+03   -0.28966E-03   -0.31709E-03 13560   0.193E-01    0.133E-01
DAV:   3    -0.191312052159E+03    0.15387E-03   -0.78561E-04  9840   0.207E-01    0.928E-02
DAV:   4    -0.191311991066E+03    0.61093E-04   -0.23027E-04  6960   0.111E-01
  69 F= -.19131199E+03 E0= -.19121217E+03  d E =-.252552E-02
       N       E                     dE             d eps       ncg     rms          rms(c)
DAV:   1    -0.191331737494E+03   -0.19685E-01   -0.36483E+00  8160   0.412E+00    0.491E-01
DAV:   2    -0.191343942194E+03   -0.12205E-01   -0.11430E-01 13600   0.119E+00    0.901E-01
DAV:   3    -0.191338137252E+03    0.58049E-02   -0.30654E-02 12280   0.127E+00    0.581E-01
DAV:   4    -0.191335511084E+03    0.26262E-02   -0.80050E-03 11680   0.607E-01    0.275E-01
DAV:   5    -0.191334317648E+03    0.11934E-02   -0.40637E-03 11040   0.301E-01    0.174E-01
DAV:   6    -0.191334892914E+03   -0.57527E-03   -0.29895E-03 12880   0.392E-01    0.284E-01
DAV:   7    -0.191334072003E+03    0.82091E-03   -0.16432E-03  9880   0.312E-01    0.825E-02
DAV:   8    -0.191333992151E+03    0.79852E-04   -0.23188E-04  6800   0.986E-02
  70 F= -.19133399E+03 E0= -.19123564E+03  d E =-.220011E-01
       N       E                     dE             d eps       ncg     rms          rms(c)
DAV:   1    -0.191336566232E+03   -0.24942E-02   -0.33454E-02  8160   0.401E-01    0.615E-02
DAV:   2    -0.191336964874E+03   -0.39864E-03   -0.15099E-03 13000   0.222E-01    0.186E-01
DAV:   3    -0.191336584451E+03    0.38042E-03   -0.59908E-04  8880   0.201E-01    0.431E-02
DAV:   4    -0.191336618472E+03   -0.34021E-04   -0.11507E-04  5800   0.835E-02
  71 F= -.19133662E+03 E0= -.19123826E+03  d E =-.262632E-02
       N       E                     dE             d eps       ncg     rms          rms(c)
DAV:   1    -0.191330461147E+03    0.61233E-02   -0.38278E-01  8160   0.135E+00    0.192E-01
DAV:   2    -0.191333944644E+03   -0.34835E-02   -0.16169E-02 12680   0.730E-01    0.556E-01
DAV:   3    -0.191330676599E+03    0.32680E-02   -0.60522E-03 11760   0.608E-01    0.127E-01
DAV:   4    -0.191330806883E+03   -0.13028E-03   -0.12272E-03 10160   0.237E-01    0.174E-01
DAV:   5    -0.191330483737E+03    0.32315E-03   -0.72087E-04  9280   0.211E-01    0.847E-02
DAV:   6    -0.191330461797E+03    0.21940E-04   -0.34978E-04  7440   0.109E-01
  72 F= -.19133046E+03 E0= -.19123192E+03  d E =0.615667E-02
       N       E                     dE             d eps       ncg     rms          rms(c)
DAV:   1    -0.191329812704E+03    0.67103E-03   -0.32335E-02  8160   0.395E-01    0.751E-02
DAV:   2    -0.191331030135E+03   -0.12174E-02   -0.30705E-03 13200   0.358E-01    0.339E-01
DAV:   3    -0.191329821568E+03    0.12086E-02   -0.16799E-03 10000   0.316E-01    0.325E-02
DAV:   4    -0.191329849521E+03   -0.27953E-04   -0.58370E-05  5840   0.387E-02
  73 F= -.19132985E+03 E0= -.19123141E+03  d E =0.612276E-03
       N       E                     dE             d eps       ncg     rms          rms(c)
DAV:   1    -0.191329812760E+03    0.88081E-05   -0.16174E-04  8480   0.516E-02    0.236E-02
DAV:   2    -0.191329915543E+03   -0.10278E-03   -0.19400E-04  8520   0.116E-01    0.968E-02
DAV:   3    -0.191329804370E+03    0.11117E-03   -0.11921E-04  5960   0.942E-02    0.121E-02
DAV:   4    -0.191329811017E+03   -0.66463E-05   -0.15471E-05  5800   0.235E-02
  74 F= -.19132981E+03 E0= -.19123136E+03  d E =0.385045E-04
       N       E                     dE             d eps       ncg     rms          rms(c)
DAV:   1    -0.191343453688E+03   -0.13649E-01   -0.10763E+00  8160   0.223E+00    0.265E-01
DAV:   2    -0.191348243209E+03   -0.47895E-02   -0.35517E-02 11520   0.817E-01    0.546E-01
DAV:   3    -0.191345210759E+03    0.30324E-02   -0.90136E-03 11440   0.733E-01    0.254E-01
DAV:   4    -0.191344941628E+03    0.26913E-03   -0.25217E-03 11560   0.339E-01    0.199E-01
DAV:   5    -0.191344594223E+03    0.34741E-03   -0.14521E-03 10080   0.295E-01    0.144E-01
DAV:   6    -0.191344417088E+03    0.17713E-03   -0.63223E-04  9160   0.160E-01    0.666E-02
DAV:   7    -0.191344438572E+03   -0.21483E-04   -0.28025E-04  7200   0.110E-01
  75 F= -.19134444E+03 E0= -.19124692E+03  d E =-.146276E-01
       N       E                     dE             d eps       ncg     rms          rms(c)
DAV:   1    -0.191325435789E+03    0.18981E-01   -0.20654E+00  8160   0.311E+00    0.413E-01
DAV:   2    -0.191337145974E+03   -0.11710E-01   -0.81160E-02 11720   0.136E+00    0.954E-01
DAV:   3    -0.191328318239E+03    0.88277E-02   -0.23347E-02 12160   0.118E+00    0.369E-01
DAV:   4    -0.191327991353E+03    0.32689E-03   -0.61377E-03 11400   0.534E-01    0.351E-01
DAV:   5    -0.191326944015E+03    0.10473E-02   -0.42799E-03 10240   0.493E-01    0.247E-01
DAV:   6    -0.191326345075E+03    0.59894E-03   -0.19770E-03 10200   0.250E-01    0.975E-02
DAV:   7    -0.191326287384E+03    0.57691E-04   -0.74655E-04 10560   0.132E-01
  76 F= -.19132629E+03 E0= -.19122701E+03  d E =0.181512E-01
       N       E                     dE             d eps       ncg     rms          rms(c)
DAV:   1    -0.191340883095E+03   -0.14538E-01   -0.10813E+00  8160   0.224E+00    0.257E-01
DAV:   2    -0.191347362661E+03   -0.64796E-02   -0.34604E-02 12400   0.867E-01    0.710E-01
DAV:   3    -0.191342467385E+03    0.48953E-02   -0.10327E-02 12120   0.789E-01    0.209E-01
DAV:   4    -0.191342420564E+03    0.46821E-04   -0.16522E-03  9920   0.291E-01    0.192E-01
DAV:   5    -0.191342034753E+03    0.38581E-03   -0.11079E-03 11000   0.272E-01    0.106E-01
DAV:   6    -0.191342020286E+03    0.14467E-04   -0.51554E-04 10000   0.114E-01
  77 F= -.19134202E+03 E0= -.19124349E+03  d E =-.157329E-01
       N       E                     dE             d eps       ncg     rms          rms(c)
DAV:   1    -0.191342392511E+03   -0.35776E-03   -0.11520E-03  9160   0.911E-02    0.309E-02
DAV:   2    -0.191342563169E+03   -0.17066E-03   -0.43771E-04  9160   0.142E-01    0.124E-01
DAV:   3    -0.191342377744E+03    0.18542E-03   -0.27705E-04  7080   0.129E-01    0.182E-02
DAV:   4    -0.191342384619E+03   -0.68746E-05   -0.19950E-05  5640   0.212E-02
  78 F= -.19134238E+03 E0= -.19124392E+03  d E =-.364333E-03
       N       E                     dE             d eps       ncg     rms          rms(c)
DAV:   1    -0.191359269826E+03   -0.16892E-01   -0.15151E+00  8160   0.265E+00    0.345E-01
DAV:   2    -0.191369416272E+03   -0.10146E-01   -0.48878E-02 13560   0.113E+00    0.953E-01
DAV:   3    -0.191360606837E+03    0.88094E-02   -0.20384E-02 12080   0.109E+00    0.322E-01
DAV:   4    -0.191359889001E+03    0.71784E-03   -0.38182E-03 10280   0.366E-01    0.199E-01
DAV:   5    -0.191359445608E+03    0.44339E-03   -0.18416E-03 11280   0.308E-01    0.159E-01
DAV:   6    -0.191359310261E+03    0.13535E-03   -0.10018E-03 10600   0.237E-01    0.114E-01
DAV:   7    -0.191359197857E+03    0.11240E-03   -0.45308E-04  8840   0.145E-01    0.720E-02
DAV:   8    -0.191359162143E+03    0.35714E-04   -0.18570E-04  6560   0.111E-01
  79 F= -.19135916E+03 E0= -.19126151E+03  d E =-.167775E-01
       N       E                     dE             d eps       ncg     rms          rms(c)
DAV:   1    -0.191369952700E+03   -0.10755E-01   -0.62030E-01  8160   0.169E+00    0.210E-01
DAV:   2    -0.191374678491E+03   -0.47258E-02   -0.21081E-02 12760   0.762E-01    0.633E-01
DAV:   3    -0.191370685374E+03    0.39931E-02   -0.75020E-03 11640   0.686E-01    0.160E-01
DAV:   4    -0.191370670909E+03    0.14465E-04   -0.11135E-03  9800   0.229E-01    0.144E-01
DAV:   5    -0.191370460590E+03    0.21032E-03   -0.63356E-04 10160   0.209E-01    0.882E-02
DAV:   6    -0.191370416712E+03    0.43878E-04   -0.27474E-04  7640   0.105E-01
  80 F= -.19137042E+03 E0= -.19127343E+03  d E =-.112546E-01
       N       E                     dE             d eps       ncg     rms          rms(c)
DAV:   1    -0.191370773426E+03   -0.31284E-03   -0.13871E-01  8160   0.775E-01    0.119E-01
DAV:   2    -0.191372431064E+03   -0.16576E-02   -0.69536E-03 12400   0.436E-01    0.357E-01
DAV:   3    -0.191370893737E+03    0.15373E-02   -0.34307E-03 10520   0.429E-01    0.124E-01
DAV:   4    -0.191370737461E+03    0.15628E-03   -0.41103E-04  8200   0.130E-01    0.449E-02
DAV:   5    -0.191370739517E+03   -0.20555E-05   -0.11648E-04  6560   0.751E-02
  81 F= -.19137074E+03 E0= -.19127358E+03  d E =-.322805E-03
       N       E                     dE             d eps       ncg     rms          rms(c)
DAV:   1    -0.191387838974E+03   -0.17102E-01   -0.11972E+00  8160   0.239E+00    0.369E-01
DAV:   2    -0.191396760363E+03   -0.89214E-02   -0.47245E-02 13080   0.115E+00    0.992E-01
DAV:   3    -0.191387826032E+03    0.89343E-02   -0.20134E-02 12040   0.110E+00    0.299E-01
DAV:   4    -0.191386830106E+03    0.99593E-03   -0.28248E-03 11560   0.321E-01    0.158E-01
DAV:   5    -0.191386908945E+03   -0.78840E-04   -0.17636E-03 11720   0.303E-01    0.213E-01
DAV:   6    -0.191386424366E+03    0.48458E-03   -0.12829E-03 10120   0.273E-01    0.851E-02
DAV:   7    -0.191386371341E+03    0.53026E-04   -0.41023E-04  8400   0.122E-01
  82 F= -.19138637E+03 E0= -.19128985E+03  d E =-.156318E-01
       N       E                     dE             d eps       ncg     rms          rms(c)
DAV:   1    -0.191397003567E+03   -0.10579E-01   -0.63091E-01  8160   0.170E+00    0.225E-01
DAV:   2    -0.191402833887E+03   -0.58303E-02   -0.24078E-02 11760   0.883E-01    0.692E-01
DAV:   3    -0.191397735343E+03    0.50985E-02   -0.82347E-03 12120   0.745E-01    0.164E-01
DAV:   4    -0.191397818664E+03   -0.83321E-04   -0.12242E-03  9680   0.275E-01    0.178E-01
DAV:   5    -0.191397517394E+03    0.30127E-03   -0.81292E-04 10680   0.236E-01    0.945E-02
DAV:   6    -0.191397468714E+03    0.48680E-04   -0.33549E-04  8120   0.999E-02
  83 F= -.19139747E+03 E0= -.19130166E+03  d E =-.110974E-01
       N       E                     dE             d eps       ncg     rms          rms(c)
DAV:   1    -0.191406574450E+03   -0.90571E-02   -0.44746E-01  8160   0.144E+00    0.202E-01
DAV:   2    -0.191411756020E+03   -0.51816E-02   -0.17784E-02 13200   0.816E-01    0.684E-01
DAV:   3    -0.191406845647E+03    0.49104E-02   -0.75309E-03 11400   0.711E-01    0.120E-01
DAV:   4    -0.191406994222E+03   -0.14857E-03   -0.83840E-04 10000   0.210E-01    0.163E-01
DAV:   5    -0.191406702041E+03    0.29218E-03   -0.57784E-04  8760   0.200E-01    0.580E-02
DAV:   6    -0.191406750739E+03   -0.48698E-04   -0.23825E-04  7520   0.112E-01
  84 F= -.19140675E+03 E0= -.19131153E+03  d E =-.928203E-02
       N       E                     dE             d eps       ncg     rms          rms(c)
DAV:   1    -0.191423731372E+03   -0.17029E-01   -0.15660E+00  8160   0.270E+00    0.359E-01
DAV:   2    -0.191434011229E+03   -0.10280E-01   -0.52534E-02 13440   0.117E+00    0.989E-01
DAV:   3    -0.191424917969E+03    0.90933E-02   -0.19183E-02 12360   0.110E+00    0.275E-01
DAV:   4    -0.191424029596E+03    0.88837E-03   -0.21185E-03 11480   0.256E-01    0.131E-01
DAV:   5    -0.191424202208E+03   -0.17261E-03   -0.15306E-03 11600   0.312E-01    0.191E-01
DAV:   6    -0.191423813558E+03    0.38865E-03   -0.88704E-04 10000   0.239E-01    0.640E-02
DAV:   7    -0.191423771285E+03    0.42273E-04   -0.19503E-04  6160   0.866E-02
  85 F= -.19142377E+03 E0= -.19132940E+03  d E =-.170205E-01
       N       E                     dE             d eps       ncg     rms          rms(c)
DAV:   1    -0.191448708078E+03   -0.24895E-01   -0.45759E+00  8160   0.454E+00    0.548E-01
DAV:   2    -0.191480130624E+03   -0.31423E-01   -0.13827E-01 13200   0.201E+00    0.167E+00
DAV:   3    -0.191453434670E+03    0.26696E-01   -0.52095E-02 12440   0.180E+00    0.399E-01
DAV:   4    -0.191452738574E+03    0.69610E-03   -0.64576E-03 11480   0.533E-01    0.328E-01
DAV:   5    -0.191451614610E+03    0.11240E-02   -0.39755E-03 12760   0.522E-01    0.215E-01
DAV:   6    -0.191451422461E+03    0.19215E-03   -0.17916E-03 12240   0.278E-01    0.141E-01
DAV:   7    -0.191451142504E+03    0.27996E-03   -0.80364E-04 10120   0.141E-01    0.613E-02
DAV:   8    -0.191451128950E+03    0.13554E-04   -0.21531E-04  7120   0.110E-01
  86 F= -.19145113E+03 E0= -.19135851E+03  d E =-.273577E-01
       N       E                     dE             d eps       ncg     rms          rms(c)
DAV:   1    -0.191447195042E+03    0.39475E-02   -0.12846E-01  8160   0.763E-01    0.972E-02
DAV:   2    -0.191448475549E+03   -0.12805E-02   -0.47847E-03 12680   0.405E-01    0.330E-01
DAV:   3    -0.191447292566E+03    0.11830E-02   -0.18122E-03 10200   0.351E-01    0.617E-02
DAV:   4    -0.191447293081E+03   -0.51413E-06   -0.19974E-04  7320   0.891E-02
  87 F= -.19144729E+03 E0= -.19135437E+03  d E =0.383587E-02
       N       E                     dE             d eps       ncg     rms          rms(c)
DAV:   1    -0.191455519676E+03   -0.82271E-02   -0.54214E-01  8160   0.156E+00    0.168E-01
DAV:   2    -0.191457687160E+03   -0.21675E-02   -0.13977E-02 13360   0.531E-01    0.411E-01
DAV:   3    -0.191456127052E+03    0.15601E-02   -0.37406E-03 12080   0.498E-01    0.149E-01
DAV:   4    -0.191455928443E+03    0.19861E-03   -0.56635E-04  9640   0.149E-01    0.772E-02
DAV:   5    -0.191455906831E+03    0.21612E-04   -0.28314E-04  9120   0.141E-01
  88 F= -.19145591E+03 E0= -.19136334E+03  d E =-.861375E-02
       N       E                     dE             d eps       ncg     rms          rms(c)
DAV:   1    -0.191446429971E+03    0.94985E-02   -0.82645E-01  8160   0.191E+00    0.218E-01
DAV:   2    -0.191449963601E+03   -0.35336E-02   -0.21400E-02 12520   0.720E-01    0.520E-01
DAV:   3    -0.191447080562E+03    0.28830E-02   -0.55715E-03 11920   0.626E-01    0.191E-01
DAV:   4    -0.191446930505E+03    0.15006E-03   -0.13411E-03 10040   0.250E-01    0.150E-01
DAV:   5    -0.191446776630E+03    0.15388E-03   -0.80452E-04 10400   0.223E-01    0.117E-01
DAV:   6    -0.191446624598E+03    0.15203E-03   -0.34046E-04  8400   0.147E-01    0.391E-02
DAV:   7    -0.191446629049E+03   -0.44514E-05   -0.10925E-04  6680   0.622E-02
  89 F= -.19144663E+03 E0= -.19135370E+03  d E =0.927778E-02
       N       E                     dE             d eps       ncg     rms          rms(c)
DAV:   1    -0.191461262439E+03   -0.14638E-01   -0.14236E+00  8160   0.255E+00    0.329E-01
DAV:   2    -0.191467814027E+03   -0.65516E-02   -0.43361E-02 13440   0.991E-01    0.784E-01
DAV:   3    -0.191462354020E+03    0.54600E-02   -0.14099E-02 12320   0.947E-01    0.296E-01
DAV:   4    -0.191461353823E+03    0.10002E-02   -0.23117E-03 11520   0.287E-01    0.118E-01
DAV:   5    -0.191461217031E+03    0.13679E-03   -0.11588E-03 11440   0.134E-01    0.104E-01
DAV:   6    -0.191461189248E+03    0.27783E-04   -0.63670E-04 10560   0.181E-01
  90 F= -.19146119E+03 E0= -.19136883E+03  d E =-.145602E-01
       N       E                     dE             d eps       ncg     rms          rms(c)
DAV:   1    -0.191446131923E+03    0.15085E-01   -0.50996E+00  8160   0.476E+00    0.546E-01
DAV:   2    -0.191460043703E+03   -0.13912E-01   -0.12799E-01 13560   0.164E+00    0.996E-01
DAV:   3    -0.191450103910E+03    0.99398E-02   -0.26090E-02 12040   0.136E+00    0.503E-01
DAV:   4    -0.191448892046E+03    0.12119E-02   -0.97211E-03 11720   0.723E-01    0.429E-01
DAV:   5    -0.191447653685E+03    0.12384E-02   -0.61082E-03 11040   0.626E-01    0.320E-01
DAV:   6    -0.191446629910E+03    0.10238E-02   -0.26099E-03 11760   0.382E-01    0.113E-01
DAV:   7    -0.191446575445E+03    0.54465E-04   -0.94170E-04 11120   0.181E-01
  91 F= -.19144658E+03 E0= -.19135438E+03  d E =0.146138E-01
       N       E                     dE             d eps       ncg     rms          rms(c)
DAV:   1    -0.191467372910E+03   -0.20743E-01   -0.65783E+00  8160   0.541E+00    0.600E-01
DAV:   2    -0.191490884157E+03   -0.23511E-01   -0.15966E-01 12680   0.185E+00    0.143E+00
DAV:   3    -0.191473298681E+03    0.17585E-01   -0.46719E-02 12320   0.172E+00    0.534E-01
DAV:   4    -0.191470727704E+03    0.25710E-02   -0.81821E-03 12240   0.595E-01    0.325E-01
DAV:   5    -0.191470326944E+03    0.40076E-03   -0.54570E-03 12000   0.551E-01    0.338E-01
DAV:   6    -0.191469271911E+03    0.10550E-02   -0.32746E-03 11800   0.459E-01    0.135E-01
DAV:   7    -0.191469004529E+03    0.26738E-03   -0.78989E-04  9680   0.155E-01    0.416E-02
DAV:   8    -0.191468973392E+03    0.31137E-04   -0.11330E-04  7440   0.517E-02
  92 F= -.19146897E+03 E0= -.19137728E+03  d E =-.223979E-01
       N       E                     dE             d eps       ncg     rms          rms(c)
DAV:   1    -0.191488611092E+03   -0.19607E-01   -0.37233E+00  8160   0.407E+00    0.469E-01
DAV:   2    -0.191503600811E+03   -0.14990E-01   -0.93839E-02 13320   0.145E+00    0.114E+00
DAV:   3    -0.191491878281E+03    0.11723E-01   -0.28834E-02 12400   0.137E+00    0.407E-01
DAV:   4    -0.191490368669E+03    0.15096E-02   -0.45884E-03 11400   0.420E-01    0.222E-01
DAV:   5    -0.191490309324E+03    0.59344E-04   -0.30505E-03 11440   0.389E-01    0.263E-01
DAV:   6    -0.191489810146E+03    0.49918E-03   -0.24421E-03 10880   0.384E-01    0.140E-01
DAV:   7    -0.191489611714E+03    0.19843E-03   -0.85664E-04 10080   0.178E-01    0.754E-02
DAV:   8    -0.191489556849E+03    0.54866E-04   -0.21267E-04  7760   0.116E-01
  93 F= -.19148956E+03 E0= -.19139835E+03  d E =-.205835E-01
       N       E                     dE             d eps       ncg     rms          rms(c)
DAV:   1    -0.191497373067E+03   -0.77614E-02   -0.55291E-01  8160   0.156E+00    0.177E-01
DAV:   2    -0.191499197736E+03   -0.18247E-02   -0.13516E-02 12360   0.530E-01    0.380E-01
DAV:   3    -0.191497903616E+03    0.12941E-02   -0.34612E-03 12120   0.483E-01    0.167E-01
DAV:   4    -0.191497717691E+03    0.18593E-03   -0.73631E-04  9840   0.189E-01    0.102E-01
DAV:   5    -0.191497677290E+03    0.40401E-04   -0.43737E-04  9520   0.164E-01
  94 F= -.19149768E+03 E0= -.19140662E+03  d E =-.812044E-02
       N       E                     dE             d eps       ncg     rms          rms(c)
DAV:   1    -0.191472067494E+03    0.25650E-01   -0.64172E+00  8160   0.537E+00    0.635E-01
DAV:   2    -0.191489925492E+03   -0.17858E-01   -0.16218E-01 12920   0.173E+00    0.117E+00
DAV:   3    -0.191477571199E+03    0.12354E-01   -0.37169E-02 12160   0.163E+00    0.675E-01
DAV:   4    -0.191473897075E+03    0.36741E-02   -0.12374E-02 11640   0.786E-01    0.365E-01
DAV:   5    -0.191472927357E+03    0.96972E-03   -0.60688E-03 11400   0.528E-01    0.329E-01
DAV:   6    -0.191471930381E+03    0.99698E-03   -0.33331E-03 11600   0.479E-01    0.150E-01
DAV:   7    -0.191471665889E+03    0.26449E-03   -0.10046E-03 11160   0.190E-01    0.489E-02
DAV:   8    -0.191471631307E+03    0.34582E-04   -0.16165E-04  7840   0.512E-02
  95 F= -.19147163E+03 E0= -.19138055E+03  d E =0.260460E-01
       N       E                     dE             d eps       ncg     rms          rms(c)
DAV:   1    -0.191529030438E+03   -0.57365E-01   -0.26450E+01  8160   0.109E+01    0.128E+00
DAV:   2    -0.191600102958E+03   -0.71073E-01   -0.64384E-01 12600   0.335E+00    0.264E+00
DAV:   3    -0.191551553568E+03    0.48549E-01   -0.19749E-01 12320   0.343E+00    0.126E+00
DAV:   4    -0.191534329585E+03    0.17224E-01   -0.39335E-02 12200   0.136E+00    0.677E-01
DAV:   5    -0.191532782807E+03    0.15468E-02   -0.25816E-02 12640   0.117E+00    0.749E-01
DAV:   6    -0.191527385640E+03    0.53972E-02   -0.16929E-02 12360   0.104E+00    0.303E-01
DAV:   7    -0.191526146463E+03    0.12392E-02   -0.46243E-03 11440   0.398E-01    0.139E-01
DAV:   8    -0.191526060216E+03    0.86247E-04   -0.14163E-03 10800   0.264E-01    0.141E-01
DAV:   9    -0.191525839373E+03    0.22084E-03   -0.47405E-04  9080   0.173E-01    0.510E-02
DAV:  10    -0.191525835843E+03    0.35305E-05   -0.15772E-04  6120   0.565E-02
  96 F= -.19152584E+03 E0= -.19143474E+03  d E =-.542045E-01
       N       E                     dE             d eps       ncg     rms          rms(c)
DAV:   1    -0.191523302667E+03    0.25367E-02   -0.21306E-01  8160   0.102E+00    0.180E-01
DAV:   2    -0.191523883892E+03   -0.58122E-03   -0.73674E-03 11800   0.463E-01    0.335E-01
DAV:   3    -0.191522817517E+03    0.10664E-02   -0.25906E-03 11720   0.443E-01    0.156E-01
DAV:   4    -0.191522715613E+03    0.10190E-03   -0.10162E-03  9760   0.252E-01    0.154E-01
DAV:   5    -0.191522530064E+03    0.18555E-03   -0.73568E-04  9840   0.229E-01    0.959E-02
DAV:   6    -0.191522405600E+03    0.12446E-03   -0.21683E-04  6840   0.102E-01    0.168E-02
DAV:   7    -0.191522420393E+03   -0.14793E-04   -0.55359E-05  7120   0.425E-02
  97 F= -.19152242E+03 E0= -.19143158E+03  d E =0.341545E-02
       N       E                     dE             d eps       ncg     rms          rms(c)
DAV:   1    -0.191535224517E+03   -0.12819E-01   -0.15167E+00  8160   0.259E+00    0.270E-01
DAV:   2    -0.191538834368E+03   -0.36099E-02   -0.33811E-02 12240   0.752E-01    0.495E-01
DAV:   3    -0.191536854207E+03    0.19802E-02   -0.71644E-03 12280   0.686E-01    0.278E-01
DAV:   4    -0.191536307137E+03    0.54707E-03   -0.20652E-03 11560   0.333E-01    0.174E-01
DAV:   5    -0.191536117053E+03    0.19008E-03   -0.12292E-03 10960   0.268E-01    0.152E-01
DAV:   6    -0.191535927113E+03    0.18994E-03   -0.74825E-04 10080   0.215E-01    0.667E-02
DAV:   7    -0.191535888409E+03    0.38704E-04   -0.24921E-04  7280   0.969E-02
  98 F= -.19153589E+03 E0= -.19144534E+03  d E =-.134680E-01
       N       E                     dE             d eps       ncg     rms          rms(c)
DAV:   1    -0.191523521812E+03    0.12405E-01   -0.11686E+00  8160   0.226E+00    0.211E-01
DAV:   2    -0.191525970374E+03   -0.24486E-02   -0.24026E-02 12000   0.563E-01    0.353E-01
DAV:   3    -0.191525043943E+03    0.92643E-03   -0.41784E-03 12440   0.526E-01    0.248E-01
DAV:   4    -0.191524538862E+03    0.50508E-03   -0.13254E-03 10160   0.264E-01    0.113E-01
DAV:   5    -0.191524465800E+03    0.73062E-04   -0.62937E-04 10520   0.160E-01
  99 F= -.19152447E+03 E0= -.19143348E+03  d E =0.114226E-01
       N       E                     dE             d eps       ncg     rms          rms(c)
DAV:   1    -0.191524402794E+03    0.13607E-03   -0.35354E-02  8160   0.426E-01    0.154E-01
DAV:   2    -0.191526030375E+03   -0.16276E-02   -0.60307E-03 11320   0.624E-01    0.408E-01
DAV:   3    -0.191523890910E+03    0.21395E-02   -0.27786E-03 11080   0.476E-01    0.750E-02
DAV:   4    -0.191523882363E+03    0.85473E-05   -0.40820E-04  8320   0.113E-01
 100 F= -.19152388E+03 E0= -.19143336E+03  d E =0.583437E-03
