<?xml version="1.0" encoding="ISO-8859-1"?>
<modeling>
 <generator>
  <i name="program" type="string">vasp </i>
  <i name="version" type="string">5.4.1  </i>
  <i name="subversion" type="string">05Feb16 (build Jul 05 2020 17:13:04) complex                          parallel </i>
  <i name="platform" type="string">IFC91_ompi </i>
  <i name="date" type="string">2024 05 01 </i>
  <i name="time" type="string">01:03:36 </i>
 </generator>
 <incar>
  <i type="int" name="ISTART">     0</i>
  <i type="string" name="PREC">normal</i>
  <i type="string" name="ALGO"> Normal</i>
  <i type="int" name="ISPIN">     1</i>
  <i type="int" name="ICHARG">     2</i>
  <i type="int" name="IBRION">     1</i>
  <i type="int" name="NSW">   100</i>
  <i type="int" name="ISIF">     3</i>
  <i type="int" name="ISYM">     0</i>
  <i name="SYMPREC">      0.00000001</i>
  <i name="POTIM">      0.50000000</i>
  <i type="logical" name="LREAL"> F  </i>
  <i type="logical" name="LPLANE"> F  </i>
  <i type="int" name="ISMEAR">     0</i>
  <i type="logical" name="LWAVE"> F  </i>
  <i type="logical" name="LCHARG"> F  </i>
  <v type="int" name="KPOINT_BSE">    -1     0     0     0</v>
 </incar>
 <kpoints>
  <generation param="Gamma">
   <v type="int" name="divisions">       8        8        1 </v>
   <v name="usershift">      0.00000000       0.00000000       0.00000000 </v>
   <v name="genvec1">      0.12500000       0.00000000       0.00000000 </v>
   <v name="genvec2">     -0.00000000       0.12500000       0.00000000 </v>
   <v name="genvec3">      0.00000000       0.00000000       1.00000000 </v>
   <v name="shift">      0.00000000       0.00000000       0.00000000 </v>
  </generation>
  <varray name="kpointlist" >
   <v>       0.00000000       0.00000000       0.00000000 </v>
   <v>       0.12500000       0.00000000       0.00000000 </v>
   <v>       0.25000000       0.00000000       0.00000000 </v>
   <v>       0.37500000       0.00000000       0.00000000 </v>
   <v>       0.50000000       0.00000000       0.00000000 </v>
   <v>       0.00000000       0.12500000       0.00000000 </v>
   <v>       0.12500000       0.12500000       0.00000000 </v>
   <v>       0.25000000       0.12500000       0.00000000 </v>
   <v>       0.37500000       0.12500000       0.00000000 </v>
   <v>       0.50000000       0.12500000       0.00000000 </v>
   <v>      -0.37500000       0.12500000       0.00000000 </v>
   <v>      -0.25000000       0.12500000       0.00000000 </v>
   <v>      -0.12500000       0.12500000       0.00000000 </v>
   <v>       0.00000000       0.25000000       0.00000000 </v>
   <v>       0.12500000       0.25000000       0.00000000 </v>
   <v>       0.25000000       0.25000000       0.00000000 </v>
   <v>       0.37500000       0.25000000       0.00000000 </v>
   <v>       0.50000000       0.25000000       0.00000000 </v>
   <v>      -0.37500000       0.25000000       0.00000000 </v>
   <v>      -0.25000000       0.25000000       0.00000000 </v>
   <v>      -0.12500000       0.25000000       0.00000000 </v>
   <v>      -0.00000000       0.37500000       0.00000000 </v>
   <v>       0.12500000       0.37500000       0.00000000 </v>
   <v>       0.25000000       0.37500000       0.00000000 </v>
   <v>       0.37500000       0.37500000       0.00000000 </v>
   <v>       0.50000000       0.37500000       0.00000000 </v>
   <v>      -0.37500000       0.37500000       0.00000000 </v>
   <v>      -0.25000000       0.37500000       0.00000000 </v>
   <v>      -0.12500000       0.37500000       0.00000000 </v>
   <v>       0.00000000       0.50000000       0.00000000 </v>
   <v>       0.12500000       0.50000000       0.00000000 </v>
   <v>       0.25000000       0.50000000       0.00000000 </v>
   <v>       0.37500000       0.50000000       0.00000000 </v>
   <v>       0.50000000       0.50000000       0.00000000 </v>
  </varray>
  <varray name="weights" >
   <v>       0.01562500 </v>
   <v>       0.03125000 </v>
   <v>       0.03125000 </v>
   <v>       0.03125000 </v>
   <v>       0.01562500 </v>
   <v>       0.03125000 </v>
   <v>       0.03125000 </v>
   <v>       0.03125000 </v>
   <v>       0.03125000 </v>
   <v>       0.03125000 </v>
   <v>       0.03125000 </v>
   <v>       0.03125000 </v>
   <v>       0.03125000 </v>
   <v>       0.03125000 </v>
   <v>       0.03125000 </v>
   <v>       0.03125000 </v>
   <v>       0.03125000 </v>
   <v>       0.03125000 </v>
   <v>       0.03125000 </v>
   <v>       0.03125000 </v>
   <v>       0.03125000 </v>
   <v>       0.03125000 </v>
   <v>       0.03125000 </v>
   <v>       0.03125000 </v>
   <v>       0.03125000 </v>
   <v>       0.03125000 </v>
   <v>       0.03125000 </v>
   <v>       0.03125000 </v>
   <v>       0.03125000 </v>
   <v>       0.01562500 </v>
   <v>       0.03125000 </v>
   <v>       0.03125000 </v>
   <v>       0.03125000 </v>
   <v>       0.01562500 </v>
  </varray>
 </kpoints>
 <parameters>
  <separator name="general" >
   <i type="string" name="SYSTEM">unknown system</i>
   <i type="logical" name="LCOMPAT"> F  </i>
  </separator>
  <separator name="electronic" >
   <i type="string" name="PREC">normal</i>
   <i name="ENMAX">    280.00000000</i>
   <i name="ENAUG">    373.43800000</i>
   <i name="EDIFF">      0.00010000</i>
   <i type="int" name="IALGO">    38</i>
   <i type="int" name="IWAVPR">    11</i>
   <i type="int" name="NBANDS">   120</i>
   <i name="NELECT">    159.00000000</i>
   <i type="int" name="TURBO">     0</i>
   <i type="int" name="IRESTART">     0</i>
   <i type="int" name="NREBOOT">     0</i>
   <i type="int" name="NMIN">     0</i>
   <i name="EREF">      0.00000000</i>
   <separator name="electronic smearing" >
    <i type="int" name="ISMEAR">     0</i>
    <i name="SIGMA">      0.20000000</i>
    <i name="KSPACING">      0.50000000</i>
    <i type="logical" name="KGAMMA"> T  </i>
   </separator>
   <separator name="electronic projectors" >
    <i type="logical" name="LREAL"> F  </i>
    <v name="ROPT">      0.00000000      0.00000000      0.00000000      0.00000000</v>
    <i type="int" name="LMAXPAW">  -100</i>
    <i type="int" name="LMAXMIX">     2</i>
    <i type="logical" name="NLSPLINE"> F  </i>
   </separator>
   <separator name="electronic startup" >
    <i type="int" name="ISTART">     0</i>
    <i type="int" name="ICHARG">     2</i>
    <i type="int" name="INIWAV">     1</i>
   </separator>
   <separator name="electronic spin" >
    <i type="int" name="ISPIN">     1</i>
    <i type="logical" name="LNONCOLLINEAR"> F  </i>
    <v name="MAGMOM">      1.00000000      1.00000000      1.00000000      1.00000000      1.00000000      1.00000000      1.00000000      1.00000000      1.00000000      1.00000000      1.00000000      1.00000000      1.00000000      1.00000000      1.00000000      1.00000000      1.00000000      1.00000000      1.00000000      1.00000000
      1.00000000      1.00000000      1.00000000      1.00000000      1.00000000      1.00000000      1.00000000</v>
    <i name="NUPDOWN">     -1.00000000</i>
    <i type="logical" name="LSORBIT"> F  </i>
    <v name="SAXIS">      0.00000000      0.00000000      1.00000000</v>
    <i type="logical" name="LSPIRAL"> F  </i>
    <v name="QSPIRAL">      0.00000000      0.00000000      0.00000000</v>
    <i type="logical" name="LZEROZ"> F  </i>
   </separator>
   <separator name="electronic exchange-correlation" >
    <i type="logical" name="LASPH"> F  </i>
    <i type="logical" name="LMETAGGA"> F  </i>
   </separator>
   <separator name="electronic convergence" >
    <i type="int" name="NELM">    60</i>
    <i type="int" name="NELMDL">    -5</i>
    <i type="int" name="NELMIN">     2</i>
    <i name="ENINI">    280.00000000</i>
    <separator name="electronic convergence detail" >
     <i type="logical" name="LDIAG"> T  </i>
     <i type="logical" name="LSUBROT"> F  </i>
     <i name="WEIMIN">      0.00100000</i>
     <i name="EBREAK">      0.00000021</i>
     <i name="DEPER">      0.30000000</i>
     <i type="int" name="NRMM">     4</i>
     <i name="TIME">      0.40000000</i>
    </separator>
   </separator>
   <separator name="electronic mixer" >
    <i name="AMIX">      0.40000000</i>
    <i name="BMIX">      1.00000000</i>
    <i name="AMIN">      0.10000000</i>
    <i name="AMIX_MAG">      1.60000000</i>
    <i name="BMIX_MAG">      1.00000000</i>
    <separator name="electronic mixer details" >
     <i type="int" name="IMIX">     4</i>
     <i type="logical" name="MIXFIRST"> F  </i>
     <i type="int" name="MAXMIX">   -45</i>
     <i name="WC">    100.00000000</i>
     <i type="int" name="INIMIX">     1</i>
     <i type="int" name="MIXPRE">     1</i>
     <i type="int" name="MREMOVE">     5</i>
    </separator>
   </separator>
   <separator name="electronic dipolcorrection" >
    <i type="logical" name="LDIPOL"> F  </i>
    <i type="logical" name="LMONO"> F  </i>
    <i type="int" name="IDIPOL">     0</i>
    <i name="EPSILON">      1.00000000</i>
    <v name="DIPOL">   -100.00000000   -100.00000000   -100.00000000</v>
    <i name="EFIELD">      0.00000000</i>
   </separator>
  </separator>
  <separator name="grids" >
   <i type="int" name="NGX">    42</i>
   <i type="int" name="NGY">    42</i>
   <i type="int" name="NGZ">   126</i>
   <i type="int" name="NGXF">    84</i>
   <i type="int" name="NGYF">    84</i>
   <i type="int" name="NGZF">   252</i>
   <i type="logical" name="ADDGRID"> F  </i>
  </separator>
  <separator name="ionic" >
   <i type="int" name="NSW">   100</i>
   <i type="int" name="IBRION">     1</i>
   <i type="int" name="ISIF">     3</i>
   <i name="PSTRESS">      0.00000000</i>
   <i name="EDIFFG">      0.00100000</i>
   <i type="int" name="NFREE">     0</i>
   <i name="POTIM">      0.50000000</i>
   <i name="SMASS">     -3.00000000</i>
   <i name="SCALEE">      1.00000000</i>
  </separator>
  <separator name="ionic md" >
   <i name="TEBEG">      0.00010000</i>
   <i name="TEEND">      0.00010000</i>
   <i type="int" name="NBLOCK">     1</i>
   <i type="int" name="KBLOCK">   100</i>
   <i type="int" name="NPACO">   256</i>
   <i name="APACO">     16.00000000</i>
  </separator>
  <separator name="symmetry" >
   <i type="int" name="ISYM">     0</i>
   <i name="SYMPREC">      0.00000001</i>
  </separator>
  <separator name="dos" >
   <i type="logical" name="LORBIT"> F  </i>
   <v name="RWIGS">     -1.00000000     -1.00000000     -1.00000000     -1.00000000</v>
   <i type="int" name="NEDOS">   301</i>
   <i name="EMIN">     10.00000000</i>
   <i name="EMAX">    -10.00000000</i>
   <i name="EFERMI">      0.00000000</i>
  </separator>
  <separator name="writing" >
   <i type="int" name="NWRITE">     2</i>
   <i type="logical" name="LWAVE"> F  </i>
   <i type="logical" name="LCHARG"> F  </i>
   <i type="logical" name="LPARD"> F  </i>
   <i type="logical" name="LVTOT"> F  </i>
   <i type="logical" name="LVHAR"> F  </i>
   <i type="logical" name="LELF"> F  </i>
   <i type="logical" name="LOPTICS"> F  </i>
   <v name="STM">      0.00000000      0.00000000      0.00000000      0.00000000      0.00000000      0.00000000      0.00000000</v>
  </separator>
  <separator name="performance" >
   <i type="int" name="NPAR">    40</i>
   <i type="int" name="NSIM">     4</i>
   <i type="int" name="NBLK">    -1</i>
   <i type="logical" name="LPLANE"> F  </i>
   <i type="logical" name="LSCALAPACK"> T  </i>
   <i type="logical" name="LSCAAWARE"> F  </i>
   <i type="logical" name="LSCALU"> F  </i>
   <i type="logical" name="LASYNC"> F  </i>
   <i type="logical" name="LORBITALREAL"> F  </i>
  </separator>
  <separator name="miscellaneous" >
   <i type="int" name="IDIOT">     3</i>
   <i type="logical" name="LMUSIC"> F  </i>
   <v name="POMASS">     50.94100000     95.94000000    183.85000000     32.06600000</v>
   <v name="DARWINR">      0.00000000      0.00000000      0.00000000      0.00000000</v>
   <v name="DARWINV">      1.00000000      1.00000000      1.00000000      1.00000000</v>
   <i type="logical" name="LCORR"> T  </i>
  </separator>
  <i type="logical" name="GGA_COMPAT"> T  </i>
  <i type="logical" name="LBERRY"> F  </i>
  <i type="int" name="ICORELEVEL">     0</i>
  <i type="logical" name="LDAU"> F  </i>
  <i type="int" name="I_CONSTRAINED_M">     0</i>
  <separator name="electronic exchange-correlation" >
   <i type="string" name="GGA">--</i>
   <i type="int" name="VOSKOWN">     0</i>
   <i type="logical" name="LHFCALC"> F  </i>
   <i type="string" name="PRECFOCK"></i>
   <i type="logical" name="LSYMGRAD"> F  </i>
   <i type="logical" name="LHFONE"> F  </i>
   <i type="logical" name="LRHFCALC"> F  </i>
   <i type="logical" name="LTHOMAS"> F  </i>
   <i type="logical" name="LMODELHF"> F  </i>
   <i name="ENCUT4O">     -1.00000000</i>
   <i type="int" name="EXXOEP">     0</i>
   <i type="int" name="FOURORBIT">     0</i>
   <i name="AEXX">      0.00000000</i>
   <i name="HFALPHA">      0.00000000</i>
   <i name="MCALPHA">      0.00000000</i>
   <i name="ALDAX">      1.00000000</i>
   <i name="AGGAX">      1.00000000</i>
   <i name="ALDAC">      1.00000000</i>
   <i name="AGGAC">      1.00000000</i>
   <i type="int" name="NKREDX">     1</i>
   <i type="int" name="NKREDY">     1</i>
   <i type="int" name="NKREDZ">     1</i>
   <i type="logical" name="SHIFTRED"> F  </i>
   <i type="logical" name="ODDONLY"> F  </i>
   <i type="logical" name="EVENONLY"> F  </i>
   <i type="int" name="LMAXFOCK">     0</i>
   <i type="int" name="NMAXFOCKAE">     0</i>
   <i type="logical" name="LFOCKAEDFT"> F  </i>
   <i name="HFSCREEN">      0.00000000</i>
   <i name="HFSCREENC">      0.00000000</i>
   <i type="int" name="NBANDSGWLOW">     0</i>
  </separator>
  <separator name="vdW DFT" >
   <i type="logical" name="LUSE_VDW"> F  </i>
   <i name="Zab_VDW">     -0.84910000</i>
   <i name="PARAM1">      0.12340000</i>
   <i name="PARAM2">      1.00000000</i>
   <i name="PARAM3">      0.00000000</i>
  </separator>
  <separator name="model GW" >
   <i type="int" name="MODEL_GW">     0</i>
   <i name="MODEL_EPS0">     58.26239943</i>
   <i name="MODEL_ALPHA">      1.00000000</i>
  </separator>
  <separator name="linear response parameters" >
   <i type="logical" name="LEPSILON"> F  </i>
   <i type="logical" name="LRPA"> F  </i>
   <i type="logical" name="LNABLA"> F  </i>
   <i type="logical" name="LVEL"> F  </i>
   <i type="int" name="KINTER">     0</i>
   <i name="CSHIFT">      0.10000000</i>
   <i name="OMEGAMAX">     -1.00000000</i>
   <i name="DEG_THRESHOLD">      0.00200000</i>
  </separator>
  <separator name="orbital magnetization" >
   <i type="logical" name="NUCIND"> F  </i>
   <v name="MAGPOS">      0.00000000      0.00000000      0.00000000</v>
   <i type="logical" name="LNICSALL"> T  </i>
   <i type="logical" name="ORBITALMAG"> F  </i>
   <i type="logical" name="LMAGBLOCH"> F  </i>
   <i type="logical" name="LCHIMAG"> F  </i>
   <i type="logical" name="LGAUGE"> T  </i>
   <i type="int" name="MAGATOM">     0</i>
   <v name="MAGDIPOL">      0.00000000      0.00000000      0.00000000</v>
   <v name="AVECCONST">      0.00000000      0.00000000      0.00000000</v>
  </separator>
  <separator name="response functions" >
   <i type="logical" name="LADDER"> F  </i>
   <i type="logical" name="LFXC"> F  </i>
   <i type="logical" name="LHARTREE"> T  </i>
   <i type="int" name="IBSE">     0</i>
   <v type="int" name="KPOINT">    -1     0     0     0</v>
   <i type="logical" name="LTCTE"> F  </i>
   <i type="logical" name="LTETE"> F  </i>
   <i type="logical" name="LTRIPLET"> F  </i>
   <i type="logical" name="LFXCEPS"> F  </i>
   <i type="logical" name="LFXHEG"> F  </i>
   <i type="int" name="NATURALO">     0</i>
   <i type="logical" name="L2ORDER"> F  </i>
   <i type="logical" name="LUSEW"> F  </i>
   <i name="ENCUTGW">     -2.00000000</i>
   <i name="ENCUTGWSOFT">     -2.00000000</i>
   <i name="ENCUTLF">     -1.00000000</i>
   <i type="int" name="LMAXMP2">    -1</i>
   <i name="SCISSOR">      0.00000000</i>
   <i type="int" name="NOMEGA">     0</i>
   <i type="int" name="NOMEGAR">     0</i>
   <i type="int" name="NBANDSGW">    -1</i>
   <i type="int" name="NBANDSO">    -1</i>
   <i type="int" name="NBANDSV">    -1</i>
   <i type="int" name="NELM">     1</i>
   <i type="int" name="NELMHF">     1</i>
   <i type="int" name="DIM">     3</i>
   <i type="int" name="ANTIRES">     0</i>
   <i name="OMEGAMAX">    -30.00000000</i>
   <i name="OMEGAMIN">    -30.00000000</i>
   <i name="OMEGATL">   -200.00000000</i>
   <i type="int" name="OMEGAGRID">     0</i>
   <i name="CSHIFT">     -0.10000000</i>
   <i type="logical" name="SELFENERGY"> F  </i>
   <i type="logical" name="LSPECTRAL"> F  </i>
   <i type="logical" name="LSPECTRALGW"> F  </i>
   <i type="logical" name="LSINGLES"> F  </i>
   <i type="logical" name="LFERMIGW"> F  </i>
   <i type="logical" name="ODDONLYGW"> F  </i>
   <i type="logical" name="EVENONLYGW"> F  </i>
   <i type="int" name="NKREDLFX">     1</i>
   <i type="int" name="NKREDLFY">     1</i>
   <i type="int" name="NKREDLFZ">     1</i>
   <i type="int" name="MAXMEM">  1800</i>
   <i type="int" name="TELESCOPE">     0</i>
   <i type="int" name="TAUPAR">     1</i>
   <i type="int" name="OMEGAPAR">    -1</i>
   <i name="LAMBDA">      1.00000000</i>
  </separator>
  <separator name="External order field" >
   <i name="OFIELD_KAPPA">      0.00000000</i>
   <v name="OFIELD_K">      0.00000000      0.00000000      0.00000000</v>
   <i name="OFIELD_Q6_NEAR">      0.00000000</i>
   <i name="OFIELD_Q6_FAR">      0.00000000</i>
   <i name="OFIELD_A">      0.00000000</i>
  </separator>
 </parameters>
 <atominfo>
  <atoms>      27 </atoms>
  <types>       4 </types>
  <array name="atoms" >
   <dimension dim="1">ion</dimension>
   <field type="string">element</field>
   <field type="int">atomtype</field>
   <set>
    <rc><c>V </c><c>   1</c></rc>
    <rc><c>V </c><c>   1</c></rc>
    <rc><c>V </c><c>   1</c></rc>
    <rc><c>Mo</c><c>   2</c></rc>
    <rc><c>Mo</c><c>   2</c></rc>
    <rc><c>Mo</c><c>   2</c></rc>
    <rc><c>W </c><c>   3</c></rc>
    <rc><c>W </c><c>   3</c></rc>
    <rc><c>W </c><c>   3</c></rc>
    <rc><c>S </c><c>   4</c></rc>
    <rc><c>S </c><c>   4</c></rc>
    <rc><c>S </c><c>   4</c></rc>
    <rc><c>S </c><c>   4</c></rc>
    <rc><c>S </c><c>   4</c></rc>
    <rc><c>S </c><c>   4</c></rc>
    <rc><c>S </c><c>   4</c></rc>
    <rc><c>S </c><c>   4</c></rc>
    <rc><c>S </c><c>   4</c></rc>
    <rc><c>S </c><c>   4</c></rc>
    <rc><c>S </c><c>   4</c></rc>
    <rc><c>S </c><c>   4</c></rc>
    <rc><c>S </c><c>   4</c></rc>
    <rc><c>S </c><c>   4</c></rc>
    <rc><c>S </c><c>   4</c></rc>
    <rc><c>S </c><c>   4</c></rc>
    <rc><c>S </c><c>   4</c></rc>
    <rc><c>S </c><c>   4</c></rc>
   </set>
  </array>
  <array name="atomtypes" >
   <dimension dim="1">type</dimension>
   <field type="int">atomspertype</field>
   <field type="string">element</field>
   <field>mass</field>
   <field>valence</field>
   <field type="string">pseudopotential</field>
   <set>
    <rc><c>   3</c><c>V </c><c>     50.94100000</c><c>      5.00000000</c><c> PAW_PBE V 08Apr2002                    </c></rc>
    <rc><c>   3</c><c>Mo</c><c>     95.94000000</c><c>      6.00000000</c><c> PAW_PBE Mo 08Apr2002                   </c></rc>
    <rc><c>   3</c><c>W </c><c>    183.85000000</c><c>      6.00000000</c><c> PAW_PBE W 08Apr2002                    </c></rc>
    <rc><c>  18</c><c>S </c><c>     32.06600000</c><c>      6.00000000</c><c>  PAW_PBE S 17Jan2003                   </c></rc>
   </set>
  </array>
 </atominfo>
 <structure name="initialpos" >
  <crystal>
   <varray name="basis" >
    <v>       8.66999996       5.03999989       0.00000000 </v>
    <v>      -8.66999982       5.04000013       0.00000000 </v>
    <v>       0.00000000       0.00000000      30.00000000 </v>
   </varray>
   <i name="volume">   2621.80797419 </i>
   <varray name="rec_basis" >
    <v>       0.05767013       0.09920635       0.00000000 </v>
    <v>      -0.05767013       0.09920635       0.00000000 </v>
    <v>       0.00000000       0.00000000       0.03333333 </v>
   </varray>
  </crystal>
  <varray name="positions" >
   <v>       0.33333334       0.33333334       0.00000000 </v>
   <v>       0.66666669       0.66666669       0.00000000 </v>
   <v>       1.00000000       0.33333334       0.00000000 </v>
   <v>       0.33333334       0.66666669       0.00000000 </v>
   <v>       0.66666669       0.33333334       0.00000000 </v>
   <v>       0.00000000       0.00000000       0.00000000 </v>
   <v>       0.00000000       0.66666669       0.00000000 </v>
   <v>       0.33333334       0.00000000       0.00000000 </v>
   <v>       0.66666669       0.00000000       0.00000000 </v>
   <v>       0.11068511       0.22244981       0.95539999 </v>
   <v>       0.22244981       0.11068511       0.04460000 </v>
   <v>       0.11068511       0.55578315       0.95539999 </v>
   <v>       0.22244981       0.44401845       0.04460000 </v>
   <v>       0.11068511       0.88911647       0.95539999 </v>
   <v>       0.22244981       0.77735180       0.04460000 </v>
   <v>       0.44401845       0.22244981       0.95539999 </v>
   <v>       0.55578315       0.11068511       0.04460000 </v>
   <v>       0.44401845       0.55578315       0.95539999 </v>
   <v>       0.55578315       0.44401845       0.04460000 </v>
   <v>       0.44401845       0.88911647       0.95539999 </v>
   <v>       0.55578315       0.77735180       0.04460000 </v>
   <v>       0.77735180       0.22244981       0.95539999 </v>
   <v>       0.88911647       0.11068511       0.04460000 </v>
   <v>       0.77735180       0.55578315       0.95539999 </v>
   <v>       0.88911647       0.44401845       0.04460000 </v>
   <v>       0.77735180       0.88911647       0.95539999 </v>
   <v>       0.88911647       0.77735180       0.04460000 </v>
  </varray>
 </structure>
 <calculation>
  <scstep>
   <time name="dav">   22.04   22.10</time>
   <time name="total">   22.09   22.15</time>
   <energy>
    <i name="alphaZ">     81.65567618 </i>
    <i name="ewald">  41890.23011081 </i>
    <i name="hartreedc"> -47722.87972112 </i>
    <i name="XCdc">   -242.92665268 </i>
    <i name="pawpsdc">   3467.42045192 </i>
    <i name="pawaedc">  -2871.19716117 </i>
    <i name="eentropy">     -0.52469495 </i>
    <i name="bandstr">   -239.52352953 </i>
    <i name="atom">   6761.44252427 </i>
    <i name="e_fr_energy">   1123.69700372 </i>
    <i name="e_wo_entrp">   1124.22169868 </i>
    <i name="e_0_energy">   1123.95935120 </i>
   </energy>
  </scstep>
  <scstep>
   <time name="dav">   28.46   28.53</time>
   <time name="total">   28.46   28.54</time>
   <energy>
    <i name="e_fr_energy">     -1.42549511 </i>
    <i name="e_wo_entrp">     -1.22207192 </i>
    <i name="e_0_energy">     -1.32378351 </i>
   </energy>
  </scstep>
  <scstep>
   <time name="dav">   27.92   27.98</time>
   <time name="total">   27.92   27.99</time>
   <energy>
    <i name="e_fr_energy">   -199.81696503 </i>
    <i name="e_wo_entrp">   -199.54482604 </i>
    <i name="e_0_energy">   -199.68089553 </i>
   </energy>
  </scstep>
  <scstep>
   <time name="dav">   30.64   30.71</time>
   <time name="total">   30.64   30.72</time>
   <energy>
    <i name="e_fr_energy">   -209.06731786 </i>
    <i name="e_wo_entrp">   -208.74283538 </i>
    <i name="e_0_energy">   -208.90507662 </i>
   </energy>
  </scstep>
  <scstep>
   <time name="dav">   29.14   29.21</time>
   <time name="total">   29.60   29.68</time>
   <energy>
    <i name="e_fr_energy">   -209.39429236 </i>
    <i name="e_wo_entrp">   -209.07198298 </i>
    <i name="e_0_energy">   -209.23313767 </i>
   </energy>
  </scstep>
  <scstep>
   <time name="dav">   31.67   31.75</time>
   <time name="total">   32.17   32.25</time>
   <energy>
    <i name="e_fr_energy">   -237.10261277 </i>
    <i name="e_wo_entrp">   -236.80285226 </i>
    <i name="e_0_energy">   -236.95273251 </i>
   </energy>
  </scstep>
  <scstep>
   <time name="dav">   33.25   33.33</time>
   <time name="total">   33.75   33.84</time>
   <energy>
    <i name="e_fr_energy">   -196.37090520 </i>
    <i name="e_wo_entrp">   -196.08521823 </i>
    <i name="e_0_energy">   -196.22806172 </i>
   </energy>
  </scstep>
  <scstep>
   <time name="dav">   30.30   30.38</time>
   <time name="total">   30.82   30.90</time>
   <energy>
    <i name="e_fr_energy">   -189.11973282 </i>
    <i name="e_wo_entrp">   -188.81268132 </i>
    <i name="e_0_energy">   -188.96620707 </i>
   </energy>
  </scstep>
  <scstep>
   <time name="dav">   33.26   33.34</time>
   <time name="total">   33.78   33.87</time>
   <energy>
    <i name="e_fr_energy">   -187.44461265 </i>
    <i name="e_wo_entrp">   -187.13203535 </i>
    <i name="e_0_energy">   -187.28832400 </i>
   </energy>
  </scstep>
  <scstep>
   <time name="dav">   33.16   33.24</time>
   <time name="total">   33.69   33.78</time>
   <energy>
    <i name="e_fr_energy">   -186.96954897 </i>
    <i name="e_wo_entrp">   -186.61402119 </i>
    <i name="e_0_energy">   -186.79178508 </i>
   </energy>
  </scstep>
  <scstep>
   <time name="dav">   31.76   31.84</time>
   <time name="total">   32.29   32.38</time>
   <energy>
    <i name="e_fr_energy">   -186.97620925 </i>
    <i name="e_wo_entrp">   -186.63735208 </i>
    <i name="e_0_energy">   -186.80678066 </i>
   </energy>
  </scstep>
  <scstep>
   <time name="dav">   32.73   32.81</time>
   <time name="total">   33.26   33.35</time>
   <energy>
    <i name="e_fr_energy">   -186.92137339 </i>
    <i name="e_wo_entrp">   -186.58214174 </i>
    <i name="e_0_energy">   -186.75175757 </i>
   </energy>
  </scstep>
  <scstep>
   <time name="dav">   32.34   32.42</time>
   <time name="total">   32.88   32.96</time>
   <energy>
    <i name="e_fr_energy">   -186.86188521 </i>
    <i name="e_wo_entrp">   -186.51928704 </i>
    <i name="e_0_energy">   -186.69058613 </i>
   </energy>
  </scstep>
  <scstep>
   <time name="dav">   32.12   32.19</time>
   <time name="total">   32.65   32.73</time>
   <energy>
    <i name="e_fr_energy">   -186.84686879 </i>
    <i name="e_wo_entrp">   -186.49763422 </i>
    <i name="e_0_energy">   -186.67225150 </i>
   </energy>
  </scstep>
  <scstep>
   <time name="dav">   30.25   30.33</time>
   <time name="total">   30.79   30.87</time>
   <energy>
    <i name="e_fr_energy">   -186.83816252 </i>
    <i name="e_wo_entrp">   -186.48950954 </i>
    <i name="e_0_energy">   -186.66383603 </i>
   </energy>
  </scstep>
  <scstep>
   <time name="dav">   32.81   32.89</time>
   <time name="total">   33.34   33.43</time>
   <energy>
    <i name="e_fr_energy">   -186.83698919 </i>
    <i name="e_wo_entrp">   -186.48915193 </i>
    <i name="e_0_energy">   -186.66307056 </i>
   </energy>
  </scstep>
  <scstep>
   <time name="dav">   30.58   30.65</time>
   <time name="total">   31.11   31.19</time>
   <energy>
    <i name="e_fr_energy">   -186.83475380 </i>
    <i name="e_wo_entrp">   -186.48933056 </i>
    <i name="e_0_energy">   -186.66204218 </i>
   </energy>
  </scstep>
  <scstep>
   <time name="dav">   31.45   31.53</time>
   <time name="total">   31.99   32.07</time>
   <energy>
    <i name="e_fr_energy">   -186.83369371 </i>
    <i name="e_wo_entrp">   -186.48701113 </i>
    <i name="e_0_energy">   -186.66035242 </i>
   </energy>
  </scstep>
  <scstep>
   <time name="dav">   26.91   26.97</time>
   <time name="total">   27.44   27.52</time>
   <energy>
    <i name="e_fr_energy">   -186.83423976 </i>
    <i name="e_wo_entrp">   -186.48780946 </i>
    <i name="e_0_energy">   -186.66102461 </i>
   </energy>
  </scstep>
  <scstep>
   <time name="dav">   24.64   24.70</time>
   <time name="total">   25.17   25.24</time>
   <energy>
    <i name="e_fr_energy">   -186.83463734 </i>
    <i name="e_wo_entrp">   -186.48840098 </i>
    <i name="e_0_energy">   -186.66151916 </i>
   </energy>
  </scstep>
  <scstep>
   <time name="dav">   21.25   21.30</time>
   <time name="total">   21.78   21.85</time>
   <energy>
    <i name="e_fr_energy">   -186.83550662 </i>
    <i name="e_wo_entrp">   -186.48910338 </i>
    <i name="e_0_energy">   -186.66230500 </i>
   </energy>
  </scstep>
  <scstep>
   <time name="dav">   18.51   18.56</time>
   <time name="total">   19.05   19.10</time>
   <energy>
    <i name="e_fr_energy">   -186.83623461 </i>
    <i name="e_wo_entrp">   -186.48975025 </i>
    <i name="e_0_energy">   -186.66299243 </i>
   </energy>
  </scstep>
  <scstep>
   <time name="dav">   20.65   20.70</time>
   <time name="total">   21.18   21.24</time>
   <energy>
    <i name="e_fr_energy">   -186.83745833 </i>
    <i name="e_wo_entrp">   -186.49108705 </i>
    <i name="e_0_energy">   -186.66427269 </i>
   </energy>
  </scstep>
  <scstep>
   <time name="dav">   19.21   19.25</time>
   <time name="total">   19.75   19.80</time>
   <energy>
    <i name="e_fr_energy">   -186.83801512 </i>
    <i name="e_wo_entrp">   -186.49163629 </i>
    <i name="e_0_energy">   -186.66482570 </i>
   </energy>
  </scstep>
  <scstep>
   <time name="dav">   16.69   16.73</time>
   <time name="total">   17.23   17.28</time>
   <energy>
    <i name="e_fr_energy">   -186.83844522 </i>
    <i name="e_wo_entrp">   -186.49201039 </i>
    <i name="e_0_energy">   -186.66522781 </i>
   </energy>
  </scstep>
  <scstep>
   <time name="dav">   19.43   19.48</time>
   <time name="total">   19.97   20.02</time>
   <energy>
    <i name="e_fr_energy">   -186.83864253 </i>
    <i name="e_wo_entrp">   -186.49222934 </i>
    <i name="e_0_energy">   -186.66543594 </i>
   </energy>
  </scstep>
  <scstep>
   <time name="dav">   19.49   19.54</time>
   <time name="total">   20.03   20.10</time>
   <energy>
    <i name="e_fr_energy">   -186.83874303 </i>
    <i name="e_wo_entrp">   -186.49233878 </i>
    <i name="e_0_energy">   -186.66554090 </i>
   </energy>
  </scstep>
  <scstep>
   <time name="dav">   20.42   20.47</time>
   <time name="total">   20.46   20.51</time>
   <energy>
    <i name="alphaZ">     81.65567618 </i>
    <i name="ewald">  41890.23011081 </i>
    <i name="hartreedc"> -47832.77653421 </i>
    <i name="XCdc">   -231.61215231 </i>
    <i name="pawpsdc">   4191.98262290 </i>
    <i name="pawaedc">  -3609.97971491 </i>
    <i name="eentropy">     -0.34640399 </i>
    <i name="bandstr">  -1437.43492011 </i>
    <i name="atom">   6761.44252427 </i>
    <i name="e_fr_energy">   -186.83879136 </i>
    <i name="e_wo_entrp">   -186.49238737 </i>
    <i name="e_0_energy">   -186.66558937 </i>
   </energy>
  </scstep>
  <structure>
   <crystal>
    <varray name="basis" >
     <v>       8.66999996       5.03999989       0.00000000 </v>
     <v>      -8.66999982       5.04000013       0.00000000 </v>
     <v>       0.00000000       0.00000000      30.00000000 </v>
    </varray>
    <i name="volume">   2621.80797419 </i>
    <varray name="rec_basis" >
     <v>       0.05767013       0.09920635       0.00000000 </v>
     <v>      -0.05767013       0.09920635       0.00000000 </v>
     <v>       0.00000000       0.00000000       0.03333333 </v>
    </varray>
   </crystal>
   <varray name="positions" >
    <v>       0.33333334       0.33333334       0.00000000 </v>
    <v>       0.66666669       0.66666669       0.00000000 </v>
    <v>       1.00000000       0.33333334       0.00000000 </v>
    <v>       0.33333334       0.66666669       0.00000000 </v>
    <v>       0.66666669       0.33333334       0.00000000 </v>
    <v>       0.00000000       0.00000000       0.00000000 </v>
    <v>       0.00000000       0.66666669       0.00000000 </v>
    <v>       0.33333334       0.00000000       0.00000000 </v>
    <v>       0.66666669       0.00000000       0.00000000 </v>
    <v>       0.11068511       0.22244981       0.95539999 </v>
    <v>       0.22244981       0.11068511       0.04460000 </v>
    <v>       0.11068511       0.55578315       0.95539999 </v>
    <v>       0.22244981       0.44401845       0.04460000 </v>
    <v>       0.11068511       0.88911647       0.95539999 </v>
    <v>       0.22244981       0.77735180       0.04460000 </v>
    <v>       0.44401845       0.22244981       0.95539999 </v>
    <v>       0.55578315       0.11068511       0.04460000 </v>
    <v>       0.44401845       0.55578315       0.95539999 </v>
    <v>       0.55578315       0.44401845       0.04460000 </v>
    <v>       0.44401845       0.88911647       0.95539999 </v>
    <v>       0.55578315       0.77735180       0.04460000 </v>
    <v>       0.77735180       0.22244981       0.95539999 </v>
    <v>       0.88911647       0.11068511       0.04460000 </v>
    <v>       0.77735180       0.55578315       0.95539999 </v>
    <v>       0.88911647       0.44401845       0.04460000 </v>
    <v>       0.77735180       0.88911647       0.95539999 </v>
    <v>       0.88911647       0.77735180       0.04460000 </v>
   </varray>
  </structure>
  <varray name="forces" >
   <v>      -0.09451900       0.05808470       0.00419159 </v>
   <v>      -0.00244022      -0.10242940       0.10465916 </v>
   <v>       0.09473616       0.03801059      -0.10710083 </v>
   <v>       0.04468092      -0.01639551      -0.00919264 </v>
   <v>      -0.03680768      -0.01542651       0.04722140 </v>
   <v>      -0.00738409       0.03205595      -0.03803084 </v>
   <v>      -0.00467875      -0.06294308       0.13094831 </v>
   <v>      -0.06792376       0.01286450       0.00362926 </v>
   <v>       0.07131378       0.03928364      -0.13668977 </v>
   <v>      -0.34614541       0.66115629      -1.43483688 </v>
   <v>      -0.35708362       0.69465283       2.16260821 </v>
   <v>       0.39685798      -0.72012330      -2.16646772 </v>
   <v>       0.32304822      -0.66261539       1.41931662 </v>
   <v>       0.27246796       0.02935168      -2.89230157 </v>
   <v>      -0.28890681      -0.00492927       2.90946935 </v>
   <v>      -0.65270124      -0.15482006      -2.11680197 </v>
   <v>      -0.07903408      -0.14412047       2.89609202 </v>
   <v>       0.89137466      -0.00522011      -1.46073939 </v>
   <v>      -0.89839876       0.02042206       1.47154366 </v>
   <v>       0.05409404       0.15674377      -2.91470150 </v>
   <v>       0.69528515       0.13728245       2.12686285 </v>
   <v>       0.62927507       0.55715480      -2.17578558 </v>
   <v>      -0.60602345       0.55521776       2.14545867 </v>
   <v>      -0.65972760       0.14383615      -2.10268648 </v>
   <v>       0.64279828       0.16626266       2.09832793 </v>
   <v>       0.34741078      -0.69186447      -2.14567805 </v>
   <v>      -0.36156852      -0.72149228       2.18068420 </v>
  </varray>
  <varray name="stress" >
   <v>       7.31072507       0.00347088      -1.52010047 </v>
   <v>       0.00347103       4.41556576       0.05273457 </v>
   <v>      -1.52010071       0.05273461      30.32395236 </v>
  </varray>
  <energy>
   <i name="e_fr_energy">   -186.83879136 </i>
   <i name="e_wo_entrp">   -186.66558937 </i>
   <i name="e_0_energy">     -0.34640399 </i>
  </energy>
  <time name="totalsc">  816.16  818.36</time>
 </calculation>
 <calculation>
  <scstep>
   <time name="dav">   21.97   22.02</time>
   <time name="total">   22.51   22.57</time>
   <energy>
    <i name="alphaZ">     78.92776735 </i>
    <i name="ewald">  39382.56374426 </i>
    <i name="hartreedc"> -45339.96076865 </i>
    <i name="XCdc">   -239.06667410 </i>
    <i name="pawpsdc">   4191.98225491 </i>
    <i name="pawaedc">  -3609.97942169 </i>
    <i name="eentropy">     -0.29775382 </i>
    <i name="bandstr">  -1413.04635788 </i>
    <i name="atom">   6761.44252427 </i>
    <i name="e_fr_energy">   -187.43468536 </i>
    <i name="e_wo_entrp">   -187.13693154 </i>
    <i name="e_0_energy">   -187.28580845 </i>
   </energy>
  </scstep>
  <scstep>
   <time name="dav">   30.71   30.78</time>
   <time name="total">   31.25   31.33</time>
   <energy>
    <i name="e_fr_energy">   -189.15728647 </i>
    <i name="e_wo_entrp">   -188.84433430 </i>
    <i name="e_0_energy">   -189.00081038 </i>
   </energy>
  </scstep>
  <scstep>
   <time name="dav">   30.91   30.98</time>
   <time name="total">   31.45   31.54</time>
   <energy>
    <i name="e_fr_energy">   -189.35468572 </i>
    <i name="e_wo_entrp">   -189.06531449 </i>
    <i name="e_0_energy">   -189.21000010 </i>
   </energy>
  </scstep>
  <scstep>
   <time name="dav">   31.26   31.34</time>
   <time name="total">   31.81   31.89</time>
   <energy>
    <i name="e_fr_energy">   -188.72299509 </i>
    <i name="e_wo_entrp">   -188.42912945 </i>
    <i name="e_0_energy">   -188.57606227 </i>
   </energy>
  </scstep>
  <scstep>
   <time name="dav">   27.79   27.86</time>
   <time name="total">   28.33   28.41</time>
   <energy>
    <i name="e_fr_energy">   -188.70445592 </i>
    <i name="e_wo_entrp">   -188.40500407 </i>
    <i name="e_0_energy">   -188.55473000 </i>
   </energy>
  </scstep>
  <scstep>
   <time name="dav">   31.49   31.57</time>
   <time name="total">   32.03   32.12</time>
   <energy>
    <i name="e_fr_energy">   -188.75662648 </i>
    <i name="e_wo_entrp">   -188.45574816 </i>
    <i name="e_0_energy">   -188.60618732 </i>
   </energy>
  </scstep>
  <scstep>
   <time name="dav">   31.58   31.66</time>
   <time name="total">   32.13   32.22</time>
   <energy>
    <i name="e_fr_energy">   -188.62043383 </i>
    <i name="e_wo_entrp">   -188.32588220 </i>
    <i name="e_0_energy">   -188.47315801 </i>
   </energy>
  </scstep>
  <scstep>
   <time name="dav">   31.19   31.26</time>
   <time name="total">   31.73   31.82</time>
   <energy>
    <i name="e_fr_energy">   -188.61483484 </i>
    <i name="e_wo_entrp">   -188.31972468 </i>
    <i name="e_0_energy">   -188.46727976 </i>
   </energy>
  </scstep>
  <scstep>
   <time name="dav">   31.61   31.69</time>
   <time name="total">   32.16   32.24</time>
   <energy>
    <i name="e_fr_energy">   -188.60380309 </i>
    <i name="e_wo_entrp">   -188.30853437 </i>
    <i name="e_0_energy">   -188.45616873 </i>
   </energy>
  </scstep>
  <scstep>
   <time name="dav">   29.45   29.52</time>
   <time name="total">   30.00   30.08</time>
   <energy>
    <i name="e_fr_energy">   -188.60295624 </i>
    <i name="e_wo_entrp">   -188.30762168 </i>
    <i name="e_0_energy">   -188.45528896 </i>
   </energy>
  </scstep>
  <scstep>
   <time name="dav">   30.58   30.65</time>
   <time name="total">   31.12   31.21</time>
   <energy>
    <i name="e_fr_energy">   -188.60229520 </i>
    <i name="e_wo_entrp">   -188.30755127 </i>
    <i name="e_0_energy">   -188.45492323 </i>
   </energy>
  </scstep>
  <scstep>
   <time name="dav">   28.13   28.20</time>
   <time name="total">   28.68   28.75</time>
   <energy>
    <i name="e_fr_energy">   -188.60242447 </i>
    <i name="e_wo_entrp">   -188.30769049 </i>
    <i name="e_0_energy">   -188.45505748 </i>
   </energy>
  </scstep>
  <scstep>
   <time name="dav">   21.97   22.03</time>
   <time name="total">   22.01   22.07</time>
   <energy>
    <i name="alphaZ">     78.92776735 </i>
    <i name="ewald">  39382.56374426 </i>
    <i name="hartreedc"> -45350.76862099 </i>
    <i name="XCdc">   -237.98530669 </i>
    <i name="pawpsdc">   3950.07057025 </i>
    <i name="pawaedc">  -3364.56393852 </i>
    <i name="eentropy">     -0.29477232 </i>
    <i name="bandstr">  -1407.99437274 </i>
    <i name="atom">   6761.44252427 </i>
    <i name="e_fr_energy">   -188.60240513 </i>
    <i name="e_wo_entrp">   -188.30763281 </i>
    <i name="e_0_energy">   -188.45501897 </i>
   </energy>
  </scstep>
  <structure>
   <crystal>
    <varray name="basis" >
     <v>       8.85537750       5.10515695       0.00000000 </v>
     <v>      -8.85527506       5.10498122       0.00000000 </v>
     <v>       0.00000000       0.00000000      30.00000000 </v>
    </varray>
    <i name="volume">   2712.42314495 </i>
    <varray name="rec_basis" >
     <v>       0.05646222       0.09794130       0.00000000 </v>
     <v>      -0.05646417       0.09794243       0.00000000 </v>
     <v>       0.00000000       0.00000000       0.03333333 </v>
    </varray>
   </crystal>
   <varray name="positions" >
    <v>       0.33334837       0.33387430       0.00000674 </v>
    <v>       0.66616967       0.66618325       0.00016830 </v>
    <v>       1.00044549       0.33325169      -0.00017223 </v>
    <v>       0.33337918       0.66646391      -0.00001478 </v>
    <v>       0.66649045       0.33336192       0.00007594 </v>
    <v>       0.00013288       0.00017396      -0.00006116 </v>
    <v>      -0.00031426       0.66637846       0.00021058 </v>
    <v>       0.33320594       0.00025054       0.00000584 </v>
    <v>       0.66705310      -0.00001040      -0.00021981 </v>
    <v>       0.11288636       0.22657712       0.95309265 </v>
    <v>       0.22478094       0.11500317       0.04807766 </v>
    <v>       0.10834274       0.55123254       0.95191612 </v>
    <v>       0.22017732       0.43994842       0.04688239 </v>
    <v>       0.11158364       0.88849889       0.95074891 </v>
    <v>       0.22162243       0.77813199       0.04927868 </v>
    <v>       0.44146157       0.22352476       0.95199599 </v>
    <v>       0.55487351       0.11021524       0.04925717 </v>
    <v>       0.44647342       0.55327822       0.95305099 </v>
    <v>       0.55338140       0.44661568       0.04696637 </v>
    <v>       0.44491912       0.88971614       0.95071289 </v>
    <v>       0.55837458       0.77607443       0.04802018 </v>
    <v>       0.78176907       0.22336560       0.95190113 </v>
    <v>       0.89008767       0.11502842       0.04805009 </v>
    <v>       0.77620473       0.55830702       0.95201868 </v>
    <v>       0.89170056       0.44302582       0.04797430 </v>
    <v>       0.77500710       0.88483867       0.95194955 </v>
    <v>       0.88465748       0.77490469       0.04810673 </v>
   </varray>
  </structure>
  <varray name="forces" >
   <v>      -0.02216462       0.01559571       0.00131657 </v>
   <v>       0.01386745      -0.01784951       0.03248953 </v>
   <v>       0.02462936      -0.00546428      -0.03500204 </v>
   <v>      -0.23840212       0.13680132      -0.00164034 </v>
   <v>       0.10275458      -0.09376757       0.00741061 </v>
   <v>       0.13293850      -0.04710461      -0.00553812 </v>
   <v>      -0.01820581       0.11087235       0.03669999 </v>
   <v>       0.08502557      -0.05743607       0.00126572 </v>
   <v>      -0.09506047      -0.03502443      -0.03618196 </v>
   <v>      -0.01101843       0.05383588       0.02795898 </v>
   <v>       0.08878895       0.06640758      -0.02964721 </v>
   <v>      -0.10519595      -0.07353671       0.02490204 </v>
   <v>       0.01655174      -0.04225246      -0.06733595 </v>
   <v>       0.12953173      -0.00934098      -0.00671092 </v>
   <v>      -0.13049349      -0.00657767       0.05213354 </v>
   <v>      -0.00277869      -0.09795560       0.01209517 </v>
   <v>       0.09108843      -0.11529282      -0.00442847 </v>
   <v>       0.04478375      -0.00983228       0.08158330 </v>
   <v>      -0.05040960      -0.00040976      -0.04281163 </v>
   <v>      -0.08131032       0.12346340      -0.04507054 </v>
   <v>      -0.00139547       0.11006422      -0.00064357 </v>
   <v>       0.09606785      -0.03787714      -0.02069270 </v>
   <v>      -0.08494498      -0.03939471      -0.06590214 </v>
   <v>       0.01062198       0.10300603       0.05428344 </v>
   <v>      -0.00127744       0.11393307      -0.00872709 </v>
   <v>      -0.10147961      -0.07076872       0.02320794 </v>
   <v>       0.10748712      -0.07409423       0.01498586 </v>
  </varray>
  <varray name="stress" >
   <v>     -19.86559574       0.00745517       0.04673528 </v>
   <v>       0.00745532     -19.44302493       0.02657266 </v>
   <v>       0.04673520       0.02657277      -1.71831038 </v>
  </varray>
  <energy>
   <i name="e_fr_energy">   -188.60240513 </i>
   <i name="e_wo_entrp">   -188.45501897 </i>
   <i name="e_0_energy">     -0.29477232 </i>
  </energy>
  <time name="totalsc">  427.53  428.67</time>
 </calculation>
 <calculation>
  <scstep>
   <time name="dav">   24.49   24.55</time>
   <time name="total">   25.03   25.09</time>
   <energy>
    <i name="alphaZ">     82.35619872 </i>
    <i name="ewald">  41307.71814524 </i>
    <i name="hartreedc"> -47306.59166063 </i>
    <i name="XCdc">   -233.85906222 </i>
    <i name="pawpsdc">   3949.70467773 </i>
    <i name="pawaedc">  -3364.19464119 </i>
    <i name="eentropy">     -0.24439926 </i>
    <i name="bandstr">  -1386.83651052 </i>
    <i name="atom">   6761.44252427 </i>
    <i name="e_fr_energy">   -190.50472785 </i>
    <i name="e_wo_entrp">   -190.26032859 </i>
    <i name="e_0_energy">   -190.38252822 </i>
   </energy>
  </scstep>
  <scstep>
   <time name="dav">   28.22   28.28</time>
   <time name="total">   28.73   28.81</time>
   <energy>
    <i name="e_fr_energy">   -190.56939636 </i>
    <i name="e_wo_entrp">   -190.31657905 </i>
    <i name="e_0_energy">   -190.44298771 </i>
   </energy>
  </scstep>
  <scstep>
   <time name="dav">   30.75   30.83</time>
   <time name="total">   31.28   31.36</time>
   <energy>
    <i name="e_fr_energy">   -189.97065446 </i>
    <i name="e_wo_entrp">   -189.71797493 </i>
    <i name="e_0_energy">   -189.84431470 </i>
   </energy>
  </scstep>
  <scstep>
   <time name="dav">   31.54   31.62</time>
   <time name="total">   32.08   32.16</time>
   <energy>
    <i name="e_fr_energy">   -189.76924332 </i>
    <i name="e_wo_entrp">   -189.51753905 </i>
    <i name="e_0_energy">   -189.64339119 </i>
   </energy>
  </scstep>
  <scstep>
   <time name="dav">   30.48   30.56</time>
   <time name="total">   31.02   31.10</time>
   <energy>
    <i name="e_fr_energy">   -189.70797624 </i>
    <i name="e_wo_entrp">   -189.45984217 </i>
    <i name="e_0_energy">   -189.58390920 </i>
   </energy>
  </scstep>
  <scstep>
   <time name="dav">   30.48   30.56</time>
   <time name="total">   31.02   31.10</time>
   <energy>
    <i name="e_fr_energy">   -189.67200818 </i>
    <i name="e_wo_entrp">   -189.42257835 </i>
    <i name="e_0_energy">   -189.54729327 </i>
   </energy>
  </scstep>
  <scstep>
   <time name="dav">   30.20   30.27</time>
   <time name="total">   30.73   30.82</time>
   <energy>
    <i name="e_fr_energy">   -189.66575935 </i>
    <i name="e_wo_entrp">   -189.41563125 </i>
    <i name="e_0_energy">   -189.54069530 </i>
   </energy>
  </scstep>
  <scstep>
   <time name="dav">   27.82   27.89</time>
   <time name="total">   28.35   28.43</time>
   <energy>
    <i name="e_fr_energy">   -189.66587203 </i>
    <i name="e_wo_entrp">   -189.41602002 </i>
    <i name="e_0_energy">   -189.54094602 </i>
   </energy>
  </scstep>
  <scstep>
   <time name="dav">   27.09   27.15</time>
   <time name="total">   27.62   27.70</time>
   <energy>
    <i name="e_fr_energy">   -189.66623363 </i>
    <i name="e_wo_entrp">   -189.41657222 </i>
    <i name="e_0_energy">   -189.54140292 </i>
   </energy>
  </scstep>
  <scstep>
   <time name="dav">   26.84   26.90</time>
   <time name="total">   27.37   27.44</time>
   <energy>
    <i name="e_fr_energy">   -189.66640788 </i>
    <i name="e_wo_entrp">   -189.41669374 </i>
    <i name="e_0_energy">   -189.54155081 </i>
   </energy>
  </scstep>
  <scstep>
   <time name="dav">   24.61   24.67</time>
   <time name="total">   25.14   25.21</time>
   <energy>
    <i name="e_fr_energy">   -189.66593074 </i>
    <i name="e_wo_entrp">   -189.41609636 </i>
    <i name="e_0_energy">   -189.54101355 </i>
   </energy>
  </scstep>
  <scstep>
   <time name="dav">   18.07   18.11</time>
   <time name="total">   18.11   18.16</time>
   <energy>
    <i name="alphaZ">     82.35619872 </i>
    <i name="ewald">  41307.71814524 </i>
    <i name="hartreedc"> -47279.91804065 </i>
    <i name="XCdc">   -235.25679162 </i>
    <i name="pawpsdc">   4038.27272082 </i>
    <i name="pawaedc">  -3453.96087248 </i>
    <i name="eentropy">     -0.24979655 </i>
    <i name="bandstr">  -1410.07003723 </i>
    <i name="atom">   6761.44252427 </i>
    <i name="e_fr_energy">   -189.66594948 </i>
    <i name="e_wo_entrp">   -189.41615293 </i>
    <i name="e_0_energy">   -189.54105121 </i>
   </energy>
  </scstep>
  <structure>
   <crystal>
    <varray name="basis" >
     <v>       8.66713503       4.99899060       0.00000000 </v>
     <v>      -8.66695330       4.99867721       0.00000000 </v>
     <v>       0.00000000       0.00000000      30.00000000 </v>
    </varray>
    <i name="volume">   2599.50685259 </i>
    <varray name="rec_basis" >
     <v>       0.05768799       0.10002228       0.00000000 </v>
     <v>      -0.05769160       0.10002438       0.00000000 </v>
     <v>       0.00000000       0.00000000       0.03333333 </v>
    </varray>
   </crystal>
   <varray name="positions" >
    <v>       0.33335308       0.33392174       0.00000749 </v>
    <v>       0.66615320       0.66614004       0.00018679 </v>
    <v>       1.00046009       0.33321882      -0.00019214 </v>
    <v>       0.33337812       0.66692239      -0.00001572 </v>
    <v>       0.66643272       0.33310612       0.00008015 </v>
    <v>       0.00018225      -0.00003292      -0.00006431 </v>
    <v>      -0.00014645       0.66658137       0.00023146 </v>
    <v>       0.33319186       0.00007257       0.00000656 </v>
    <v>       0.66690293       0.00002267      -0.00024040 </v>
    <v>       0.11296574       0.22667774       0.95310855 </v>
    <v>       0.22497753       0.11502861       0.04806080 </v>
    <v>       0.10811841       0.55121098       0.95193029 </v>
    <v>       0.22012263       0.43986183       0.04684407 </v>
    <v>       0.11169286       0.88835843       0.95074509 </v>
    <v>       0.22148567       0.77824676       0.04930835 </v>
    <v>       0.44129513       0.22336368       0.95200287 </v>
    <v>       0.55476855       0.10993470       0.04925465 </v>
    <v>       0.44650014       0.55321862       0.95309741 </v>
    <v>       0.55333213       0.44666358       0.04694201 </v>
    <v>       0.44504717       0.89000092       0.95068725 </v>
    <v>       0.55855724       0.77625979       0.04801982 </v>
    <v>       0.78179834       0.22320968       0.95188936 </v>
    <v>       0.88993994       0.11504443       0.04801259 </v>
    <v>       0.77638717       0.55846899       0.95204957 </v>
    <v>       0.89188981       0.44321752       0.04796933 </v>
    <v>       0.77479099       0.88481816       0.95196275 </v>
    <v>       0.88463720       0.77467722       0.04811526 </v>
   </varray>
  </structure>
  <varray name="forces" >
   <v>       0.02298426      -0.00991422       0.00018645 </v>
   <v>       0.01933072       0.03208314       0.00587696 </v>
   <v>      -0.02043386      -0.03850165      -0.00749699 </v>
   <v>      -0.32664847       0.18794543       0.00081394 </v>
   <v>       0.15028221      -0.12098422      -0.00635104 </v>
   <v>       0.17778799      -0.07621659       0.00560248 </v>
   <v>      -0.02335155       0.17845346       0.00035935 </v>
   <v>       0.14861520      -0.09175784       0.00022169 </v>
   <v>      -0.16103588      -0.06733700       0.00119405 </v>
   <v>      -0.04125649       0.12315812      -0.42475626 </v>
   <v>      -0.02961515       0.13558994       0.46858743 </v>
   <v>       0.00472377      -0.13142441      -0.47488515 </v>
   <v>       0.04950754      -0.09937772       0.37302118 </v>
   <v>       0.06413067      -0.01316775      -0.56504174 </v>
   <v>      -0.06121557       0.00021984       0.62393873 </v>
   <v>      -0.11967357      -0.03074809      -0.48319427 </v>
   <v>       0.06149828      -0.05545387       0.55262927 </v>
   <v>       0.11407683      -0.00740831      -0.35918823 </v>
   <v>      -0.12804262      -0.00652784       0.41002623 </v>
   <v>      -0.04885142       0.06275958      -0.61632277 </v>
   <v>       0.10310640       0.04889736       0.49397535 </v>
   <v>       0.09506999       0.09566180      -0.53166538 </v>
   <v>      -0.08011366       0.08751306       0.41912862 </v>
   <v>      -0.09880914       0.03298236      -0.43043175 </v>
   <v>       0.12024055       0.04218036       0.49003229 </v>
   <v>       0.02225256      -0.13958112      -0.47430067 </v>
   <v>      -0.01455958      -0.13904380       0.52804024 </v>
  </varray>
  <varray name="stress" >
   <v>     -10.16581919      -0.00701522       0.02951000 </v>
   <v>      -0.00701502      -9.85500236       0.02290846 </v>
   <v>       0.02950996       0.02290849       6.54904335 </v>
  </varray>
  <energy>
   <i name="e_fr_energy">   -189.66594948 </i>
   <i name="e_wo_entrp">   -189.54105121 </i>
   <i name="e_0_energy">     -0.24979655 </i>
  </energy>
  <time name="totalsc">  378.80  379.81</time>
 </calculation>
 <calculation>
  <scstep>
   <time name="dav">   21.98   22.04</time>
   <time name="total">   22.50   22.56</time>
   <energy>
    <i name="alphaZ">     85.86304370 </i>
    <i name="ewald">  42851.46249588 </i>
    <i name="hartreedc"> -48868.63094471 </i>
    <i name="XCdc">   -232.94868393 </i>
    <i name="pawpsdc">   4038.32839998 </i>
    <i name="pawaedc">  -3454.01320658 </i>
    <i name="eentropy">     -0.19683002 </i>
    <i name="bandstr">  -1372.48264388 </i>
    <i name="atom">   6761.44252427 </i>
    <i name="e_fr_energy">   -191.17584531 </i>
    <i name="e_wo_entrp">   -190.97901529 </i>
    <i name="e_0_energy">   -191.07743030 </i>
   </energy>
  </scstep>
  <scstep>
   <time name="dav">   33.19   33.27</time>
   <time name="total">   33.70   33.79</time>
   <energy>
    <i name="e_fr_energy">   -191.12933805 </i>
    <i name="e_wo_entrp">   -190.91808659 </i>
    <i name="e_0_energy">   -191.02371232 </i>
   </energy>
  </scstep>
  <scstep>
   <time name="dav">   30.51   30.58</time>
   <time name="total">   31.02   31.10</time>
   <energy>
    <i name="e_fr_energy">   -191.02495855 </i>
    <i name="e_wo_entrp">   -190.81315584 </i>
    <i name="e_0_energy">   -190.91905719 </i>
   </energy>
  </scstep>
  <scstep>
   <time name="dav">   32.66   32.74</time>
   <time name="total">   33.18   33.26</time>
   <energy>
    <i name="e_fr_energy">   -190.66086068 </i>
    <i name="e_wo_entrp">   -190.45553599 </i>
    <i name="e_0_energy">   -190.55819833 </i>
   </energy>
  </scstep>
  <scstep>
   <time name="dav">   30.49   30.56</time>
   <time name="total">   31.00   31.09</time>
   <energy>
    <i name="e_fr_energy">   -190.60598678 </i>
    <i name="e_wo_entrp">   -190.40135915 </i>
    <i name="e_0_energy">   -190.50367296 </i>
   </energy>
  </scstep>
  <scstep>
   <time name="dav">   30.84   30.91</time>
   <time name="total">   31.35   31.43</time>
   <energy>
    <i name="e_fr_energy">   -190.56562257 </i>
    <i name="e_wo_entrp">   -190.35923689 </i>
    <i name="e_0_energy">   -190.46242973 </i>
   </energy>
  </scstep>
  <scstep>
   <time name="dav">   30.50   30.58</time>
   <time name="total">   31.02   31.10</time>
   <energy>
    <i name="e_fr_energy">   -190.56112923 </i>
    <i name="e_wo_entrp">   -190.35490010 </i>
    <i name="e_0_energy">   -190.45801467 </i>
   </energy>
  </scstep>
  <scstep>
   <time name="dav">   27.09   27.16</time>
   <time name="total">   27.61   27.68</time>
   <energy>
    <i name="e_fr_energy">   -190.55741450 </i>
    <i name="e_wo_entrp">   -190.35179335 </i>
    <i name="e_0_energy">   -190.45460393 </i>
   </energy>
  </scstep>
  <scstep>
   <time name="dav">   28.97   29.04</time>
   <time name="total">   29.49   29.57</time>
   <energy>
    <i name="e_fr_energy">   -190.55818811 </i>
    <i name="e_wo_entrp">   -190.35270318 </i>
    <i name="e_0_energy">   -190.45544565 </i>
   </energy>
  </scstep>
  <scstep>
   <time name="dav">   28.25   28.32</time>
   <time name="total">   28.76   28.84</time>
   <energy>
    <i name="e_fr_energy">   -190.55767575 </i>
    <i name="e_wo_entrp">   -190.35226792 </i>
    <i name="e_0_energy">   -190.45497184 </i>
   </energy>
  </scstep>
  <scstep>
   <time name="dav">   23.18   23.24</time>
   <time name="total">   23.70   23.76</time>
   <energy>
    <i name="e_fr_energy">   -190.55754289 </i>
    <i name="e_wo_entrp">   -190.35209669 </i>
    <i name="e_0_energy">   -190.45481979 </i>
   </energy>
  </scstep>
  <scstep>
   <time name="dav">   20.59   20.64</time>
   <time name="total">   20.64   20.91</time>
   <energy>
    <i name="alphaZ">     85.86304370 </i>
    <i name="ewald">  42851.46249588 </i>
    <i name="hartreedc"> -48839.85406331 </i>
    <i name="XCdc">   -234.31216254 </i>
    <i name="pawpsdc">   4061.96835225 </i>
    <i name="pawaedc">  -3477.81392308 </i>
    <i name="eentropy">     -0.20543865 </i>
    <i name="bandstr">  -1399.10836584 </i>
    <i name="atom">   6761.44252427 </i>
    <i name="e_fr_energy">   -190.55753734 </i>
    <i name="e_wo_entrp">   -190.35209868 </i>
    <i name="e_0_energy">   -190.45481801 </i>
   </energy>
  </scstep>
  <structure>
   <crystal>
    <varray name="basis" >
     <v>       8.48400642       4.89774541       0.00000000 </v>
     <v>      -8.48432335       4.89829630       0.00000000 </v>
     <v>       0.00000000       0.00000000      30.00000000 </v>
    </varray>
    <i name="volume">   2493.33699017 </i>
    <varray name="rec_basis" >
     <v>       0.05893663       0.10208395       0.00000000 </v>
     <v>      -0.05893001       0.10208014       0.00000000 </v>
     <v>       0.00000000       0.00000000       0.03333333 </v>
    </varray>
   </crystal>
   <varray name="positions" >
    <v>       0.33337538       0.33364713       0.00000691 </v>
    <v>       0.66655763       0.66638866       0.00017629 </v>
    <v>       0.99999650       0.33303339      -0.00018425 </v>
    <v>       0.33337576       0.66954138      -0.00001193 </v>
    <v>       0.66621785       0.33166522       0.00005524 </v>
    <v>       0.00033950      -0.00129322      -0.00004319 </v>
    <v>       0.00105136       0.66796324       0.00020122 </v>
    <v>       0.33315986      -0.00121976       0.00000613 </v>
    <v>       0.66572060       0.00019752      -0.00020606 </v>
    <v>       0.11371961       0.22781785       0.95184131 </v>
    <v>       0.22572397       0.11633158       0.04945778 </v>
    <v>       0.10732401       0.55006489       0.95051891 </v>
    <v>       0.21958245       0.43886778       0.04799343 </v>
    <v>       0.11173845       0.88812829       0.94909675 </v>
    <v>       0.22138238       0.77838688       0.05109038 </v>
    <v>       0.44066812       0.22394125       0.95057808 </v>
    <v>       0.55475026       0.10955632       0.05087616 </v>
    <v>       0.44697296       0.55266487       0.95197640 </v>
    <v>       0.55269992       0.44718320       0.04817879 </v>
    <v>       0.44515912       0.89037305       0.94892148 </v>
    <v>       0.55923544       0.77588922       0.04946640 </v>
    <v>       0.78307642       0.22380191       0.95035064 </v>
    <v>       0.89052412       0.11619507       0.04929570 </v>
    <v>       0.77590296       0.55901666       0.95074328 </v>
    <v>       0.89258595       0.44269162       0.04941126 </v>
    <v>       0.77400144       0.88351004       0.95055453 </v>
    <v>       0.88337246       0.77387041       0.04964824 </v>
   </varray>
  </structure>
  <varray name="forces" >
   <v>       0.05698797      -0.03402449      -0.00013809 </v>
   <v>       0.02662213       0.09633571      -0.05237545 </v>
   <v>      -0.06993410      -0.07935343       0.05204389 </v>
   <v>      -0.38986519       0.22224161       0.00051240 </v>
   <v>       0.19177914      -0.13967157      -0.01672790 </v>
   <v>       0.21722924      -0.09884571       0.01626166 </v>
   <v>      -0.02699993       0.26925903      -0.03490121 </v>
   <v>       0.23608148      -0.14719644       0.00043637 </v>
   <v>      -0.23773774      -0.10685065       0.03442887 </v>
   <v>       0.01482661       0.02967592      -0.32361888 </v>
   <v>      -0.01853469       0.05273954       0.30553447 </v>
   <v>       0.01092051      -0.02531848      -0.32099683 </v>
   <v>      -0.01758855       0.01460282       0.23948588 </v>
   <v>       0.01738108      -0.00006489      -0.40541305 </v>
   <v>      -0.03502255       0.00042132       0.50200834 </v>
   <v>      -0.04282384      -0.01109484      -0.31239270 </v>
   <v>       0.00848661      -0.01524895       0.40360504 </v>
   <v>      -0.01460728      -0.00041888      -0.23652405 </v>
   <v>      -0.02488545      -0.01621722       0.32226605 </v>
   <v>      -0.01754261       0.03111111      -0.50086606 </v>
   <v>       0.01698158       0.00489820       0.32975851 </v>
   <v>       0.05500693       0.03902319      -0.40839413 </v>
   <v>       0.00288801       0.03015683       0.22412817 </v>
   <v>      -0.01068142      -0.01502298      -0.22885335 </v>
   <v>       0.04080973       0.01360865       0.29617818 </v>
   <v>       0.01626822      -0.05053783      -0.29340624 </v>
   <v>      -0.00604591      -0.06420756       0.40796009 </v>
  </varray>
  <varray name="stress" >
   <v>      -5.88044049      -0.00425709      -0.05889767 </v>
   <v>      -0.00425728      -5.89053081       0.02188588 </v>
   <v>      -0.05889788       0.02188583       4.52375068 </v>
  </varray>
  <energy>
   <i name="e_fr_energy">   -190.55753734 </i>
   <i name="e_wo_entrp">   -190.45481801 </i>
   <i name="e_0_energy">     -0.20543865 </i>
  </energy>
  <time name="totalsc">  386.43  387.67</time>
 </calculation>
 <calculation>
  <scstep>
   <time name="dav">   22.02   22.07</time>
   <time name="total">   22.53   22.59</time>
   <energy>
    <i name="alphaZ">     90.47051499 </i>
    <i name="ewald">  44794.11174710 </i>
    <i name="hartreedc"> -50840.96848797 </i>
    <i name="XCdc">   -231.68251315 </i>
    <i name="pawpsdc">   4061.85290006 </i>
    <i name="pawaedc">  -3477.69399997 </i>
    <i name="eentropy">     -0.15983098 </i>
    <i name="bandstr">  -1349.35537453 </i>
    <i name="atom">   6761.44252427 </i>
    <i name="e_fr_energy">   -191.98252019 </i>
    <i name="e_wo_entrp">   -191.82268921 </i>
    <i name="e_0_energy">   -191.90260470 </i>
   </energy>
  </scstep>
  <scstep>
   <time name="dav">   32.23   32.31</time>
   <time name="total">   32.73   32.82</time>
   <energy>
    <i name="e_fr_energy">   -191.66924554 </i>
    <i name="e_wo_entrp">   -191.48848205 </i>
    <i name="e_0_energy">   -191.57886380 </i>
   </energy>
  </scstep>
  <scstep>
   <time name="dav">   30.34   30.41</time>
   <time name="total">   30.85   30.93</time>
   <energy>
    <i name="e_fr_energy">   -191.98687588 </i>
    <i name="e_wo_entrp">   -191.81031718 </i>
    <i name="e_0_energy">   -191.89859653 </i>
   </energy>
  </scstep>
  <scstep>
   <time name="dav">   30.54   30.61</time>
   <time name="total">   31.04   31.13</time>
   <energy>
    <i name="e_fr_energy">   -191.34497108 </i>
    <i name="e_wo_entrp">   -191.17178630 </i>
    <i name="e_0_energy">   -191.25837869 </i>
   </energy>
  </scstep>
  <scstep>
   <time name="dav">   30.34   30.41</time>
   <time name="total">   30.85   30.93</time>
   <energy>
    <i name="e_fr_energy">   -191.29653806 </i>
    <i name="e_wo_entrp">   -191.12737290 </i>
    <i name="e_0_energy">   -191.21195548 </i>
   </energy>
  </scstep>
  <scstep>
   <time name="dav">   30.16   30.23</time>
   <time name="total">   30.66   30.75</time>
   <energy>
    <i name="e_fr_energy">   -191.12382682 </i>
    <i name="e_wo_entrp">   -190.95276508 </i>
    <i name="e_0_energy">   -191.03829595 </i>
   </energy>
  </scstep>
  <scstep>
   <time name="dav">   30.61   30.68</time>
   <time name="total">   31.12   31.20</time>
   <energy>
    <i name="e_fr_energy">   -191.12223921 </i>
    <i name="e_wo_entrp">   -190.95104059 </i>
    <i name="e_0_energy">   -191.03663990 </i>
   </energy>
  </scstep>
  <scstep>
   <time name="dav">   27.58   27.64</time>
   <time name="total">   28.08   28.16</time>
   <energy>
    <i name="e_fr_energy">   -191.11896613 </i>
    <i name="e_wo_entrp">   -190.94857158 </i>
    <i name="e_0_energy">   -191.03376886 </i>
   </energy>
  </scstep>
  <scstep>
   <time name="dav">   28.66   28.73</time>
   <time name="total">   29.17   29.25</time>
   <energy>
    <i name="e_fr_energy">   -191.11978514 </i>
    <i name="e_wo_entrp">   -190.94961929 </i>
    <i name="e_0_energy">   -191.03470222 </i>
   </energy>
  </scstep>
  <scstep>
   <time name="dav">   30.52   30.59</time>
   <time name="total">   31.03   31.11</time>
   <energy>
    <i name="e_fr_energy">   -191.11939916 </i>
    <i name="e_wo_entrp">   -190.94930011 </i>
    <i name="e_0_energy">   -191.03434963 </i>
   </energy>
  </scstep>
  <scstep>
   <time name="dav">   25.51   25.57</time>
   <time name="total">   26.02   26.09</time>
   <energy>
    <i name="e_fr_energy">   -191.11915928 </i>
    <i name="e_wo_entrp">   -190.94907286 </i>
    <i name="e_0_energy">   -191.03411607 </i>
   </energy>
  </scstep>
  <scstep>
   <time name="dav">   20.24   20.29</time>
   <time name="total">   20.28   20.33</time>
   <energy>
    <i name="alphaZ">     90.47051499 </i>
    <i name="ewald">  44794.11174710 </i>
    <i name="hartreedc"> -50804.56201294 </i>
    <i name="XCdc">   -233.36404128 </i>
    <i name="pawpsdc">   4081.22079893 </i>
    <i name="pawaedc">  -3497.09068185 </i>
    <i name="eentropy">     -0.17014496 </i>
    <i name="bandstr">  -1383.17781590 </i>
    <i name="atom">   6761.44252427 </i>
    <i name="e_fr_energy">   -191.11911164 </i>
    <i name="e_wo_entrp">   -190.94896668 </i>
    <i name="e_0_energy">   -191.03403916 </i>
   </energy>
  </scstep>
  <structure>
   <crystal>
    <varray name="basis" >
     <v>       8.26498192       4.77079834       0.00000000 </v>
     <v>      -8.26589409       4.77238074       0.00000000 </v>
     <v>       0.00000000       0.00000000      30.00000000 </v>
    </varray>
    <i name="volume">   2366.35662977 </i>
    <varray name="rec_basis" >
     <v>       0.06050289       0.10479267       0.00000000 </v>
     <v>      -0.06048283       0.10478110       0.00000000 </v>
     <v>       0.00000000       0.00000000       0.03333333 </v>
    </varray>
   </crystal>
   <varray name="positions" >
    <v>       0.33337062       0.33272238       0.00000536 </v>
    <v>       0.66800948       0.66744781      -0.00003385 </v>
    <v>       0.99842700       0.33254106       0.00002472 </v>
    <v>       0.33334463       0.67537762      -0.00000713 </v>
    <v>       0.66584329       0.32841117      -0.00002194 </v>
    <v>       0.00066505      -0.00421329       0.00002922 </v>
    <v>       0.00429637       0.67161261       0.00004001 </v>
    <v>       0.33303788      -0.00483035       0.00000673 </v>
    <v>       0.66257053       0.00059048      -0.00004458 </v>
    <v>       0.11446725       0.22856854       0.94998564 </v>
    <v>       0.22639232       0.11770615       0.05132086 </v>
    <v>       0.10690758       0.54911799       0.94859576 </v>
    <v>       0.21939096       0.43868170       0.04950834 </v>
    <v>       0.11176307       0.88803281       0.94676255 </v>
    <v>       0.22124680       0.77857354       0.05381480 </v>
    <v>       0.44010250       0.22456439       0.94868544 </v>
    <v>       0.55473213       0.10941013       0.05319562 </v>
    <v>       0.44710766       0.55250967       0.95047939 </v>
    <v>       0.55207183       0.44739848       0.05002147 </v>
    <v>       0.44532097       0.89074103       0.94620599 </v>
    <v>       0.55958311       0.77544958       0.05142612 </v>
    <v>       0.78451352       0.22435873       0.94807349 </v>
    <v>       0.89133552       0.11711588       0.05082811 </v>
    <v>       0.77522716       0.55905753       0.94918803 </v>
    <v>       0.89318124       0.44210616       0.05125374 </v>
    <v>       0.77333874       0.88216592       0.94873206 </v>
    <v>       0.88196722       0.77299673       0.05192394 </v>
   </varray>
  </structure>
  <varray name="forces" >
   <v>       0.05416107      -0.03080170      -0.00060583 </v>
   <v>       0.04113409       0.12184416      -0.02126787 </v>
   <v>      -0.08698287      -0.10612420       0.02323357 </v>
   <v>      -0.26939352       0.15448436      -0.00101213 </v>
   <v>       0.16701072      -0.14768200      -0.00322416 </v>
   <v>       0.21046822      -0.07201683       0.00413264 </v>
   <v>      -0.02780508       0.30277200       0.01333642 </v>
   <v>       0.21901052      -0.12812039      -0.00204419 </v>
   <v>      -0.27476788      -0.12617110      -0.01258451 </v>
   <v>       0.04530010      -0.07652320       0.00915141 </v>
   <v>       0.08567157      -0.05265280       0.00399698 </v>
   <v>      -0.03159766       0.09737738      -0.01183254 </v>
   <v>      -0.09482772       0.13123730      -0.06975762 </v>
   <v>       0.00331113       0.05380814      -0.17620878 </v>
   <v>      -0.04038479       0.00697103       0.25126911 </v>
   <v>       0.08953203      -0.04965668      -0.00011212 </v>
   <v>      -0.04946584      -0.03043378       0.17336275 </v>
   <v>      -0.16147243       0.02014600       0.06666152 </v>
   <v>       0.08880099      -0.00119178      -0.00734503 </v>
   <v>      -0.02272984       0.02918517      -0.24682886 </v>
   <v>      -0.09642060      -0.01620223       0.00923292 </v>
   <v>       0.02886493      -0.05745080      -0.10283217 </v>
   <v>       0.07654433      -0.08997367      -0.06697164 </v>
   <v>       0.11478319      -0.01787960       0.07418440 </v>
   <v>      -0.07558523       0.02281410      -0.04310844 </v>
   <v>      -0.05400161       0.05381921       0.03699128 </v>
   <v>       0.06084218       0.00842188       0.10018290 </v>
  </varray>
  <varray name="stress" >
   <v>      -0.37014568      -0.11375864      -0.06302393 </v>
   <v>      -0.11375848      -0.47556316      -0.08486561 </v>
   <v>      -0.06302382      -0.08486568      -0.46777940 </v>
  </varray>
  <energy>
   <i name="e_fr_energy">   -191.11911164 </i>
   <i name="e_wo_entrp">   -191.03403916 </i>
   <i name="e_0_energy">     -0.17014496 </i>
  </energy>
  <time name="totalsc">  386.97  388.00</time>
 </calculation>
 <calculation>
  <scstep>
   <time name="dav">   21.99   22.05</time>
   <time name="total">   22.51   22.56</time>
   <energy>
    <i name="alphaZ">     90.78797571 </i>
    <i name="ewald">  44920.63820463 </i>
    <i name="hartreedc"> -50935.27422104 </i>
    <i name="XCdc">   -233.21184918 </i>
    <i name="pawpsdc">   4081.07517881 </i>
    <i name="pawaedc">  -3496.93958062 </i>
    <i name="eentropy">     -0.17325608 </i>
    <i name="bandstr">  -1379.51105846 </i>
    <i name="atom">   6761.44252427 </i>
    <i name="e_fr_energy">   -191.16608195 </i>
    <i name="e_wo_entrp">   -190.99282587 </i>
    <i name="e_0_energy">   -191.07945391 </i>
   </energy>
  </scstep>
  <scstep>
   <time name="dav">   33.18   33.26</time>
   <time name="total">   33.69   33.78</time>
   <energy>
    <i name="e_fr_energy">   -191.19765661 </i>
    <i name="e_wo_entrp">   -191.02474829 </i>
    <i name="e_0_energy">   -191.11120245 </i>
   </energy>
  </scstep>
  <scstep>
   <time name="dav">   31.08   31.15</time>
   <time name="total">   31.59   31.67</time>
   <energy>
    <i name="e_fr_energy">   -191.17263780 </i>
    <i name="e_wo_entrp">   -190.99837476 </i>
    <i name="e_0_energy">   -191.08550628 </i>
   </energy>
  </scstep>
  <scstep>
   <time name="dav">   27.25   27.31</time>
   <time name="total">   27.75   27.83</time>
   <energy>
    <i name="e_fr_energy">   -191.16949327 </i>
    <i name="e_wo_entrp">   -190.99518376 </i>
    <i name="e_0_energy">   -191.08233851 </i>
   </energy>
  </scstep>
  <scstep>
   <time name="dav">   29.20   29.27</time>
   <time name="total">   29.72   29.80</time>
   <energy>
    <i name="e_fr_energy">   -191.16867258 </i>
    <i name="e_wo_entrp">   -190.99546700 </i>
    <i name="e_0_energy">   -191.08206979 </i>
   </energy>
  </scstep>
  <scstep>
   <time name="dav">   29.40   29.47</time>
   <time name="total">   29.91   29.99</time>
   <energy>
    <i name="e_fr_energy">   -191.16727287 </i>
    <i name="e_wo_entrp">   -190.99343975 </i>
    <i name="e_0_energy">   -191.08035631 </i>
   </energy>
  </scstep>
  <scstep>
   <time name="dav">   26.90   26.97</time>
   <time name="total">   27.41   27.49</time>
   <energy>
    <i name="e_fr_energy">   -191.16700337 </i>
    <i name="e_wo_entrp">   -190.99299434 </i>
    <i name="e_0_energy">   -191.07999885 </i>
   </energy>
  </scstep>
  <scstep>
   <time name="dav">   19.69   19.74</time>
   <time name="total">   19.73   19.78</time>
   <energy>
    <i name="alphaZ">     90.78797571 </i>
    <i name="ewald">  44920.63820463 </i>
    <i name="hartreedc"> -50933.54198632 </i>
    <i name="XCdc">   -233.31393818 </i>
    <i name="pawpsdc">   4081.11797130 </i>
    <i name="pawaedc">  -3496.96745970 </i>
    <i name="eentropy">     -0.17388251 </i>
    <i name="bandstr">  -1381.15636377 </i>
    <i name="atom">   6761.44252427 </i>
    <i name="e_fr_energy">   -191.16695456 </i>
    <i name="e_wo_entrp">   -190.99307206 </i>
    <i name="e_0_energy">   -191.08001331 </i>
   </energy>
  </scstep>
  <structure>
   <crystal>
    <varray name="basis" >
     <v>       8.25020703       4.75909506       0.00000000 </v>
     <v>      -8.25417983       4.76597872       0.00000000 </v>
     <v>       0.00000000       0.00000000      30.00000000 </v>
    </varray>
    <i name="volume">   2358.08212769 </i>
    <varray name="rec_basis" >
     <v>       0.06063375       0.10501135       0.00000000 </v>
     <v>      -0.06054617       0.10496081       0.00000000 </v>
     <v>       0.00000000       0.00000000       0.03333333 </v>
    </varray>
   </crystal>
   <varray name="positions" >
    <v>       0.33337317       0.33235528       0.00000425 </v>
    <v>       0.66884168       0.66801159      -0.00007745 </v>
    <v>       0.99753267       0.33222419       0.00007163 </v>
    <v>       0.33333799       0.67724990      -0.00000862 </v>
    <v>       0.66555533       0.32698624      -0.00003038 </v>
    <v>       0.00094141      -0.00535547       0.00003897 </v>
    <v>       0.00594815       0.67345076       0.00005655 </v>
    <v>       0.33302492      -0.00632259       0.00000324 </v>
    <v>       0.66093178       0.00077834      -0.00005977 </v>
    <v>       0.11423050       0.22805704       0.94992283 </v>
    <v>       0.22640233       0.11722207       0.05140820 </v>
    <v>       0.10731218       0.54969028       0.94849301 </v>
    <v>       0.21978782       0.43965889       0.04945591 </v>
    <v>       0.11205986       0.88830786       0.94636379 </v>
    <v>       0.22115708       0.77874059       0.05435515 </v>
    <v>       0.44009054       0.22405471       0.94860362 </v>
    <v>       0.55441831       0.10939731       0.05358884 </v>
    <v>       0.44672697       0.55310487       0.95052732 </v>
    <v>       0.55231183       0.44713096       0.05008673 </v>
    <v>       0.44541038       0.89097712       0.94567362 </v>
    <v>       0.55921459       0.77563634       0.05152576 </v>
    <v>       0.78435914       0.22399269       0.94780328 </v>
    <v>       0.89112893       0.11644373       0.05078290 </v>
    <v>       0.77545262       0.55861222       0.94924463 </v>
    <v>       0.89309398       0.44243025       0.05126056 </v>
    <v>       0.77343291       0.88255918       0.94871574 </v>
    <v>       0.88213738       0.77282011       0.05218960 </v>
   </varray>
  </structure>
  <varray name="forces" >
   <v>       0.02975781      -0.01603816       0.00050214 </v>
   <v>       0.04924488       0.10070804      -0.02576039 </v>
   <v>      -0.06337137      -0.10244668       0.02577618 </v>
   <v>      -0.24923459       0.14407034       0.00145368 </v>
   <v>       0.16805442      -0.19330083      -0.00442494 </v>
   <v>       0.24816370      -0.04898749       0.00319682 </v>
   <v>      -0.04551886       0.31314557      -0.01113380 </v>
   <v>       0.17730816      -0.10338867       0.00005332 </v>
   <v>      -0.29303408      -0.11417584       0.01097226 </v>
   <v>       0.02363555      -0.05655967       0.04884421 </v>
   <v>       0.07295099      -0.03469099      -0.01218887 </v>
   <v>      -0.03479194       0.06497690       0.01534307 </v>
   <v>      -0.07164207       0.08946178      -0.10719811 </v>
   <v>       0.01923916       0.04596799      -0.14091881 </v>
   <v>      -0.02948320       0.01218147       0.20364230 </v>
   <v>       0.06721990      -0.04701292       0.01205667 </v>
   <v>      -0.03302128      -0.04002447       0.13978053 </v>
   <v>      -0.11411889       0.01894495       0.10320115 </v>
   <v>       0.06140892       0.00703005      -0.04639872 </v>
   <v>      -0.02269526       0.01887975      -0.20308127 </v>
   <v>      -0.07261528       0.00064925      -0.01474822 </v>
   <v>       0.02682319      -0.04188818      -0.08600341 </v>
   <v>       0.04954599      -0.08329733      -0.10376227 </v>
   <v>       0.09697033       0.00020847       0.10888143 </v>
   <v>      -0.05689534       0.02897985      -0.06630181 </v>
   <v>      -0.05145405       0.03559442       0.06328289 </v>
   <v>       0.04755321       0.00101243       0.08493398 </v>
  </varray>
  <varray name="stress" >
   <v>       0.11306779      -0.05236773      -0.04762861 </v>
   <v>      -0.05236787       0.05934092      -0.06560459 </v>
   <v>      -0.04762873      -0.06560461      -1.03852012 </v>
  </varray>
  <energy>
   <i name="e_fr_energy">   -191.16695456 </i>
   <i name="e_wo_entrp">   -191.08001331 </i>
   <i name="e_0_energy">     -0.17388251 </i>
  </energy>
  <time name="totalsc">  264.64  265.34</time>
 </calculation>
 <calculation>
  <scstep>
   <time name="dav">   21.97   22.02</time>
   <time name="total">   22.48   22.54</time>
   <energy>
    <i name="alphaZ">     90.74996419 </i>
    <i name="ewald">  44893.55112191 </i>
    <i name="hartreedc"> -50906.33754415 </i>
    <i name="XCdc">   -233.37717062 </i>
    <i name="pawpsdc">   4081.23809562 </i>
    <i name="pawaedc">  -3497.08869203 </i>
    <i name="eentropy">     -0.18048570 </i>
    <i name="bandstr">  -1381.20081583 </i>
    <i name="atom">   6761.44252427 </i>
    <i name="e_fr_energy">   -191.20300235 </i>
    <i name="e_wo_entrp">   -191.02251665 </i>
    <i name="e_0_energy">   -191.11275950 </i>
   </energy>
  </scstep>
  <scstep>
   <time name="dav">   33.54   33.62</time>
   <time name="total">   34.05   34.14</time>
   <energy>
    <i name="e_fr_energy">   -191.24414742 </i>
    <i name="e_wo_entrp">   -191.06492514 </i>
    <i name="e_0_energy">   -191.15453628 </i>
   </energy>
  </scstep>
  <scstep>
   <time name="dav">   31.26   31.34</time>
   <time name="total">   31.77   31.86</time>
   <energy>
    <i name="e_fr_energy">   -191.20687658 </i>
    <i name="e_wo_entrp">   -191.02644899 </i>
    <i name="e_0_energy">   -191.11666278 </i>
   </energy>
  </scstep>
  <scstep>
   <time name="dav">   29.11   29.18</time>
   <time name="total">   29.62   29.70</time>
   <energy>
    <i name="e_fr_energy">   -191.20660575 </i>
    <i name="e_wo_entrp">   -191.02585809 </i>
    <i name="e_0_energy">   -191.11623192 </i>
   </energy>
  </scstep>
  <scstep>
   <time name="dav">   29.94   30.01</time>
   <time name="total">   30.45   30.53</time>
   <energy>
    <i name="e_fr_energy">   -191.20630971 </i>
    <i name="e_wo_entrp">   -191.02620030 </i>
    <i name="e_0_energy">   -191.11625501 </i>
   </energy>
  </scstep>
  <scstep>
   <time name="dav">   26.67   26.74</time>
   <time name="total">   27.18   27.25</time>
   <energy>
    <i name="e_fr_energy">   -191.20567449 </i>
    <i name="e_wo_entrp">   -191.02525636 </i>
    <i name="e_0_energy">   -191.11546542 </i>
   </energy>
  </scstep>
  <scstep>
   <time name="dav">   26.08   26.14</time>
   <time name="total">   26.11   26.18</time>
   <energy>
    <i name="alphaZ">     90.74996419 </i>
    <i name="ewald">  44893.55112191 </i>
    <i name="hartreedc"> -50907.17488768 </i>
    <i name="XCdc">   -233.35621006 </i>
[...]
      <set comment="kpoint 31">
       <r>  -17.5181    1.0000 </r>
       <r>  -17.2311    1.0000 </r>
       <r>  -16.8891    1.0000 </r>
       <r>  -16.5232    1.0000 </r>
       <r>  -16.4600    1.0000 </r>
       <r>  -16.3812    1.0000 </r>
       <r>  -16.2806    1.0000 </r>
       <r>  -16.1624    1.0000 </r>
       <r>  -16.1179    1.0000 </r>
       <r>  -16.0252    1.0000 </r>
       <r>  -15.9507    1.0000 </r>
       <r>  -15.8422    1.0000 </r>
       <r>  -15.8054    1.0000 </r>
       <r>  -15.6987    1.0000 </r>
       <r>  -15.6398    1.0000 </r>
       <r>  -15.5364    1.0000 </r>
       <r>  -15.4344    1.0000 </r>
       <r>  -15.2925    1.0000 </r>
       <r>   -9.7366    1.0000 </r>
       <r>   -9.4504    1.0000 </r>
       <r>   -9.3281    1.0000 </r>
       <r>   -9.0122    1.0000 </r>
       <r>   -8.7899    1.0000 </r>
       <r>   -8.6907    1.0000 </r>
       <r>   -8.5239    1.0000 </r>
       <r>   -8.4874    1.0000 </r>
       <r>   -8.3466    1.0000 </r>
       <r>   -8.3334    1.0000 </r>
       <r>   -8.2325    1.0000 </r>
       <r>   -8.1596    1.0000 </r>
       <r>   -8.1424    1.0000 </r>
       <r>   -8.0317    1.0000 </r>
       <r>   -7.9547    1.0000 </r>
       <r>   -7.8945    1.0000 </r>
       <r>   -7.7986    1.0000 </r>
       <r>   -7.6758    1.0000 </r>
       <r>   -7.5628    1.0000 </r>
       <r>   -7.4161    1.0000 </r>
       <r>   -7.2555    1.0000 </r>
       <r>   -7.1877    1.0000 </r>
       <r>   -7.1353    1.0000 </r>
       <r>   -7.0465    1.0000 </r>
       <r>   -6.9854    1.0000 </r>
       <r>   -6.9203    1.0000 </r>
       <r>   -6.8640    1.0000 </r>
       <r>   -6.7896    1.0000 </r>
       <r>   -6.7585    1.0000 </r>
       <r>   -6.6804    1.0000 </r>
       <r>   -6.5254    1.0000 </r>
       <r>   -6.4846    1.0000 </r>
       <r>   -6.4104    1.0000 </r>
       <r>   -6.3233    1.0000 </r>
       <r>   -6.2631    1.0000 </r>
       <r>   -6.1704    1.0000 </r>
       <r>   -6.1332    1.0000 </r>
       <r>   -6.0206    1.0000 </r>
       <r>   -5.9939    1.0000 </r>
       <r>   -5.9537    1.0000 </r>
       <r>   -5.8560    1.0000 </r>
       <r>   -5.7684    1.0000 </r>
       <r>   -5.7076    1.0000 </r>
       <r>   -5.6554    1.0000 </r>
       <r>   -5.5633    1.0000 </r>
       <r>   -5.4566    1.0000 </r>
       <r>   -5.2198    1.0000 </r>
       <r>   -5.1463    1.0000 </r>
       <r>   -4.9864    1.0000 </r>
       <r>   -4.9353    1.0000 </r>
       <r>   -4.7987    1.0000 </r>
       <r>   -4.6777    1.0000 </r>
       <r>   -4.4114    1.0000 </r>
       <r>   -4.3636    1.0000 </r>
       <r>   -4.2775    1.0000 </r>
       <r>   -4.1852    1.0000 </r>
       <r>   -3.9513    1.0000 </r>
       <r>   -3.7746    0.9996 </r>
       <r>   -3.6259    0.9884 </r>
       <r>   -3.5399    0.9517 </r>
       <r>   -3.5249    0.9401 </r>
       <r>   -3.4663    0.8732 </r>
       <r>   -2.9828    0.0114 </r>
       <r>   -2.6743    0.0000 </r>
       <r>   -2.6149    0.0000 </r>
       <r>   -2.5470    0.0000 </r>
       <r>   -2.4257    0.0000 </r>
       <r>   -2.3408    0.0000 </r>
       <r>   -2.2307    0.0000 </r>
       <r>   -2.1867    0.0000 </r>
       <r>   -2.1352    0.0000 </r>
       <r>   -2.0591    0.0000 </r>
       <r>   -1.8589    0.0000 </r>
       <r>   -1.8130    0.0000 </r>
       <r>   -1.4433    0.0000 </r>
       <r>   -1.3942    0.0000 </r>
       <r>   -1.2607    0.0000 </r>
       <r>   -1.1583    0.0000 </r>
       <r>   -1.0762    0.0000 </r>
       <r>   -0.9760    0.0000 </r>
       <r>   -0.8954    0.0000 </r>
       <r>   -0.8270    0.0000 </r>
       <r>   -0.7625    0.0000 </r>
       <r>   -0.6978    0.0000 </r>
       <r>   -0.6170    0.0000 </r>
       <r>   -0.5072    0.0000 </r>
       <r>   -0.3805    0.0000 </r>
       <r>   -0.3300    0.0000 </r>
       <r>   -0.1930    0.0000 </r>
       <r>   -0.0091    0.0000 </r>
       <r>    0.1057    0.0000 </r>
       <r>    0.3194    0.0000 </r>
       <r>    0.4890    0.0000 </r>
       <r>    0.6030    0.0000 </r>
       <r>    0.6712    0.0000 </r>
       <r>    1.0664    0.0000 </r>
       <r>    1.1017    0.0000 </r>
       <r>    1.2408    0.0000 </r>
       <r>    1.4566    0.0000 </r>
       <r>    2.1458    0.0000 </r>
       <r>    2.2914    0.0000 </r>
       <r>    2.4009    0.0000 </r>
      </set>
      <set comment="kpoint 32">
       <r>  -17.5298    1.0000 </r>
       <r>  -17.1390    1.0000 </r>
       <r>  -17.0245    1.0000 </r>
       <r>  -16.5199    1.0000 </r>
       <r>  -16.4060    1.0000 </r>
       <r>  -16.3400    1.0000 </r>
       <r>  -16.2282    1.0000 </r>
       <r>  -16.2007    1.0000 </r>
       <r>  -16.1372    1.0000 </r>
       <r>  -16.0159    1.0000 </r>
       <r>  -15.9697    1.0000 </r>
       <r>  -15.8907    1.0000 </r>
       <r>  -15.8313    1.0000 </r>
       <r>  -15.6751    1.0000 </r>
       <r>  -15.6245    1.0000 </r>
       <r>  -15.5434    1.0000 </r>
       <r>  -15.4344    1.0000 </r>
       <r>  -15.2779    1.0000 </r>
       <r>   -9.6279    1.0000 </r>
       <r>   -9.6044    1.0000 </r>
       <r>   -9.3955    1.0000 </r>
       <r>   -9.0032    1.0000 </r>
       <r>   -8.6448    1.0000 </r>
       <r>   -8.5654    1.0000 </r>
       <r>   -8.5126    1.0000 </r>
       <r>   -8.4220    1.0000 </r>
       <r>   -8.4066    1.0000 </r>
       <r>   -8.3242    1.0000 </r>
       <r>   -8.2767    1.0000 </r>
       <r>   -8.1948    1.0000 </r>
       <r>   -8.1770    1.0000 </r>
       <r>   -8.0984    1.0000 </r>
       <r>   -8.0339    1.0000 </r>
       <r>   -7.9216    1.0000 </r>
       <r>   -7.8115    1.0000 </r>
       <r>   -7.5942    1.0000 </r>
       <r>   -7.4525    1.0000 </r>
       <r>   -7.3364    1.0000 </r>
       <r>   -7.3188    1.0000 </r>
       <r>   -7.2335    1.0000 </r>
       <r>   -7.2048    1.0000 </r>
       <r>   -7.0626    1.0000 </r>
       <r>   -7.0238    1.0000 </r>
       <r>   -6.9412    1.0000 </r>
       <r>   -6.8805    1.0000 </r>
       <r>   -6.8219    1.0000 </r>
       <r>   -6.7673    1.0000 </r>
       <r>   -6.6796    1.0000 </r>
       <r>   -6.4825    1.0000 </r>
       <r>   -6.4692    1.0000 </r>
       <r>   -6.3852    1.0000 </r>
       <r>   -6.3222    1.0000 </r>
       <r>   -6.2320    1.0000 </r>
       <r>   -6.1877    1.0000 </r>
       <r>   -6.1341    1.0000 </r>
       <r>   -6.0558    1.0000 </r>
       <r>   -6.0093    1.0000 </r>
       <r>   -5.9058    1.0000 </r>
       <r>   -5.8154    1.0000 </r>
       <r>   -5.7773    1.0000 </r>
       <r>   -5.7036    1.0000 </r>
       <r>   -5.5193    1.0000 </r>
       <r>   -5.4560    1.0000 </r>
       <r>   -5.3599    1.0000 </r>
       <r>   -5.3228    1.0000 </r>
       <r>   -5.1927    1.0000 </r>
       <r>   -5.1405    1.0000 </r>
       <r>   -4.8970    1.0000 </r>
       <r>   -4.8729    1.0000 </r>
       <r>   -4.7396    1.0000 </r>
       <r>   -4.4167    1.0000 </r>
       <r>   -4.3594    1.0000 </r>
       <r>   -4.2730    1.0000 </r>
       <r>   -4.1238    1.0000 </r>
       <r>   -3.9925    1.0000 </r>
       <r>   -3.7534    0.9992 </r>
       <r>   -3.6380    0.9908 </r>
       <r>   -3.5344    0.9477 </r>
       <r>   -3.5193    0.9353 </r>
       <r>   -3.4221    0.7964 </r>
       <r>   -2.9315    0.0041 </r>
       <r>   -2.7136    0.0000 </r>
       <r>   -2.6004    0.0000 </r>
       <r>   -2.5067    0.0000 </r>
       <r>   -2.4569    0.0000 </r>
       <r>   -2.3739    0.0000 </r>
       <r>   -2.2708    0.0000 </r>
       <r>   -2.2114    0.0000 </r>
       <r>   -2.1030    0.0000 </r>
       <r>   -2.0887    0.0000 </r>
       <r>   -1.8552    0.0000 </r>
       <r>   -1.8221    0.0000 </r>
       <r>   -1.4326    0.0000 </r>
       <r>   -1.3974    0.0000 </r>
       <r>   -1.2027    0.0000 </r>
       <r>   -1.1852    0.0000 </r>
       <r>   -1.0627    0.0000 </r>
       <r>   -0.9683    0.0000 </r>
       <r>   -0.9034    0.0000 </r>
       <r>   -0.8676    0.0000 </r>
       <r>   -0.7744    0.0000 </r>
       <r>   -0.6808    0.0000 </r>
       <r>   -0.6229    0.0000 </r>
       <r>   -0.4332    0.0000 </r>
       <r>   -0.3855    0.0000 </r>
       <r>   -0.2639    0.0000 </r>
       <r>   -0.1894    0.0000 </r>
       <r>   -0.0058    0.0000 </r>
       <r>    0.1200    0.0000 </r>
       <r>    0.1701    0.0000 </r>
       <r>    0.4872    0.0000 </r>
       <r>    0.6376    0.0000 </r>
       <r>    0.6528    0.0000 </r>
       <r>    1.0754    0.0000 </r>
       <r>    1.1211    0.0000 </r>
       <r>    1.2314    0.0000 </r>
       <r>    1.4222    0.0000 </r>
       <r>    2.1149    0.0000 </r>
       <r>    2.2563    0.0000 </r>
       <r>    2.5775    0.0000 </r>
      </set>
      <set comment="kpoint 33">
       <r>  -17.5153    1.0000 </r>
       <r>  -17.2347    1.0000 </r>
       <r>  -16.8891    1.0000 </r>
       <r>  -16.5203    1.0000 </r>
       <r>  -16.4551    1.0000 </r>
       <r>  -16.3927    1.0000 </r>
       <r>  -16.2813    1.0000 </r>
       <r>  -16.1679    1.0000 </r>
       <r>  -16.1023    1.0000 </r>
       <r>  -16.0273    1.0000 </r>
       <r>  -15.9578    1.0000 </r>
       <r>  -15.8482    1.0000 </r>
       <r>  -15.7987    1.0000 </r>
       <r>  -15.6985    1.0000 </r>
       <r>  -15.6364    1.0000 </r>
       <r>  -15.5399    1.0000 </r>
       <r>  -15.4310    1.0000 </r>
       <r>  -15.2921    1.0000 </r>
       <r>   -9.7401    1.0000 </r>
       <r>   -9.4589    1.0000 </r>
       <r>   -9.3244    1.0000 </r>
       <r>   -9.0124    1.0000 </r>
       <r>   -8.7919    1.0000 </r>
       <r>   -8.6767    1.0000 </r>
       <r>   -8.5349    1.0000 </r>
       <r>   -8.5018    1.0000 </r>
       <r>   -8.3434    1.0000 </r>
       <r>   -8.3260    1.0000 </r>
       <r>   -8.2265    1.0000 </r>
       <r>   -8.1613    1.0000 </r>
       <r>   -8.1314    1.0000 </r>
       <r>   -8.0362    1.0000 </r>
       <r>   -7.9589    1.0000 </r>
       <r>   -7.8888    1.0000 </r>
       <r>   -7.7966    1.0000 </r>
       <r>   -7.6697    1.0000 </r>
       <r>   -7.5618    1.0000 </r>
       <r>   -7.4200    1.0000 </r>
       <r>   -7.2531    1.0000 </r>
       <r>   -7.1997    1.0000 </r>
       <r>   -7.1433    1.0000 </r>
       <r>   -7.0446    1.0000 </r>
       <r>   -6.9781    1.0000 </r>
       <r>   -6.9179    1.0000 </r>
       <r>   -6.8807    1.0000 </r>
       <r>   -6.7812    1.0000 </r>
       <r>   -6.7501    1.0000 </r>
       <r>   -6.6820    1.0000 </r>
       <r>   -6.5246    1.0000 </r>
       <r>   -6.4751    1.0000 </r>
       <r>   -6.4092    1.0000 </r>
       <r>   -6.3165    1.0000 </r>
       <r>   -6.2628    1.0000 </r>
       <r>   -6.1757    1.0000 </r>
       <r>   -6.1326    1.0000 </r>
       <r>   -6.0331    1.0000 </r>
       <r>   -5.9975    1.0000 </r>
       <r>   -5.9474    1.0000 </r>
       <r>   -5.8432    1.0000 </r>
       <r>   -5.7801    1.0000 </r>
       <r>   -5.7251    1.0000 </r>
       <r>   -5.6449    1.0000 </r>
       <r>   -5.5501    1.0000 </r>
       <r>   -5.4430    1.0000 </r>
       <r>   -5.2288    1.0000 </r>
       <r>   -5.1564    1.0000 </r>
       <r>   -4.9970    1.0000 </r>
       <r>   -4.9335    1.0000 </r>
       <r>   -4.7950    1.0000 </r>
       <r>   -4.6897    1.0000 </r>
       <r>   -4.4302    1.0000 </r>
       <r>   -4.3646    1.0000 </r>
       <r>   -4.2980    1.0000 </r>
       <r>   -4.1739    1.0000 </r>
       <r>   -3.8794    1.0000 </r>
       <r>   -3.7828    0.9996 </r>
       <r>   -3.6209    0.9873 </r>
       <r>   -3.5596    0.9641 </r>
       <r>   -3.5143    0.9306 </r>
       <r>   -3.4413    0.8326 </r>
       <r>   -2.9764    0.0101 </r>
       <r>   -2.7099    0.0000 </r>
       <r>   -2.6150    0.0000 </r>
       <r>   -2.5438    0.0000 </r>
       <r>   -2.4291    0.0000 </r>
       <r>   -2.3598    0.0000 </r>
       <r>   -2.2649    0.0000 </r>
       <r>   -2.1947    0.0000 </r>
       <r>   -2.1503    0.0000 </r>
       <r>   -2.0523    0.0000 </r>
       <r>   -1.8604    0.0000 </r>
       <r>   -1.8145    0.0000 </r>
       <r>   -1.4443    0.0000 </r>
       <r>   -1.3758    0.0000 </r>
       <r>   -1.2320    0.0000 </r>
       <r>   -1.1519    0.0000 </r>
       <r>   -1.0610    0.0000 </r>
       <r>   -0.9710    0.0000 </r>
       <r>   -0.8780    0.0000 </r>
       <r>   -0.8572    0.0000 </r>
       <r>   -0.7685    0.0000 </r>
       <r>   -0.6926    0.0000 </r>
       <r>   -0.6153    0.0000 </r>
       <r>   -0.5107    0.0000 </r>
       <r>   -0.3521    0.0000 </r>
       <r>   -0.3221    0.0000 </r>
       <r>   -0.1976    0.0000 </r>
       <r>   -0.0271    0.0000 </r>
       <r>    0.0868    0.0000 </r>
       <r>    0.3109    0.0000 </r>
       <r>    0.4821    0.0000 </r>
       <r>    0.6059    0.0000 </r>
       <r>    0.6538    0.0000 </r>
       <r>    1.0589    0.0000 </r>
       <r>    1.1028    0.0000 </r>
       <r>    1.2489    0.0000 </r>
       <r>    1.4911    0.0000 </r>
       <r>    2.1472    0.0000 </r>
       <r>    2.2901    0.0000 </r>
       <r>    2.4035    0.0000 </r>
      </set>
      <set comment="kpoint 34">
       <r>  -17.4975    1.0000 </r>
       <r>  -17.2931    1.0000 </r>
       <r>  -16.7349    1.0000 </r>
       <r>  -16.6146    1.0000 </r>
       <r>  -16.5037    1.0000 </r>
       <r>  -16.4150    1.0000 </r>
       <r>  -16.2705    1.0000 </r>
       <r>  -16.1727    1.0000 </r>
       <r>  -16.0902    1.0000 </r>
       <r>  -16.0265    1.0000 </r>
       <r>  -15.9646    1.0000 </r>
       <r>  -15.7810    1.0000 </r>
       <r>  -15.7591    1.0000 </r>
       <r>  -15.7178    1.0000 </r>
       <r>  -15.6780    1.0000 </r>
       <r>  -15.5327    1.0000 </r>
       <r>  -15.4291    1.0000 </r>
       <r>  -15.3075    1.0000 </r>
       <r>   -9.7837    1.0000 </r>
       <r>   -9.3735    1.0000 </r>
       <r>   -9.1918    1.0000 </r>
       <r>   -9.0554    1.0000 </r>
       <r>   -8.9481    1.0000 </r>
       <r>   -8.7727    1.0000 </r>
       <r>   -8.5426    1.0000 </r>
       <r>   -8.5251    1.0000 </r>
       <r>   -8.3599    1.0000 </r>
       <r>   -8.3053    1.0000 </r>
       <r>   -8.1890    1.0000 </r>
       <r>   -8.1391    1.0000 </r>
       <r>   -8.1246    1.0000 </r>
       <r>   -7.9294    1.0000 </r>
       <r>   -7.9146    1.0000 </r>
       <r>   -7.8487    1.0000 </r>
       <r>   -7.7959    1.0000 </r>
       <r>   -7.7202    1.0000 </r>
       <r>   -7.6547    1.0000 </r>
       <r>   -7.4479    1.0000 </r>
       <r>   -7.2485    1.0000 </r>
       <r>   -7.1787    1.0000 </r>
       <r>   -7.1240    1.0000 </r>
       <r>   -7.0203    1.0000 </r>
       <r>   -6.9660    1.0000 </r>
       <r>   -6.9025    1.0000 </r>
       <r>   -6.8648    1.0000 </r>
       <r>   -6.7346    1.0000 </r>
       <r>   -6.6909    1.0000 </r>
       <r>   -6.6219    1.0000 </r>
       <r>   -6.5530    1.0000 </r>
       <r>   -6.5055    1.0000 </r>
       <r>   -6.4062    1.0000 </r>
       <r>   -6.3680    1.0000 </r>
       <r>   -6.3192    1.0000 </r>
       <r>   -6.1978    1.0000 </r>
       <r>   -6.0943    1.0000 </r>
       <r>   -6.0815    1.0000 </r>
       <r>   -6.0364    1.0000 </r>
       <r>   -5.9437    1.0000 </r>
       <r>   -5.8492    1.0000 </r>
       <r>   -5.7926    1.0000 </r>
       <r>   -5.7412    1.0000 </r>
       <r>   -5.6492    1.0000 </r>
       <r>   -5.5611    1.0000 </r>
       <r>   -5.5102    1.0000 </r>
       <r>   -5.3542    1.0000 </r>
       <r>   -4.9980    1.0000 </r>
       <r>   -4.9501    1.0000 </r>
       <r>   -4.8778    1.0000 </r>
       <r>   -4.7892    1.0000 </r>
       <r>   -4.6143    1.0000 </r>
       <r>   -4.4759    1.0000 </r>
       <r>   -4.3873    1.0000 </r>
       <r>   -4.3033    1.0000 </r>
       <r>   -4.1503    1.0000 </r>
       <r>   -3.8516    0.9999 </r>
       <r>   -3.8013    0.9998 </r>
       <r>   -3.5994    0.9813 </r>
       <r>   -3.5748    0.9718 </r>
       <r>   -3.5211    0.9368 </r>
       <r>   -3.4661    0.8728 </r>
       <r>   -3.0207    0.0222 </r>
       <r>   -2.6981    0.0000 </r>
       <r>   -2.6314    0.0000 </r>
       <r>   -2.5640    0.0000 </r>
       <r>   -2.4184    0.0000 </r>
       <r>   -2.3195    0.0000 </r>
       <r>   -2.2735    0.0000 </r>
       <r>   -2.2021    0.0000 </r>
       <r>   -2.1427    0.0000 </r>
       <r>   -2.0364    0.0000 </r>
       <r>   -1.8657    0.0000 </r>
       <r>   -1.8071    0.0000 </r>
       <r>   -1.4510    0.0000 </r>
       <r>   -1.3639    0.0000 </r>
       <r>   -1.2485    0.0000 </r>
       <r>   -1.1446    0.0000 </r>
       <r>   -1.0659    0.0000 </r>
       <r>   -0.9716    0.0000 </r>
       <r>   -0.8804    0.0000 </r>
       <r>   -0.8054    0.0000 </r>
       <r>   -0.7419    0.0000 </r>
       <r>   -0.7114    0.0000 </r>
       <r>   -0.6204    0.0000 </r>
       <r>   -0.5740    0.0000 </r>
       <r>   -0.3870    0.0000 </r>
       <r>   -0.3057    0.0000 </r>
       <r>   -0.2609    0.0000 </r>
       <r>   -0.0181    0.0000 </r>
       <r>    0.1094    0.0000 </r>
       <r>    0.4381    0.0000 </r>
       <r>    0.4770    0.0000 </r>
       <r>    0.5306    0.0000 </r>
       <r>    0.6552    0.0000 </r>
       <r>    1.0490    0.0000 </r>
       <r>    1.0981    0.0000 </r>
       <r>    1.2666    0.0000 </r>
       <r>    1.5361    0.0000 </r>
       <r>    2.2341    0.0000 </r>
       <r>    2.2510    0.0000 </r>
       <r>    2.3787    0.0000 </r>
      </set>
     </set>
    </set>
   </array>
  </eigenvalues>
  <separator name="orbital magnetization" >
   <v name="MAGDIPOLOUT">      0.00000000      0.00000000      0.00000000</v>
  </separator>
 </calculation>
 <structure name="finalpos" >
  <crystal>
   <varray name="basis" >
    <v>       8.33201636       4.74491625       0.00000000 </v>
    <v>      -8.39379472       4.85191763       0.00000000 </v>
    <v>       0.00000000       0.00000000      30.00000000 </v>
   </varray>
   <i name="volume">   2407.62329983 </i>
   <varray name="rec_basis" >
    <v>       0.06045694       0.10459022       0.00000000 </v>
    <v>      -0.05912365       0.10382043       0.00000000 </v>
    <v>       0.00000000       0.00000000       0.03333333 </v>
   </varray>
  </crystal>
  <varray name="positions" >
   <v>       0.33300070       0.31940581      -0.00009724 </v>
   <v>       0.68051784       0.65370676       0.00059918 </v>
   <v>       0.98537075       0.30536587      -0.00069590 </v>
   <v>       0.33357883       0.69644323       0.00013849 </v>
   <v>       0.68642421       0.36067748       0.00014110 </v>
   <v>      -0.01698167       0.00694634      -0.00001494 </v>
   <v>       0.00589212       0.67145550       0.00011744 </v>
   <v>       0.33018964      -0.02291029      -0.00007787 </v>
   <v>       0.66119011      -0.00250942      -0.00009625 </v>
   <v>       0.11190791       0.22410266       0.94892582 </v>
   <v>       0.22036199       0.11006523       0.04963390 </v>
   <v>       0.10878109       0.54905474       0.95081003 </v>
   <v>       0.22237578       0.44342013       0.04431981 </v>
   <v>       0.11081532       0.89376091       0.94882538 </v>
   <v>       0.21996212       0.78097432       0.05673751 </v>
   <v>       0.44668293       0.22244055       0.95085921 </v>
   <v>       0.55454247       0.11679113       0.05006412 </v>
   <v>       0.44402924       0.55439849       0.95563749 </v>
   <v>       0.55476530       0.44590707       0.05106363 </v>
   <v>       0.44608447       0.89452071       0.94356747 </v>
   <v>       0.55837655       0.77429306       0.04953489 </v>
   <v>       0.78280566       0.22480419       0.94803250 </v>
   <v>       0.88338954       0.11378053       0.05367752 </v>
   <v>       0.78346468       0.56454835       0.94611166 </v>
   <v>       0.90012125       0.44404292       0.05104101 </v>
   <v>       0.76700871       0.87771490       0.94910039 </v>
   <v>       0.88355691       0.77501328       0.05204355 </v>
  </varray>
 </structure>
</modeling>
