unknown system                          
           1
     8.855377    5.105157    0.000000
    -8.855275    5.104981    0.000000
     0.000000    0.000000   30.000000
   V    Mo   W    S 
   3   3   3  18
Direct configuration=     1
   0.33333334  0.33333334  0.00000000
   0.66666669  0.66666669  0.00000000
   1.00000000  0.33333334  0.00000000
   0.33333334  0.66666669  0.00000000
   0.66666669  0.33333334  0.00000000
   0.00000000  0.00000000  0.00000000
   0.00000000  0.66666669  0.00000000
   0.33333334  0.00000000  0.00000000
   0.66666669  0.00000000  0.00000000
   0.11068511  0.22244981  0.95539999
   0.22244981  0.11068511  0.04460000
   0.11068511  0.55578315  0.95539999
   0.22244981  0.44401845  0.04460000
   0.11068511  0.88911647  0.95539999
   0.22244981  0.77735180  0.04460000
   0.44401845  0.22244981  0.95539999
   0.55578315  0.11068511  0.04460000
   0.44401845  0.55578315  0.95539999
   0.55578315  0.44401845  0.04460000
   0.44401845  0.88911647  0.95539999
   0.55578315  0.77735180  0.04460000
   0.77735180  0.22244981  0.95539999
   0.88911647  0.11068511  0.04460000
   0.77735180  0.55578315  0.95539999
   0.88911647  0.44401845  0.04460000
   0.77735180  0.88911647  0.95539999
   0.88911647  0.77735180  0.04460000
unknown system                          
           1
     8.667135    4.998991    0.000000
    -8.666953    4.998677    0.000000
     0.000000    0.000000   30.000000
   V    Mo   W    S 
   3   3   3  18
Direct configuration=     2
   0.33334837  0.33387430  0.00000674
   0.66616967  0.66618325  0.00016830
   1.00044549  0.33325169 -0.00017223
   0.33337918  0.66646391 -0.00001478
   0.66649045  0.33336192  0.00007594
   0.00013288  0.00017396 -0.00006116
  -0.00031426  0.66637846  0.00021058
   0.33320594  0.00025054  0.00000584
   0.66705310 -0.00001040 -0.00021981
   0.11288636  0.22657712  0.95309265
   0.22478094  0.11500317  0.04807766
   0.10834274  0.55123254  0.95191612
   0.22017732  0.43994842  0.04688239
   0.11158364  0.88849889  0.95074891
   0.22162243  0.77813199  0.04927868
   0.44146157  0.22352476  0.95199599
   0.55487351  0.11021524  0.04925717
   0.44647342  0.55327822  0.95305099
   0.55338140  0.44661568  0.04696637
   0.44491912  0.88971614  0.95071289
   0.55837458  0.77607443  0.04802018
   0.78176907  0.22336560  0.95190113
   0.89008767  0.11502842  0.04805009
   0.77620473  0.55830702  0.95201868
   0.89170056  0.44302582  0.04797430
   0.77500710  0.88483867  0.95194955
   0.88465748  0.77490469  0.04810673
unknown system                          
           1
     8.484006    4.897745    0.000000
    -8.484323    4.898296    0.000000
     0.000000    0.000000   30.000000
   V    Mo   W    S 
   3   3   3  18
Direct configuration=     3
   0.33335308  0.33392174  0.00000749
   0.66615320  0.66614004  0.00018679
   1.00046009  0.33321882 -0.00019214
   0.33337812  0.66692239 -0.00001572
   0.66643272  0.33310612  0.00008015
   0.00018225 -0.00003292 -0.00006431
  -0.00014645  0.66658137  0.00023146
   0.33319186  0.00007257  0.00000656
   0.66690293  0.00002267 -0.00024040
   0.11296574  0.22667774  0.95310855
   0.22497753  0.11502861  0.04806080
   0.10811841  0.55121098  0.95193029
   0.22012263  0.43986183  0.04684407
   0.11169286  0.88835843  0.95074509
   0.22148567  0.77824676  0.04930835
   0.44129513  0.22336368  0.95200287
   0.55476855  0.10993470  0.04925465
   0.44650014  0.55321862  0.95309741
   0.55333213  0.44666358  0.04694201
   0.44504717  0.89000092  0.95068725
   0.55855724  0.77625979  0.04801982
   0.78179834  0.22320968  0.95188936
   0.88993994  0.11504443  0.04801259
   0.77638717  0.55846899  0.95204957
   0.89188981  0.44321752  0.04796933
   0.77479099  0.88481816  0.95196275
   0.88463720  0.77467722  0.04811526
unknown system                          
           1
     8.264982    4.770798    0.000000
    -8.265894    4.772381    0.000000
     0.000000    0.000000   30.000000
   V    Mo   W    S 
   3   3   3  18
Direct configuration=     4
   0.33337538  0.33364713  0.00000691
   0.66655763  0.66638866  0.00017629
   0.99999650  0.33303339 -0.00018425
   0.33337576  0.66954138 -0.00001193
   0.66621785  0.33166522  0.00005524
   0.00033950 -0.00129322 -0.00004319
   0.00105136  0.66796324  0.00020122
   0.33315986 -0.00121976  0.00000613
   0.66572060  0.00019752 -0.00020606
   0.11371961  0.22781785  0.95184131
   0.22572397  0.11633158  0.04945778
   0.10732401  0.55006489  0.95051891
   0.21958245  0.43886778  0.04799343
   0.11173845  0.88812829  0.94909675
   0.22138238  0.77838688  0.05109038
   0.44066812  0.22394125  0.95057808
   0.55475026  0.10955632  0.05087616
   0.44697296  0.55266487  0.95197640
   0.55269992  0.44718320  0.04817879
   0.44515912  0.89037305  0.94892148
   0.55923544  0.77588922  0.04946640
   0.78307642  0.22380191  0.95035064
   0.89052412  0.11619507  0.04929570
   0.77590296  0.55901666  0.95074328
   0.89258595  0.44269162  0.04941126
   0.77400144  0.88351004  0.95055453
   0.88337246  0.77387041  0.04964824
unknown system                          
           1
     8.250207    4.759095    0.000000
    -8.254180    4.765979    0.000000
     0.000000    0.000000   30.000000
   V    Mo   W    S 
   3   3   3  18
Direct configuration=     5
   0.33337062  0.33272238  0.00000536
   0.66800948  0.66744781 -0.00003385
   0.99842700  0.33254106  0.00002472
   0.33334463  0.67537762 -0.00000713
   0.66584329  0.32841117 -0.00002194
   0.00066505 -0.00421329  0.00002922
   0.00429637  0.67161261  0.00004001
   0.33303788 -0.00483035  0.00000673
   0.66257053  0.00059048 -0.00004458
   0.11446725  0.22856854  0.94998564
   0.22639232  0.11770615  0.05132086
   0.10690758  0.54911799  0.94859576
   0.21939096  0.43868170  0.04950834
   0.11176307  0.88803281  0.94676255
   0.22124680  0.77857354  0.05381480
   0.44010250  0.22456439  0.94868544
   0.55473213  0.10941013  0.05319562
   0.44710766  0.55250967  0.95047939
   0.55207183  0.44739848  0.05002147
   0.44532097  0.89074103  0.94620599
   0.55958311  0.77544958  0.05142612
   0.78451352  0.22435873  0.94807349
   0.89133552  0.11711588  0.05082811
   0.77522716  0.55905753  0.94918803
   0.89318124  0.44210616  0.05125374
   0.77333874  0.88216592  0.94873206
   0.88196722  0.77299673  0.05192394
unknown system                          
           1
     8.251858    4.758548    0.000000
    -8.257207    4.767816    0.000000
     0.000000    0.000000   30.000000
   V    Mo   W    S 
   3   3   3  18
Direct configuration=     6
   0.33337317  0.33235528  0.00000425
   0.66884168  0.66801159 -0.00007745
   0.99753267  0.33222419  0.00007163
   0.33333799  0.67724990 -0.00000862
   0.66555533  0.32698624 -0.00003038
   0.00094141 -0.00535547  0.00003897
   0.00594815  0.67345076  0.00005655
   0.33302492 -0.00632259  0.00000324
   0.66093178  0.00077834 -0.00005977
   0.11423050  0.22805704  0.94992283
   0.22640233  0.11722207  0.05140820
   0.10731218  0.54969028  0.94849301
   0.21978782  0.43965889  0.04945591
   0.11205986  0.88830786  0.94636379
   0.22115708  0.77874059  0.05435515
   0.44009054  0.22405471  0.94860362
   0.55441831  0.10939731  0.05358884
   0.44672697  0.55310487  0.95052732
   0.55231183  0.44713096  0.05008673
   0.44541038  0.89097712  0.94567362
   0.55921459  0.77563634  0.05152576
   0.78435914  0.22399269  0.94780328
   0.89112893  0.11644373  0.05078290
   0.77545262  0.55861222  0.94924463
   0.89309398  0.44243025  0.05126056
   0.77343291  0.88255918  0.94871574
   0.88213738  0.77282011  0.05218960
unknown system                          
           1
     8.252159    4.755457    0.000000
    -8.260421    4.769769    0.000000
     0.000000    0.000000   30.000000
   V    Mo   W    S 
   3   3   3  18
Direct configuration=     7
   0.33337922  0.33217778  0.00000509
   0.66952766  0.66839606 -0.00012103
   0.99679411  0.33187498  0.00011524
   0.33333879  0.67878199 -0.00000617
   0.66504579  0.32544631 -0.00003793
   0.00144047 -0.00637649  0.00004446
   0.00747144  0.67525164  0.00003768
   0.33301939 -0.00741676  0.00000332
   0.65942705  0.00106889 -0.00004117
   0.11400466  0.22768689  0.95000142
   0.22644268  0.11681824  0.05139119
   0.10754940  0.55013863  0.94851518
   0.22004221  0.44035074  0.04927876
   0.11236189  0.88849243  0.94612271
   0.22113121  0.77889524  0.05470224
   0.44004630  0.22360204  0.94862038
   0.55410563  0.10928646  0.05382797
   0.44647860  0.55355323  0.95069779
   0.55253563  0.44698100  0.05001222
   0.44544122  0.89114680  0.94532750
   0.55899640  0.77586030  0.05150463
   0.78422193  0.22369031  0.94765469
   0.89084120  0.11585352  0.05061162
   0.77574856  0.55831725  0.94942447
   0.89307430  0.44275592  0.05115265
   0.77346312  0.88290215  0.94881860
   0.88228560  0.77267891  0.05233638
unknown system                          
           1
     8.252675    4.756648    0.000000
    -8.260130    4.769563    0.000000
     0.000000    0.000000   30.000000
   V    Mo   W    S 
   3   3   3  18
Direct configuration=     8
   0.33337945  0.33214470  0.00000709
   0.67049414  0.66890636 -0.00019387
   0.99572147  0.33132234  0.00019005
   0.33334040  0.68092273 -0.00000517
   0.66400502  0.32275371 -0.00006601
   0.00248119 -0.00796452  0.00007001
   0.00983553  0.67808625  0.00005101
   0.33302001 -0.00882134 -0.00000014
   0.65711036  0.00159822 -0.00005459
   0.11370870  0.22722807  0.95015364
   0.22654507  0.11635112  0.05135863
   0.10780509  0.55072938  0.94858674
   0.22028324  0.44116856  0.04897960
   0.11289984  0.88879397  0.94574715
   0.22109909  0.77908687  0.05516019
   0.43994043  0.22302509  0.94865092
   0.55356062  0.10905422  0.05420498
   0.44623650  0.55413774  0.95098707
   0.55283221  0.44680631  0.04986300
   0.44547803  0.89135912  0.94487439
   0.55876033  0.77621206  0.05144041
   0.78403159  0.22326852  0.94746429
   0.89036179  0.11498447  0.05028209
   0.77624084  0.55793079  0.94976420
   0.89303730  0.44323524  0.05091268
   0.77351158  0.88342140  0.94905194
   0.88249463  0.77247308  0.05251959
unknown system                          
           1
     8.252877    4.755795    0.000000
    -8.261309    4.770401    0.000000
     0.000000    0.000000   30.000000
   V    Mo   W    S 
   3   3   3  18
Direct configuration=     9
   0.33337889  0.33217214  0.00000663
   0.67020322  0.66874719 -0.00017204
   0.99604184  0.33148057  0.00016756
   0.33334048  0.68024591 -0.00000531
   0.66427823  0.32351931 -0.00005721
   0.00220930 -0.00748778  0.00006193
   0.00911634  0.67724583  0.00004798
   0.33302042 -0.00834908  0.00000091
   0.65781658  0.00146168 -0.00005149
   0.11379996  0.22737311  0.95010975
   0.22651781  0.11650230  0.05137003
   0.10771901  0.55054458  0.94856807
   0.22019956  0.44090440  0.04906926
   0.11274531  0.88870507  0.94585923
   0.22111182  0.77902670  0.05501797
   0.43996917  0.22320649  0.94863998
   0.55371768  0.10911807  0.05409282
   0.44631914  0.55395426  0.95090025
   0.55274095  0.44686268  0.04990563
   0.44546441  0.89129045  0.94501499
   0.55883967  0.77610871  0.05145709
   0.78408937  0.22339869  0.94752200
   0.89050341  0.11524131  0.05037548
   0.77609530  0.55804416  0.94966802
   0.89304242  0.44308985  0.05097836
   0.77350251  0.88327058  0.94898839
   0.88243164  0.77253729  0.05246361
unknown system                          
           1
     8.246626    4.756874    0.000000
    -8.250898    4.764277    0.000000
     0.000000    0.000000   30.000000
   V    Mo   W    S 
   3   3   3  18
Direct configuration=    10
   0.33341828  0.33222452  0.00000699
   0.67051382  0.66888809 -0.00019218
   0.99572554  0.33128803  0.00018170
   0.33338325  0.68079111 -0.00000393
   0.66370071  0.32243591 -0.00006071
   0.00272834 -0.00805413  0.00006423
   0.00981753  0.67827281  0.00005341
   0.33302914 -0.00854421  0.00000114
   0.65708064  0.00172957 -0.00005698
   0.11373110  0.22726828  0.95015589
   0.22658867  0.11644290  0.05136739
   0.10772057  0.55063507  0.94859807
   0.22022365  0.44104662  0.04900056
   0.11293808  0.88880703  0.94574924
   0.22113131  0.77909337  0.05512202
   0.43989903  0.22307529  0.94863935
   0.55352367  0.10902616  0.05420358
   0.44630611  0.55407802  0.95097162
   0.55282015  0.44683626  0.04985527
   0.44545020  0.89133838  0.94491001
   0.55884490  0.77620261  0.05142680
   0.78404996  0.22331451  0.94746918
   0.89037543  0.11496763  0.05026337
   0.77621544  0.55790307  0.94979137
   0.89298647  0.44322057  0.05088702
   0.77354764  0.88343842  0.94908430
   0.88246482  0.77248855  0.05251118
unknown system                          
           1
     8.256958    4.757666    0.000000
    -8.265667    4.772753    0.000000
     0.000000    0.000000   30.000000
   V    Mo   W    S 
   3   3   3  18
Direct configuration=    11
   0.33338621  0.33178160  0.00000243
   0.66980725  0.66851291 -0.00011828
   0.99651594  0.33172746  0.00010489
   0.33335759  0.68003561 -0.00000579
   0.66512498  0.32517056 -0.00004243
   0.00132120 -0.00679690  0.00004494
   0.00829295  0.67596606  0.00003361
   0.33300093 -0.00835504 -0.00000203
   0.65858146  0.00090618 -0.00003935
   0.11388906  0.22747171  0.95006302
   0.22643072  0.11653994  0.05130446
   0.10776442  0.55041247  0.94849296
   0.22032456  0.44086377  0.04913873
   0.11240680  0.88859651  0.94605807
   0.22105559  0.77894106  0.05494421
   0.44007483  0.22333995  0.94871677
   0.55404920  0.10935155  0.05389404
   0.44622368  0.55379691  0.95085368
   0.55265133  0.44688772  0.04993717
   0.44552645  0.89126058  0.94509826
   0.55878507  0.77592454  0.05150468
   0.78419651  0.22353055  0.94758958
   0.89064401  0.11560157  0.05057537
   0.77593866  0.55829301  0.94948211
   0.89316599  0.44293803  0.05115956
   0.77336933  0.88295514  0.94883213
   0.88232973  0.77256099  0.05237711
unknown system                          
           1
     8.253953    4.755083    0.000000
    -8.263514    4.771645    0.000000
     0.000000    0.000000   30.000000
   V    Mo   W    S 
   3   3   3  18
Direct configuration=    12
   0.33336704  0.33183158  0.00000755
   0.67045145  0.66878776 -0.00018928
   0.99577969  0.33128418  0.00018539
   0.33332233  0.68121281 -0.00000292
   0.66434783  0.32330423 -0.00006244
   0.00215891 -0.00775336  0.00007024
   0.00970253  0.67772941  0.00006276
   0.33301246 -0.00896165  0.00000603
   0.65724537  0.00139168 -0.00006226
   0.11373071  0.22724868  0.95012702
   0.22651291  0.11628824  0.05133944
   0.10786217  0.55072430  0.94853499
   0.22037931  0.44122978  0.04895843
   0.11285092  0.88883402  0.94577742
   0.22105079  0.77909004  0.05522157
   0.43997575  0.22299513  0.94866882
   0.55360751  0.10914274  0.05416672
   0.44614021  0.55410354  0.95101281
   0.55280714  0.44680645  0.04988607
   0.44552981  0.89141007  0.94480978
   0.55869759  0.77614659  0.05148543
   0.78410222  0.22330806  0.94746404
   0.89032613  0.11506587  0.05034423
   0.77627624  0.55805292  0.94970043
   0.89312755  0.44320464  0.05097427
   0.77341990  0.88329328  0.94899396
   0.88242998  0.77244349  0.05251943
unknown system                          
           1
     8.254931    4.754298    0.000000
    -8.265724    4.772995    0.000000
     0.000000    0.000000   30.000000
   V    Mo   W    S 
   3   3   3  18
Direct configuration=    13
   0.33338737  0.33188820  0.00000710
   0.67079930  0.66892864 -0.00021432
   0.99541213  0.33104413  0.00020806
   0.33334970  0.68181498 -0.00000361
   0.66380782  0.32223727 -0.00006881
   0.00266825 -0.00830556  0.00007144
   0.01043161  0.67873476  0.00006140
   0.33301631 -0.00921745  0.00000016
   0.65650282  0.00163783 -0.00006519
   0.11364262  0.22712350  0.95018828
   0.22655513  0.11617831  0.05133675
   0.10790303  0.55090639  0.94859048
   0.22041704  0.44142298  0.04885215
   0.11303740  0.88891413  0.94567621
   0.22106115  0.77915637  0.05533128
   0.43993663  0.22284280  0.94867231
   0.55342191  0.10903943  0.05427427
   0.44610695  0.55426090  0.95111955
   0.55290194  0.44677273  0.04982330
   0.44552198  0.89146808  0.94470475
   0.55866532  0.77628940  0.05143178
   0.78402417  0.22318088  0.94741596
   0.89015181  0.11475549  0.05020609
   0.77644788  0.55791920  0.94984722
   0.89308643  0.44335494  0.05085917
   0.77345591  0.88347502  0.94911221
   0.88250184  0.77239111  0.05256190
unknown system                          
           1
     8.249328    4.754884    0.000000
    -8.257279    4.768661    0.000000
     0.000000    0.000000   30.000000
   V    Mo   W    S 
   3   3   3  18
Direct configuration=    14
   0.33340196  0.33199330  0.00000791
   0.67119580  0.66909159 -0.00024313
   0.99497860  0.33076206  0.00023605
   0.33337159  0.68242759 -0.00000304
   0.66310587  0.32089832 -0.00007677
   0.00335126 -0.00894003  0.00007669
   0.01128351  0.67993184  0.00006817
   0.33302260 -0.00943041 -0.00000268
   0.65565220  0.00197804 -0.00007332
   0.11354326  0.22698061  0.95025253
   0.22661494  0.11607313  0.05134941
   0.10793936  0.55110383  0.94864638
   0.22044018  0.44162622  0.04873924
   0.11328197  0.88902578  0.94552648
   0.22107880  0.77923059  0.05546720
   0.43987706  0.22267761  0.94865788
   0.55317785  0.10890694  0.05442831
   0.44608261  0.55444055  0.95122910
   0.55300641  0.44672819  0.04975884
   0.44550766  0.89152575  0.94457015
   0.55863759  0.77645561  0.05138066
   0.78393302  0.22303574  0.94734429
   0.88995999  0.11437763  0.05004383
   0.77663998  0.55773212  0.95001621
   0.89301744  0.44352933  0.05072247
   0.77352183  0.88371446  0.94924832
   0.88259109  0.77233804  0.05262872
unknown system                          
           1
     8.249447    4.757956    0.000000
    -8.255346    4.768183    0.000000
     0.000000    0.000000   30.000000
   V    Mo   W    S 
   3   3   3  18
Direct configuration=    15
   0.33350047  0.33174560  0.00000210
   0.67056682  0.66879519 -0.00020248
   0.99583314  0.33125490  0.00018432
   0.33344432  0.68166802 -0.00000371
   0.66430562  0.32333180 -0.00006011
   0.00197331 -0.00803210  0.00006087
   0.00987961  0.67801891  0.00004088
   0.33302894 -0.00930046  0.00000064
   0.65687745  0.00119839 -0.00004686
   0.11372242  0.22716374  0.95015740
   0.22651215  0.11617980  0.05129761
   0.10794728  0.55088993  0.94854519
   0.22052208  0.44140650  0.04889664
   0.11284544  0.88884007  0.94578886
   0.22103446  0.77913904  0.05529022
   0.43998164  0.22288403  0.94871004
   0.55360948  0.10916136  0.05415984
   0.44608863  0.55416943  0.95110272
   0.55285140  0.44681656  0.04984147
   0.44554933  0.89148128  0.94474511
   0.55865656  0.77619117  0.05145396
   0.78402785  0.22321956  0.94745094
   0.89019312  0.11495893  0.05033016
   0.77635747  0.55813795  0.94974340
   0.89316461  0.44328840  0.05097447
   0.77332697  0.88322612  0.94902353
   0.88241389  0.77238034  0.05251269
unknown system                          
           1
     8.237691    4.753347    0.000000
    -8.241773    4.760426    0.000000
     0.000000    0.000000   30.000000
   V    Mo   W    S 
   3   3   3  18
Direct configuration=    16
   0.33369590  0.33095622 -0.00000278
   0.66977369  0.66828301 -0.00013145
   0.99719490  0.33186927  0.00011230
   0.33351520  0.68140439 -0.00000335
   0.66629589  0.32724665 -0.00004367
  -0.00034148 -0.00669364  0.00006237
   0.00815684  0.67530644  0.00006088
   0.33306703 -0.00965024  0.00003235
   0.65829180 -0.00026674 -0.00005052
   0.11398803  0.22738704  0.95000080
   0.22631054  0.11617681  0.05117474
   0.10807456  0.55065880  0.94835532
   0.22086161  0.44127679  0.04907484
   0.11227143  0.88871664  0.94612849
   0.22089909  0.77904016  0.05513564
   0.44008355  0.22301159  0.94878324
   0.55419374  0.10961717  0.05377771
   0.44593182  0.55378246  0.95094830
   0.55261781  0.44698318  0.05002992
   0.44564328  0.89149709  0.94485136
   0.55859399  0.77572769  0.05164783
   0.78425012  0.22348658  0.94764895
   0.89040364  0.11582429  0.05078480
   0.77606905  0.55886641  0.94924329
   0.89354780  0.44300137  0.05137477
   0.77285928  0.88239636  0.94860160
   0.88196534  0.77230867  0.05240216
unknown system                          
           1
     8.248847    4.753189    0.000000
    -8.257820    4.768735    0.000000
     0.000000    0.000000   30.000000
   V    Mo   W    S 
   3   3   3  18
Direct configuration=    17
   0.33387483  0.33013057 -0.00001682
   0.66919084  0.66776242 -0.00009155
   0.99833491  0.33231877  0.00007105
   0.33352379  0.68134418 -0.00001190
   0.66861297  0.33147881 -0.00003801
  -0.00296315 -0.00532391  0.00004995
   0.00634501  0.67240459  0.00002432
   0.33314772 -0.01018090  0.00002252
   0.65979578 -0.00178366 -0.00002015
   0.11413946  0.22754728  0.94988648
   0.22599903  0.11596577  0.05103053
   0.10820852  0.55050547  0.94824792
   0.22121059  0.44124103  0.04916672
   0.11166587  0.88856329  0.94658143
   0.22074188  0.77896174  0.05499851
   0.44031850  0.22305684  0.94890423
   0.55481646  0.11009553  0.05331308
   0.44572853  0.55347365  0.95087852
   0.55247169  0.44714228  0.05018663
   0.44573658  0.89155730  0.94497652
   0.55847463  0.77534109  0.05176399
   0.78447459  0.22375529  0.94791740
   0.89054168  0.11666079  0.05115959
   0.77587729  0.55960282  0.94881744
   0.89397572  0.44273201  0.05170043
   0.77236884  0.88159047  0.94824517
   0.88160188  0.77227093  0.05223588
unknown system                          
           1
     8.253199    4.754837    0.000000
    -8.262896    4.771638    0.000000
     0.000000    0.000000   30.000000
   V    Mo   W    S 
   3   3   3  18
Direct configuration=    18
   0.33370269  0.33063667 -0.00000960
   0.67034997  0.66825285 -0.00017229
   0.99675865  0.33139209  0.00016672
   0.33339928  0.68255822 -0.00000946
   0.66663736  0.32749128 -0.00006739
  -0.00070209 -0.00681183  0.00007220
   0.00860392  0.67553265  0.00004860
   0.33315292 -0.01035767  0.00000470
   0.65782413 -0.00047697 -0.00004677
   0.11378382  0.22720876  0.95005424
   0.22612617  0.11571447  0.05113470
   0.10818122  0.55087998  0.94843574
   0.22104517  0.44162583  0.04887814
   0.11238849  0.88886990  0.94615111
   0.22080194  0.77910968  0.05532619
   0.44023364  0.22271550  0.94881699
   0.55409479  0.10967634  0.05376713
   0.44572515  0.55396130  0.95112451
   0.55278238  0.44698088  0.05002548
   0.44568984  0.89164242  0.94466934
   0.55842947  0.77582273  0.05160416
   0.78429134  0.22344031  0.94771864
   0.89012867  0.11561522  0.05065597
   0.77637591  0.55887208  0.94931659
   0.89369211  0.44315163  0.05125645
   0.77273108  0.88246492  0.94865963
   0.88198643  0.77224520  0.05241819
unknown system                          
           1
     8.252963    4.754496    0.000000
    -8.262825    4.771581    0.000000
     0.000000    0.000000   30.000000
   V    Mo   W    S 
   3   3   3  18
Direct configuration=    19
   0.33365538  0.33049125 -0.00000708
   0.67120459  0.66834594 -0.00018909
   0.99592478  0.33065703  0.00020143
   0.33330062  0.68379844 -0.00000114
   0.66603962  0.32615220 -0.00005774
  -0.00010797 -0.00746582  0.00006511
   0.00975747  0.67698506  0.00007116
   0.33319949 -0.01090320  0.00000556
   0.65671484 -0.00009656 -0.00005542
   0.11354611  0.22700772  0.95012661
   0.22613162  0.11541536  0.05115075
   0.10821579  0.55110491  0.94852405
   0.22113312  0.44199597  0.04866561
   0.11264215  0.88905851  0.94599772
   0.22078483  0.77925420  0.05555837
   0.44023864  0.22243743  0.94879176
   0.55384333  0.10960818  0.05392456
   0.44560441  0.55425089  0.95132881
   0.55300046  0.44695340  0.04996051
   0.44570464  0.89177350  0.94443092
   0.55833105  0.77601179  0.05151215
   0.78425529  0.22329368  0.94763266
   0.88980884  0.11515332  0.05048566
   0.77672944  0.55869239  0.94946976
   0.89371896  0.44336237  0.05109017
   0.77272468  0.88270480  0.94880522
   0.88211228  0.77217170  0.05251182
unknown system                          
           1
     8.253176    4.754473    0.000000
    -8.263124    4.771707    0.000000
     0.000000    0.000000   30.000000
   V    Mo   W    S 
   3   3   3  18
Direct configuration=    20
   0.33366037  0.33049845 -0.00000788
   0.67119513  0.66832697 -0.00019308
   0.99593399  0.33064766  0.00020231
   0.33330707  0.68375330 -0.00000380
   0.66596663  0.32607901 -0.00006102
  -0.00004290 -0.00747350  0.00006583
   0.00975574  0.67702695  0.00007118
   0.33319933 -0.01084580  0.00000369
   0.65671195 -0.00005803 -0.00005990
   0.11356374  0.22701167  0.95012763
   0.22614369  0.11544304  0.05115095
   0.10821817  0.55111407  0.94852655
   0.22113065  0.44198585  0.04866512
   0.11265654  0.88906050  0.94599208
   0.22078841  0.77925667  0.05555360
   0.44022732  0.22245182  0.94879314
   0.55382924  0.10959616  0.05393277
   0.44561138  0.55424385  0.95133255
   0.55298584  0.44694401  0.04995740
   0.44570214  0.89177143  0.94443936
   0.55833345  0.77601715  0.05150883
   0.78423956  0.22328776  0.94762788
   0.88980586  0.11513605  0.05048296
   0.77672907  0.55868251  0.94947729
   0.89370488  0.44336363  0.05108532
   0.77273630  0.88271289  0.94881455
   0.88212087  0.77218039  0.05251461
unknown system                          
           1
     8.251884    4.753847    0.000000
    -8.261718    4.770885    0.000000
     0.000000    0.000000   30.000000
   V    Mo   W    S 
   3   3   3  18
Direct configuration=    21
   0.33365277  0.33048431 -0.00000718
   0.67119314  0.66829393 -0.00019497
   0.99592461  0.33061054  0.00020566
   0.33329550  0.68378466 -0.00000237
   0.66584563  0.32592203 -0.00005987
   0.00009004 -0.00747827  0.00006632
   0.00985652  0.67714372  0.00007590
   0.33319991 -0.01083149  0.00000511
   0.65662935 -0.00001259 -0.00006170
   0.11356848  0.22701016  0.95013132
   0.22616065  0.11545740  0.05115178
   0.10821316  0.55111885  0.94852949
   0.22113567  0.44199140  0.04865647
   0.11267674  0.88907477  0.94597944
   0.22079231  0.77926682  0.05556073
   0.44020912  0.22244966  0.94879142
   0.55381021  0.10958954  0.05394498
   0.44559411  0.55424042  0.95133773
   0.55297759  0.44692680  0.04995596
   0.44569774  0.89177651  0.94442992
   0.55833178  0.77603160  0.05150701
   0.78423838  0.22328621  0.94762306
   0.88979552  0.11511266  0.05047365
   0.77674663  0.55866131  0.94948317
   0.89369685  0.44337515  0.05107392
   0.77274954  0.88274424  0.94882258
   0.88213249  0.77218409  0.05252038
unknown system                          
           1
     8.255461    4.754417    0.000000
    -8.266671    4.773838    0.000000
     0.000000    0.000000   30.000000
   V    Mo   W    S 
   3   3   3  18
Direct configuration=    22
   0.33364495  0.33051371 -0.00000669
   0.67115502  0.66832482 -0.00019211
   0.99593730  0.33066222  0.00020366
   0.33329575  0.68374393 -0.00000140
   0.66586187  0.32590818 -0.00005855
   0.00009621 -0.00748078  0.00006589
   0.00985594  0.67712240  0.00007387
   0.33319330 -0.01083073  0.00000578
   0.65664387 -0.00001183 -0.00005836
   0.11356747  0.22701171  0.95013185
   0.22616398  0.11546485  0.05115212
   0.10820980  0.55111261  0.94852707
   0.22112393  0.44198055  0.04866594
   0.11267023  0.88906272  0.94598090
   0.22079640  0.77925835  0.05555172
   0.44020666  0.22245444  0.94879203
   0.55381603  0.10958367  0.05394241
   0.44559733  0.55423690  0.95132505
   0.55297642  0.44692293  0.04995606
   0.44569441  0.89176706  0.94443797
   0.55833512  0.77603391  0.05151142
   0.78423812  0.22328408  0.94762239
   0.88981032  0.11512448  0.05047301
   0.77673501  0.55865466  0.94948257
   0.89369173  0.44337154  0.05107801
   0.77275918  0.88275421  0.94881727
   0.88213812  0.77218387  0.05251999
unknown system                          
           1
     8.242788    4.750992    0.000000
    -8.250756    4.764798    0.000000
     0.000000    0.000000   30.000000
   V    Mo   W    S 
   3   3   3  18
Direct configuration=    23
   0.33366617  0.33046820 -0.00000873
   0.67187441  0.66832238 -0.00023161
   0.99528247  0.32999116  0.00023875
   0.33327899  0.68457710 -0.00000753
   0.66496227  0.32441684 -0.00006946
   0.00088675 -0.00814236  0.00006532
   0.01079087  0.67858747  0.00009488
   0.33324012 -0.01099410 -0.00000356
   0.65566534  0.00046744 -0.00009123
   0.11345534  0.22686123  0.95019175
   0.22623905  0.11535046  0.05117760
   0.10824394  0.55133819  0.94861033
   0.22118541  0.44224503  0.04848678
   0.11297428  0.88924659  0.94580827
   0.22080883  0.77940320  0.05573868
   0.44014446  0.22227923  0.94876500
   0.55351521  0.10946313  0.05413220
   0.44556119  0.55446090  0.95152232
   0.55310074  0.44688201  0.04988505
   0.44568801  0.89187087  0.94426501
   0.55828436  0.77620696  0.05141278
   0.78413397  0.22313628  0.94752424
   0.88951955  0.11463316  0.05031319
   0.77702086  0.55846376  0.94966280
   0.89363912  0.44355790  0.05090882
   0.77280005  0.88296891  0.94900095
   0.88225272  0.77215251  0.05260730
unknown system                          
           1
     8.258477    4.755744    0.000000
    -8.270072    4.775830    0.000000
     0.000000    0.000000   30.000000
   V    Mo   W    S 
   3   3   3  18
Direct configuration=    24
   0.33370402  0.33058600 -0.00001473
   0.67010006  0.66841920 -0.00016445
   0.99696207  0.33180122  0.00014480
   0.33344290  0.68279215 -0.00001948
   0.66756548  0.32872604 -0.00008532
  -0.00160315 -0.00658127  0.00006938
   0.00841659  0.67476456  0.00001350
   0.33311922 -0.01093533 -0.00002356
   0.65796823 -0.00115202 -0.00004175
   0.11369156  0.22723196  0.95005070
   0.22604837  0.11549095  0.05106821
   0.10822210  0.55075369  0.94836530
   0.22112786  0.44169101  0.04890864
   0.11221144  0.88881925  0.94628006
   0.22076478  0.77907368  0.05539399
   0.44033929  0.22260003  0.94890515
   0.55424988  0.10980968  0.05365980
   0.44562763  0.55393987  0.95109525
   0.55286437  0.44708322  0.05003013
   0.44572490  0.89165543  0.94463608