   27   27  100    1
  0.9710400E+02  0.1002848E-08  0.1002848E-08  0.3000000E-08  0.5000000E-15
  1.000000000000000E-004
  CAR 
 unknown system                          
    159     34    120
 
  0.0000000E+00  0.0000000E+00  0.0000000E+00  0.1562500E-01
    1      -17.824323   1.000000
    2      -16.763483   1.000000
    3      -16.638695   1.000000
    4      -16.619200   1.000000
    5      -16.582958   1.000000
    6      -16.487033   1.000000
    7      -16.420298   1.000000
    8      -16.235800   1.000000
    9      -16.132706   1.000000
   10      -16.118821   1.000000
   11      -16.098116   1.000000
   12      -15.950762   1.000000
   13      -15.881118   1.000000
   14      -15.771433   1.000000
   15      -15.605884   1.000000
   16      -15.410184   1.000000
   17      -15.386966   1.000000
   18      -15.184550   1.000000
   19       -9.347302   1.000000
   20       -9.025367   1.000000
   21       -8.970557   1.000000
   22       -8.917518   1.000000
   23       -8.745038   1.000000
   24       -8.664993   1.000000
   25       -8.600499   1.000000
   26       -8.588884   1.000000
   27       -8.529631   1.000000
   28       -8.501785   1.000000
   29       -8.464813   1.000000
   30       -8.439201   1.000000
   31       -8.338840   1.000000
   32       -8.125743   1.000000
   33       -8.073104   1.000000
   34       -7.994541   1.000000
   35       -7.805633   1.000000
   36       -7.759250   1.000000
   37       -7.693768   1.000000
   38       -7.588699   1.000000
   39       -7.489266   1.000000
   40       -7.409407   1.000000
   41       -7.356141   1.000000
   42       -7.220866   1.000000
   43       -7.083352   1.000000
   44       -6.879681   1.000000
   45       -6.812411   1.000000
   46       -6.789440   1.000000
   47       -6.774747   1.000000
   48       -6.645556   1.000000
   49       -6.536389   1.000000
   50       -6.499426   1.000000
   51       -6.415181   1.000000
   52       -6.353850   1.000000
   53       -6.307554   1.000000
   54       -6.248231   1.000000
   55       -6.218692   1.000000
   56       -6.159859   1.000000
   57       -6.054435   1.000000
   58       -5.978702   1.000000
   59       -5.841601   1.000000
   60       -5.534123   1.000000
   61       -5.407496   1.000000
   62       -5.318629   1.000000
   63       -5.260367   1.000000
   64       -5.216573   1.000000
   65       -5.094755   1.000000
   66       -4.998639   1.000000
   67       -4.971703   1.000000
   68       -4.835757   1.000000
   69       -4.826440   1.000000
   70       -4.697231   1.000000
   71       -4.659762   1.000000
   72       -4.631641   1.000000
   73       -4.543961   1.000000
   74       -4.371643   1.000000
   75       -4.078291   1.000000
   76       -3.988545   0.999998
   77       -3.839621   0.999799
   78       -3.575877   0.952906
   79       -3.505593   0.880346
   80       -3.449114   0.781526
   81       -3.206642   0.174333
   82       -2.955973   0.003367
   83       -2.836574   0.000190
   84       -2.704675   0.000004
   85       -2.560974   0.000000
   86       -2.408347   0.000000
   87       -2.379507   0.000000
   88       -2.308199   0.000000
   89       -2.224850   0.000000
   90       -2.169538   0.000000
   91       -1.706847   0.000000
   92       -1.528363   0.000000
   93       -1.455304   0.000000
   94       -1.270138   0.000000
   95       -1.140705   0.000000
   96       -1.047210   0.000000
   97       -0.962761   0.000000
   98       -0.913169   0.000000
   99       -0.707361   0.000000
  100       -0.672464   0.000000
  101       -0.580163   0.000000
  102       -0.528506   0.000000
  103       -0.501687   0.000000
  104       -0.348552   0.000000
  105       -0.232611   0.000000
  106       -0.171055   0.000000
  107       -0.108313   0.000000
  108       -0.031765   0.000000
  109        0.029637   0.000000
  110        0.215313   0.000000
  111        0.335608   0.000000
  112        0.640890   0.000000
  113        0.772615   0.000000
  114        0.859411   0.000000
  115        0.907180   0.000000
  116        0.955169   0.000000
  117        1.263997   0.000000
  118        1.644729   0.000000
  119        1.833437   0.000000
  120        2.150119   0.000000
 
  0.1250000E+00  0.2775558E-16  0.0000000E+00  0.3125000E-01
    1      -17.800309   1.000000
    2      -16.793553   1.000000
    3      -16.758299   1.000000
    4      -16.616628   1.000000
    5      -16.557380   1.000000
    6      -16.501532   1.000000
    7      -16.376967   1.000000
    8      -16.254505   1.000000
    9      -16.137463   1.000000
   10      -16.080375   1.000000
   11      -16.032267   1.000000
   12      -15.942459   1.000000
   13      -15.866608   1.000000
   14      -15.763742   1.000000
   15      -15.615791   1.000000
   16      -15.417198   1.000000
   17      -15.398991   1.000000
   18      -15.187598   1.000000
   19       -9.338981   1.000000
   20       -9.151310   1.000000
   21       -9.065699   1.000000
   22       -9.013634   1.000000
   23       -8.785809   1.000000
   24       -8.713337   1.000000
   25       -8.643031   1.000000
   26       -8.557737   1.000000
   27       -8.535281   1.000000
   28       -8.501444   1.000000
   29       -8.401664   1.000000
   30       -8.284444   1.000000
   31       -8.241224   1.000000
   32       -8.072445   1.000000
   33       -8.024307   1.000000
   34       -7.912075   1.000000
   35       -7.783494   1.000000
   36       -7.749584   1.000000
   37       -7.621054   1.000000
   38       -7.600391   1.000000
   39       -7.514041   1.000000
   40       -7.448093   1.000000
   41       -7.333298   1.000000
   42       -7.175486   1.000000
   43       -7.135652   1.000000
   44       -6.956740   1.000000
   45       -6.856925   1.000000
   46       -6.781183   1.000000
   47       -6.721336   1.000000
   48       -6.660372   1.000000
   49       -6.518761   1.000000
   50       -6.462164   1.000000
   51       -6.427525   1.000000
   52       -6.396846   1.000000
   53       -6.298990   1.000000
   54       -6.254205   1.000000
   55       -6.244439   1.000000
   56       -6.126374   1.000000
   57       -6.043686   1.000000
   58       -5.959407   1.000000
   59       -5.799639   1.000000
   60       -5.511679   1.000000
   61       -5.435241   1.000000
   62       -5.421148   1.000000
   63       -5.321885   1.000000
   64       -5.234343   1.000000
   65       -5.090310   1.000000
   66       -5.039011   1.000000
   67       -4.958513   1.000000
   68       -4.910248   1.000000
   69       -4.808977   1.000000
   70       -4.730397   1.000000
   71       -4.646043   1.000000
   72       -4.592066   1.000000
   73       -4.473462   1.000000
   74       -4.279553   1.000000
   75       -4.070481   1.000000
   76       -3.942620   0.999990
   77       -3.876258   0.999927
   78       -3.690964   0.993568
   79       -3.583116   0.957727
   80       -3.442903   0.768354
   81       -3.113145   0.054988
   82       -2.934902   0.002127
   83       -2.808195   0.000087
   84       -2.686031   0.000002
   85       -2.556901   0.000000
   86       -2.410756   0.000000
   87       -2.356390   0.000000
   88       -2.297092   0.000000
   89       -2.222056   0.000000
   90       -2.142585   0.000000
   91       -1.706304   0.000000
   92       -1.535552   0.000000
   93       -1.451123   0.000000
   94       -1.275502   0.000000
   95       -1.128674   0.000000
   96       -1.041116   0.000000
   97       -0.990854   0.000000
   98       -0.911360   0.000000
   99       -0.782202   0.000000
  100       -0.729137   0.000000
  101       -0.638875   0.000000
  102       -0.571526   0.000000
  103       -0.530295   0.000000
  104       -0.403023   0.000000
  105       -0.309909   0.000000
  106       -0.190992   0.000000
  107       -0.127895   0.000000
  108       -0.027115   0.000000
  109        0.142436   0.000000
  110        0.172967   0.000000
  111        0.392858   0.000000
  112        0.547611   0.000000
  113        0.709175   0.000000
  114        0.898165   0.000000
  115        0.945882   0.000000
  116        1.004272   0.000000
  117        1.312867   0.000000
  118        1.687624   0.000000
  119        1.873609   0.000000
  120        2.185002   0.000000
 
  0.2500000E+00  0.5551115E-16  0.0000000E+00  0.3125000E-01
    1      -17.730292   1.000000
    2      -16.995396   1.000000
    3      -16.750603   1.000000
    4      -16.669002   1.000000
    5      -16.611566   1.000000
    6      -16.464345   1.000000
    7      -16.353111   1.000000
    8      -16.205098   1.000000
    9      -16.137033   1.000000
   10      -16.018128   1.000000
   11      -15.995973   1.000000
   12      -15.897028   1.000000
   13      -15.799778   1.000000
   14      -15.757143   1.000000
   15      -15.631028   1.000000
   16      -15.447071   1.000000
   17      -15.416593   1.000000
   18      -15.196497   1.000000
   19       -9.490826   1.000000
   20       -9.267999   1.000000
   21       -9.178829   1.000000
   22       -9.108995   1.000000
   23       -8.898677   1.000000
   24       -8.780371   1.000000
   25       -8.588859   1.000000
   26       -8.551487   1.000000
   27       -8.507432   1.000000
   28       -8.423463   1.000000
   29       -8.309750   1.000000
   30       -8.233054   1.000000
   31       -8.115897   1.000000
   32       -8.064433   1.000000
   33       -7.904522   1.000000
   34       -7.874422   1.000000
   35       -7.720095   1.000000
   36       -7.651018   1.000000
   37       -7.588966   1.000000
   38       -7.559401   1.000000
   39       -7.455661   1.000000
   40       -7.385834   1.000000
   41       -7.318210   1.000000
   42       -7.200538   1.000000
   43       -7.110626   1.000000
   44       -7.004593   1.000000
   45       -6.872525   1.000000
   46       -6.767679   1.000000
   47       -6.728449   1.000000
   48       -6.661807   1.000000
   49       -6.571137   1.000000
   50       -6.478170   1.000000
   51       -6.419234   1.000000
   52       -6.372845   1.000000
   53       -6.316312   1.000000
   54       -6.258552   1.000000
   55       -6.177386   1.000000
   56       -6.116136   1.000000
   57       -5.975892   1.000000
   58       -5.920490   1.000000
   59       -5.755982   1.000000
   60       -5.661748   1.000000
   61       -5.612727   1.000000
   62       -5.500513   1.000000
   63       -5.417941   1.000000
   64       -5.302769   1.000000
   65       -5.183683   1.000000
   66       -5.022624   1.000000
   67       -4.944545   1.000000
   68       -4.904013   1.000000
   69       -4.797548   1.000000
   70       -4.760772   1.000000
   71       -4.590418   1.000000
   72       -4.486461   1.000000
   73       -4.354485   1.000000
   74       -4.266513   1.000000
   75       -4.116029   1.000000
   76       -3.968076   0.999996
   77       -3.885035   0.999943
   78       -3.781446   0.999118
   79       -3.637947   0.982683
   80       -3.419909   0.715947
   81       -3.019763   0.011954
   82       -2.893162   0.000806
   83       -2.754388   0.000018
   84       -2.625556   0.000000
   85       -2.547317   0.000000
   86       -2.423672   0.000000
   87       -2.317627   0.000000
   88       -2.255656   0.000000
   89       -2.189534   0.000000
   90       -2.074522   0.000000
   91       -1.698342   0.000000
   92       -1.557769   0.000000
   93       -1.452091   0.000000
   94       -1.284628   0.000000
   95       -1.121568   0.000000
   96       -1.094466   0.000000
   97       -1.020179   0.000000
   98       -0.952736   0.000000
   99       -0.912235   0.000000
  100       -0.858558   0.000000
  101       -0.753461   0.000000
  102       -0.666178   0.000000
  103       -0.557898   0.000000
  104       -0.468313   0.000000
  105       -0.424983   0.000000
  106       -0.252417   0.000000
  107       -0.158219   0.000000
  108       -0.070503   0.000000
  109        0.093459   0.000000
  110        0.227187   0.000000
  111        0.404673   0.000000
  112        0.538900   0.000000
  113        0.606561   0.000000
  114        0.944016   0.000000
  115        1.000729   0.000000
  116        1.115922   0.000000
  117        1.423753   0.000000
  118        1.807899   0.000000
  119        1.988102   0.000000
  120        2.288504   0.000000
 
  0.3750000E+00  0.0000000E+00  0.0000000E+00  0.3125000E-01
    1      -17.624153   1.000000
    2      -17.194237   1.000000
    3      -16.739614   1.000000
    4      -16.708994   1.000000
    5      -16.655703   1.000000
    6      -16.454540   1.000000
    7      -16.345368   1.000000
    8      -16.170196   1.000000
    9      -16.088862   1.000000
   10      -16.002732   1.000000
   11      -15.941220   1.000000
   12      -15.872977   1.000000
   13      -15.783619   1.000000
   14      -15.723876   1.000000
   15      -15.631338   1.000000
   16      -15.470947   1.000000
   17      -15.432908   1.000000
   18      -15.207787   1.000000
   19       -9.697309   1.000000
   20       -9.344006   1.000000
   21       -9.222500   1.000000
   22       -9.103811   1.000000
   23       -8.986592   1.000000
   24       -8.817992   1.000000
   25       -8.557158   1.000000
   26       -8.507589   1.000000
   27       -8.434125   1.000000
   28       -8.338047   1.000000
   29       -8.289864   1.000000
   30       -8.225860   1.000000
   31       -8.142522   1.000000
   32       -8.045831   1.000000
   33       -7.934747   1.000000
   34       -7.828253   1.000000
   35       -7.777064   1.000000
   36       -7.657180   1.000000
   37       -7.579229   1.000000
   38       -7.460040   1.000000
   39       -7.358238   1.000000
   40       -7.278090   1.000000
   41       -7.203096   1.000000
   42       -7.141215   1.000000
   43       -7.049845   1.000000
   44       -6.960263   1.000000
   45       -6.840489   1.000000
   46       -6.819684   1.000000
   47       -6.718336   1.000000
   48       -6.669403   1.000000
   49       -6.552965   1.000000
   50       -6.472769   1.000000
   51       -6.411609   1.000000
   52       -6.381653   1.000000
   53       -6.321036   1.000000
   54       -6.210044   1.000000
   55       -6.115792   1.000000
   56       -6.057595   1.000000
   57       -5.967978   1.000000
   58       -5.915455   1.000000
   59       -5.870571   1.000000
   60       -5.806740   1.000000
   61       -5.761782   1.000000
   62       -5.583684   1.000000
   63       -5.534786   1.000000
   64       -5.342608   1.000000
   65       -5.197353   1.000000
   66       -5.018717   1.000000
   67       -4.933173   1.000000
   68       -4.878932   1.000000
   69       -4.800880   1.000000
   70       -4.749891   1.000000
   71       -4.613276   1.000000
   72       -4.533218   1.000000
   73       -4.402594   1.000000
   74       -4.187907   1.000000
   75       -4.081253   1.000000
   76       -4.027043   0.999999
   77       -3.889457   0.999950
   78       -3.718814   0.996367
   79       -3.593713   0.964056
   80       -3.441767   0.765899
   81       -2.968531   0.004385
   82       -2.856454   0.000321
   83       -2.714549   0.000005
   84       -2.565806   0.000000
   85       -2.538899   0.000000
   86       -2.421227   0.000000
   87       -2.286097   0.000000
   88       -2.206617   0.000000
   89       -2.142277   0.000000
   90       -1.986850   0.000000
   91       -1.671592   0.000000
   92       -1.592923   0.000000
   93       -1.479610   0.000000
   94       -1.326700   0.000000
   95       -1.205653   0.000000
   96       -1.118878   0.000000
   97       -1.098585   0.000000
   98       -1.037319   0.000000
   99       -0.959657   0.000000
  100       -0.931378   0.000000
  101       -0.835339   0.000000
  102       -0.716737   0.000000
  103       -0.591615   0.000000
  104       -0.532061   0.000000
  105       -0.455428   0.000000
  106       -0.338306   0.000000
  107       -0.199089   0.000000
  108       -0.139585   0.000000
  109       -0.024216   0.000000
  110        0.251833   0.000000
  111        0.374371   0.000000
  112        0.507658   0.000000
  113        0.657651   0.000000
  114        0.969783   0.000000
  115        1.066765   0.000000
  116        1.201786   0.000000
  117        1.524902   0.000000
  118        1.988582   0.000000
  119        2.163750   0.000000
  120        2.455650   0.000000
 
  0.5000000E+00  0.1110223E-15  0.0000000E+00  0.1562500E-01
    1      -17.543577   1.000000
    2      -17.307614   1.000000
    3      -16.733233   1.000000
    4      -16.723704   1.000000
    5      -16.672623   1.000000
    6      -16.454712   1.000000
    7      -16.341579   1.000000
    8      -16.171410   1.000000
    9      -16.042241   1.000000
   10      -15.993020   1.000000
   11      -15.942010   1.000000
   12      -15.850488   1.000000
   13      -15.773648   1.000000
   14      -15.739413   1.000000
   15      -15.623517   1.000000
   16      -15.470120   1.000000
   17      -15.441621   1.000000
   18      -15.213348   1.000000
   19       -9.773141   1.000000
   20       -9.381726   1.000000
   21       -9.244526   1.000000
   22       -9.080888   1.000000
   23       -9.005247   1.000000
   24       -8.829155   1.000000
   25       -8.547281   1.000000
   26       -8.502045   1.000000
   27       -8.408060   1.000000
   28       -8.335548   1.000000
   29       -8.252004   1.000000
   30       -8.176798   1.000000
   31       -8.150711   1.000000
   32       -8.037012   1.000000
   33       -7.970253   1.000000
   34       -7.906777   1.000000
   35       -7.784332   1.000000
   36       -7.716639   1.000000
   37       -7.549689   1.000000
   38       -7.403781   1.000000
   39       -7.326953   1.000000
   40       -7.253688   1.000000
   41       -7.114422   1.000000
   42       -7.063211   1.000000
   43       -7.007037   1.000000
   44       -6.951239   1.000000
   45       -6.862461   1.000000
   46       -6.758647   1.000000
   47       -6.713336   1.000000
   48       -6.658763   1.000000
   49       -6.562808   1.000000
   50       -6.500942   1.000000
   51       -6.415314   1.000000
   52       -6.367712   1.000000
   53       -6.285928   1.000000
   54       -6.256745   1.000000
   55       -6.124077   1.000000
   56       -6.081604   1.000000
   57       -5.977626   1.000000
   58       -5.922714   1.000000
   59       -5.868635   1.000000
   60       -5.822254   1.000000
   61       -5.779739   1.000000
   62       -5.603726   1.000000
   63       -5.485095   1.000000
   64       -5.362824   1.000000
   65       -5.309527   1.000000
   66       -5.120649   1.000000
   67       -4.920680   1.000000
   68       -4.892972   1.000000
   69       -4.808303   1.000000
   70       -4.750820   1.000000
   71       -4.619020   1.000000
   72       -4.517431   1.000000
   73       -4.379327   1.000000
   74       -4.199277   1.000000
   75       -4.074301   1.000000
   76       -4.030668   0.999999
   77       -3.843632   0.999819
   78       -3.702457   0.994897
   79       -3.558724   0.939718
   80       -3.467825   0.818500
   81       -2.951793   0.003079
   82       -2.840171   0.000209
   83       -2.699477   0.000003
   84       -2.565876   0.000000
   85       -2.524016   0.000000
   86       -2.400970   0.000000
   87       -2.274512   0.000000
   88       -2.186670   0.000000
   89       -2.119216   0.000000
   90       -1.942381   0.000000
   91       -1.658491   0.000000
   92       -1.600452   0.000000
   93       -1.516242   0.000000
   94       -1.361402   0.000000
   95       -1.215046   0.000000
   96       -1.184477   0.000000
   97       -1.131583   0.000000
   98       -1.050626   0.000000
   99       -0.976243   0.000000
  100       -0.954858   0.000000
  101       -0.854662   0.000000
  102       -0.731244   0.000000
  103       -0.603564   0.000000
  104       -0.555247   0.000000
  105       -0.464773   0.000000
  106       -0.368903   0.000000
  107       -0.222901   0.000000
  108       -0.161565   0.000000
  109       -0.086319   0.000000
  110        0.252323   0.000000
  111        0.368727   0.000000
  112        0.489745   0.000000
  113        0.691000   0.000000
  114        0.975001   0.000000
  115        1.095473   0.000000
  116        1.234586   0.000000
  117        1.563927   0.000000
  118        2.188496   0.000000
  119        2.256702   0.000000
  120        2.376032   0.000000
 
  0.0000000E+00  0.1250000E+00  0.0000000E+00  0.3125000E-01
    1      -17.799639   1.000000
    2      -16.786238   1.000000
    3      -16.750431   1.000000
    4      -16.661156   1.000000
    5      -16.557986   1.000000
    6      -16.436888   1.000000
    7      -16.386740   1.000000
    8      -16.292783   1.000000
    9      -16.156526   1.000000
   10      -16.092197   1.000000
   11      -16.001410   1.000000
   12      -15.934710   1.000000
   13      -15.862538   1.000000
   14      -15.758281   1.000000
   15      -15.612696   1.000000
   16      -15.419780   1.000000
   17      -15.398865   1.000000
   18      -15.191807   1.000000
   19       -9.341104   1.000000
   20       -9.162369   1.000000
   21       -9.077037   1.000000
   22       -9.025052   1.000000
   23       -8.749362   1.000000
   24       -8.713787   1.000000
   25       -8.635209   1.000000
   26       -8.576537   1.000000
   27       -8.531388   1.000000
   28       -8.466664   1.000000
   29       -8.386613   1.000000
   30       -8.337591   1.000000
   31       -8.288652   1.000000
   32       -8.027673   1.000000
   33       -7.964875   1.000000
   34       -7.911715   1.000000
   35       -7.809474   1.000000
   36       -7.784350   1.000000
   37       -7.704016   1.000000
   38       -7.522760   1.000000
   39       -7.496552   1.000000
   40       -7.393663   1.000000
   41       -7.315858   1.000000
   42       -7.269596   1.000000
   43       -7.091433   1.000000
   44       -6.946563   1.000000
   45       -6.880619   1.000000
   46       -6.792200   1.000000
   47       -6.749162   1.000000
   48       -6.667444   1.000000
   49       -6.551710   1.000000
   50       -6.492165   1.000000
   51       -6.403444   1.000000
   52       -6.363282   1.000000
   53       -6.304898   1.000000
   54       -6.251742   1.000000
   55       -6.181560   1.000000
   56       -6.130826   1.000000
   57       -6.046703   1.000000
   58       -5.940150   1.000000
   59       -5.788145   1.000000
   60       -5.531191   1.000000
   61       -5.432975   1.000000
   62       -5.377354   1.000000
   63       -5.307026   1.000000
   64       -5.222572   1.000000
   65       -5.190997   1.000000
   66       -5.021074   1.000000
   67       -4.999976   1.000000
   68       -4.905364   1.000000
   69       -4.838777   1.000000
   70       -4.676879   1.000000
   71       -4.609474   1.000000
   72       -4.559359   1.000000
   73       -4.508151   1.000000
   74       -4.332427   1.000000
   75       -4.046311   1.000000
   76       -3.914408   0.999976
   77       -3.882209   0.999938
   78       -3.736478   0.997518
   79       -3.604253   0.969559
   80       -3.339968   0.502226
   81       -3.159944   0.102508
   82       -2.971404   0.004653
   83       -2.805726   0.000081
   84       -2.696609   0.000003
   85       -2.568227   0.000000
   86       -2.416804   0.000000
   87       -2.344207   0.000000
   88       -2.285583   0.000000
   89       -2.222416   0.000000
   90       -2.127725   0.000000
   91       -1.718521   0.000000
   92       -1.530706   0.000000
   93       -1.456548   0.000000
   94       -1.258245   0.000000
   95       -1.134611   0.000000
   96       -1.052833   0.000000
   97       -0.991233   0.000000
   98       -0.909036   0.000000
   99       -0.738248   0.000000
  100       -0.709394   0.000000
  101       -0.629242   0.000000
  102       -0.575758   0.000000
  103       -0.506706   0.000000
  104       -0.422636   0.000000
  105       -0.379062   0.000000
  106       -0.262109   0.000000
  107       -0.159255   0.000000
  108        0.037472   0.000000
  109        0.170091   0.000000
  110        0.260071   0.000000
  111        0.341287   0.000000
  112        0.615522   0.000000
  113        0.718403   0.000000
  114        0.854652   0.000000
  115        0.932859   0.000000
  116        0.981549   0.000000
  117        1.313945   0.000000
  118        1.689474   0.000000
  119        1.871438   0.000000
  120        2.185411   0.000000
 
  0.1250000E+00  0.1250000E+00  0.0000000E+00  0.3125000E-01
    1      -17.751552   1.000000
    2      -16.924590   1.000000
    3      -16.760707   1.000000
    4      -16.731094   1.000000
    5      -16.519526   1.000000
    6      -16.443605   1.000000
    7      -16.360573   1.000000
    8      -16.270133   1.000000
    9      -16.162734   1.000000
   10      -16.038204   1.000000
   11      -15.986219   1.000000
   12      -15.906341   1.000000
   13      -15.807469   1.000000
   14      -15.737709   1.000000
   15      -15.627153   1.000000
   16      -15.440282   1.000000
   17      -15.414788   1.000000
   18      -15.199012   1.000000
   19       -9.413536   1.000000
   20       -9.291741   1.000000
   21       -9.203934   1.000000
   22       -9.088198   1.000000
   23       -8.810497   1.000000
   24       -8.735686   1.000000
   25       -8.625843   1.000000
   26       -8.535918   1.000000
   27       -8.480209   1.000000
   28       -8.423112   1.000000
   29       -8.371753   1.000000
   30       -8.288160   1.000000
   31       -8.161304   1.000000
   32       -8.041485   1.000000
   33       -7.950089   1.000000
   34       -7.868220   1.000000
   35       -7.721874   1.000000
   36       -7.698602   1.000000
   37       -7.627040   1.000000
   38       -7.526665   1.000000
   39       -7.471951   1.000000
   40       -7.351856   1.000000
   41       -7.327989   1.000000
   42       -7.192275   1.000000
   43       -7.126191   1.000000
   44       -7.047821   1.000000
   45       -6.856707   1.000000
   46       -6.815928   1.000000
   47       -6.763998   1.000000
   48       -6.656444   1.000000
   49       -6.550054   1.000000
   50       -6.494534   1.000000
   51       -6.416834   1.000000
   52       -6.362863   1.000000
   53       -6.320176   1.000000
   54       -6.229362   1.000000
   55       -6.161113   1.000000
   56       -6.125095   1.000000
   57       -5.985030   1.000000
   58       -5.908175   1.000000
   59       -5.733995   1.000000
   60       -5.620965   1.000000
   61       -5.530002   1.000000
   62       -5.457931   1.000000
   63       -5.380355   1.000000
   64       -5.282790   1.000000
   65       -5.227361   1.000000
   66       -5.112827   1.000000
   67       -4.945447   1.000000
   68       -4.902476   1.000000
   69       -4.799888   1.000000
   70       -4.714537   1.000000
   71       -4.613506   1.000000
   72       -4.486271   1.000000
   73       -4.368146   1.000000
   74       -4.270945   1.000000
   75       -4.115992   1.000000
   76       -4.020521   0.999999
   77       -3.824476   0.999700
   78       -3.803909   0.999492
   79       -3.626427   0.978880
   80       -3.324305   0.458119
   81       -3.099437   0.045016
   82       -2.955815   0.003356
   83       -2.774459   0.000033
   84       -2.650161   0.000001
   85       -2.566990   0.000000
   86       -2.450632   0.000000
   87       -2.307442   0.000000
   88       -2.234756   0.000000
   89       -2.195756   0.000000
   90       -2.089803   0.000000
   91       -1.719804   0.000000
   92       -1.545149   0.000000
   93       -1.462487   0.000000
   94       -1.257645   0.000000
   95       -1.122599   0.000000
   96       -1.077393   0.000000
   97       -1.026069   0.000000
   98       -0.910559   0.000000
   99       -0.845916   0.000000
  100       -0.790379   0.000000
  101       -0.718151   0.000000
  102       -0.652805   0.000000
  103       -0.522926   0.000000
  104       -0.486468   0.000000
  105       -0.436200   0.000000
  106       -0.290874   0.000000
  107       -0.212652   0.000000
  108        0.002153   0.000000
  109        0.176964   0.000000
  110        0.292098   0.000000
  111        0.371148   0.000000
  112        0.551447   0.000000
  113        0.646196   0.000000
  114        0.919527   0.000000
  115        0.978587   0.000000
  116        1.024908   0.000000
  117        1.409595   0.000000
  118        1.772507   0.000000
  119        1.947420   0.000000
  120        2.254870   0.000000
 
  0.2500000E+00  0.1250000E+00  0.0000000E+00  0.3125000E-01
    1      -17.661429   1.000000
    2      -17.102417   1.000000
    3      -16.846419   1.000000
    4      -16.732659   1.000000
    5      -16.499637   1.000000
    6      -16.453990   1.000000
    7      -16.334653   1.000000
    8      -16.223460   1.000000
    9      -16.128960   1.000000
   10      -16.021097   1.000000
   11      -15.939250   1.000000
   12      -15.903280   1.000000
   13      -15.773370   1.000000
   14      -15.697896   1.000000
   15      -15.626792   1.000000
   16      -15.478243   1.000000
   17      -15.422840   1.000000
   18      -15.208658   1.000000
   19       -9.605844   1.000000
   20       -9.435636   1.000000
   21       -9.245615   1.000000
   22       -9.117920   1.000000
   23       -8.821655   1.000000
   24       -8.776904   1.000000
   25       -8.544458   1.000000
   26       -8.491644   1.000000
   27       -8.451005   1.000000
   28       -8.376420   1.000000
   29       -8.307238   1.000000
   30       -8.244011   1.000000
   31       -8.139819   1.000000
   32       -8.072626   1.000000
   33       -7.989967   1.000000
   34       -7.883262   1.000000
   35       -7.756672   1.000000
   36       -7.694043   1.000000
   37       -7.537054   1.000000
   38       -7.429572   1.000000
   39       -7.365926   1.000000
   40       -7.283010   1.000000
   41       -7.222908   1.000000
   42       -7.168021   1.000000
   43       -7.120149   1.000000
   44       -6.998142   1.000000
   45       -6.833272   1.000000
   46       -6.795153   1.000000
   47       -6.727659   1.000000