       N       E                     dE             d eps       ncg     rms          rms(c)
DAV:   1     0.112406154489E+04    0.11241E+04   -0.35865E+04  8160   0.577E+02
DAV:   2    -0.398845312795E+01   -0.11280E+04   -0.10879E+04 11160   0.173E+02
DAV:   3    -0.199984717543E+03   -0.19600E+03   -0.18841E+03 11000   0.818E+01
DAV:   4    -0.208929916017E+03   -0.89452E+01   -0.86322E+01 12080   0.255E+01
DAV:   5    -0.209248933248E+03   -0.31902E+00   -0.31805E+00 11760   0.360E+00    0.274E+01
DAV:   6    -0.236667550916E+03   -0.27419E+02   -0.10817E+02 12880   0.604E+01    0.592E+01
DAV:   7    -0.196772989974E+03    0.39895E+02   -0.17616E+02 13000   0.152E+02    0.205E+01
DAV:   8    -0.190259395910E+03    0.65136E+01   -0.21729E+01 11720   0.135E+01    0.140E+01
DAV:   9    -0.188309929988E+03    0.19495E+01   -0.36073E+00 11960   0.637E+00    0.940E+00
DAV:  10    -0.187167126279E+03    0.11428E+01   -0.17987E+00 13360   0.745E+00    0.376E+00
DAV:  11    -0.187002565902E+03    0.16456E+00   -0.72606E-01 12680   0.271E+00    0.226E+00
DAV:  12    -0.187088941794E+03   -0.86376E-01   -0.53495E-01 13240   0.378E+00    0.449E+00
DAV:  13    -0.186939136521E+03    0.14981E+00   -0.49716E-01 13120   0.380E+00    0.199E+00
DAV:  14    -0.186906163415E+03    0.32973E-01   -0.10823E-01 13320   0.175E+00    0.120E+00
DAV:  15    -0.186898346723E+03    0.78167E-02   -0.55277E-02 12880   0.138E+00    0.985E-01
DAV:  16    -0.186890838379E+03    0.75083E-02   -0.19421E-02 12920   0.720E-01    0.478E-01
DAV:  17    -0.186888661439E+03    0.21769E-02   -0.67112E-03 13120   0.282E-01    0.228E-01
DAV:  18    -0.186887646796E+03    0.10146E-02   -0.36538E-03 12880   0.268E-01    0.200E-01
DAV:  19    -0.186887336883E+03    0.30991E-03   -0.10189E-03 11520   0.156E-01    0.477E-02
DAV:  20    -0.186888098618E+03   -0.76173E-03   -0.70651E-04  9080   0.593E-02    0.537E-02
DAV:  21    -0.186888664830E+03   -0.56621E-03   -0.23951E-04  8320   0.461E-02    0.290E-02
DAV:  22    -0.186889797298E+03   -0.11325E-02   -0.17558E-04  7560   0.407E-02    0.355E-02
DAV:  23    -0.186891048636E+03   -0.12513E-02   -0.14061E-04  7520   0.445E-02    0.145E-02
DAV:  24    -0.186891617027E+03   -0.56839E-03   -0.25868E-05  6800   0.144E-02    0.599E-03
DAV:  25    -0.186892005072E+03   -0.38805E-03   -0.16384E-05  5520   0.956E-03    0.445E-03
DAV:  26    -0.186892247407E+03   -0.24233E-03   -0.90374E-06  6800   0.723E-03    0.153E-03
DAV:  27    -0.186892346649E+03   -0.99242E-04   -0.34601E-06  7280   0.414E-03
   1 F= -.18689235E+03 E0= -.18672150E+03  d E =-.186892E+03
       N       E                     dE             d eps       ncg     rms          rms(c)
DAV:   1    -0.187532372560E+03   -0.64013E+00   -0.27202E+02  8160   0.350E+01    0.466E+00
DAV:   2    -0.189535539325E+03   -0.20032E+01   -0.20341E+01 12320   0.157E+01    0.961E+00
DAV:   3    -0.189353551552E+03    0.18199E+00   -0.41881E+00 12400   0.123E+01    0.641E+00
DAV:   4    -0.188788419575E+03    0.56513E+00   -0.58114E-01 12600   0.442E+00    0.173E+00
DAV:   5    -0.188859366125E+03   -0.70947E-01   -0.41069E-01 11400   0.297E+00    0.431E+00
DAV:   6    -0.188771648110E+03    0.87718E-01   -0.61176E-01 12840   0.411E+00    0.254E+00
DAV:   7    -0.188728432180E+03    0.43216E-01   -0.17438E-01 12360   0.194E+00    0.133E+00
DAV:   8    -0.188712064495E+03    0.16368E-01   -0.70401E-02 12960   0.135E+00    0.123E+00
DAV:   9    -0.188701626191E+03    0.10438E-01   -0.25743E-02 12000   0.892E-01    0.369E-01
DAV:  10    -0.188700549302E+03    0.10769E-02   -0.38836E-03 11600   0.240E-01    0.183E-01
DAV:  11    -0.188700111542E+03    0.43776E-03   -0.23467E-03 12200   0.157E-01    0.101E-01
DAV:  12    -0.188700211742E+03   -0.10020E-03   -0.90059E-04 11560   0.939E-02    0.823E-02
DAV:  13    -0.188700159508E+03    0.52234E-04   -0.22326E-04  7640   0.539E-02
   2 F= -.18870016E+03 E0= -.18856117E+03  d E =-.180781E+01
       N       E                     dE             d eps       ncg     rms          rms(c)
DAV:   1    -0.190622888497E+03   -0.19227E+01   -0.31338E+01  8960   0.142E+01    0.443E+00
DAV:   2    -0.190571854932E+03    0.51034E-01   -0.27611E+00 11280   0.946E+00    0.720E+00
DAV:   3    -0.190106598177E+03    0.46526E+00   -0.13336E+00 12360   0.859E+00    0.420E+00
DAV:   4    -0.189898581933E+03    0.20802E+00   -0.72327E-01 12800   0.424E+00    0.253E+00
DAV:   5    -0.189878537452E+03    0.20044E-01   -0.38542E-01 12280   0.315E+00    0.285E+00
DAV:   6    -0.189800476716E+03    0.78061E-01   -0.15198E-01 12560   0.250E+00    0.740E-01
DAV:   7    -0.189793605526E+03    0.68712E-02   -0.14730E-02 11600   0.542E-01    0.206E-01
DAV:   8    -0.189793723716E+03   -0.11819E-03   -0.31348E-03 11280   0.191E-01    0.181E-01
DAV:   9    -0.189793893773E+03   -0.17006E-03   -0.15002E-03 10560   0.237E-01    0.217E-01
DAV:  10    -0.189793999377E+03   -0.10560E-03   -0.14642E-03 10000   0.242E-01    0.176E-01
DAV:  11    -0.189793653907E+03    0.34547E-03   -0.58376E-04  8960   0.122E-01    0.187E-02
DAV:  12    -0.189793682101E+03   -0.28194E-04   -0.84247E-05  6960   0.310E-02
   3 F= -.18979368E+03 E0= -.18967531E+03  d E =-.109352E+01
       N       E                     dE             d eps       ncg     rms          rms(c)
DAV:   1    -0.191367115796E+03   -0.15735E+01   -0.77757E+01  8160   0.201E+01    0.459E+00
DAV:   2    -0.191204434342E+03    0.16268E+00   -0.53941E+00 13200   0.784E+00    0.473E+00
DAV:   3    -0.191309866069E+03   -0.10543E+00   -0.15980E+00 12200   0.910E+00    0.649E+00
DAV:   4    -0.190936800706E+03    0.37307E+00   -0.13489E+00 12480   0.747E+00    0.297E+00
DAV:   5    -0.190888885098E+03    0.47916E-01   -0.43720E-01 12520   0.392E+00    0.286E+00
DAV:   6    -0.190804901255E+03    0.83984E-01   -0.20928E-01 12240   0.317E+00    0.126E+00
DAV:   7    -0.190790132815E+03    0.14768E-01   -0.47408E-02 12720   0.114E+00    0.407E-01
DAV:   8    -0.190787559419E+03    0.25734E-02   -0.66074E-03 10160   0.350E-01    0.203E-01
DAV:   9    -0.190787905023E+03   -0.34560E-03   -0.22501E-03 11680   0.314E-01    0.261E-01
DAV:  10    -0.190787668075E+03    0.23695E-03   -0.17436E-03 11080   0.234E-01    0.919E-02
DAV:  11    -0.190787560948E+03    0.10713E-03   -0.45542E-04  9080   0.822E-02    0.447E-02
DAV:  12    -0.190787558490E+03    0.24574E-05   -0.99317E-05  7240   0.386E-02
   4 F= -.19078756E+03 E0= -.19068270E+03  d E =-.993876E+00
       N       E                     dE             d eps       ncg     rms          rms(c)
DAV:   1    -0.192100468944E+03   -0.13129E+01   -0.16168E+02  8160   0.283E+01    0.559E+00
DAV:   2    -0.191865403936E+03    0.23507E+00   -0.92726E+00 11480   0.809E+00    0.390E+00
DAV:   3    -0.192067757076E+03   -0.20235E+00   -0.20731E+00 11200   0.873E+00    0.808E+00
DAV:   4    -0.191748608849E+03    0.31915E+00   -0.28907E+00 11480   0.108E+01    0.446E+00
DAV:   5    -0.191572718949E+03    0.17589E+00   -0.74498E-01 12360   0.549E+00    0.321E+00
DAV:   6    -0.191447485120E+03    0.12523E+00   -0.27481E-01 12280   0.376E+00    0.127E+00
DAV:   7    -0.191433136441E+03    0.14349E-01   -0.62184E-02 12280   0.132E+00    0.512E-01
DAV:   8    -0.191428933509E+03    0.42029E-02   -0.10431E-02 10720   0.479E-01    0.233E-01
DAV:   9    -0.191430461643E+03   -0.15281E-02   -0.52086E-03 12680   0.493E-01    0.434E-01
DAV:  10    -0.191428868221E+03    0.15934E-02   -0.38395E-03 11200   0.389E-01    0.632E-02
DAV:  11    -0.191428937103E+03   -0.68882E-04   -0.36125E-04  9200   0.712E-02
   5 F= -.19142894E+03 E0= -.19132369E+03  d E =-.641379E+00
       N       E                     dE             d eps       ncg     rms          rms(c)
DAV:   1    -0.191478044574E+03   -0.49176E-01   -0.39914E+00  8160   0.423E+00    0.590E-01
DAV:   2    -0.191530867082E+03   -0.52823E-01   -0.24640E-01 13040   0.270E+00    0.200E+00
DAV:   3    -0.191488802400E+03    0.42065E-01   -0.87891E-02 12440   0.209E+00    0.371E-01
DAV:   4    -0.191490388243E+03   -0.15858E-02   -0.11939E-02 11400   0.686E-01    0.584E-01
DAV:   5    -0.191487015243E+03    0.33730E-02   -0.74260E-03 10200   0.568E-01    0.179E-01
DAV:   6    -0.191486984823E+03    0.30419E-04   -0.17756E-03 10440   0.174E-01    0.126E-01
DAV:   7    -0.191486677969E+03    0.30685E-03   -0.91434E-04 10160   0.123E-01    0.661E-02
DAV:   8    -0.191486686677E+03   -0.87081E-05   -0.27529E-04  7640   0.109E-01
   6 F= -.19148669E+03 E0= -.19137912E+03  d E =-.577496E-01
       N       E                     dE             d eps       ncg     rms          rms(c)
DAV:   1    -0.191540029661E+03   -0.53352E-01   -0.46923E+00  8160   0.458E+00    0.572E-01
DAV:   2    -0.191574578024E+03   -0.34548E-01   -0.17500E-01 13600   0.202E+00    0.159E+00
DAV:   3    -0.191546789140E+03    0.27789E-01   -0.67218E-02 12440   0.185E+00    0.426E-01
DAV:   4    -0.191546398728E+03    0.39041E-03   -0.85353E-03 11080   0.530E-01    0.433E-01
DAV:   5    -0.191545120858E+03    0.12779E-02   -0.68972E-03 10520   0.542E-01    0.289E-01
DAV:   6    -0.191544481176E+03    0.63968E-03   -0.25101E-03  9920   0.272E-01    0.116E-01
DAV:   7    -0.191544312792E+03    0.16838E-03   -0.77476E-04 10520   0.116E-01    0.630E-02
DAV:   8    -0.191544324194E+03   -0.11402E-04   -0.29490E-04  8200   0.113E-01
   7 F= -.19154432E+03 E0= -.19143492E+03  d E =-.576375E-01
       N       E                     dE             d eps       ncg     rms          rms(c)
DAV:   1    -0.191546795921E+03   -0.24831E-02   -0.22294E-02  8160   0.338E-01    0.641E-02
DAV:   2    -0.191546910102E+03   -0.11418E-03   -0.13764E-03 11280   0.142E-01    0.110E-01
DAV:   3    -0.191546820580E+03    0.89522E-04   -0.46327E-04  9040   0.154E-01
   8 F= -.19154682E+03 E0= -.19143745E+03  d E =-.249639E-02
       N       E                     dE             d eps       ncg     rms          rms(c)
DAV:   1    -0.191529850276E+03    0.17060E-01   -0.10688E+00  8160   0.225E+00    0.444E-01
DAV:   2    -0.191553485076E+03   -0.23635E-01   -0.87896E-02 12600   0.184E+00    0.151E+00
DAV:   3    -0.191529050051E+03    0.24435E-01   -0.40214E-02 12120   0.148E+00    0.295E-01
DAV:   4    -0.191530008581E+03   -0.95853E-03   -0.76058E-03 10000   0.593E-01    0.455E-01
DAV:   5    -0.191528053901E+03    0.19547E-02   -0.57733E-03 10240   0.506E-01    0.202E-01
DAV:   6    -0.191527905470E+03    0.14843E-03   -0.24074E-03 11000   0.286E-01    0.202E-01
DAV:   7    -0.191527612622E+03    0.29285E-03   -0.14905E-03 10200   0.242E-01    0.102E-01
DAV:   8    -0.191527508179E+03    0.10444E-03   -0.29517E-04  7400   0.957E-02    0.239E-02
DAV:   9    -0.191527507160E+03    0.10190E-05   -0.36549E-05  6800   0.252E-02
   9 F= -.19152751E+03 E0= -.19141865E+03  d E =0.193134E-01
       N       E                     dE             d eps       ncg     rms          rms(c)
DAV:   1    -0.191572214848E+03   -0.44707E-01   -0.32301E+00  8160   0.383E+00    0.516E-01
DAV:   2    -0.191605443667E+03   -0.33229E-01   -0.14841E-01 13600   0.215E+00    0.165E+00
DAV:   3    -0.191576803874E+03    0.28640E-01   -0.62448E-02 12200   0.176E+00    0.326E-01
DAV:   4    -0.191578263639E+03   -0.14598E-02   -0.92347E-03 11000   0.630E-01    0.536E-01
DAV:   5    -0.191575370642E+03    0.28930E-02   -0.56300E-03 10840   0.532E-01    0.148E-01
DAV:   6    -0.191575424370E+03   -0.53727E-04   -0.15300E-03 11200   0.185E-01    0.146E-01
DAV:   7    -0.191575550300E+03   -0.12593E-03   -0.18666E-03 10400   0.270E-01    0.217E-01
DAV:   8    -0.191575081919E+03    0.46838E-03   -0.88995E-04  8360   0.189E-01    0.267E-02
DAV:   9    -0.191575097132E+03   -0.15214E-04   -0.57683E-05  5680   0.299E-02
  10 F= -.19157510E+03 E0= -.19146536E+03  d E =-.475900E-01
       N       E                     dE             d eps       ncg     rms          rms(c)
DAV:   1    -0.191623190151E+03   -0.48108E-01   -0.29983E+00  8160   0.369E+00    0.511E-01
DAV:   2    -0.191651986993E+03   -0.28797E-01   -0.12771E-01 13600   0.202E+00    0.159E+00
DAV:   3    -0.191625862818E+03    0.26124E-01   -0.52694E-02 12160   0.169E+00    0.328E-01
DAV:   4    -0.191627439315E+03   -0.15765E-02   -0.98660E-03 11360   0.645E-01    0.557E-01
DAV:   5    -0.191624354045E+03    0.30853E-02   -0.70078E-03 10960   0.575E-01    0.175E-01
DAV:   6    -0.191624139788E+03    0.21426E-03   -0.18720E-03 10440   0.197E-01    0.104E-01
DAV:   7    -0.191624002910E+03    0.13688E-03   -0.69259E-04 10760   0.127E-01    0.876E-02
DAV:   8    -0.191623951130E+03    0.51780E-04   -0.32368E-04  7520   0.115E-01
  11 F= -.19162395E+03 E0= -.19151475E+03  d E =-.488540E-01
       N       E                     dE             d eps       ncg     rms          rms(c)
DAV:   1    -0.191652127452E+03   -0.28125E-01   -0.94055E-01  8160   0.206E+00    0.236E-01
DAV:   2    -0.191656523900E+03   -0.43964E-02   -0.28838E-02 13480   0.728E-01    0.544E-01
DAV:   3    -0.191653493869E+03    0.30300E-02   -0.90395E-03 12200   0.680E-01    0.216E-01
DAV:   4    -0.191653493167E+03    0.70236E-06   -0.22169E-03  9640   0.281E-01    0.229E-01
DAV:   5    -0.191653040143E+03    0.45302E-03   -0.14647E-03  9240   0.261E-01    0.106E-01
DAV:   6    -0.191652993106E+03    0.47037E-04   -0.42464E-04  8120   0.113E-01
  12 F= -.19165299E+03 E0= -.19154499E+03  d E =-.290420E-01
       N       E                     dE             d eps       ncg     rms          rms(c)
DAV:   1    -0.191644233137E+03    0.88070E-02   -0.13278E-01  8160   0.822E-01    0.208E-01
DAV:   2    -0.191651974818E+03   -0.77417E-02   -0.23367E-02 12240   0.100E+00    0.879E-01
DAV:   3    -0.191644022559E+03    0.79523E-02   -0.13712E-02 11280   0.818E-01    0.113E-01
DAV:   4    -0.191644167666E+03   -0.14511E-03   -0.96271E-04  9600   0.223E-01    0.151E-01
DAV:   5    -0.191643930979E+03    0.23669E-03   -0.62836E-04  8960   0.189E-01    0.745E-02
DAV:   6    -0.191643931702E+03   -0.72241E-06   -0.32782E-04  6800   0.110E-01
  13 F= -.19164393E+03 E0= -.19153566E+03  d E =0.906140E-02
       N       E                     dE             d eps       ncg     rms          rms(c)
DAV:   1    -0.191724999232E+03   -0.81068E-01   -0.73092E+00  8160   0.579E+00    0.721E-01
DAV:   2    -0.191773151142E+03   -0.48152E-01   -0.27107E-01 13600   0.261E+00    0.199E+00
DAV:   3    -0.191735924172E+03    0.37227E-01   -0.10119E-01 12200   0.222E+00    0.600E-01
DAV:   4    -0.191738423084E+03   -0.24989E-02   -0.25827E-02 11360   0.107E+00    0.843E-01
DAV:   5    -0.191731074825E+03    0.73483E-02   -0.14810E-02 12160   0.882E-01    0.251E-01
DAV:   6    -0.191731274862E+03   -0.20004E-03   -0.48979E-03 11520   0.392E-01    0.304E-01
DAV:   7    -0.191731102921E+03    0.17194E-03   -0.47687E-03 11400   0.488E-01    0.283E-01
DAV:   8    -0.191730189092E+03    0.91383E-03   -0.14814E-03  9640   0.253E-01    0.393E-02
DAV:   9    -0.191730189984E+03   -0.89132E-06   -0.12744E-04  6200   0.427E-02
  14 F= -.19173019E+03 E0= -.19162651E+03  d E =-.862583E-01
       N       E                     dE             d eps       ncg     rms          rms(c)
DAV:   1    -0.191792878379E+03   -0.62689E-01   -0.42774E+00  8160   0.441E+00    0.528E-01
DAV:   2    -0.191817931990E+03   -0.25054E-01   -0.14851E-01 13320   0.185E+00    0.143E+00
DAV:   3    -0.191799595595E+03    0.18336E-01   -0.52103E-02 11880   0.160E+00    0.491E-01
DAV:   4    -0.191800131270E+03   -0.53568E-03   -0.13438E-02 11400   0.787E-01    0.572E-01
DAV:   5    -0.191796690692E+03    0.34406E-02   -0.67673E-03 11800   0.633E-01    0.190E-01
DAV:   6    -0.191796380779E+03    0.30991E-03   -0.20964E-03 10960   0.211E-01    0.102E-01
DAV:   7    -0.191796252739E+03    0.12804E-03   -0.76935E-04 11280   0.125E-01    0.813E-02
DAV:   8    -0.191796201991E+03    0.50748E-04   -0.26277E-04  7680   0.117E-01
  15 F= -.19179620E+03 E0= -.19169688E+03  d E =-.660120E-01
       N       E                     dE             d eps       ncg     rms          rms(c)
DAV:   1    -0.191883003185E+03   -0.86750E-01   -0.99775E+00  8160   0.672E+00    0.735E-01
DAV:   2    -0.191926727060E+03   -0.43724E-01   -0.31915E-01 12240   0.233E+00    0.177E+00
DAV:   3    -0.191902721809E+03    0.24005E-01   -0.98788E-02 11920   0.216E+00    0.779E-01
DAV:   4    -0.191899890027E+03    0.28318E-02   -0.21257E-02 11680   0.100E+00    0.635E-01
DAV:   5    -0.191895561015E+03    0.43290E-02   -0.93376E-03 11920   0.805E-01    0.282E-01
DAV:   6    -0.191894988938E+03    0.57208E-03   -0.40333E-03 12280   0.341E-01    0.163E-01
DAV:   7    -0.191894832545E+03    0.15639E-03   -0.18434E-03 11800   0.248E-01    0.175E-01
DAV:   8    -0.191894540687E+03    0.29186E-03   -0.72722E-04  8960   0.211E-01    0.626E-02
DAV:   9    -0.191894499766E+03    0.40921E-04   -0.11917E-04  6200   0.692E-02
  16 F= -.19189450E+03 E0= -.19180174E+03  d E =-.982978E-01
       N       E                     dE             d eps       ncg     rms          rms(c)
DAV:   1    -0.191973770091E+03   -0.79229E-01   -0.10522E+01  8160   0.697E+00    0.823E-01
DAV:   2    -0.192029709728E+03   -0.55940E-01   -0.39831E-01 12160   0.274E+00    0.208E+00
DAV:   3    -0.191995751397E+03    0.33958E-01   -0.12336E-01 11960   0.244E+00    0.791E-01
DAV:   4    -0.191992767188E+03    0.29842E-02   -0.24304E-02 12240   0.112E+00    0.685E-01
DAV:   5    -0.191987713046E+03    0.50541E-02   -0.12014E-02 11680   0.942E-01    0.347E-01
DAV:   6    -0.191986607799E+03    0.11052E-02   -0.58397E-03 12120   0.419E-01    0.166E-01
DAV:   7    -0.191986167190E+03    0.44061E-03   -0.19337E-03 11840   0.203E-01    0.118E-01
DAV:   8    -0.191986070177E+03    0.97014E-04   -0.52310E-04 10040   0.177E-01
  17 F= -.19198607E+03 E0= -.19189737E+03  d E =-.915704E-01
       N       E                     dE             d eps       ncg     rms          rms(c)
DAV:   1    -0.192035024413E+03   -0.48857E-01   -0.64688E+00  8160   0.540E+00    0.592E-01
DAV:   2    -0.192060826092E+03   -0.25802E-01   -0.23669E-01 11400   0.179E+00    0.114E+00
DAV:   3    -0.192052845657E+03    0.79804E-02   -0.49701E-02 12400   0.166E+00    0.728E-01
DAV:   4    -0.192046927544E+03    0.59181E-02   -0.10081E-02 12120   0.680E-01    0.213E-01
DAV:   5    -0.192047610928E+03   -0.68338E-03   -0.45403E-03 12480   0.474E-01    0.359E-01
DAV:   6    -0.192046792253E+03    0.81867E-03   -0.40083E-03 12040   0.515E-01    0.205E-01
DAV:   7    -0.192046265977E+03    0.52628E-03   -0.10925E-03 10640   0.198E-01    0.494E-02
DAV:   8    -0.192046251552E+03    0.14425E-04   -0.15908E-04  7160   0.828E-02
  18 F= -.19204625E+03 E0= -.19196063E+03  d E =-.601814E-01
       N       E                     dE             d eps       ncg     rms          rms(c)
DAV:   1    -0.192058888718E+03   -0.12623E-01   -0.28343E-01  8160   0.124E+00    0.250E-01
DAV:   2    -0.192059531910E+03   -0.64319E-03   -0.17955E-02 10360   0.563E-01    0.378E-01
DAV:   3    -0.192058787951E+03    0.74396E-03   -0.58045E-03 11160   0.592E-01    0.281E-01
DAV:   4    -0.192058161692E+03    0.62626E-03   -0.27607E-03 10320   0.387E-01    0.211E-01
DAV:   5    -0.192057892582E+03    0.26911E-03   -0.16116E-03  9880   0.335E-01    0.156E-01
DAV:   6    -0.192057557903E+03    0.33468E-03   -0.63974E-04  9840   0.174E-01    0.272E-02
DAV:   7    -0.192057550207E+03    0.76964E-05   -0.89043E-05  6360   0.377E-02
  19 F= -.19205755E+03 E0= -.19197152E+03  d E =-.112987E-01
       N       E                     dE             d eps       ncg     rms          rms(c)
DAV:   1    -0.192083309938E+03   -0.25752E-01   -0.21312E+00  8160   0.310E+00    0.331E-01
DAV:   2    -0.192091729225E+03   -0.84193E-02   -0.78125E-02 11600   0.995E-01    0.627E-01
DAV:   3    -0.192089346506E+03    0.23827E-02   -0.15350E-02 12520   0.918E-01    0.402E-01
DAV:   4    -0.192087511488E+03    0.18350E-02   -0.30384E-03 11080   0.369E-01    0.104E-01
DAV:   5    -0.192087453180E+03    0.58308E-04   -0.96827E-04 10400   0.121E-01
  20 F= -.19208745E+03 E0= -.19200242E+03  d E =-.299030E-01
       N       E                     dE             d eps       ncg     rms          rms(c)
DAV:   1    -0.192104393502E+03   -0.16882E-01   -0.85215E-01  8160   0.200E+00    0.307E-01
DAV:   2    -0.192110934772E+03   -0.65413E-02   -0.44471E-02 12400   0.105E+00    0.717E-01
DAV:   3    -0.192105819292E+03    0.51155E-02   -0.11053E-02 12200   0.893E-01    0.248E-01
DAV:   4    -0.192105912178E+03   -0.92886E-04   -0.28898E-03 11320   0.429E-01    0.288E-01
DAV:   5    -0.192105050975E+03    0.86120E-03   -0.19187E-03 10520   0.378E-01    0.126E-01
DAV:   6    -0.192104997800E+03    0.53174E-04   -0.87126E-04  9880   0.183E-01
  21 F= -.19210500E+03 E0= -.19201979E+03  d E =-.175446E-01
       N       E                     dE             d eps       ncg     rms          rms(c)
DAV:   1    -0.192123874551E+03   -0.18824E-01   -0.19256E+00  8160   0.295E+00    0.318E-01
DAV:   2    -0.192130566306E+03   -0.66918E-02   -0.72067E-02 11960   0.905E-01    0.491E-01
DAV:   3    -0.192130087786E+03    0.47852E-03   -0.11933E-02 12160   0.842E-01    0.446E-01
DAV:   4    -0.192127858768E+03    0.22290E-02   -0.29996E-03 11000   0.410E-01    0.964E-02
DAV:   5    -0.192128032755E+03   -0.17399E-03   -0.10037E-03 10160   0.188E-01    0.141E-01
DAV:   6    -0.192127946642E+03    0.86112E-04   -0.88631E-04 11440   0.249E-01
  22 F= -.19212795E+03 E0= -.19204377E+03  d E =-.229488E-01
       N       E                     dE             d eps       ncg     rms          rms(c)
DAV:   1    -0.192143478181E+03   -0.15445E-01   -0.15036E+00  8160   0.265E+00    0.334E-01
DAV:   2    -0.192149639860E+03   -0.61617E-02   -0.68958E-02 13040   0.943E-01    0.526E-01
DAV:   3    -0.192148256823E+03    0.13830E-02   -0.11077E-02 11560   0.840E-01    0.393E-01
DAV:   4    -0.192146873154E+03    0.13837E-02   -0.38970E-03 11160   0.482E-01    0.231E-01
DAV:   5    -0.192146522969E+03    0.35019E-03   -0.18843E-03 10000   0.379E-01    0.172E-01
DAV:   6    -0.192146250728E+03    0.27224E-03   -0.10274E-03 10560   0.209E-01    0.681E-02
DAV:   7    -0.192146157449E+03    0.93279E-04   -0.27478E-04  7920   0.807E-02
  23 F= -.19214616E+03 E0= -.19206199E+03  d E =-.182108E-01
       N       E                     dE             d eps       ncg     rms          rms(c)
DAV:   1    -0.192155105017E+03   -0.88543E-02   -0.57194E-01  8160   0.161E+00    0.196E-01
DAV:   2    -0.192157302164E+03   -0.21971E-02   -0.23570E-02 11720   0.597E-01    0.299E-01
DAV:   3    -0.192156678290E+03    0.62387E-03   -0.34710E-03 12160   0.495E-01    0.201E-01
DAV:   4    -0.192156349457E+03    0.32883E-03   -0.12786E-03 10080   0.274E-01    0.143E-01
DAV:   5    -0.192156239207E+03    0.11025E-03   -0.68708E-04  9800   0.211E-01    0.102E-01
DAV:   6    -0.192156163991E+03    0.75216E-04   -0.29600E-04  8360   0.123E-01
  24 F= -.19215616E+03 E0= -.19207254E+03  d E =-.100065E-01
       N       E                     dE             d eps       ncg     rms          rms(c)
DAV:   1    -0.192162359908E+03   -0.61207E-02   -0.23413E-01  8160   0.106E+00    0.161E-01
DAV:   2    -0.192163882693E+03   -0.15228E-02   -0.11871E-02 11760   0.471E-01    0.337E-01
DAV:   3    -0.192162845466E+03    0.10372E-02   -0.28537E-03 12280   0.456E-01    0.157E-01
DAV:   4    -0.192162570217E+03    0.27525E-03   -0.50489E-04  8640   0.155E-01    0.676E-02
DAV:   5    -0.192162660571E+03   -0.90353E-04   -0.46909E-04  9520   0.168E-01
  25 F= -.19216266E+03 E0= -.19207925E+03  d E =-.649658E-02
       N       E                     dE             d eps       ncg     rms          rms(c)
DAV:   1    -0.192177661942E+03   -0.15092E-01   -0.83444E+00  8160   0.621E+00    0.728E-01
DAV:   2    -0.192206489158E+03   -0.28827E-01   -0.32370E-01 12280   0.185E+00    0.111E+00
DAV:   3    -0.192202991770E+03    0.34974E-02   -0.56852E-02 12120   0.186E+00    0.938E-01
DAV:   4    -0.192192163341E+03    0.10828E-01   -0.13882E-02 11920   0.883E-01    0.211E-01
DAV:   5    -0.192193135097E+03   -0.97176E-03   -0.64448E-03 11960   0.460E-01    0.358E-01
DAV:   6    -0.192192249308E+03    0.88579E-03   -0.47823E-03 12600   0.579E-01    0.248E-01
DAV:   7    -0.192191457850E+03    0.79146E-03   -0.14439E-03 10240   0.279E-01    0.713E-02
DAV:   8    -0.192191434758E+03    0.23092E-04   -0.23555E-04  8640   0.118E-01
  26 F= -.19219143E+03 E0= -.19210768E+03  d E =-.287742E-01
       N       E                     dE             d eps       ncg     rms          rms(c)
DAV:   1    -0.192187748108E+03    0.37097E-02   -0.61253E-01  8160   0.172E+00    0.277E-01
DAV:   2    -0.192193000716E+03   -0.52526E-02   -0.31297E-02 12560   0.954E-01    0.699E-01
DAV:   3    -0.192187802797E+03    0.51979E-02   -0.95446E-03 11720   0.799E-01    0.188E-01
DAV:   4    -0.192187639781E+03    0.16302E-03   -0.20062E-03 10960   0.325E-01    0.196E-01
DAV:   5    -0.192187351318E+03    0.28846E-03   -0.13835E-03 10280   0.327E-01    0.147E-01
DAV:   6    -0.192187161720E+03    0.18960E-03   -0.71486E-04 10960   0.194E-01    0.844E-02
DAV:   7    -0.192187128356E+03    0.33365E-04   -0.26002E-04  8200   0.143E-01
  27 F= -.19218713E+03 E0= -.19210370E+03  d E =0.430640E-02
       N       E                     dE             d eps       ncg     rms          rms(c)
DAV:   1    -0.192193117997E+03   -0.59563E-02   -0.56914E-01  8160   0.162E+00    0.187E-01
DAV:   2    -0.192194450140E+03   -0.13321E-02   -0.21390E-02 11320   0.392E-01    0.149E-01
DAV:   3    -0.192195089463E+03   -0.63932E-03   -0.25206E-03 12080   0.407E-01    0.301E-01
DAV:   4    -0.192194066095E+03    0.10234E-02   -0.12748E-03  9800   0.313E-01    0.634E-02
DAV:   5    -0.192194147785E+03   -0.81690E-04   -0.46971E-04  8440   0.129E-01
  28 F= -.19219415E+03 E0= -.19211094E+03  d E =-.701943E-02
       N       E                     dE             d eps       ncg     rms          rms(c)
DAV:   1    -0.192198834035E+03   -0.47679E-02   -0.47693E-01  8160   0.148E+00    0.187E-01
DAV:   2    -0.192201349833E+03   -0.25158E-02   -0.20268E-02 11920   0.582E-01    0.372E-01
DAV:   3    -0.192200054003E+03    0.12958E-02   -0.43910E-03 12200   0.529E-01    0.175E-01
DAV:   4    -0.192199778038E+03    0.27596E-03   -0.78907E-04  9200   0.198E-01    0.912E-02
DAV:   5    -0.192199783506E+03   -0.54675E-05   -0.42555E-04 10000   0.181E-01
  29 F= -.19219978E+03 E0= -.19211650E+03  d E =-.563572E-02
       N       E                     dE             d eps       ncg     rms          rms(c)
DAV:   1    -0.192202216097E+03   -0.24381E-02   -0.11982E-01  8160   0.751E-01    0.117E-01
DAV:   2    -0.192203383472E+03   -0.11674E-02   -0.63285E-03 12240   0.403E-01    0.296E-01
DAV:   3    -0.192202415815E+03    0.96766E-03   -0.21289E-03 11320   0.377E-01    0.944E-02
DAV:   4    -0.192202336628E+03    0.79187E-04   -0.27756E-04  7120   0.103E-01
  30 F= -.19220234E+03 E0= -.19211897E+03  d E =-.255312E-02
       N       E                     dE             d eps       ncg     rms          rms(c)
DAV:   1    -0.192205510766E+03   -0.30950E-02   -0.24556E-01  8160   0.106E+00    0.134E-01
DAV:   2    -0.192206213418E+03   -0.70265E-03   -0.89140E-03 11040   0.308E-01    0.174E-01
DAV:   3    -0.192206185839E+03    0.27580E-04   -0.15360E-03 11040   0.326E-01    0.176E-01
DAV:   4    -0.192205855916E+03    0.32992E-03   -0.46804E-04  8200   0.179E-01    0.560E-02
DAV:   5    -0.192205912649E+03   -0.56734E-04   -0.27542E-04  8280   0.132E-01
  31 F= -.19220591E+03 E0= -.19212251E+03  d E =-.357602E-02
       N       E                     dE             d eps       ncg     rms          rms(c)
DAV:   1    -0.192209132996E+03   -0.32771E-02   -0.41888E-01  8160   0.139E+00    0.174E-01
DAV:   2    -0.192210564409E+03   -0.14314E-02   -0.16987E-02 11240   0.424E-01    0.234E-01
DAV:   3    -0.192210431941E+03    0.13247E-03   -0.30466E-03 12240   0.440E-01    0.221E-01
DAV:   4    -0.192209884184E+03    0.54776E-03   -0.92125E-04  9120   0.233E-01    0.723E-02
DAV:   5    -0.192209947480E+03   -0.63296E-04   -0.38363E-04  9160   0.172E-01
  32 F= -.19220995E+03 E0= -.19212651E+03  d E =-.403483E-02
       N       E                     dE             d eps       ncg     rms          rms(c)
DAV:   1    -0.192212875090E+03   -0.29909E-02   -0.54820E-01  8160   0.158E+00    0.195E-01
DAV:   2    -0.192215266584E+03   -0.23915E-02   -0.22727E-02 11040   0.532E-01    0.322E-01
DAV:   3    -0.192214472415E+03    0.79417E-03   -0.40036E-03 12320   0.513E-01    0.212E-01
DAV:   4    -0.192214081459E+03    0.39096E-03   -0.97833E-04  9800   0.247E-01    0.114E-01
DAV:   5    -0.192214009718E+03    0.71741E-04   -0.43788E-04  9160   0.188E-01
  33 F= -.19221401E+03 E0= -.19213060E+03  d E =-.406224E-02
       N       E                     dE             d eps       ncg     rms          rms(c)
DAV:   1    -0.192215370329E+03   -0.12889E-02   -0.21648E+00  8160   0.313E+00    0.383E-01
DAV:   2    -0.192225600885E+03   -0.10231E-01   -0.90290E-02 11640   0.123E+00    0.695E-01
DAV:   3    -0.192221020096E+03    0.45808E-02   -0.16152E-02 12200   0.103E+00    0.344E-01
DAV:   4    -0.192220085435E+03    0.93466E-03   -0.33854E-03 11160   0.453E-01    0.241E-01
DAV:   5    -0.192219652294E+03    0.43314E-03   -0.17914E-03 11160   0.388E-01    0.157E-01
DAV:   6    -0.192219473175E+03    0.17912E-03   -0.92366E-04 10840   0.194E-01    0.719E-02
DAV:   7    -0.192219441404E+03    0.31771E-04   -0.25025E-04  8920   0.121E-01
  34 F= -.19221944E+03 E0= -.19213583E+03  d E =-.543169E-02
       N       E                     dE             d eps       ncg     rms          rms(c)
DAV:   1    -0.192218067352E+03    0.14058E-02   -0.20904E-01  8160   0.975E-01    0.123E-01
DAV:   2    -0.192219388144E+03   -0.13208E-02   -0.91141E-03 10720   0.469E-01    0.287E-01
DAV:   3    -0.192218505267E+03    0.88288E-03   -0.18175E-03 11960   0.356E-01    0.922E-02
DAV:   4    -0.192218508369E+03   -0.31017E-05   -0.37517E-04  8480   0.164E-01
  35 F= -.19221851E+03 E0= -.19213501E+03  d E =0.933035E-03
