<?xml version="1.0" encoding="ISO-8859-1"?>
<modeling>
 <generator>
  <i name="program" type="string">vasp </i>
  <i name="version" type="string">5.4.1  </i>
  <i name="subversion" type="string">05Feb16 (build Jul 05 2020 17:13:04) complex                          parallel </i>
  <i name="platform" type="string">IFC91_ompi </i>
  <i name="date" type="string">2024 04 30 </i>
  <i name="time" type="string">22:34:33 </i>
 </generator>
 <incar>
  <i type="int" name="ISTART">     0</i>
  <i type="string" name="PREC">normal</i>
  <i type="string" name="ALGO"> Normal</i>
  <i type="int" name="ISPIN">     1</i>
  <i type="int" name="ICHARG">     2</i>
  <i type="int" name="IBRION">     1</i>
  <i type="int" name="NSW">   100</i>
  <i type="int" name="ISIF">     3</i>
  <i type="int" name="ISYM">     0</i>
  <i name="SYMPREC">      0.00000001</i>
  <i name="POTIM">      0.50000000</i>
  <i type="logical" name="LREAL"> F  </i>
  <i type="logical" name="LPLANE"> F  </i>
  <i type="int" name="ISMEAR">     0</i>
  <i type="logical" name="LWAVE"> F  </i>
  <i type="logical" name="LCHARG"> F  </i>
  <v type="int" name="KPOINT_BSE">    -1     0     0     0</v>
 </incar>
 <kpoints>
  <generation param="Gamma">
   <v type="int" name="divisions">       8        8        1 </v>
   <v name="usershift">      0.00000000       0.00000000       0.00000000 </v>
   <v name="genvec1">      0.12500000       0.00000000       0.00000000 </v>
   <v name="genvec2">     -0.00000000       0.12500000       0.00000000 </v>
   <v name="genvec3">      0.00000000       0.00000000       1.00000000 </v>
   <v name="shift">      0.00000000       0.00000000       0.00000000 </v>
  </generation>
  <varray name="kpointlist" >
   <v>       0.00000000       0.00000000       0.00000000 </v>
   <v>       0.12500000       0.00000000       0.00000000 </v>
   <v>       0.25000000       0.00000000       0.00000000 </v>
   <v>       0.37500000       0.00000000       0.00000000 </v>
   <v>       0.50000000       0.00000000       0.00000000 </v>
   <v>       0.00000000       0.12500000       0.00000000 </v>
   <v>       0.12500000       0.12500000       0.00000000 </v>
   <v>       0.25000000       0.12500000       0.00000000 </v>
   <v>       0.37500000       0.12500000       0.00000000 </v>
   <v>       0.50000000       0.12500000       0.00000000 </v>
   <v>      -0.37500000       0.12500000       0.00000000 </v>
   <v>      -0.25000000       0.12500000       0.00000000 </v>
   <v>      -0.12500000       0.12500000       0.00000000 </v>
   <v>       0.00000000       0.25000000       0.00000000 </v>
   <v>       0.12500000       0.25000000       0.00000000 </v>
   <v>       0.25000000       0.25000000       0.00000000 </v>
   <v>       0.37500000       0.25000000       0.00000000 </v>
   <v>       0.50000000       0.25000000       0.00000000 </v>
   <v>      -0.37500000       0.25000000       0.00000000 </v>
   <v>      -0.25000000       0.25000000       0.00000000 </v>
   <v>      -0.12500000       0.25000000       0.00000000 </v>
   <v>      -0.00000000       0.37500000       0.00000000 </v>
   <v>       0.12500000       0.37500000       0.00000000 </v>
   <v>       0.25000000       0.37500000       0.00000000 </v>
   <v>       0.37500000       0.37500000       0.00000000 </v>
   <v>       0.50000000       0.37500000       0.00000000 </v>
   <v>      -0.37500000       0.37500000       0.00000000 </v>
   <v>      -0.25000000       0.37500000       0.00000000 </v>
   <v>      -0.12500000       0.37500000       0.00000000 </v>
   <v>       0.00000000       0.50000000       0.00000000 </v>
   <v>       0.12500000       0.50000000       0.00000000 </v>
   <v>       0.25000000       0.50000000       0.00000000 </v>
   <v>       0.37500000       0.50000000       0.00000000 </v>
   <v>       0.50000000       0.50000000       0.00000000 </v>
  </varray>
  <varray name="weights" >
   <v>       0.01562500 </v>
   <v>       0.03125000 </v>
   <v>       0.03125000 </v>
   <v>       0.03125000 </v>
   <v>       0.01562500 </v>
   <v>       0.03125000 </v>
   <v>       0.03125000 </v>
   <v>       0.03125000 </v>
   <v>       0.03125000 </v>
   <v>       0.03125000 </v>
   <v>       0.03125000 </v>
   <v>       0.03125000 </v>
   <v>       0.03125000 </v>
   <v>       0.03125000 </v>
   <v>       0.03125000 </v>
   <v>       0.03125000 </v>
   <v>       0.03125000 </v>
   <v>       0.03125000 </v>
   <v>       0.03125000 </v>
   <v>       0.03125000 </v>
   <v>       0.03125000 </v>
   <v>       0.03125000 </v>
   <v>       0.03125000 </v>
   <v>       0.03125000 </v>
   <v>       0.03125000 </v>
   <v>       0.03125000 </v>
   <v>       0.03125000 </v>
   <v>       0.03125000 </v>
   <v>       0.03125000 </v>
   <v>       0.01562500 </v>
   <v>       0.03125000 </v>
   <v>       0.03125000 </v>
   <v>       0.03125000 </v>
   <v>       0.01562500 </v>
  </varray>
 </kpoints>
 <parameters>
  <separator name="general" >
   <i type="string" name="SYSTEM">unknown system</i>
   <i type="logical" name="LCOMPAT"> F  </i>
  </separator>
  <separator name="electronic" >
   <i type="string" name="PREC">normal</i>
   <i name="ENMAX">    280.00000000</i>
   <i name="ENAUG">    373.43800000</i>
   <i name="EDIFF">      0.00010000</i>
   <i type="int" name="IALGO">    38</i>
   <i type="int" name="IWAVPR">    11</i>
   <i type="int" name="NBANDS">   120</i>
   <i name="NELECT">    159.00000000</i>
   <i type="int" name="TURBO">     0</i>
   <i type="int" name="IRESTART">     0</i>
   <i type="int" name="NREBOOT">     0</i>
   <i type="int" name="NMIN">     0</i>
   <i name="EREF">      0.00000000</i>
   <separator name="electronic smearing" >
    <i type="int" name="ISMEAR">     0</i>
    <i name="SIGMA">      0.20000000</i>
    <i name="KSPACING">      0.50000000</i>
    <i type="logical" name="KGAMMA"> T  </i>
   </separator>
   <separator name="electronic projectors" >
    <i type="logical" name="LREAL"> F  </i>
    <v name="ROPT">      0.00000000      0.00000000      0.00000000      0.00000000</v>
    <i type="int" name="LMAXPAW">  -100</i>
    <i type="int" name="LMAXMIX">     2</i>
    <i type="logical" name="NLSPLINE"> F  </i>
   </separator>
   <separator name="electronic startup" >
    <i type="int" name="ISTART">     0</i>
    <i type="int" name="ICHARG">     2</i>
    <i type="int" name="INIWAV">     1</i>
   </separator>
   <separator name="electronic spin" >
    <i type="int" name="ISPIN">     1</i>
    <i type="logical" name="LNONCOLLINEAR"> F  </i>
    <v name="MAGMOM">      1.00000000      1.00000000      1.00000000      1.00000000      1.00000000      1.00000000      1.00000000      1.00000000      1.00000000      1.00000000      1.00000000      1.00000000      1.00000000      1.00000000      1.00000000      1.00000000      1.00000000      1.00000000      1.00000000      1.00000000
      1.00000000      1.00000000      1.00000000      1.00000000      1.00000000      1.00000000      1.00000000</v>
    <i name="NUPDOWN">     -1.00000000</i>
    <i type="logical" name="LSORBIT"> F  </i>
    <v name="SAXIS">      0.00000000      0.00000000      1.00000000</v>
    <i type="logical" name="LSPIRAL"> F  </i>
    <v name="QSPIRAL">      0.00000000      0.00000000      0.00000000</v>
    <i type="logical" name="LZEROZ"> F  </i>
   </separator>
   <separator name="electronic exchange-correlation" >
    <i type="logical" name="LASPH"> F  </i>
    <i type="logical" name="LMETAGGA"> F  </i>
   </separator>
   <separator name="electronic convergence" >
    <i type="int" name="NELM">    60</i>
    <i type="int" name="NELMDL">    -5</i>
    <i type="int" name="NELMIN">     2</i>
    <i name="ENINI">    280.00000000</i>
    <separator name="electronic convergence detail" >
     <i type="logical" name="LDIAG"> T  </i>
     <i type="logical" name="LSUBROT"> F  </i>
     <i name="WEIMIN">      0.00100000</i>
     <i name="EBREAK">      0.00000021</i>
     <i name="DEPER">      0.30000000</i>
     <i type="int" name="NRMM">     4</i>
     <i name="TIME">      0.40000000</i>
    </separator>
   </separator>
   <separator name="electronic mixer" >
    <i name="AMIX">      0.40000000</i>
    <i name="BMIX">      1.00000000</i>
    <i name="AMIN">      0.10000000</i>
    <i name="AMIX_MAG">      1.60000000</i>
    <i name="BMIX_MAG">      1.00000000</i>
    <separator name="electronic mixer details" >
     <i type="int" name="IMIX">     4</i>
     <i type="logical" name="MIXFIRST"> F  </i>
     <i type="int" name="MAXMIX">   -45</i>
     <i name="WC">    100.00000000</i>
     <i type="int" name="INIMIX">     1</i>
     <i type="int" name="MIXPRE">     1</i>
     <i type="int" name="MREMOVE">     5</i>
    </separator>
   </separator>
   <separator name="electronic dipolcorrection" >
    <i type="logical" name="LDIPOL"> F  </i>
    <i type="logical" name="LMONO"> F  </i>
    <i type="int" name="IDIPOL">     0</i>
    <i name="EPSILON">      1.00000000</i>
    <v name="DIPOL">   -100.00000000   -100.00000000   -100.00000000</v>
    <i name="EFIELD">      0.00000000</i>
   </separator>
  </separator>
  <separator name="grids" >
   <i type="int" name="NGX">    42</i>
   <i type="int" name="NGY">    42</i>
   <i type="int" name="NGZ">   126</i>
   <i type="int" name="NGXF">    84</i>
   <i type="int" name="NGYF">    84</i>
   <i type="int" name="NGZF">   252</i>
   <i type="logical" name="ADDGRID"> F  </i>
  </separator>
  <separator name="ionic" >
   <i type="int" name="NSW">   100</i>
   <i type="int" name="IBRION">     1</i>
   <i type="int" name="ISIF">     3</i>
   <i name="PSTRESS">      0.00000000</i>
   <i name="EDIFFG">      0.00100000</i>
   <i type="int" name="NFREE">     0</i>
   <i name="POTIM">      0.50000000</i>
   <i name="SMASS">     -3.00000000</i>
   <i name="SCALEE">      1.00000000</i>
  </separator>
  <separator name="ionic md" >
   <i name="TEBEG">      0.00010000</i>
   <i name="TEEND">      0.00010000</i>
   <i type="int" name="NBLOCK">     1</i>
   <i type="int" name="KBLOCK">   100</i>
   <i type="int" name="NPACO">   256</i>
   <i name="APACO">     16.00000000</i>
  </separator>
  <separator name="symmetry" >
   <i type="int" name="ISYM">     0</i>
   <i name="SYMPREC">      0.00000001</i>
  </separator>
  <separator name="dos" >
   <i type="logical" name="LORBIT"> F  </i>
   <v name="RWIGS">     -1.00000000     -1.00000000     -1.00000000     -1.00000000</v>
   <i type="int" name="NEDOS">   301</i>
   <i name="EMIN">     10.00000000</i>
   <i name="EMAX">    -10.00000000</i>
   <i name="EFERMI">      0.00000000</i>
  </separator>
  <separator name="writing" >
   <i type="int" name="NWRITE">     2</i>
   <i type="logical" name="LWAVE"> F  </i>
   <i type="logical" name="LCHARG"> F  </i>
   <i type="logical" name="LPARD"> F  </i>
   <i type="logical" name="LVTOT"> F  </i>
   <i type="logical" name="LVHAR"> F  </i>
   <i type="logical" name="LELF"> F  </i>
   <i type="logical" name="LOPTICS"> F  </i>
   <v name="STM">      0.00000000      0.00000000      0.00000000      0.00000000      0.00000000      0.00000000      0.00000000</v>
  </separator>
  <separator name="performance" >
   <i type="int" name="NPAR">    40</i>
   <i type="int" name="NSIM">     4</i>
   <i type="int" name="NBLK">    -1</i>
   <i type="logical" name="LPLANE"> F  </i>
   <i type="logical" name="LSCALAPACK"> T  </i>
   <i type="logical" name="LSCAAWARE"> F  </i>
   <i type="logical" name="LSCALU"> F  </i>
   <i type="logical" name="LASYNC"> F  </i>
   <i type="logical" name="LORBITALREAL"> F  </i>
  </separator>
  <separator name="miscellaneous" >
   <i type="int" name="IDIOT">     3</i>
   <i type="logical" name="LMUSIC"> F  </i>
   <v name="POMASS">     50.94100000     95.94000000    183.85000000     32.06600000</v>
   <v name="DARWINR">      0.00000000      0.00000000      0.00000000      0.00000000</v>
   <v name="DARWINV">      1.00000000      1.00000000      1.00000000      1.00000000</v>
   <i type="logical" name="LCORR"> T  </i>
  </separator>
  <i type="logical" name="GGA_COMPAT"> T  </i>
  <i type="logical" name="LBERRY"> F  </i>
  <i type="int" name="ICORELEVEL">     0</i>
  <i type="logical" name="LDAU"> F  </i>
  <i type="int" name="I_CONSTRAINED_M">     0</i>
  <separator name="electronic exchange-correlation" >
   <i type="string" name="GGA">--</i>
   <i type="int" name="VOSKOWN">     0</i>
   <i type="logical" name="LHFCALC"> F  </i>
   <i type="string" name="PRECFOCK"></i>
   <i type="logical" name="LSYMGRAD"> F  </i>
   <i type="logical" name="LHFONE"> F  </i>
   <i type="logical" name="LRHFCALC"> F  </i>
   <i type="logical" name="LTHOMAS"> F  </i>
   <i type="logical" name="LMODELHF"> F  </i>
   <i name="ENCUT4O">     -1.00000000</i>
   <i type="int" name="EXXOEP">     0</i>
   <i type="int" name="FOURORBIT">     0</i>
   <i name="AEXX">      0.00000000</i>
   <i name="HFALPHA">      0.00000000</i>
   <i name="MCALPHA">      0.00000000</i>
   <i name="ALDAX">      1.00000000</i>
   <i name="AGGAX">      1.00000000</i>
   <i name="ALDAC">      1.00000000</i>
   <i name="AGGAC">      1.00000000</i>
   <i type="int" name="NKREDX">     1</i>
   <i type="int" name="NKREDY">     1</i>
   <i type="int" name="NKREDZ">     1</i>
   <i type="logical" name="SHIFTRED"> F  </i>
   <i type="logical" name="ODDONLY"> F  </i>
   <i type="logical" name="EVENONLY"> F  </i>
   <i type="int" name="LMAXFOCK">     0</i>
   <i type="int" name="NMAXFOCKAE">     0</i>
   <i type="logical" name="LFOCKAEDFT"> F  </i>
   <i name="HFSCREEN">      0.00000000</i>
   <i name="HFSCREENC">      0.00000000</i>
   <i type="int" name="NBANDSGWLOW">     0</i>
  </separator>
  <separator name="vdW DFT" >
   <i type="logical" name="LUSE_VDW"> F  </i>
   <i name="Zab_VDW">     -0.84910000</i>
   <i name="PARAM1">      0.12340000</i>
   <i name="PARAM2">      1.00000000</i>
   <i name="PARAM3">      0.00000000</i>
  </separator>
  <separator name="model GW" >
   <i type="int" name="MODEL_GW">     0</i>
   <i name="MODEL_EPS0">     58.26239943</i>
   <i name="MODEL_ALPHA">      1.00000000</i>
  </separator>
  <separator name="linear response parameters" >
   <i type="logical" name="LEPSILON"> F  </i>
   <i type="logical" name="LRPA"> F  </i>
   <i type="logical" name="LNABLA"> F  </i>
   <i type="logical" name="LVEL"> F  </i>
   <i type="int" name="KINTER">     0</i>
   <i name="CSHIFT">      0.10000000</i>
   <i name="OMEGAMAX">     -1.00000000</i>
   <i name="DEG_THRESHOLD">      0.00200000</i>
  </separator>
  <separator name="orbital magnetization" >
   <i type="logical" name="NUCIND"> F  </i>
   <v name="MAGPOS">      0.00000000      0.00000000      0.00000000</v>
   <i type="logical" name="LNICSALL"> T  </i>
   <i type="logical" name="ORBITALMAG"> F  </i>
   <i type="logical" name="LMAGBLOCH"> F  </i>
   <i type="logical" name="LCHIMAG"> F  </i>
   <i type="logical" name="LGAUGE"> T  </i>
   <i type="int" name="MAGATOM">     0</i>
   <v name="MAGDIPOL">      0.00000000      0.00000000      0.00000000</v>
   <v name="AVECCONST">      0.00000000      0.00000000      0.00000000</v>
  </separator>
  <separator name="response functions" >
   <i type="logical" name="LADDER"> F  </i>
   <i type="logical" name="LFXC"> F  </i>
   <i type="logical" name="LHARTREE"> T  </i>
   <i type="int" name="IBSE">     0</i>
   <v type="int" name="KPOINT">    -1     0     0     0</v>
   <i type="logical" name="LTCTE"> F  </i>
   <i type="logical" name="LTETE"> F  </i>
   <i type="logical" name="LTRIPLET"> F  </i>
   <i type="logical" name="LFXCEPS"> F  </i>
   <i type="logical" name="LFXHEG"> F  </i>
   <i type="int" name="NATURALO">     0</i>
   <i type="logical" name="L2ORDER"> F  </i>
   <i type="logical" name="LUSEW"> F  </i>
   <i name="ENCUTGW">     -2.00000000</i>
   <i name="ENCUTGWSOFT">     -2.00000000</i>
   <i name="ENCUTLF">     -1.00000000</i>
   <i type="int" name="LMAXMP2">    -1</i>
   <i name="SCISSOR">      0.00000000</i>
   <i type="int" name="NOMEGA">     0</i>
   <i type="int" name="NOMEGAR">     0</i>
   <i type="int" name="NBANDSGW">    -1</i>
   <i type="int" name="NBANDSO">    -1</i>
   <i type="int" name="NBANDSV">    -1</i>
   <i type="int" name="NELM">     1</i>
   <i type="int" name="NELMHF">     1</i>
   <i type="int" name="DIM">     3</i>
   <i type="int" name="ANTIRES">     0</i>
   <i name="OMEGAMAX">    -30.00000000</i>
   <i name="OMEGAMIN">    -30.00000000</i>
   <i name="OMEGATL">   -200.00000000</i>
   <i type="int" name="OMEGAGRID">     0</i>
   <i name="CSHIFT">     -0.10000000</i>
   <i type="logical" name="SELFENERGY"> F  </i>
   <i type="logical" name="LSPECTRAL"> F  </i>
   <i type="logical" name="LSPECTRALGW"> F  </i>
   <i type="logical" name="LSINGLES"> F  </i>
   <i type="logical" name="LFERMIGW"> F  </i>
   <i type="logical" name="ODDONLYGW"> F  </i>
   <i type="logical" name="EVENONLYGW"> F  </i>
   <i type="int" name="NKREDLFX">     1</i>
   <i type="int" name="NKREDLFY">     1</i>
   <i type="int" name="NKREDLFZ">     1</i>
   <i type="int" name="MAXMEM">  1800</i>
   <i type="int" name="TELESCOPE">     0</i>
   <i type="int" name="TAUPAR">     1</i>
   <i type="int" name="OMEGAPAR">    -1</i>
   <i name="LAMBDA">      1.00000000</i>
  </separator>
  <separator name="External order field" >
   <i name="OFIELD_KAPPA">      0.00000000</i>
   <v name="OFIELD_K">      0.00000000      0.00000000      0.00000000</v>
   <i name="OFIELD_Q6_NEAR">      0.00000000</i>
   <i name="OFIELD_Q6_FAR">      0.00000000</i>
   <i name="OFIELD_A">      0.00000000</i>
  </separator>
 </parameters>
 <atominfo>
  <atoms>      27 </atoms>
  <types>       4 </types>
  <array name="atoms" >
   <dimension dim="1">ion</dimension>
   <field type="string">element</field>
   <field type="int">atomtype</field>
   <set>
    <rc><c>V </c><c>   1</c></rc>
    <rc><c>V </c><c>   1</c></rc>
    <rc><c>V </c><c>   1</c></rc>
    <rc><c>Mo</c><c>   2</c></rc>
    <rc><c>Mo</c><c>   2</c></rc>
    <rc><c>Mo</c><c>   2</c></rc>
    <rc><c>W </c><c>   3</c></rc>
    <rc><c>W </c><c>   3</c></rc>
    <rc><c>W </c><c>   3</c></rc>
    <rc><c>S </c><c>   4</c></rc>
    <rc><c>S </c><c>   4</c></rc>
    <rc><c>S </c><c>   4</c></rc>
    <rc><c>S </c><c>   4</c></rc>
    <rc><c>S </c><c>   4</c></rc>
    <rc><c>S </c><c>   4</c></rc>
    <rc><c>S </c><c>   4</c></rc>
    <rc><c>S </c><c>   4</c></rc>
    <rc><c>S </c><c>   4</c></rc>
    <rc><c>S </c><c>   4</c></rc>
    <rc><c>S </c><c>   4</c></rc>
    <rc><c>S </c><c>   4</c></rc>
    <rc><c>S </c><c>   4</c></rc>
    <rc><c>S </c><c>   4</c></rc>
    <rc><c>S </c><c>   4</c></rc>
    <rc><c>S </c><c>   4</c></rc>
    <rc><c>S </c><c>   4</c></rc>
    <rc><c>S </c><c>   4</c></rc>
   </set>
  </array>
  <array name="atomtypes" >
   <dimension dim="1">type</dimension>
   <field type="int">atomspertype</field>
   <field type="string">element</field>
   <field>mass</field>
   <field>valence</field>
   <field type="string">pseudopotential</field>
   <set>
    <rc><c>   3</c><c>V </c><c>     50.94100000</c><c>      5.00000000</c><c> PAW_PBE V 08Apr2002                    </c></rc>
    <rc><c>   3</c><c>Mo</c><c>     95.94000000</c><c>      6.00000000</c><c> PAW_PBE Mo 08Apr2002                   </c></rc>
    <rc><c>   3</c><c>W </c><c>    183.85000000</c><c>      6.00000000</c><c> PAW_PBE W 08Apr2002                    </c></rc>
    <rc><c>  18</c><c>S </c><c>     32.06600000</c><c>      6.00000000</c><c>  PAW_PBE S 17Jan2003                   </c></rc>
   </set>
  </array>
 </atominfo>
 <structure name="initialpos" >
  <crystal>
   <varray name="basis" >
    <v>       8.66999996       5.03999989       0.00000000 </v>
    <v>      -8.66999982       5.04000013       0.00000000 </v>
    <v>       0.00000000       0.00000000      30.00000000 </v>
   </varray>
   <i name="volume">   2621.80797419 </i>
   <varray name="rec_basis" >
    <v>       0.05767013       0.09920635       0.00000000 </v>
    <v>      -0.05767013       0.09920635       0.00000000 </v>
    <v>       0.00000000       0.00000000       0.03333333 </v>
   </varray>
  </crystal>
  <varray name="positions" >
   <v>       0.66666669       0.66666669       0.00000000 </v>
   <v>       0.66666669       0.33333334       0.00000000 </v>
   <v>       0.33333334       0.00000000       0.00000000 </v>
   <v>       0.33333334       0.66666669       0.00000000 </v>
   <v>       0.00000000       0.66666669       0.00000000 </v>
   <v>       1.00000000       0.33333334       0.00000000 </v>
   <v>       0.00000000       0.00000000       0.00000000 </v>
   <v>       0.33333334       0.33333334       0.00000000 </v>
   <v>       0.66666669       0.00000000       0.00000000 </v>
   <v>       0.11068511       0.22244981       0.95539999 </v>
   <v>       0.22244981       0.11068511       0.04460000 </v>
   <v>       0.11068511       0.55578315       0.95539999 </v>
   <v>       0.22244981       0.44401845       0.04460000 </v>
   <v>       0.11068511       0.88911647       0.95539999 </v>
   <v>       0.22244981       0.77735180       0.04460000 </v>
   <v>       0.44401845       0.22244981       0.95539999 </v>
   <v>       0.55578315       0.11068511       0.04460000 </v>
   <v>       0.44401845       0.55578315       0.95539999 </v>
   <v>       0.55578315       0.44401845       0.04460000 </v>
   <v>       0.44401845       0.88911647       0.95539999 </v>
   <v>       0.55578315       0.77735180       0.04460000 </v>
   <v>       0.77735180       0.22244981       0.95539999 </v>
   <v>       0.88911647       0.11068511       0.04460000 </v>
   <v>       0.77735180       0.55578315       0.95539999 </v>
   <v>       0.88911647       0.44401845       0.04460000 </v>
   <v>       0.77735180       0.88911647       0.95539999 </v>
   <v>       0.88911647       0.77735180       0.04460000 </v>
  </varray>
 </structure>
 <calculation>
  <scstep>
   <time name="dav">   22.02   22.08</time>
   <time name="total">   22.07   22.13</time>
   <energy>
    <i name="alphaZ">     81.65567618 </i>
    <i name="ewald">  41890.23010356 </i>
    <i name="hartreedc"> -47722.85866334 </i>
    <i name="XCdc">   -242.92972254 </i>
    <i name="pawpsdc">   3467.42045192 </i>
    <i name="pawaedc">  -2871.19716117 </i>
    <i name="eentropy">     -0.55063923 </i>
    <i name="bandstr">   -239.15102477 </i>
    <i name="atom">   6761.44252427 </i>
    <i name="e_fr_energy">   1124.06154489 </i>
    <i name="e_wo_entrp">   1124.61218412 </i>
    <i name="e_0_energy">   1124.33686450 </i>
   </energy>
  </scstep>
  <scstep>
   <time name="dav">   28.50   28.57</time>
   <time name="total">   28.50   28.58</time>
   <energy>
    <i name="e_fr_energy">     -3.98845313 </i>
    <i name="e_wo_entrp">     -3.80675658 </i>
    <i name="e_0_energy">     -3.89760485 </i>
   </energy>
  </scstep>
  <scstep>
   <time name="dav">   28.11   28.18</time>
   <time name="total">   28.11   28.19</time>
   <energy>
    <i name="e_fr_energy">   -199.98471754 </i>
    <i name="e_wo_entrp">   -199.72259511 </i>
    <i name="e_0_energy">   -199.85365633 </i>
   </energy>
  </scstep>
  <scstep>
   <time name="dav">   30.41   30.48</time>
   <time name="total">   30.41   30.49</time>
   <energy>
    <i name="e_fr_energy">   -208.92991602 </i>
    <i name="e_wo_entrp">   -208.62131325 </i>
    <i name="e_0_energy">   -208.77561464 </i>
   </energy>
  </scstep>
  <scstep>
   <time name="dav">   29.67   29.74</time>
   <time name="total">   30.14   30.22</time>
   <energy>
    <i name="e_fr_energy">   -209.24893325 </i>
    <i name="e_wo_entrp">   -208.94364783 </i>
    <i name="e_0_energy">   -209.09629054 </i>
   </energy>
  </scstep>
  <scstep>
   <time name="dav">   31.99   32.07</time>
   <time name="total">   32.50   32.58</time>
   <energy>
    <i name="e_fr_energy">   -236.66755092 </i>
    <i name="e_wo_entrp">   -236.39286567 </i>
    <i name="e_0_energy">   -236.53020829 </i>
   </energy>
  </scstep>
  <scstep>
   <time name="dav">   32.22   32.30</time>
   <time name="total">   32.73   32.82</time>
   <energy>
    <i name="e_fr_energy">   -196.77298997 </i>
    <i name="e_wo_entrp">   -196.43151807 </i>
    <i name="e_0_energy">   -196.60225402 </i>
   </energy>
  </scstep>
  <scstep>
   <time name="dav">   29.52   29.59</time>
   <time name="total">   30.03   30.11</time>
   <energy>
    <i name="e_fr_energy">   -190.25939591 </i>
    <i name="e_wo_entrp">   -189.99208960 </i>
    <i name="e_0_energy">   -190.12574275 </i>
   </energy>
  </scstep>
  <scstep>
   <time name="dav">   30.06   30.13</time>
   <time name="total">   30.58   30.66</time>
   <energy>
    <i name="e_fr_energy">   -188.30992999 </i>
    <i name="e_wo_entrp">   -187.98077793 </i>
    <i name="e_0_energy">   -188.14535396 </i>
   </energy>
  </scstep>
  <scstep>
   <time name="dav">   33.01   33.09</time>
   <time name="total">   33.55   33.64</time>
   <energy>
    <i name="e_fr_energy">   -187.16712628 </i>
    <i name="e_wo_entrp">   -186.82506415 </i>
    <i name="e_0_energy">   -186.99609521 </i>
   </energy>
  </scstep>
  <scstep>
   <time name="dav">   31.60   31.68</time>
   <time name="total">   32.14   32.22</time>
   <energy>
    <i name="e_fr_energy">   -187.00256590 </i>
    <i name="e_wo_entrp">   -186.65370464 </i>
    <i name="e_0_energy">   -186.82813527 </i>
   </energy>
  </scstep>
  <scstep>
   <time name="dav">   32.76   32.84</time>
   <time name="total">   33.29   33.38</time>
   <energy>
    <i name="e_fr_energy">   -187.08894179 </i>
    <i name="e_wo_entrp">   -186.75569259 </i>
    <i name="e_0_energy">   -186.92231719 </i>
   </energy>
  </scstep>
  <scstep>
   <time name="dav">   32.52   32.59</time>
   <time name="total">   33.05   33.14</time>
   <energy>
    <i name="e_fr_energy">   -186.93913652 </i>
    <i name="e_wo_entrp">   -186.60333252 </i>
    <i name="e_0_energy">   -186.77123452 </i>
   </energy>
  </scstep>
  <scstep>
   <time name="dav">   32.93   33.01</time>
   <time name="total">   33.47   33.56</time>
   <energy>
    <i name="e_fr_energy">   -186.90616342 </i>
    <i name="e_wo_entrp">   -186.56557252 </i>
    <i name="e_0_energy">   -186.73586797 </i>
   </energy>
  </scstep>
  <scstep>
   <time name="dav">   32.05   32.12</time>
   <time name="total">   32.58   32.67</time>
   <energy>
    <i name="e_fr_energy">   -186.89834672 </i>
    <i name="e_wo_entrp">   -186.55531584 </i>
    <i name="e_0_energy">   -186.72683128 </i>
   </energy>
  </scstep>
  <scstep>
   <time name="dav">   32.07   32.15</time>
   <time name="total">   32.61   32.70</time>
   <energy>
    <i name="e_fr_energy">   -186.89083838 </i>
    <i name="e_wo_entrp">   -186.54732701 </i>
    <i name="e_0_energy">   -186.71908269 </i>
   </energy>
  </scstep>
  <scstep>
   <time name="dav">   32.45   32.53</time>
   <time name="total">   32.99   33.08</time>
   <energy>
    <i name="e_fr_energy">   -186.88866144 </i>
    <i name="e_wo_entrp">   -186.54622031 </i>
    <i name="e_0_energy">   -186.71744087 </i>
   </energy>
  </scstep>
  <scstep>
   <time name="dav">   31.95   32.03</time>
   <time name="total">   32.49   32.57</time>
   <energy>
    <i name="e_fr_energy">   -186.88764680 </i>
    <i name="e_wo_entrp">   -186.54626267 </i>
    <i name="e_0_energy">   -186.71695473 </i>
   </energy>
  </scstep>
  <scstep>
   <time name="dav">   29.09   29.16</time>
   <time name="total">   29.63   29.71</time>
   <energy>
    <i name="e_fr_energy">   -186.88733688 </i>
    <i name="e_wo_entrp">   -186.54535936 </i>
    <i name="e_0_energy">   -186.71634812 </i>
   </energy>
  </scstep>
  <scstep>
   <time name="dav">   23.93   23.99</time>
   <time name="total">   24.47   24.54</time>
   <energy>
    <i name="e_fr_energy">   -186.88809862 </i>
    <i name="e_wo_entrp">   -186.54645478 </i>
    <i name="e_0_energy">   -186.71727670 </i>
   </energy>
  </scstep>
  <scstep>
   <time name="dav">   22.47   22.53</time>
   <time name="total">   23.01   23.08</time>
   <energy>
    <i name="e_fr_energy">   -186.88866483 </i>
    <i name="e_wo_entrp">   -186.54695867 </i>
    <i name="e_0_energy">   -186.71781175 </i>
   </energy>
  </scstep>
  <scstep>
   <time name="dav">   20.81   20.86</time>
   <time name="total">   21.34   21.40</time>
   <energy>
    <i name="e_fr_energy">   -186.88979730 </i>
    <i name="e_wo_entrp">   -186.54804462 </i>
    <i name="e_0_energy">   -186.71892096 </i>
   </energy>
  </scstep>
  <scstep>
   <time name="dav">   20.75   20.80</time>
   <time name="total">   21.29   21.35</time>
   <energy>
    <i name="e_fr_energy">   -186.89104864 </i>
    <i name="e_wo_entrp">   -186.54941492 </i>
    <i name="e_0_energy">   -186.72023178 </i>
   </energy>
  </scstep>
  <scstep>
   <time name="dav">   19.32   19.37</time>
   <time name="total">   19.86   19.91</time>
   <energy>
    <i name="e_fr_energy">   -186.89161703 </i>
    <i name="e_wo_entrp">   -186.54994344 </i>
    <i name="e_0_energy">   -186.72078023 </i>
   </energy>
  </scstep>
  <scstep>
   <time name="dav">   16.72   16.76</time>
   <time name="total">   17.25   17.30</time>
   <energy>
    <i name="e_fr_energy">   -186.89200507 </i>
    <i name="e_wo_entrp">   -186.55029658 </i>
    <i name="e_0_energy">   -186.72115083 </i>
   </energy>
  </scstep>
  <scstep>
   <time name="dav">   19.34   19.39</time>
   <time name="total">   19.88   19.94</time>
   <energy>
    <i name="e_fr_energy">   -186.89224741 </i>
    <i name="e_wo_entrp">   -186.55055542 </i>
    <i name="e_0_energy">   -186.72140141 </i>
   </energy>
  </scstep>
  <scstep>
   <time name="dav">   20.39   20.44</time>
   <time name="total">   20.43   20.49</time>
   <energy>
    <i name="alphaZ">     81.65567618 </i>
    <i name="ewald">  41890.23010356 </i>
    <i name="hartreedc"> -47833.16453690 </i>
    <i name="XCdc">   -231.59853373 </i>
    <i name="pawpsdc">   4192.18468993 </i>
    <i name="pawaedc">  -3610.20930311 </i>
    <i name="eentropy">     -0.34169270 </i>
    <i name="bandstr">  -1437.09127415 </i>
    <i name="atom">   6761.44252427 </i>
    <i name="e_fr_energy">   -186.89234665 </i>
    <i name="e_wo_entrp">   -186.55065395 </i>
    <i name="e_0_energy">   -186.72150030 </i>
   </energy>
  </scstep>
  <structure>
   <crystal>
    <varray name="basis" >
     <v>       8.66999996       5.03999989       0.00000000 </v>
     <v>      -8.66999982       5.04000013       0.00000000 </v>
     <v>       0.00000000       0.00000000      30.00000000 </v>
    </varray>
    <i name="volume">   2621.80797419 </i>
    <varray name="rec_basis" >
     <v>       0.05767013       0.09920635       0.00000000 </v>
     <v>      -0.05767013       0.09920635       0.00000000 </v>
     <v>       0.00000000       0.00000000       0.03333333 </v>
    </varray>
   </crystal>
   <varray name="positions" >
    <v>       0.66666669       0.66666669       0.00000000 </v>
    <v>       0.66666669       0.33333334       0.00000000 </v>
    <v>       0.33333334       0.00000000       0.00000000 </v>
    <v>       0.33333334       0.66666669       0.00000000 </v>
    <v>       0.00000000       0.66666669       0.00000000 </v>
    <v>       1.00000000       0.33333334       0.00000000 </v>
    <v>       0.00000000       0.00000000       0.00000000 </v>
    <v>       0.33333334       0.33333334       0.00000000 </v>
    <v>       0.66666669       0.00000000       0.00000000 </v>
    <v>       0.11068511       0.22244981       0.95539999 </v>
    <v>       0.22244981       0.11068511       0.04460000 </v>
    <v>       0.11068511       0.55578315       0.95539999 </v>
    <v>       0.22244981       0.44401845       0.04460000 </v>
    <v>       0.11068511       0.88911647       0.95539999 </v>
    <v>       0.22244981       0.77735180       0.04460000 </v>
    <v>       0.44401845       0.22244981       0.95539999 </v>
    <v>       0.55578315       0.11068511       0.04460000 </v>
    <v>       0.44401845       0.55578315       0.95539999 </v>
    <v>       0.55578315       0.44401845       0.04460000 </v>
    <v>       0.44401845       0.88911647       0.95539999 </v>
    <v>       0.55578315       0.77735180       0.04460000 </v>
    <v>       0.77735180       0.22244981       0.95539999 </v>
    <v>       0.88911647       0.11068511       0.04460000 </v>
    <v>       0.77735180       0.55578315       0.95539999 </v>
    <v>       0.88911647       0.44401845       0.04460000 </v>
    <v>       0.77735180       0.88911647       0.95539999 </v>
    <v>       0.88911647       0.77735180       0.04460000 </v>
   </varray>
  </structure>
  <varray name="forces" >
   <v>       0.06919553      -0.02688822      -0.09371889 </v>
   <v>       0.14052414       0.32875870      -0.04207416 </v>
   <v>       0.20312229      -0.28124583       0.06784124 </v>
   <v>      -0.27401893      -0.44092860       0.14440814 </v>
   <v>       0.50719996      -0.04342082       0.00414301 </v>
   <v>      -0.25976833       0.43324762       0.02784545 </v>
   <v>       0.05566526      -0.01875606      -0.10016778 </v>
   <v>      -0.39527181       0.07724758      -0.06459723 </v>
   <v>      -0.10691120      -0.04340223       0.05590035 </v>
   <v>       0.27025786      -0.02576443      -2.90219604 </v>
   <v>       0.63659208       0.00518210       2.13557086 </v>
   <v>       0.11086790      -0.01592009      -2.94259204 </v>
   <v>       0.03544361       0.01041626       2.93873795 </v>
   <v>       0.34461048       0.69773172      -2.14025059 </v>
   <v>      -0.51636575       0.72156656       2.19348376 </v>
   <v>       0.73867474      -0.00665398      -1.40912977 </v>
   <v>      -0.73672456      -0.02165523       1.48691621 </v>
   <v>       0.64551031       0.56764232      -2.14944713 </v>
   <v>       0.24264456       0.52674743       1.41578416 </v>
   <v>      -0.65141800       0.15962905      -2.09131676 </v>
   <v>       0.64793914       0.14663661       2.06715604 </v>
   <v>      -0.64718958      -0.13808581      -2.10502509 </v>
   <v>      -0.07737842      -0.10676671       2.85799603 </v>
   <v>      -0.34205457      -0.67682860      -1.41887320 </v>
   <v>      -0.52316892      -0.69669461       2.17008739 </v>
   <v>       0.49316884      -0.58097316      -2.21740244 </v>
   <v>      -0.61114661      -0.55082159       2.11092055 </v>
  </varray>
  <varray name="stress" >
   <v>       7.34120933       0.09094669      -1.52157259 </v>
   <v>       0.09094685       4.43532307       0.04398583 </v>
   <v>      -1.52157254       0.04398561      30.27603947 </v>
  </varray>
  <energy>
   <i name="e_fr_energy">   -186.89234665 </i>
   <i name="e_wo_entrp">   -186.72150030 </i>
   <i name="e_0_energy">     -0.34169270 </i>
  </energy>
  <time name="totalsc">  800.98  803.12</time>
 </calculation>
 <calculation>
  <scstep>
   <time name="dav">   22.01   22.07</time>
   <time name="total">   22.56   22.62</time>
   <energy>
    <i name="alphaZ">     78.91638475 </i>
    <i name="ewald">  39378.04693055 </i>
    <i name="hartreedc"> -45335.61488531 </i>
    <i name="XCdc">   -239.05552886 </i>
    <i name="pawpsdc">   4192.16332807 </i>
    <i name="pawaedc">  -3610.18822297 </i>
    <i name="eentropy">     -0.28015099 </i>
    <i name="bandstr">  -1412.96275207 </i>
    <i name="atom">   6761.44252427 </i>
    <i name="e_fr_energy">   -187.53237256 </i>
    <i name="e_wo_entrp">   -187.25222157 </i>
    <i name="e_0_energy">   -187.39229707 </i>
   </energy>
  </scstep>
  <scstep>
   <time name="dav">   30.81   30.89</time>
   <time name="total">   31.35   31.43</time>
   <energy>
    <i name="e_fr_energy">   -189.53553932 </i>
    <i name="e_wo_entrp">   -189.20334072 </i>
    <i name="e_0_energy">   -189.36944002 </i>
   </energy>
  </scstep>
  <scstep>
   <time name="dav">   30.86   30.94</time>
   <time name="total">   31.42   31.50</time>
   <energy>
    <i name="e_fr_energy">   -189.35355155 </i>
    <i name="e_wo_entrp">   -189.08240249 </i>
    <i name="e_0_energy">   -189.21797702 </i>
   </energy>
  </scstep>
  <scstep>
   <time name="dav">   31.26   31.34</time>
   <time name="total">   31.80   31.89</time>
   <energy>
    <i name="e_fr_energy">   -188.78841958 </i>
    <i name="e_wo_entrp">   -188.50796845 </i>
    <i name="e_0_energy">   -188.64819401 </i>
   </energy>
  </scstep>
  <scstep>
   <time name="dav">   28.77   28.83</time>
   <time name="total">   29.31   29.39</time>
   <energy>
    <i name="e_fr_energy">   -188.85936612 </i>
    <i name="e_wo_entrp">   -188.57390679 </i>
    <i name="e_0_energy">   -188.71663646 </i>
   </energy>
  </scstep>
  <scstep>
   <time name="dav">   31.75   31.82</time>
   <time name="total">   32.29   32.38</time>
   <energy>
    <i name="e_fr_energy">   -188.77164811 </i>
    <i name="e_wo_entrp">   -188.49218771 </i>
    <i name="e_0_energy">   -188.63191791 </i>
   </energy>
  </scstep>
  <scstep>
   <time name="dav">   30.79   30.87</time>
   <time name="total">   31.34   31.43</time>
   <energy>
    <i name="e_fr_energy">   -188.72843218 </i>
    <i name="e_wo_entrp">   -188.44809052 </i>
    <i name="e_0_energy">   -188.58826135 </i>
   </energy>
  </scstep>
  <scstep>
   <time name="dav">   32.02   32.10</time>
   <time name="total">   32.57   32.66</time>
   <energy>
    <i name="e_fr_energy">   -188.71206450 </i>
    <i name="e_wo_entrp">   -188.43240296 </i>
    <i name="e_0_energy">   -188.57223373 </i>
   </energy>
  </scstep>
  <scstep>
   <time name="dav">   30.09   30.16</time>
   <time name="total">   30.64   30.72</time>
   <energy>
    <i name="e_fr_energy">   -188.70162619 </i>
    <i name="e_wo_entrp">   -188.42297630 </i>
    <i name="e_0_energy">   -188.56230125 </i>
   </energy>
  </scstep>
  <scstep>
   <time name="dav">   29.17   29.24</time>
   <time name="total">   29.72   29.80</time>
   <energy>
    <i name="e_fr_energy">   -188.70054930 </i>
    <i name="e_wo_entrp">   -188.42230654 </i>
    <i name="e_0_energy">   -188.56142792 </i>
   </energy>
  </scstep>
  <scstep>
   <time name="dav">   30.52   30.59</time>
   <time name="total">   31.07   31.15</time>
   <energy>
    <i name="e_fr_energy">   -188.70011154 </i>
    <i name="e_wo_entrp">   -188.42209792 </i>
    <i name="e_0_energy">   -188.56110473 </i>
   </energy>
  </scstep>
  <scstep>
   <time name="dav">   29.20   29.27</time>
   <time name="total">   29.75   29.83</time>
   <energy>
    <i name="e_fr_energy">   -188.70021174 </i>
    <i name="e_wo_entrp">   -188.42233353 </i>
    <i name="e_0_energy">   -188.56127263 </i>
   </energy>
  </scstep>
  <scstep>
   <time name="dav">   21.13   21.18</time>
   <time name="total">   21.16   21.22</time>
   <energy>
    <i name="alphaZ">     78.91638475 </i>
    <i name="ewald">  39378.04693055 </i>
    <i name="hartreedc"> -45346.34198625 </i>
    <i name="XCdc">   -237.96915435 </i>
    <i name="pawpsdc">   3950.51834893 </i>
    <i name="pawaedc">  -3365.03845249 </i>
    <i name="eentropy">     -0.27797949 </i>
    <i name="bandstr">  -1407.99677543 </i>
    <i name="atom">   6761.44252427 </i>
    <i name="e_fr_energy">   -188.70015951 </i>
    <i name="e_wo_entrp">   -188.42218002 </i>
    <i name="e_0_energy">   -188.56116976 </i>
   </energy>
  </scstep>
  <structure>
   <crystal>
    <varray name="basis" >
     <v>       8.85743935       5.10766561       0.00000000 </v>
     <v>      -8.85475877       5.10305486       0.00000000 </v>
     <v>       0.00000000       0.00000000      30.00000000 </v>
    </varray>
    <i name="volume">   2712.81437470 </i>
    <varray name="rec_basis" >
     <v>       0.05643278       0.09792147       0.00000000 </v>
     <v>      -0.05648376       0.09795111       0.00000000 </v>
     <v>       0.00000000       0.00000000       0.03333333 </v>
    </varray>
   </crystal>
   <varray name="positions" >
    <v>       0.66673051       0.66634549      -0.00015071 </v>
    <v>       0.66863108       0.33451581      -0.00006766 </v>
    <v>       0.33255243      -0.00191115       0.00010909 </v>
    <v>       0.33046070       0.66531878       0.00023222 </v>
    <v>       0.00120330       0.66504776       0.00000666 </v>
    <v>       1.00135080       0.33612957       0.00004478 </v>
    <v>       0.00006510      -0.00024464      -0.00016108 </v>
    <v>       0.33260334       0.33480276      -0.00010388 </v>
    <v>       0.66616152       0.00008972       0.00008989 </v>
    <v>       0.11131370       0.22157460       0.95073300 </v>
    <v>       0.22424571       0.10893881       0.04803419 </v>
    <v>       0.11091737       0.55539851       0.95066804 </v>
    <v>       0.22259827       0.44396970       0.04932575 </v>
    <v>       0.11498320       0.89149703       0.95195828 </v>
    <v>       0.22446660       0.78224181       0.04812731 </v>
    <v>       0.44604172       0.22036285       0.95313398 </v>
    <v>       0.55362983       0.11263115       0.04699109 </v>
    <v>       0.44853109       0.55670396       0.95194349 </v>
    <v>       0.55897923       0.44586438       0.04687670 </v>
    <v>       0.44297009       0.89169280       0.95203697 </v>
    <v>       0.55828762       0.77625093       0.04792417 </v>
    <v>       0.77489034       0.22358952       0.95201492 </v>
    <v>       0.88839020       0.11038941       0.04919591 </v>
    <v>       0.77316086       0.55349552       0.95311832 </v>
    <v>       0.88432656       0.44213963       0.04808969 </v>
    <v>       0.77594335       0.88496387       0.95183421 </v>
    <v>       0.88477994       0.77641588       0.04799455 </v>
   </varray>
  </structure>
  <varray name="forces" >
   <v>       0.00673830       0.06709820       0.03526117 </v>
   <v>       0.14716917       0.25645389      -0.09503420 </v>
   <v>       0.17241590      -0.25341288      -0.05350035 </v>
   <v>      -0.23132689      -0.62128437       0.03609271 </v>
   <v>       0.59316329       0.03232481       0.00475220 </v>
   <v>      -0.09313893       0.56663091       0.00161659 </v>
   <v>      -0.09725389      -0.00471722       0.05690853 </v>
   <v>      -0.52268339      -0.08979592      -0.10032390 </v>
   <v>       0.07875177       0.04123048       0.08587178 </v>
   <v>       0.08245179      -0.00423554      -0.03605597 </v>
   <v>      -0.07936903       0.01268880      -0.12409896 </v>
   <v>      -0.00810781       0.00867400      -0.34845274 </v>
   <v>       0.12516889       0.00532914       0.26870978 </v>
   <v>      -0.09752167       0.05164375       0.04952729 </v>
   <v>      -0.02397732       0.06159580       0.20483105 </v>
   <v>      -0.11166838       0.00232474       0.33608356 </v>
   <v>       0.09887652      -0.00134545      -0.13135509 </v>
   <v>       0.06374284      -0.05206306       0.02821190 </v>
   <v>      -0.05657545      -0.08040975      -0.16455061 </v>
   <v>       0.02746407       0.10154531       0.06337045 </v>
   <v>      -0.02801988       0.09868812      -0.11063089 </v>
   <v>       0.02159153      -0.10213189       0.03688939 </v>
   <v>       0.06787404      -0.08455931      -0.10841041 </v>
   <v>       0.01479291      -0.04246917       0.05030025 </v>
   <v>      -0.03928914      -0.06629033       0.15579084 </v>
   <v>      -0.04448429       0.04447261       0.01781999 </v>
   <v>      -0.06678496       0.05201432      -0.15962434 </v>
  </varray>
  <varray name="stress" >
   <v>     -19.90050001      -0.01668866       0.04265503 </v>
   <v>      -0.01668867     -19.46626557      -0.01657502 </v>
   <v>       0.04265502      -0.01657479      -1.75443407 </v>
  </varray>
  <energy>
   <i name="e_fr_energy">   -188.70015951 </i>
   <i name="e_wo_entrp">   -188.56116976 </i>
   <i name="e_0_energy">     -0.27797949 </i>
  </energy>
  <time name="totalsc">  427.81  428.95</time>
 </calculation>
 <calculation>
  <scstep>
   <time name="dav">   23.62   23.68</time>
   <time name="total">   24.16   24.22</time>
   <energy>
    <i name="alphaZ">     82.33632002 </i>
    <i name="ewald">  41299.00105996 </i>
    <i name="hartreedc"> -47297.73635153 </i>
    <i name="XCdc">   -233.85174000 </i>
    <i name="pawpsdc">   3949.79731965 </i>
    <i name="pawaedc">  -3364.31109039 </i>
    <i name="eentropy">     -0.23489479 </i>
    <i name="bandstr">  -1387.06603569 </i>
    <i name="atom">   6761.44252427 </i>
    <i name="e_fr_energy">   -190.62288850 </i>
    <i name="e_wo_entrp">   -190.38799370 </i>
    <i name="e_0_energy">   -190.50544110 </i>
   </energy>
  </scstep>
  <scstep>
   <time name="dav">   28.52   28.59</time>
   <time name="total">   29.05   29.13</time>
   <energy>
    <i name="e_fr_energy">   -190.57185493 </i>
    <i name="e_wo_entrp">   -190.33772525 </i>
    <i name="e_0_energy">   -190.45479009 </i>
   </energy>
  </scstep>
  <scstep>
   <time name="dav">   30.74   30.82</time>
   <time name="total">   31.27   31.36</time>
   <energy>
    <i name="e_fr_energy">   -190.10659818 </i>
    <i name="e_wo_entrp">   -189.85626829 </i>
    <i name="e_0_energy">   -189.98143323 </i>
   </energy>
  </scstep>
  <scstep>
   <time name="dav">   31.72   31.79</time>
   <time name="total">   32.26   32.34</time>
   <energy>
    <i name="e_fr_energy">   -189.89858193 </i>
    <i name="e_wo_entrp">   -189.66507317 </i>
    <i name="e_0_energy">   -189.78182755 </i>
   </energy>
  </scstep>
  <scstep>
   <time name="dav">   30.50   30.58</time>
   <time name="total">   31.03   31.12</time>
   <energy>
    <i name="e_fr_energy">   -189.87853745 </i>
    <i name="e_wo_entrp">   -189.63994545 </i>
    <i name="e_0_energy">   -189.75924145 </i>
   </energy>
  </scstep>
  <scstep>
   <time name="dav">   31.18   31.26</time>
   <time name="total">   31.72   31.80</time>
   <energy>
    <i name="e_fr_energy">   -189.80047672 </i>
    <i name="e_wo_entrp">   -189.56319145 </i>
    <i name="e_0_energy">   -189.68183408 </i>
   </energy>
  </scstep>
  <scstep>
   <time name="dav">   29.22   29.29</time>
   <time name="total">   29.76   29.84</time>
   <energy>
    <i name="e_fr_energy">   -189.79360553 </i>
    <i name="e_wo_entrp">   -189.55704392 </i>
    <i name="e_0_energy">   -189.67532473 </i>
   </energy>
  </scstep>
  <scstep>
   <time name="dav">   28.52   28.59</time>
   <time name="total">   29.05   29.13</time>
   <energy>
    <i name="e_fr_energy">   -189.79372372 </i>
    <i name="e_wo_entrp">   -189.55704363 </i>
    <i name="e_0_energy">   -189.67538367 </i>
   </energy>
  </scstep>
  <scstep>
   <time name="dav">   27.04   27.10</time>
   <time name="total">   27.57   27.65</time>
   <energy>
    <i name="e_fr_energy">   -189.79389377 </i>
    <i name="e_wo_entrp">   -189.55722265 </i>
    <i name="e_0_energy">   -189.67555821 </i>
   </energy>
  </scstep>
  <scstep>
   <time name="dav">   25.80   25.86</time>
   <time name="total">   26.33   26.40</time>
   <energy>
    <i name="e_fr_energy">   -189.79399938 </i>
    <i name="e_wo_entrp">   -189.55735972 </i>
    <i name="e_0_energy">   -189.67567955 </i>
   </energy>
  </scstep>
  <scstep>
   <time name="dav">   23.69   23.75</time>
   <time name="total">   24.23   24.29</time>
   <energy>
    <i name="e_fr_energy">   -189.79365391 </i>
    <i name="e_wo_entrp">   -189.55689534 </i>
    <i name="e_0_energy">   -189.67527462 </i>
   </energy>
  </scstep>
  <scstep>
   <time name="dav">   19.64   19.69</time>
   <time name="total">   19.67   19.73</time>
   <energy>
    <i name="alphaZ">     82.33632002 </i>
    <i name="ewald">  41299.00105996 </i>
    <i name="hartreedc"> -47271.29150496 </i>
    <i name="XCdc">   -235.24075446 </i>
    <i name="pawpsdc">   4038.90566985 </i>
    <i name="pawaedc">  -3454.62059289 </i>
    <i name="eentropy">     -0.23675310 </i>
    <i name="bandstr">  -1410.08965079 </i>
    <i name="atom">   6761.44252427 </i>
    <i name="e_fr_energy">   -189.79368210 </i>
    <i name="e_wo_entrp">   -189.55692900 </i>
    <i name="e_0_energy">   -189.67530555 </i>
   </energy>
  </scstep>
  <structure>
   <crystal>
    <varray name="basis" >
     <v>       8.66939517       5.00148919       0.00000000 </v>
     <v>      -8.66695317       4.99728934       0.00000000 </v>
     <v>       0.00000000       0.00000000      30.00000000 </v>
    </varray>
    <i name="volume">   2600.13445933 </i>
    <varray name="rec_basis" >
     <v>       0.05765805       0.09999813       0.00000000 </v>
     <v>      -0.05770651       0.10002631       0.00000000 </v>
     <v>       0.00000000       0.00000000       0.03333333 </v>
    </varray>
   </crystal>
   <varray name="positions" >
    <v>       0.66684870       0.66645077      -0.00013072 </v>
    <v>       0.66919929       0.33480159      -0.00012152 </v>
    <v>       0.33229594      -0.00249880       0.00007877 </v>
    <v>       0.32920431       0.66450620       0.00025268 </v>
    <v>       0.00182629       0.66453192       0.00000936 </v>
    <v>       1.00220486       0.33716274       0.00004569 </v>
    <v>      -0.00003607      -0.00015909      -0.00012882 </v>
    <v>       0.33195229       0.33515519      -0.00016074 </v>
    <v>       0.66630573       0.00008276       0.00013856 </v>
    <v>       0.11138577       0.22148836       0.95071257 </v>
    <v>       0.22419068       0.10903617       0.04796385 </v>
    <v>       0.11092403       0.55542074       0.95047055 </v>
    <v>       0.22272725       0.44385836       0.04947805 </v>
    <v>       0.11497561       0.89167671       0.95198635 </v>
    <v>       0.22454615       0.78236743       0.04824341 </v>
    <v>       0.44593844       0.22047397       0.95332447 </v>
    <v>       0.55372246       0.11253395       0.04691664 </v>
    <v>       0.44850557       0.55655603       0.95195948 </v>
    <v>       0.55879106       0.44578479       0.04678344 </v>
    <v>       0.44316551       0.89183554       0.95207288 </v>
    <v>       0.55842505       0.77644220       0.04786147 </v>
    <v>       0.77474101       0.22339868       0.95203583 </v>
    <v>       0.88831454       0.11018339       0.04913446 </v>
    <v>       0.77310434       0.55341058       0.95314683 </v>
    <v>       0.88417849       0.44206696       0.04817799 </v>
    <v>       0.77597471       0.88508066       0.95184431 </v>
    <v>       0.88480246       0.77656665       0.04790407 </v>
   </varray>
  </structure>
  <varray name="forces" >
   <v>      -0.03162732       0.11307899       0.05602699 </v>
   <v>       0.16189784       0.23879648      -0.08561509 </v>
   <v>       0.16182894      -0.26797886      -0.07165862 </v>
   <v>      -0.21556144      -0.66169206       0.00135822 </v>
   <v>       0.59925643       0.06122139       0.00910323 </v>
   <v>      -0.02954782       0.59066525      -0.00386568 </v>
   <v>      -0.15053843      -0.00006099       0.07675715 </v>
   <v>      -0.56331719      -0.15176386      -0.08286797 </v>
   <v>       0.14653426       0.06134500       0.06342753 </v>
   <v>      -0.00591865      -0.01302269      -0.60128566 </v>
   <v>       0.06091413       0.02774874       0.37023917 </v>
   <v>      -0.00655137       0.01291479      -0.91582627 </v>
   <v>       0.04306653       0.00466410       0.85488316 </v>
   <v>       0.02555869       0.09691529      -0.43867040 </v>
   <v>      -0.06359363       0.11765311       0.71848890 </v>
   <v>       0.03393610       0.00196964      -0.09700297 </v>
   <v>      -0.07280209       0.00414041       0.32973543 </v>
   <v>       0.03425137       0.08746945      -0.47031752 </v>
   <v>       0.01837974       0.03643147       0.27880241 </v>
   <v>      -0.06557458       0.02200092      -0.41396303 </v>
   <v>       0.07433752       0.00802957       0.36770802 </v>
   <v>      -0.07457313      -0.02257157      -0.44894329 </v>
   <v>       0.01957855      -0.00099541       0.43371988 </v>
   <v>      -0.01372027      -0.08402199      -0.39612606 </v>
   <v>      -0.07467106      -0.12555658       0.65537299 </v>
   <v>       0.02560172      -0.08156279      -0.50498851 </v>
   <v>      -0.03714483      -0.07581780       0.31550802 </v>
  </varray>
  <varray name="stress" >
   <v>     -10.14894640      -0.01584387       0.01867497 </v>
   <v>      -0.01584380      -9.81705291      -0.02870260 </v>
   <v>       0.01867481      -0.02870245       6.47752768 </v>
  </varray>
  <energy>
   <i name="e_fr_energy">   -189.79368210 </i>
   <i name="e_wo_entrp">   -189.67530555 </i>
   <i name="e_0_energy">     -0.23675310 </i>
  </energy>
  <time name="totalsc">  379.09  380.10</time>
 </calculation>
 <calculation>
  <scstep>
   <time name="dav">   21.95   22.01</time>
   <time name="total">   22.48   22.53</time>
   <energy>
    <i name="alphaZ">     85.80757383 </i>
    <i name="ewald">  42828.10142014 </i>
    <i name="hartreedc"> -48844.72637067 </i>
    <i name="XCdc">   -232.95558005 </i>
    <i name="pawpsdc">   4038.95072342 </i>
    <i name="pawaedc">  -3454.66366523 </i>
    <i name="eentropy">     -0.20505462 </i>
    <i name="bandstr">  -1373.11868689 </i>
    <i name="atom">   6761.44252427 </i>
    <i name="e_fr_energy">   -191.36711580 </i>
    <i name="e_wo_entrp">   -191.16206118 </i>
    <i name="e_0_energy">   -191.26458849 </i>
   </energy>
  </scstep>
  <scstep>
   <time name="dav">   32.64   32.71</time>
   <time name="total">   33.15   33.24</time>
   <energy>
    <i name="e_fr_energy">   -191.20443434 </i>
    <i name="e_wo_entrp">   -190.99938662 </i>
    <i name="e_0_energy">   -191.10191048 </i>
   </energy>
  </scstep>
  <scstep>
   <time name="dav">   30.36   30.43</time>
   <time name="total">   30.87   30.95</time>
   <energy>
    <i name="e_fr_energy">   -191.30986607 </i>
    <i name="e_wo_entrp">   -191.08163953 </i>
    <i name="e_0_energy">   -191.19575280 </i>
   </energy>
  </scstep>
  <scstep>
   <time name="dav">   31.02   31.09</time>
   <time name="total">   31.54   31.63</time>
   <energy>
    <i name="e_fr_energy">   -190.93680071 </i>
    <i name="e_wo_entrp">   -190.72854691 </i>
    <i name="e_0_energy">   -190.83267381 </i>
   </energy>
  </scstep>
  <scstep>
   <time name="dav">   31.10   31.18</time>
   <time name="total">   31.62   31.71</time>
   <energy>
    <i name="e_fr_energy">   -190.88888510 </i>
    <i name="e_wo_entrp">   -190.68189213 </i>
    <i name="e_0_energy">   -190.78538861 </i>
   </energy>
  </scstep>
  <scstep>
   <time name="dav">   30.46   30.53</time>
   <time name="total">   30.97   31.06</time>
   <energy>
    <i name="e_fr_energy">   -190.80490126 </i>
    <i name="e_wo_entrp">   -190.59421985 </i>
    <i name="e_0_energy">   -190.69956055 </i>
   </energy>
  </scstep>
  <scstep>
   <time name="dav">   31.50   31.58</time>
   <time name="total">   32.02   32.11</time>
   <energy>
    <i name="e_fr_energy">   -190.79013282 </i>
    <i name="e_wo_entrp">   -190.58032192 </i>
    <i name="e_0_energy">   -190.68522737 </i>
   </energy>
  </scstep>
  <scstep>
   <time name="dav">   26.17   26.23</time>
   <time name="total">   26.69   26.76</time>
   <energy>
    <i name="e_fr_energy">   -190.78755942 </i>
    <i name="e_wo_entrp">   -190.57790494 </i>
    <i name="e_0_energy">   -190.68273218 </i>
   </energy>
  </scstep>
  <scstep>
   <time name="dav">   29.34   29.41</time>
   <time name="total">   29.86   29.94</time>
   <energy>
    <i name="e_fr_energy">   -190.78790502 </i>
    <i name="e_wo_entrp">   -190.57823203 </i>
    <i name="e_0_energy">   -190.68306853 </i>
   </energy>
  </scstep>
  <scstep>
   <time name="dav">   28.07   28.14</time>
   <time name="total">   28.59   28.67</time>
   <energy>
    <i name="e_fr_energy">   -190.78766808 </i>
    <i name="e_wo_entrp">   -190.57798814 </i>
    <i name="e_0_energy">   -190.68282811 </i>
   </energy>
  </scstep>
  <scstep>
   <time name="dav">   23.88   23.94</time>
   <time name="total">   24.40   24.47</time>
   <energy>
    <i name="e_fr_energy">   -190.78756095 </i>
    <i name="e_wo_entrp">   -190.57788059 </i>
    <i name="e_0_energy">   -190.68272077 </i>
   </energy>
  </scstep>
  <scstep>
   <time name="dav">   20.22   20.27</time>
   <time name="total">   20.26   20.31</time>
   <energy>
    <i name="alphaZ">     85.80757383 </i>
    <i name="ewald">  42828.10142014 </i>
    <i name="hartreedc"> -48816.22474577 </i>
    <i name="XCdc">   -234.28211446 </i>
    <i name="pawpsdc">   4064.15128378 </i>
    <i name="pawaedc">  -3480.04765971 </i>
    <i name="eentropy">     -0.20972214 </i>
    <i name="bandstr">  -1399.52611844 </i>
    <i name="atom">   6761.44252427 </i>
    <i name="e_fr_energy">   -190.78755849 </i>
    <i name="e_wo_entrp">   -190.57783635 </i>
    <i name="e_0_energy">   -190.68269742 </i>
   </energy>
  </scstep>
  <structure>
   <crystal>
    <varray name="basis" >
     <v>       8.48751635       4.90135790       0.00000000 </v>
     <v>      -8.48568132       4.89820543       0.00000000 </v>
     <v>       0.00000000       0.00000000      30.00000000 </v>
    </varray>
    <i name="volume">   2494.94879518 </i>
    <varray name="rec_basis" >
     <v>       0.05889747       0.10203433       0.00000000 </v>
     <v>      -0.05893537       0.10205640       0.00000000 </v>
     <v>       0.00000000       0.00000000       0.03333333 </v>
    </varray>
   </crystal>
   <varray name="positions" >
    <v>       0.66750224       0.66744346       0.00000289 </v>
    <v>       0.67125688       0.33564716      -0.00029076 </v>
    <v>       0.33115049      -0.00478383      -0.00008499 </v>
    <v>       0.32420315       0.66101643       0.00022600 </v>
    <v>       0.00445514       0.66281246       0.00003190 </v>
    <v>       1.00594902       0.34093859       0.00003304 </v>
    <v>      -0.00064519       0.00047301       0.00004693 </v>
    <v>       0.32875402       0.33614466      -0.00031747 </v>
    <v>       0.66736685      -0.00010997       0.00025081 </v>
    <v>       0.11113389       0.22153338       0.94898791 </v>
    <v>       0.22482371       0.10882556       0.04915001 </v>
    <v>       0.11099407       0.55553368       0.94809291 </v>
    <v>       0.22279235       0.44384835       0.05174548 </v>
    <v>       0.11596477       0.89212737       0.95066373 </v>
    <v>       0.22513621       0.78353127       0.05016692 </v>
    <v>       0.44628176       0.22015327       0.95275596 </v>
    <v>       0.55325235       0.11308375       0.04799073 </v>
    <v>       0.44948276       0.55737075       0.95056258 </v>
    <v>       0.55948478       0.44613026       0.04773703 </v>
    <v>       0.44273433       0.89214583       0.95081064 </v>
    <v>       0.55866487       0.77585034       0.04902880 </v>
    <v>       0.77439047       0.22386369       0.95069396 </v>
    <v>       0.88851802       0.11038433       0.05049262 </v>
    <v>       0.77238391       0.55287113       0.95194775 </v>
    <v>       0.88292369       0.44145332       0.04995889 </v>
    <v>       0.77534272       0.88406184       0.95035502 </v>
    <v>       0.88391719       0.77586437       0.04896063 </v>
   </varray>
  </structure>
  <varray name="forces" >
   <v>      -0.05211279       0.18012698       0.06150547 </v>
   <v>       0.15896040       0.19647327      -0.03782399 </v>
   <v>       0.17250837      -0.26176008      -0.07243794 </v>
   <v>      -0.18686119      -0.64812390      -0.03098411 </v>
   <v>       0.56196342       0.07020613       0.02780140 </v>
   <v>       0.04918732       0.57251958      -0.00527971 </v>
   <v>      -0.20826637      -0.00691506       0.05005876 </v>
   <v>      -0.57686733      -0.16604590      -0.02891427 </v>
   <v>       0.19387268       0.06736717       0.01243147 </v>
   <v>      -0.07880153      -0.02409547      -0.45981001 </v>
   <v>       0.00665564       0.04265490       0.21035564 </v>
   <v>      -0.00090502      -0.00361187      -0.71396828 </v>
   <v>      -0.04864458       0.01407675       0.68150433 </v>
   <v>       0.03297127      -0.02180105      -0.26279409 </v>
   <v>       0.01275983       0.00088896       0.55721181 </v>
   <v>      -0.04051361      -0.00219091      -0.02256743 </v>
   <v>      -0.03863391       0.01118828       0.23367476 </v>
   <v>      -0.06387348       0.01079499      -0.30065234 </v>
   <v>      -0.02187850      -0.02388095       0.13925193 </v>
   <v>       0.03439710      -0.05020639      -0.21545849 </v>
   <v>      -0.03400079      -0.08689352       0.21221190 </v>
   <v>       0.01827961       0.05811318      -0.27422077 </v>
   <v>      -0.06585462       0.09287985       0.30097059 </v>
   <v>       0.04715381       0.03399589      -0.30903361 </v>
   <v>       0.00662319       0.00388083       0.46043189 </v>
   <v>       0.03324466      -0.03959199      -0.39409226 </v>
   <v>       0.08863640      -0.02004967       0.18062736 </v>
  </varray>
  <varray name="stress" >
   <v>      -5.71931823       0.07398979      -0.07246180 </v>
   <v>       0.07398960      -5.65909840       0.07557314 </v>
   <v>      -0.07246196       0.07557326       4.48139994 </v>
  </varray>
  <energy>
   <i name="e_fr_energy">   -190.78755849 </i>
   <i name="e_wo_entrp">   -190.68269742 </i>
   <i name="e_0_energy">     -0.20972214 </i>
  </energy>
  <time name="totalsc">  385.36  386.38</time>
 </calculation>
 <calculation>
  <scstep>
   <time name="dav">   21.99   22.04</time>
   <time name="total">   22.50   22.56</time>
   <energy>
    <i name="alphaZ">     90.07603295 </i>
    <i name="ewald">  44620.17566680 </i>
    <i name="hartreedc"> -50662.64543308 </i>
    <i name="XCdc">   -231.89144138 </i>
    <i name="pawpsdc">   4064.09552957 </i>
    <i name="pawaedc">  -3479.98799923 </i>
    <i name="eentropy">     -0.20285261 </i>
    <i name="bandstr">  -1353.16249623 </i>
    <i name="atom">   6761.44252427 </i>
    <i name="e_fr_energy">   -192.10046894 </i>
    <i name="e_wo_entrp">   -191.89761634 </i>
    <i name="e_0_energy">   -191.99904264 </i>
   </energy>
  </scstep>
  <scstep>
   <time name="dav">   28.93   29.00</time>
   <time name="total">   29.43   29.51</time>
   <energy>
    <i name="e_fr_energy">   -191.86540394 </i>
    <i name="e_wo_entrp">   -191.65679751 </i>
    <i name="e_0_energy">   -191.76110072 </i>
   </energy>
  </scstep>
  <scstep>
   <time name="dav">   28.26   28.33</time>
   <time name="total">   28.76   28.84</time>
   <energy>
    <i name="e_fr_energy">   -192.06775708 </i>
    <i name="e_wo_entrp">   -191.84785823 </i>
    <i name="e_0_energy">   -191.95780765 </i>
   </energy>
  </scstep>
  <scstep>
   <time name="dav">   28.95   29.02</time>
   <time name="total">   29.46   29.54</time>
   <energy>
    <i name="e_fr_energy">   -191.74860885 </i>
    <i name="e_wo_entrp">   -191.53390553 </i>
    <i name="e_0_energy">   -191.64125719 </i>
   </energy>
  </scstep>
  <scstep>
   <time name="dav">   30.75   30.82</time>
   <time name="total">   31.25   31.34</time>
   <energy>
    <i name="e_fr_energy">   -191.57271895 </i>
    <i name="e_wo_entrp">   -191.37314166 </i>
    <i name="e_0_energy">   -191.47293031 </i>
   </energy>
  </scstep>
  <scstep>
   <time name="dav">   30.58   30.65</time>
   <time name="total">   31.09   31.17</time>
   <energy>
    <i name="e_fr_energy">   -191.44748512 </i>
    <i name="e_wo_entrp">   -191.23509486 </i>
    <i name="e_0_energy">   -191.34128999 </i>
   </energy>
  </scstep>
  <scstep>
   <time name="dav">   30.53   30.60</time>
   <time name="total">   31.03   31.12</time>
   <energy>
    <i name="e_fr_energy">   -191.43313644 </i>
    <i name="e_wo_entrp">   -191.22260406 </i>
    <i name="e_0_energy">   -191.32787025 </i>
   </energy>
  </scstep>
  <scstep>
   <time name="dav">   27.42   27.49</time>
   <time name="total">   27.93   28.00</time>
   <energy>
    <i name="e_fr_energy">   -191.42893351 </i>
    <i name="e_wo_entrp">   -191.21860826 </i>
    <i name="e_0_energy">   -191.32377089 </i>
   </energy>
  </scstep>
  <scstep>
   <time name="dav">   31.41   31.49</time>
   <time name="total">   31.92   32.00</time>
   <energy>
    <i name="e_fr_energy">   -191.43046164 </i>
    <i name="e_wo_entrp">   -191.22035499 </i>
    <i name="e_0_energy">   -191.32540831 </i>
   </energy>
  </scstep>
  <scstep>
   <time name="dav">   28.31   28.38</time>
   <time name="total">   28.82   28.89</time>
   <energy>
    <i name="e_fr_energy">   -191.42886822 </i>
    <i name="e_wo_entrp">   -191.21833139 </i>
    <i name="e_0_energy">   -191.32359981 </i>
   </energy>
  </scstep>
  <scstep>
   <time name="dav">   24.24   24.29</time>
   <time name="total">   24.27   24.34</time>
   <energy>
    <i name="alphaZ">     90.07603295 </i>
    <i name="ewald">  44620.17566680 </i>
    <i name="hartreedc"> -50629.42427493 </i>
    <i name="XCdc">   -233.38241777 </i>
    <i name="pawpsdc">   4085.23007459 </i>
    <i name="pawaedc">  -3501.21733385 </i>
    <i name="eentropy">     -0.21048941 </i>
    <i name="bandstr">  -1384.11871975 </i>
    <i name="atom">   6761.44252427 </i>
    <i name="e_fr_energy">   -191.42893710 </i>
    <i name="e_wo_entrp">   -191.21844769 </i>
    <i name="e_0_energy">   -191.32369240 </i>
   </energy>
  </scstep>
  <structure>
   <crystal>
    <varray name="basis" >
     <v>       8.28430460       4.78849782       0.00000000 </v>
     <v>      -8.27829796       4.77811813       0.00000000 </v>
     <v>       0.00000000       0.00000000      30.00000000 </v>
    </varray>
    <i name="volume">   2376.71993229 </i>
    <varray name="rec_basis" >
     <v>       0.06031150       0.10449230       0.00000000 </v>
     <v>      -0.06044252       0.10456812       0.00000000 </v>
     <v>       0.00000000       0.00000000       0.03333333 </v>
    </varray>
   </crystal>
   <varray name="positions" >
    <v>       0.66930782       0.67006994       0.00026440 </v>
    <v>       0.67481519       0.33691526      -0.00045707 </v>
    <v>       0.32909503      -0.00921243      -0.00038987 </v>
    <v>       0.31485268       0.65429628       0.00008634 </v>
    <v>       0.00937602       0.65973515       0.00013666 </v>
    <v>       1.01339917       0.34763874       0.00000750 </v>
    <v>      -0.00220246       0.00191178       0.00027906 </v>
    <v>       0.32246656       0.33808178      -0.00044385 </v>
    <v>       0.66966504      -0.00067241       0.00030534 </v>
    <v>       0.11020330       0.22186347       0.94653925 </v>
    <v>       0.22569031       0.10903510       0.05054895 </v>
    <v>       0.11098012       0.55553807       0.94460092 </v>
    <v>       0.22255662       0.44439274       0.05511174 </v>
    <v>       0.11644992       0.89175853       0.94905405 </v>
    <v>       0.22545085       0.78394138       0.05296287 </v>
    <v>       0.44628546       0.22010774       0.95220728 </v>
    <v>       0.55280687       0.11381045       0.04941638 </v>
    <v>       0.44973297       0.55843063       0.94879580 </v>
    <v>       0.55963287       0.44626379       0.04879342 </v>
    <v>       0.44200917       0.89143162       0.94938755 </v>
    <v>       0.55753543       0.77465746       0.05041729 </v>
    <v>       0.77507529       0.22478337       0.94904180 </v>
    <v>       0.88927205       0.11206181       0.05228344 </v>
    <v>       0.77271307       0.55274588       0.95024175 </v>
    <v>       0.88250100       0.44120772       0.05237459 </v>
    <v>       0.77477404       0.88280951       0.94822462 </v>
    <v>       0.88377006       0.77461110       0.05020969 </v>
   </varray>
  </structure>
  <varray name="forces" >
   <v>      -0.01166763       0.25703959      -0.01510409 </v>
   <v>       0.14957244       0.16677231      -0.00351593 </v>
   <v>       0.21123273      -0.22900337       0.02397222 </v>
   <v>      -0.05742142      -0.08392893       0.02578216 </v>
   <v>       0.15901117       0.00366005      -0.03672304 </v>
   <v>       0.12458464       0.00184751      -0.05156375 </v>
   <v>      -0.32371169      -0.00377590      -0.02501601 </v>
   <v>      -0.35609669      -0.13652020       0.06481586 </v>
   <v>       0.20093864       0.11730168       0.00858785 </v>
   <v>      -0.11929682      -0.04534722      -0.17485845 </v>
   <v>      -0.07739994       0.03306462      -0.07155084 </v>
   <v>       0.00077138      -0.06168891      -0.24957879 </v>
   <v>      -0.08222607       0.03591959       0.25481686 </v>
   <v>      -0.01308024      -0.14566822       0.07980686 </v>
   <v>       0.10381369      -0.07881966       0.14408374 </v>
   <v>      -0.17838468      -0.02597993       0.19630419 </v>
   <v>       0.04107586      -0.00010967      -0.03572115 </v>
   <v>      -0.15914207      -0.08732967       0.03106492 </v>
   <v>      -0.07618939      -0.08997746      -0.13290796 </v>
   <v>       0.17185445      -0.12248413       0.06825835 </v>
   <v>      -0.15202101      -0.16485174      -0.09361680 </v>
   <v>       0.13648339       0.11518713       0.02059886 </v>
   <v>      -0.12448216       0.16190521       0.07817300 </v>
   <v>       0.06626834       0.14406810       0.00854272 </v>
   <v>       0.12827706       0.11985792       0.08555227 </v>
   <v>       0.03318859       0.02543424      -0.14384555 </v>
   <v>       0.20404746       0.09342703      -0.05635753 </v>
  </varray>
  <varray name="stress" >
   <v>       0.01705281       0.24351662       0.02345302 </v>
   <v>       0.24351675       0.27385354       0.34794900 </v>
   <v>       0.02345326       0.34794904      -0.71579837 </v>
  </varray>
  <energy>
   <i name="e_fr_energy">   -191.42893710 </i>
   <i name="e_wo_entrp">   -191.32369240 </i>
   <i name="e_0_energy">     -0.21048941 </i>
  </energy>
  <time name="totalsc">  358.93  359.88</time>
 </calculation>
 <calculation>
  <scstep>
   <time name="dav">   22.04   22.09</time>
   <time name="total">   22.55   22.60</time>
   <energy>
    <i name="alphaZ">     89.98740861 </i>
    <i name="ewald">  44566.88210161 </i>
    <i name="hartreedc"> -50575.75129254 </i>
    <i name="XCdc">   -233.49958954 </i>
    <i name="pawpsdc">   4085.39404774 </i>
    <i name="pawaedc">  -3501.37858501 </i>
    <i name="eentropy">     -0.21356169 </i>
    <i name="bandstr">  -1384.34109803 </i>
    <i name="atom">   6761.44252427 </i>
    <i name="e_fr_energy">   -191.47804457 </i>
    <i name="e_wo_entrp">   -191.26448288 </i>
    <i name="e_0_energy">   -191.37126373 </i>
   </energy>
  </scstep>
  <scstep>
   <time name="dav">   32.24   32.32</time>
   <time name="total">   32.74   32.83</time>
   <energy>
    <i name="e_fr_energy">   -191.53086708 </i>
    <i name="e_wo_entrp">   -191.30745672 </i>
    <i name="e_0_energy">   -191.41916190 </i>
   </energy>
  </scstep>
  <scstep>
   <time name="dav">   30.93   31.01</time>
   <time name="total">   31.45   31.54</time>
   <energy>
    <i name="e_fr_energy">   -191.48880240 </i>
    <i name="e_wo_entrp">   -191.27474761 </i>
    <i name="e_0_energy">   -191.38177501 </i>
   </energy>
  </scstep>
  <scstep>
   <time name="dav">   28.74   28.81</time>
   <time name="total">   29.25   29.33</time>
   <energy>
    <i name="e_fr_energy">   -191.49038824 </i>
    <i name="e_wo_entrp">   -191.27485703 </i>
    <i name="e_0_energy">   -191.38262264 </i>
   </energy>
  </scstep>
  <scstep>
   <time name="dav">   26.27   26.33</time>
   <time name="total">   26.77   26.85</time>
   <energy>
    <i name="e_fr_energy">   -191.48701524 </i>
    <i name="e_wo_entrp">   -191.27184257 </i>
    <i name="e_0_energy">   -191.37942891 </i>
   </energy>
  </scstep>
  <scstep>
   <time name="dav">   26.70   26.77</time>
   <time name="total">   27.21   27.28</time>
   <energy>
    <i name="e_fr_energy">   -191.48698482 </i>
    <i name="e_wo_entrp">   -191.27167336 </i>
    <i name="e_0_energy">   -191.37932909 </i>
   </energy>
  </scstep>
  <scstep>
   <time name="dav">   26.17   26.23</time>
   <time name="total">   26.67   26.75</time>
   <energy>
    <i name="e_fr_energy">   -191.48667797 </i>
    <i name="e_wo_entrp">   -191.27162879 </i>
    <i name="e_0_energy">   -191.37915338 </i>
   </energy>
  </scstep>
  <scstep>
   <time name="dav">   21.07   21.13</time>
   <time name="total">   21.11   21.17</time>
   <energy>
    <i name="alphaZ">     89.98740861 </i>
    <i name="ewald">  44566.88210161 </i>
    <i name="hartreedc"> -50577.35653872 </i>
    <i name="XCdc">   -233.45683671 </i>
    <i name="pawpsdc">   4082.50889503 </i>
    <i name="pawaedc">  -3498.44974446 </i>
    <i name="eentropy">     -0.21513287 </i>
    <i name="bandstr">  -1382.82936345 </i>
    <i name="atom">   6761.44252427 </i>
    <i name="e_fr_energy">   -191.48668668 </i>
    <i name="e_wo_entrp">   -191.27155381 </i>
    <i name="e_0_energy">   -191.37912024 </i>
   </energy>
  </scstep>
  <structure>
   <crystal>
    <varray name="basis" >
     <v>       8.28865237       4.79770508       0.00000000 </v>
     <v>      -8.27658297       4.77682206       0.00000000 </v>
     <v>       0.00000000       0.00000000      30.00000000 </v>
    </varray>
    <i name="volume">   2379.06065117 </i>
    <varray name="rec_basis" >
     <v>       0.06023582       0.10436787       0.00000000 </v>
     <v>      -0.06049915       0.10452006       0.00000000 </v>
     <v>       0.00000000       0.00000000       0.03333333 </v>
    </varray>
   </crystal>
   <varray name="positions" >
    <v>       0.67053832       0.67136137       0.00023826 </v>
    <v>       0.67604519       0.33730487      -0.00046123 </v>
    <v>       0.32857937      -0.01092422      -0.00034931 </v>
    <v>       0.31434608       0.65409832       0.00012845 </v>
    <v>       0.00981065       0.65932046       0.00007760 </v>
    <v>       1.01370562       0.34723551      -0.00007408 </v>
    <v>      -0.00313793       0.00281239       0.00023734 </v>
    <v>       0.32081691       0.33841176      -0.00033995 </v>
    <v>       0.67080619      -0.00066206       0.00031850 </v>
    <v>       0.10964324       0.22197795       0.94628481 </v>
    <v>       0.22562401       0.10942207       0.05042118 </v>
    <v>       0.11067546       0.55522857       0.94423646 </v>
    <v>       0.22250147       0.44480352       0.05548550 </v>
    <v>       0.11568123       0.89107345       0.94919661 </v>
    <v>       0.22535317       0.78324452       0.05316593 </v>
    <v>       0.44564246       0.22049362       0.95252560 </v>
    <v>       0.55292948       0.11368419       0.04934560 </v>
    <v>       0.44883676       0.55844272       0.94886233 </v>
    <v>       0.55896228       0.44603262       0.04857138 </v>
    <v>       0.44190106       0.89033261       0.94951030 </v>
    <v>       0.55628733       0.77428592       0.05025470 </v>
    <v>       0.77603526       0.22495481       0.94909075 </v>
    <v>       0.88971342       0.11321182       0.05238991 </v>
    <v>       0.77361941       0.55327438       0.95027155 </v>
    <v>       0.88347149       0.44143853       0.05248781 </v>
    <v>       0.77500209       0.88285355       0.94801652 </v>
    <v>       0.88482445       0.77450121       0.05010740 </v>
   </varray>
  </structure>
  <varray name="forces" >
   <v>       0.01468492       0.24851907       0.01960190 </v>
   <v>       0.16115115       0.19810901       0.01105147 </v>
   <v>       0.25874804      -0.22340880      -0.00426772 </v>
   <v>      -0.12843782      -0.18681499      -0.03882811 </v>
   <v>       0.24255319      -0.02059691      -0.03384779 </v>
   <v>       0.12149712       0.04412784      -0.02009427 </v>
   <v>      -0.38878304       0.01456302      -0.00058112 </v>
   <v>      -0.36544470      -0.14604939       0.02484269 </v>
   <v>       0.19482940       0.14359224       0.02736910 </v>
   <v>      -0.05255413      -0.02944950      -0.16276914 </v>
   <v>      -0.06737538      -0.00389049      -0.08495186 </v>
   <v>       0.01927344      -0.03381797      -0.12080030 </v>
   <v>      -0.08275743       0.00841910       0.17654928 </v>
   <v>      -0.02617561      -0.08938461       0.10464625 </v>
   <v>       0.04439211      -0.05764454       0.13222829 </v>
   <v>      -0.11445813      -0.02096402       0.24709773 </v>
   <v>       0.03422653       0.00130114      -0.06140257 </v>
   <v>      -0.09018071      -0.04976405       0.05522754 </v>
   <v>      -0.06077920      -0.05220726      -0.16944546 </v>
   <v>       0.12513209      -0.05196490       0.05959201 </v>
   <v>      -0.07756087      -0.08154248      -0.09485267 </v>
   <v>       0.08049786       0.04857457      -0.01764716 </v>
   <v>      -0.08467943       0.08014166       0.11319104 </v>
   <v>       0.03502606       0.08944120       0.00965071 </v>
   <v>       0.07870744       0.06921022       0.05550563 </v>
   <v>       0.01925976       0.02009227      -0.14523282 </v>
   <v>       0.10920735       0.08140856      -0.08183264 </v>
  </varray>
  <varray name="stress" >
   <v>      -0.06146576       0.01535246      -0.12075604 </v>
   <v>       0.01535216      -0.19172767       0.17018388 </v>
   <v>      -0.12075610       0.17018402      -1.22995924 </v>
  </varray>
  <energy>
   <i name="e_fr_energy">   -191.48668668 </i>
   <i name="e_wo_entrp">   -191.37912024 </i>
   <i name="e_0_energy">     -0.21513287 </i>
  </energy>
  <time name="totalsc">  260.17  260.87</time>
 </calculation>
 <calculation>
  <scstep>
   <time name="dav">   21.98   22.03</time>
   <time name="total">   22.49   22.54</time>
   <energy>
    <i name="alphaZ">     90.07216334 </i>
    <i name="ewald">  44606.95508243 </i>
    <i name="hartreedc"> -50618.25439623 </i>
    <i name="XCdc">   -233.39638965 </i>
    <i name="pawpsdc">   4082.41630106 </i>
    <i name="pawaedc">  -3498.35596565 </i>
    <i name="eentropy">     -0.21679007 </i>
    <i name="bandstr">  -1382.20255916 </i>
    <i name="atom">   6761.44252427 </i>
    <i name="e_fr_energy">   -191.54002966 </i>
    <i name="e_wo_entrp">   -191.32323959 </i>
    <i name="e_0_energy">   -191.43163462 </i>
   </energy>
  </scstep>
  <scstep>
   <time name="dav">   33.46   33.55</time>
   <time name="total">   33.97   34.07</time>
   <energy>
    <i name="e_fr_energy">   -191.57457802 </i>
    <i name="e_wo_entrp">   -191.34656438 </i>
    <i name="e_0_energy">   -191.46057120 </i>
   </energy>
  </scstep>
  <scstep>
   <time name="dav">   30.96   31.03</time>
   <time name="total">   31.47   31.55</time>
   <energy>
    <i name="e_fr_energy">   -191.54678914 </i>
    <i name="e_wo_entrp">   -191.32995055 </i>
    <i name="e_0_energy">   -191.43836984 </i>
   </energy>
  </scstep>
  <scstep>
   <time name="dav">   28.07   28.14</time>
   <time name="total">   28.58   28.66</time>
   <energy>
    <i name="e_fr_energy">   -191.54639873 </i>
    <i name="e_wo_entrp">   -191.32742301 </i>
    <i name="e_0_energy">   -191.43691087 </i>
   </energy>
  </scstep>
  <scstep>
   <time name="dav">   26.91   26.97</time>
   <time name="total">   27.41   27.49</time>
   <energy>
    <i name="e_fr_energy">   -191.54512086 </i>
    <i name="e_wo_entrp">   -191.32688911 </i>
    <i name="e_0_energy">   -191.43600498 </i>
   </energy>
  </scstep>
  <scstep>
   <time name="dav">   25.67   25.73</time>
   <time name="total">   26.17   26.25</time>
   <energy>
    <i name="e_fr_energy">   -191.54448118 </i>
    <i name="e_wo_entrp">   -191.32558023 </i>
    <i name="e_0_energy">   -191.43503070 </i>
   </energy>
  </scstep>
  <scstep>
   <time name="dav">   26.96   27.03</time>
   <time name="total">   27.47   27.55</time>
   <energy>
    <i name="e_fr_energy">   -191.54431279 </i>
    <i name="e_wo_entrp">   -191.32538530 </i>
    <i name="e_0_energy">   -191.43484904 </i>
   </energy>
  </scstep>
  <scstep>
   <time name="dav">   22.17   22.22</time>
   <time name="total">   22.21   22.27</time>
   <energy>
    <i name="alphaZ">     90.07216334 </i>
    <i name="ewald">  44606.95508243 </i>
    <i name="hartreedc"> -50618.10252012 </i>
    <i name="XCdc">   -233.41122280 </i>
    <i name="pawpsdc">   4084.50156805 </i>
    <i name="pawaedc">  -3500.46821911 </i>
    <i name="eentropy">     -0.21881724 </i>
    <i name="bandstr">  -1382.31488301 </i>
    <i name="atom">   6761.44252427 </i>
    <i name="e_fr_energy">   -191.54432419 </i>
    <i name="e_wo_entrp">   -191.32550695 </i>
[...]
      <set comment="kpoint 31">
       <r>  -17.5467    1.0000 </r>
       <r>  -17.2590    1.0000 </r>
       <r>  -16.9188    1.0000 </r>
       <r>  -16.7148    1.0000 </r>
       <r>  -16.5070    1.0000 </r>
       <r>  -16.4602    1.0000 </r>
       <r>  -16.3256    1.0000 </r>
       <r>  -16.1947    1.0000 </r>
       <r>  -16.1306    1.0000 </r>
       <r>  -16.0213    1.0000 </r>
       <r>  -15.8989    1.0000 </r>
       <r>  -15.8304    1.0000 </r>
       <r>  -15.7879    1.0000 </r>
       <r>  -15.6772    1.0000 </r>
       <r>  -15.6181    1.0000 </r>
       <r>  -15.4799    1.0000 </r>
       <r>  -15.4282    1.0000 </r>
       <r>  -15.2317    1.0000 </r>
       <r>   -9.7786    1.0000 </r>
       <r>   -9.4748    1.0000 </r>
       <r>   -9.3728    1.0000 </r>
       <r>   -9.0368    1.0000 </r>
       <r>   -8.7719    1.0000 </r>
       <r>   -8.7295    1.0000 </r>
       <r>   -8.6367    1.0000 </r>
       <r>   -8.5724    1.0000 </r>
       <r>   -8.3884    1.0000 </r>
       <r>   -8.2786    1.0000 </r>
       <r>   -8.2421    1.0000 </r>
       <r>   -8.1548    1.0000 </r>
       <r>   -8.1088    1.0000 </r>
       <r>   -8.0825    1.0000 </r>
       <r>   -7.9899    1.0000 </r>
       <r>   -7.9260    1.0000 </r>
       <r>   -7.8274    1.0000 </r>
       <r>   -7.7722    1.0000 </r>
       <r>   -7.5178    1.0000 </r>
       <r>   -7.4616    1.0000 </r>
       <r>   -7.4056    1.0000 </r>
       <r>   -7.3391    1.0000 </r>
       <r>   -7.1412    1.0000 </r>
       <r>   -7.0567    1.0000 </r>
       <r>   -6.9662    1.0000 </r>
       <r>   -6.8857    1.0000 </r>
       <r>   -6.8656    1.0000 </r>
       <r>   -6.7722    1.0000 </r>
       <r>   -6.6895    1.0000 </r>
       <r>   -6.6139    1.0000 </r>
       <r>   -6.5348    1.0000 </r>
       <r>   -6.4875    1.0000 </r>
       <r>   -6.4268    1.0000 </r>
       <r>   -6.3445    1.0000 </r>
       <r>   -6.2775    1.0000 </r>
       <r>   -6.1412    1.0000 </r>
       <r>   -6.1099    1.0000 </r>
       <r>   -6.0324    1.0000 </r>
       <r>   -5.9808    1.0000 </r>
       <r>   -5.9342    1.0000 </r>
       <r>   -5.8871    1.0000 </r>
       <r>   -5.7839    1.0000 </r>
       <r>   -5.6477    1.0000 </r>
       <r>   -5.6012    1.0000 </r>
       <r>   -5.5275    1.0000 </r>
       <r>   -5.4281    1.0000 </r>
       <r>   -5.2956    1.0000 </r>
       <r>   -5.1859    1.0000 </r>
       <r>   -5.0951    1.0000 </r>
       <r>   -4.8429    1.0000 </r>
       <r>   -4.7735    1.0000 </r>
       <r>   -4.7094    1.0000 </r>
       <r>   -4.6148    1.0000 </r>
       <r>   -4.4416    1.0000 </r>
       <r>   -4.4150    1.0000 </r>
       <r>   -4.3597    1.0000 </r>
       <r>   -4.1509    1.0000 </r>
       <r>   -4.0542    1.0000 </r>
       <r>   -3.9005    1.0000 </r>
       <r>   -3.5743    0.9518 </r>
       <r>   -3.4447    0.7721 </r>
       <r>   -3.2926    0.3710 </r>
       <r>   -3.0863    0.0369 </r>
       <r>   -2.9190    0.0015 </r>
       <r>   -2.8117    0.0001 </r>
       <r>   -2.6058    0.0000 </r>
       <r>   -2.5728    0.0000 </r>
       <r>   -2.4813    0.0000 </r>
       <r>   -2.2095    0.0000 </r>
       <r>   -2.1771    0.0000 </r>
       <r>   -2.0857    0.0000 </r>
       <r>   -1.9085    0.0000 </r>
       <r>   -1.7623    0.0000 </r>
       <r>   -1.5600    0.0000 </r>
       <r>   -1.4702    0.0000 </r>
       <r>   -1.3023    0.0000 </r>
       <r>   -1.1895    0.0000 </r>
       <r>   -1.1617    0.0000 </r>
       <r>   -1.0526    0.0000 </r>
       <r>   -1.0185    0.0000 </r>
       <r>   -0.9567    0.0000 </r>
       <r>   -0.9217    0.0000 </r>
       <r>   -0.8658    0.0000 </r>
       <r>   -0.7418    0.0000 </r>
       <r>   -0.6717    0.0000 </r>
       <r>   -0.5999    0.0000 </r>
       <r>   -0.4964    0.0000 </r>
       <r>   -0.4328    0.0000 </r>
       <r>   -0.3603    0.0000 </r>
       <r>   -0.0381    0.0000 </r>
       <r>    0.0937    0.0000 </r>
       <r>    0.2510    0.0000 </r>
       <r>    0.4704    0.0000 </r>
       <r>    0.5214    0.0000 </r>
       <r>    0.6709    0.0000 </r>
       <r>    1.0109    0.0000 </r>
       <r>    1.0511    0.0000 </r>
       <r>    1.1833    0.0000 </r>
       <r>    1.4828    0.0000 </r>
       <r>    2.1391    0.0000 </r>
       <r>    2.2933    0.0000 </r>
       <r>    2.3969    0.0000 </r>
      </set>
      <set comment="kpoint 32">
       <r>  -17.5658    1.0000 </r>
       <r>  -17.1671    1.0000 </r>
       <r>  -17.0390    1.0000 </r>
       <r>  -16.7169    1.0000 </r>
       <r>  -16.4778    1.0000 </r>
       <r>  -16.3947    1.0000 </r>
       <r>  -16.3059    1.0000 </r>
       <r>  -16.2045    1.0000 </r>
       <r>  -16.1112    1.0000 </r>
       <r>  -16.0501    1.0000 </r>
       <r>  -15.9416    1.0000 </r>
       <r>  -15.8674    1.0000 </r>
       <r>  -15.7863    1.0000 </r>
       <r>  -15.6743    1.0000 </r>
       <r>  -15.6120    1.0000 </r>
       <r>  -15.4687    1.0000 </r>
       <r>  -15.4203    1.0000 </r>
       <r>  -15.2294    1.0000 </r>
       <r>   -9.6944    1.0000 </r>
       <r>   -9.5885    1.0000 </r>
       <r>   -9.4054    1.0000 </r>
       <r>   -9.0493    1.0000 </r>
       <r>   -8.7036    1.0000 </r>
       <r>   -8.6472    1.0000 </r>
       <r>   -8.5081    1.0000 </r>
       <r>   -8.4837    1.0000 </r>
       <r>   -8.4305    1.0000 </r>
       <r>   -8.3418    1.0000 </r>
       <r>   -8.2692    1.0000 </r>
       <r>   -8.2538    1.0000 </r>
       <r>   -8.1544    1.0000 </r>
       <r>   -8.0943    1.0000 </r>
       <r>   -8.0492    1.0000 </r>
       <r>   -7.9412    1.0000 </r>
       <r>   -7.8100    1.0000 </r>
       <r>   -7.7896    1.0000 </r>
       <r>   -7.5552    1.0000 </r>
       <r>   -7.4144    1.0000 </r>
       <r>   -7.3315    1.0000 </r>
       <r>   -7.2592    1.0000 </r>
       <r>   -7.1866    1.0000 </r>
       <r>   -7.1016    1.0000 </r>
       <r>   -6.9816    1.0000 </r>
       <r>   -6.8978    1.0000 </r>
       <r>   -6.8586    1.0000 </r>
       <r>   -6.7795    1.0000 </r>
       <r>   -6.7049    1.0000 </r>
       <r>   -6.5779    1.0000 </r>
       <r>   -6.5385    1.0000 </r>
       <r>   -6.4624    1.0000 </r>
       <r>   -6.4362    1.0000 </r>
       <r>   -6.3403    1.0000 </r>
       <r>   -6.2878    1.0000 </r>
       <r>   -6.2448    1.0000 </r>
       <r>   -6.1255    1.0000 </r>
       <r>   -6.0310    1.0000 </r>
       <r>   -5.9695    1.0000 </r>
       <r>   -5.9020    1.0000 </r>
       <r>   -5.8495    1.0000 </r>
       <r>   -5.7268    1.0000 </r>
       <r>   -5.7192    1.0000 </r>
       <r>   -5.5387    1.0000 </r>
       <r>   -5.4769    1.0000 </r>
       <r>   -5.4101    1.0000 </r>
       <r>   -5.2709    1.0000 </r>
       <r>   -5.2065    1.0000 </r>
       <r>   -5.0627    1.0000 </r>
       <r>   -4.9539    1.0000 </r>
       <r>   -4.8351    1.0000 </r>
       <r>   -4.6912    1.0000 </r>
       <r>   -4.6331    1.0000 </r>
       <r>   -4.4760    1.0000 </r>
       <r>   -4.4030    1.0000 </r>
       <r>   -4.3583    1.0000 </r>
       <r>   -4.1139    1.0000 </r>
       <r>   -4.0494    1.0000 </r>
       <r>   -3.8231    0.9997 </r>
       <r>   -3.6400    0.9833 </r>
       <r>   -3.4767    0.8346 </r>
       <r>   -3.3325    0.4813 </r>
       <r>   -3.0534    0.0216 </r>
       <r>   -2.8647    0.0004 </r>
       <r>   -2.7673    0.0000 </r>
       <r>   -2.6051    0.0000 </r>
       <r>   -2.5370    0.0000 </r>
       <r>   -2.4601    0.0000 </r>
       <r>   -2.2515    0.0000 </r>
       <r>   -2.1811    0.0000 </r>
       <r>   -2.1054    0.0000 </r>
       <r>   -1.9089    0.0000 </r>
       <r>   -1.7478    0.0000 </r>
       <r>   -1.5530    0.0000 </r>
       <r>   -1.4745    0.0000 </r>
       <r>   -1.3056    0.0000 </r>
       <r>   -1.2349    0.0000 </r>
       <r>   -1.1860    0.0000 </r>
       <r>   -1.0585    0.0000 </r>
       <r>   -1.0123    0.0000 </r>
       <r>   -0.9686    0.0000 </r>
       <r>   -0.9122    0.0000 </r>
       <r>   -0.8428    0.0000 </r>
       <r>   -0.7799    0.0000 </r>
       <r>   -0.6949    0.0000 </r>
       <r>   -0.5629    0.0000 </r>
       <r>   -0.5290    0.0000 </r>
       <r>   -0.3513    0.0000 </r>
       <r>   -0.2556    0.0000 </r>
       <r>   -0.1304    0.0000 </r>
       <r>    0.1229    0.0000 </r>
       <r>    0.2740    0.0000 </r>
       <r>    0.3468    0.0000 </r>
       <r>    0.5405    0.0000 </r>
       <r>    0.6574    0.0000 </r>
       <r>    0.9975    0.0000 </r>
       <r>    1.0189    0.0000 </r>
       <r>    1.2751    0.0000 </r>
       <r>    1.4275    0.0000 </r>
       <r>    2.1029    0.0000 </r>
       <r>    2.2649    0.0000 </r>
       <r>    2.5618    0.0000 </r>
      </set>
      <set comment="kpoint 33">
       <r>  -17.5646    1.0000 </r>
       <r>  -17.2334    1.0000 </r>
       <r>  -16.9189    1.0000 </r>
       <r>  -16.7185    1.0000 </r>
       <r>  -16.5356    1.0000 </r>
       <r>  -16.4332    1.0000 </r>
       <r>  -16.3329    1.0000 </r>
       <r>  -16.1845    1.0000 </r>
       <r>  -16.0450    1.0000 </r>
       <r>  -16.0070    1.0000 </r>
       <r>  -15.9670    1.0000 </r>
       <r>  -15.8860    1.0000 </r>
       <r>  -15.7781    1.0000 </r>
       <r>  -15.6878    1.0000 </r>
       <r>  -15.6290    1.0000 </r>
       <r>  -15.4611    1.0000 </r>
       <r>  -15.4226    1.0000 </r>
       <r>  -15.2306    1.0000 </r>
       <r>   -9.7543    1.0000 </r>
       <r>   -9.4664    1.0000 </r>
       <r>   -9.3305    1.0000 </r>
       <r>   -9.0800    1.0000 </r>
       <r>   -8.8578    1.0000 </r>
       <r>   -8.7425    1.0000 </r>
       <r>   -8.5313    1.0000 </r>
       <r>   -8.4894    1.0000 </r>
       <r>   -8.4178    1.0000 </r>
       <r>   -8.3228    1.0000 </r>
       <r>   -8.2629    1.0000 </r>
       <r>   -8.1964    1.0000 </r>
       <r>   -8.1388    1.0000 </r>
       <r>   -8.0685    1.0000 </r>
       <r>   -8.0375    1.0000 </r>
       <r>   -7.8625    1.0000 </r>
       <r>   -7.8238    1.0000 </r>
       <r>   -7.7601    1.0000 </r>
       <r>   -7.6024    1.0000 </r>
       <r>   -7.4199    1.0000 </r>
       <r>   -7.3129    1.0000 </r>
       <r>   -7.1882    1.0000 </r>
       <r>   -7.1658    1.0000 </r>
       <r>   -7.1055    1.0000 </r>
       <r>   -6.9999    1.0000 </r>
       <r>   -6.9233    1.0000 </r>
       <r>   -6.8338    1.0000 </r>
       <r>   -6.7796    1.0000 </r>
       <r>   -6.7295    1.0000 </r>
       <r>   -6.5980    1.0000 </r>
       <r>   -6.5376    1.0000 </r>
       <r>   -6.4779    1.0000 </r>
       <r>   -6.4176    1.0000 </r>
       <r>   -6.3688    1.0000 </r>
       <r>   -6.2977    1.0000 </r>
       <r>   -6.2582    1.0000 </r>
       <r>   -6.1419    1.0000 </r>
       <r>   -6.0588    1.0000 </r>
       <r>   -5.9625    1.0000 </r>
       <r>   -5.9150    1.0000 </r>
       <r>   -5.8650    1.0000 </r>
       <r>   -5.8089    1.0000 </r>
       <r>   -5.6821    1.0000 </r>
       <r>   -5.6314    1.0000 </r>
       <r>   -5.4776    1.0000 </r>
       <r>   -5.3668    1.0000 </r>
       <r>   -5.2733    1.0000 </r>
       <r>   -5.1036    1.0000 </r>
       <r>   -5.0658    1.0000 </r>
       <r>   -4.9057    1.0000 </r>
       <r>   -4.8124    1.0000 </r>
       <r>   -4.6784    1.0000 </r>
       <r>   -4.6137    1.0000 </r>
       <r>   -4.5413    1.0000 </r>
       <r>   -4.4029    1.0000 </r>
       <r>   -4.2886    1.0000 </r>
       <r>   -4.1253    1.0000 </r>
       <r>   -4.0335    1.0000 </r>
       <r>   -3.8118    0.9996 </r>
       <r>   -3.7212    0.9965 </r>
       <r>   -3.4997    0.8718 </r>
       <r>   -3.3918    0.6450 </r>
       <r>   -3.0118    0.0103 </r>
       <r>   -2.8226    0.0001 </r>
       <r>   -2.7349    0.0000 </r>
       <r>   -2.6092    0.0000 </r>
       <r>   -2.4962    0.0000 </r>
       <r>   -2.4357    0.0000 </r>
       <r>   -2.2940    0.0000 </r>
       <r>   -2.1729    0.0000 </r>
       <r>   -2.1334    0.0000 </r>
       <r>   -1.8735    0.0000 </r>
       <r>   -1.7310    0.0000 </r>
       <r>   -1.5334    0.0000 </r>
       <r>   -1.4600    0.0000 </r>
       <r>   -1.3629    0.0000 </r>
       <r>   -1.2574    0.0000 </r>
       <r>   -1.1936    0.0000 </r>
       <r>   -1.0901    0.0000 </r>
       <r>   -1.0288    0.0000 </r>
       <r>   -0.9360    0.0000 </r>
       <r>   -0.9198    0.0000 </r>
       <r>   -0.8584    0.0000 </r>
       <r>   -0.7482    0.0000 </r>
       <r>   -0.7246    0.0000 </r>
       <r>   -0.6172    0.0000 </r>
       <r>   -0.4580    0.0000 </r>
       <r>   -0.3642    0.0000 </r>
       <r>   -0.2162    0.0000 </r>
       <r>   -0.1370    0.0000 </r>
       <r>    0.1241    0.0000 </r>
       <r>    0.1695    0.0000 </r>
       <r>    0.3705    0.0000 </r>
       <r>    0.5851    0.0000 </r>
       <r>    0.6498    0.0000 </r>
       <r>    0.9705    0.0000 </r>
       <r>    1.0220    0.0000 </r>
       <r>    1.3592    0.0000 </r>
       <r>    1.3965    0.0000 </r>
       <r>    2.1270    0.0000 </r>
       <r>    2.3012    0.0000 </r>
       <r>    2.3808    0.0000 </r>
      </set>
      <set comment="kpoint 34">
       <r>  -17.5582    1.0000 </r>
       <r>  -17.2774    1.0000 </r>
       <r>  -16.7666    1.0000 </r>
       <r>  -16.7098    1.0000 </r>
       <r>  -16.6837    1.0000 </r>
       <r>  -16.4427    1.0000 </r>
       <r>  -16.3425    1.0000 </r>
       <r>  -16.1787    1.0000 </r>
       <r>  -16.0179    1.0000 </r>
       <r>  -15.9990    1.0000 </r>
       <r>  -15.9474    1.0000 </r>
       <r>  -15.8771    1.0000 </r>
       <r>  -15.7512    1.0000 </r>
       <r>  -15.7275    1.0000 </r>
       <r>  -15.6413    1.0000 </r>
       <r>  -15.4596    1.0000 </r>
       <r>  -15.4241    1.0000 </r>
       <r>  -15.2325    1.0000 </r>
       <r>   -9.7895    1.0000 </r>
       <r>   -9.3546    1.0000 </r>
       <r>   -9.2143    1.0000 </r>
       <r>   -9.1157    1.0000 </r>
       <r>   -9.0182    1.0000 </r>
       <r>   -8.8558    1.0000 </r>
       <r>   -8.5298    1.0000 </r>
       <r>   -8.5006    1.0000 </r>
       <r>   -8.4120    1.0000 </r>
       <r>   -8.3220    1.0000 </r>
       <r>   -8.2594    1.0000 </r>
       <r>   -8.1585    1.0000 </r>
       <r>   -8.1447    1.0000 </r>
       <r>   -8.0432    1.0000 </r>
       <r>   -7.9794    1.0000 </r>
       <r>   -7.8840    1.0000 </r>
       <r>   -7.7995    1.0000 </r>
       <r>   -7.7045    1.0000 </r>
       <r>   -7.5461    1.0000 </r>
       <r>   -7.4382    1.0000 </r>
       <r>   -7.3392    1.0000 </r>
       <r>   -7.2719    1.0000 </r>
       <r>   -7.1348    1.0000 </r>
       <r>   -7.0652    1.0000 </r>
       <r>   -7.0019    1.0000 </r>
       <r>   -6.9297    1.0000 </r>
       <r>   -6.8590    1.0000 </r>
       <r>   -6.7442    1.0000 </r>
       <r>   -6.6462    1.0000 </r>
       <r>   -6.6422    1.0000 </r>
       <r>   -6.5707    1.0000 </r>
       <r>   -6.4977    1.0000 </r>
       <r>   -6.4143    1.0000 </r>
       <r>   -6.3895    1.0000 </r>
       <r>   -6.3338    1.0000 </r>
       <r>   -6.2236    1.0000 </r>
       <r>   -6.1692    1.0000 </r>
       <r>   -6.0432    1.0000 </r>
       <r>   -5.9837    1.0000 </r>
       <r>   -5.9181    1.0000 </r>
       <r>   -5.8650    1.0000 </r>
       <r>   -5.8379    1.0000 </r>
       <r>   -5.7393    1.0000 </r>
       <r>   -5.5945    1.0000 </r>
       <r>   -5.5445    1.0000 </r>
       <r>   -5.3630    1.0000 </r>
       <r>   -5.3047    1.0000 </r>
       <r>   -5.0943    1.0000 </r>
       <r>   -4.8920    1.0000 </r>
       <r>   -4.8612    1.0000 </r>
       <r>   -4.8289    1.0000 </r>
       <r>   -4.7171    1.0000 </r>
       <r>   -4.6085    1.0000 </r>
       <r>   -4.5607    1.0000 </r>
       <r>   -4.3999    1.0000 </r>
       <r>   -4.2243    1.0000 </r>
       <r>   -4.1410    1.0000 </r>
       <r>   -4.0219    1.0000 </r>
       <r>   -3.8294    0.9997 </r>
       <r>   -3.7738    0.9989 </r>
       <r>   -3.5108    0.8876 </r>
       <r>   -3.4137    0.7010 </r>
       <r>   -2.9938    0.0073 </r>
       <r>   -2.8110    0.0001 </r>
       <r>   -2.7233    0.0000 </r>
       <r>   -2.6144    0.0000 </r>
       <r>   -2.4760    0.0000 </r>
       <r>   -2.4217    0.0000 </r>
       <r>   -2.3133    0.0000 </r>
       <r>   -2.1661    0.0000 </r>
       <r>   -2.1448    0.0000 </r>
       <r>   -1.8494    0.0000 </r>
       <r>   -1.7186    0.0000 </r>
       <r>   -1.5221    0.0000 </r>
       <r>   -1.4560    0.0000 </r>
       <r>   -1.4011    0.0000 </r>
       <r>   -1.2667    0.0000 </r>
       <r>   -1.1880    0.0000 </r>
       <r>   -1.1063    0.0000 </r>
       <r>   -0.9995    0.0000 </r>
       <r>   -0.9716    0.0000 </r>
       <r>   -0.8942    0.0000 </r>
       <r>   -0.8694    0.0000 </r>
       <r>   -0.7739    0.0000 </r>
       <r>   -0.6944    0.0000 </r>
       <r>   -0.6587    0.0000 </r>
       <r>   -0.4143    0.0000 </r>
       <r>   -0.3999    0.0000 </r>
       <r>   -0.2109    0.0000 </r>
       <r>   -0.1201    0.0000 </r>
       <r>    0.0517    0.0000 </r>
       <r>    0.2022    0.0000 </r>
       <r>    0.3736    0.0000 </r>
       <r>    0.6106    0.0000 </r>
       <r>    0.6483    0.0000 </r>
       <r>    0.9575    0.0000 </r>
       <r>    1.0320    0.0000 </r>
       <r>    1.3717    0.0000 </r>
       <r>    1.4141    0.0000 </r>
       <r>    2.1893    0.0000 </r>
       <r>    2.2514    0.0000 </r>
       <r>    2.3891    0.0000 </r>
      </set>
     </set>
    </set>
   </array>
  </eigenvalues>
  <separator name="orbital magnetization" >
   <v name="MAGDIPOLOUT">      0.00000000      0.00000000      0.00000000</v>
  </separator>
 </calculation>
 <structure name="finalpos" >
  <crystal>
   <varray name="basis" >
    <v>       8.36189241       4.83730621       0.00000000 </v>
    <v>      -8.34031960       4.80000166       0.00000000 </v>
    <v>       0.00000000       0.00000000      30.00000000 </v>
   </varray>
   <i name="volume">   2414.45331707 </i>
   <varray name="rec_basis" >
    <v>       0.05964085       0.10362991       0.00000000 </v>
    <v>      -0.06010437       0.10389796       0.00000000 </v>
    <v>       0.00000000       0.00000000       0.03333333 </v>
   </varray>
  </crystal>
  <varray name="positions" >
   <v>       0.70124168       0.68292342      -0.00121178 </v>
   <v>       0.69392468       0.34236611      -0.00021484 </v>
   <v>       0.33867192      -0.02964524       0.00117205 </v>
   <v>       0.29842454       0.64725110       0.00020464 </v>
   <v>       0.00911511       0.64911655       0.00058786 </v>
   <v>       1.00118424       0.33590574       0.00011851 </v>
   <v>      -0.01565421       0.02010255      -0.00048573 </v>
   <v>       0.30027188       0.33616674      -0.00035420 </v>
   <v>       0.68925715       0.01382526       0.00018060 </v>
   <v>       0.10330199       0.22249499       0.94330586 </v>
   <v>       0.22215489       0.10901145       0.04737192 </v>
   <v>       0.10377616       0.54825522       0.94334478 </v>
   <v>       0.21454055       0.44432891       0.05673643 </v>
   <v>       0.11465304       0.89531858       0.95599827 </v>
   <v>       0.22297306       0.77718846       0.05552281 </v>
   <v>       0.44304944       0.21994198       0.95897167 </v>
   <v>       0.55708195       0.11443976       0.04924435 </v>
   <v>       0.44810222       0.55860213       0.95182044 </v>
   <v>       0.55635312       0.44744880       0.04280748 </v>
   <v>       0.44408786       0.88226096       0.95005063 </v>
   <v>       0.55412149       0.77070500       0.04344433 </v>
   <v>       0.77208706       0.22298332       0.94648114 </v>
   <v>       0.88780771       0.11759945       0.05654946 </v>
   <v>       0.77995022       0.55399692       0.94861842 </v>
   <v>       0.88398404       0.44318483       0.05480303 </v>
   <v>       0.77677724       0.88713020       0.94551498 </v>
   <v>       0.89697542       0.78531128       0.04941679 </v>
  </varray>
 </structure>
</modeling>
