unknown system                          
           1
     8.857439    5.107666    0.000000
    -8.854759    5.103055    0.000000
     0.000000    0.000000   30.000000
   V    Mo   W    S 
   3   3   3  18
Direct configuration=     1
   0.66666669  0.66666669  0.00000000
   0.66666669  0.33333334  0.00000000
   0.33333334  0.00000000  0.00000000
   0.33333334  0.66666669  0.00000000
   0.00000000  0.66666669  0.00000000
   1.00000000  0.33333334  0.00000000
   0.00000000  0.00000000  0.00000000
   0.33333334  0.33333334  0.00000000
   0.66666669  0.00000000  0.00000000
   0.11068511  0.22244981  0.95539999
   0.22244981  0.11068511  0.04460000
   0.11068511  0.55578315  0.95539999
   0.22244981  0.44401845  0.04460000
   0.11068511  0.88911647  0.95539999
   0.22244981  0.77735180  0.04460000
   0.44401845  0.22244981  0.95539999
   0.55578315  0.11068511  0.04460000
   0.44401845  0.55578315  0.95539999
   0.55578315  0.44401845  0.04460000
   0.44401845  0.88911647  0.95539999
   0.55578315  0.77735180  0.04460000
   0.77735180  0.22244981  0.95539999
   0.88911647  0.11068511  0.04460000
   0.77735180  0.55578315  0.95539999
   0.88911647  0.44401845  0.04460000
   0.77735180  0.88911647  0.95539999
   0.88911647  0.77735180  0.04460000
unknown system                          
           1
     8.669395    5.001489    0.000000
    -8.666953    4.997289    0.000000
     0.000000    0.000000   30.000000
   V    Mo   W    S 
   3   3   3  18
Direct configuration=     2
   0.66673051  0.66634549 -0.00015071
   0.66863108  0.33451581 -0.00006766
   0.33255243 -0.00191115  0.00010909
   0.33046070  0.66531878  0.00023222
   0.00120330  0.66504776  0.00000666
   1.00135080  0.33612957  0.00004478
   0.00006510 -0.00024464 -0.00016108
   0.33260334  0.33480276 -0.00010388
   0.66616152  0.00008972  0.00008989
   0.11131370  0.22157460  0.95073300
   0.22424571  0.10893881  0.04803419
   0.11091737  0.55539851  0.95066804
   0.22259827  0.44396970  0.04932575
   0.11498320  0.89149703  0.95195828
   0.22446660  0.78224181  0.04812731
   0.44604172  0.22036285  0.95313398
   0.55362983  0.11263115  0.04699109
   0.44853109  0.55670396  0.95194349
   0.55897923  0.44586438  0.04687670
   0.44297009  0.89169280  0.95203697
   0.55828762  0.77625093  0.04792417
   0.77489034  0.22358952  0.95201492
   0.88839020  0.11038941  0.04919591
   0.77316086  0.55349552  0.95311832
   0.88432656  0.44213963  0.04808969
   0.77594335  0.88496387  0.95183421
   0.88477994  0.77641588  0.04799455
unknown system                          
           1
     8.487516    4.901358    0.000000
    -8.485681    4.898205    0.000000
     0.000000    0.000000   30.000000
   V    Mo   W    S 
   3   3   3  18
Direct configuration=     3
   0.66684870  0.66645077 -0.00013072
   0.66919929  0.33480159 -0.00012152
   0.33229594 -0.00249880  0.00007877
   0.32920431  0.66450620  0.00025268
   0.00182629  0.66453192  0.00000936
   1.00220486  0.33716274  0.00004569
  -0.00003607 -0.00015909 -0.00012882
   0.33195229  0.33515519 -0.00016074
   0.66630573  0.00008276  0.00013856
   0.11138577  0.22148836  0.95071257
   0.22419068  0.10903617  0.04796385
   0.11092403  0.55542074  0.95047055
   0.22272725  0.44385836  0.04947805
   0.11497561  0.89167671  0.95198635
   0.22454615  0.78236743  0.04824341
   0.44593844  0.22047397  0.95332447
   0.55372246  0.11253395  0.04691664
   0.44850557  0.55655603  0.95195948
   0.55879106  0.44578479  0.04678344
   0.44316551  0.89183554  0.95207288
   0.55842505  0.77644220  0.04786147
   0.77474101  0.22339868  0.95203583
   0.88831454  0.11018339  0.04913446
   0.77310434  0.55341058  0.95314683
   0.88417849  0.44206696  0.04817799
   0.77597471  0.88508066  0.95184431
   0.88480246  0.77656665  0.04790407
unknown system                          
           1
     8.284305    4.788498    0.000000
    -8.278298    4.778118    0.000000
     0.000000    0.000000   30.000000
   V    Mo   W    S 
   3   3   3  18
Direct configuration=     4
   0.66750224  0.66744346  0.00000289
   0.67125688  0.33564716 -0.00029076
   0.33115049 -0.00478383 -0.00008499
   0.32420315  0.66101643  0.00022600
   0.00445514  0.66281246  0.00003190
   1.00594902  0.34093859  0.00003304
  -0.00064519  0.00047301  0.00004693
   0.32875402  0.33614466 -0.00031747
   0.66736685 -0.00010997  0.00025081
   0.11113389  0.22153338  0.94898791
   0.22482371  0.10882556  0.04915001
   0.11099407  0.55553368  0.94809291
   0.22279235  0.44384835  0.05174548
   0.11596477  0.89212737  0.95066373
   0.22513621  0.78353127  0.05016692
   0.44628176  0.22015327  0.95275596
   0.55325235  0.11308375  0.04799073
   0.44948276  0.55737075  0.95056258
   0.55948478  0.44613026  0.04773703
   0.44273433  0.89214583  0.95081064
   0.55866487  0.77585034  0.04902880
   0.77439047  0.22386369  0.95069396
   0.88851802  0.11038433  0.05049262
   0.77238391  0.55287113  0.95194775
   0.88292369  0.44145332  0.04995889
   0.77534272  0.88406184  0.95035502
   0.88391719  0.77586437  0.04896063
unknown system                          
           1
     8.288652    4.797705    0.000000
    -8.276583    4.776822    0.000000
     0.000000    0.000000   30.000000
   V    Mo   W    S 
   3   3   3  18
Direct configuration=     5
   0.66930782  0.67006994  0.00026440
   0.67481519  0.33691526 -0.00045707
   0.32909503 -0.00921243 -0.00038987
   0.31485268  0.65429628  0.00008634
   0.00937602  0.65973515  0.00013666
   1.01339917  0.34763874  0.00000750
  -0.00220246  0.00191178  0.00027906
   0.32246656  0.33808178 -0.00044385
   0.66966504 -0.00067241  0.00030534
   0.11020330  0.22186347  0.94653925
   0.22569031  0.10903510  0.05054895
   0.11098012  0.55553807  0.94460092
   0.22255662  0.44439274  0.05511174
   0.11644992  0.89175853  0.94905405
   0.22545085  0.78394138  0.05296287
   0.44628546  0.22010774  0.95220728
   0.55280687  0.11381045  0.04941638
   0.44973297  0.55843063  0.94879580
   0.55963287  0.44626379  0.04879342
   0.44200917  0.89143162  0.94938755
   0.55753543  0.77465746  0.05041729
   0.77507529  0.22478337  0.94904180
   0.88927205  0.11206181  0.05228344
   0.77271307  0.55274588  0.95024175
   0.88250100  0.44120772  0.05237459
   0.77477404  0.88280951  0.94822462
   0.88377006  0.77461110  0.05020969
unknown system                          
           1
     8.286369    4.795127    0.000000
    -8.273770    4.773336    0.000000
     0.000000    0.000000   30.000000
   V    Mo   W    S 
   3   3   3  18
Direct configuration=     6
   0.67053832  0.67136137  0.00023826
   0.67604519  0.33730487 -0.00046123
   0.32857937 -0.01092422 -0.00034931
   0.31434608  0.65409832  0.00012845
   0.00981065  0.65932046  0.00007760
   1.01370562  0.34723551 -0.00007408
  -0.00313793  0.00281239  0.00023734
   0.32081691  0.33841176 -0.00033995
   0.67080619 -0.00066206  0.00031850
   0.10964324  0.22197795  0.94628481
   0.22562401  0.10942207  0.05042118
   0.11067546  0.55522857  0.94423646
   0.22250147  0.44480352  0.05548550
   0.11568123  0.89107345  0.94919661
   0.22535317  0.78324452  0.05316593
   0.44564246  0.22049362  0.95252560
   0.55292948  0.11368419  0.04934560
   0.44883676  0.55844272  0.94886233
   0.55896228  0.44603262  0.04857138
   0.44190106  0.89033261  0.94951030
   0.55628733  0.77428592  0.05025470
   0.77603526  0.22495481  0.94909075
   0.88971342  0.11321182  0.05238991
   0.77361941  0.55327438  0.95027155
   0.88347149  0.44143853  0.05248781
   0.77500209  0.88285355  0.94801652
   0.88482445  0.77450121  0.05010740
unknown system                          
           1
     8.288470    4.796372    0.000000
    -8.275697    4.774279    0.000000
     0.000000    0.000000   30.000000
   V    Mo   W    S 
   3   3   3  18
Direct configuration=     7
   0.67185966  0.67261014  0.00027186
   0.67755546  0.33784823 -0.00044556
   0.32817901 -0.01286365 -0.00035870
   0.31293760  0.65346205  0.00006580
   0.01046573  0.65847746  0.00002373
   1.01435942  0.34716832 -0.00010780
  -0.00421659  0.00403971  0.00023835
   0.31894133  0.33876401 -0.00029998
   0.67212732 -0.00051406  0.00036290
   0.10932509  0.22198876  0.94599118
   0.22542084  0.10960444  0.05030234
   0.11055710  0.55499898  0.94399655
   0.22230146  0.44509780  0.05581302
   0.11515565  0.89068791  0.94934485
   0.22519665  0.78282404  0.05341338
   0.44519968  0.22072383  0.95291555
   0.55302972  0.11359945  0.04926506
   0.44832019  0.55846959  0.94892886
   0.55852119  0.44594689  0.04831236
   0.44199000  0.88968587  0.94958841
   0.55562520  0.77408131  0.05011925
   0.77653191  0.22497975  0.94904223
   0.88988554  0.11389489  0.05259494
   0.77418240  0.55362614  0.95026619
   0.88405184  0.44155633  0.05260760
   0.77515343  0.88288205  0.94775535
   0.88555764  0.77457425  0.04999218
unknown system                          
           1
     8.274205    4.789929    0.000000
    -8.262277    4.769288    0.000000
     0.000000    0.000000   30.000000
   V    Mo   W    S 
   3   3   3  18
Direct configuration=     8
   0.67192998  0.67265301  0.00027293
   0.67761714  0.33786674 -0.00044556
   0.32819073 -0.01295595 -0.00035866
   0.31296036  0.65353276  0.00007101
   0.01045761  0.65846243  0.00002233
   1.01427709  0.34704564 -0.00010916
  -0.00427588  0.00412622  0.00023562
   0.31890424  0.33874413 -0.00029819
   0.67219123 -0.00048363  0.00036466
   0.10932486  0.22197557  0.94599926
   0.22539824  0.10960398  0.05027505
   0.11054179  0.55497279  0.94402099
   0.22229571  0.44511127  0.05578858
   0.11513176  0.89068962  0.94937951
   0.22518622  0.78281415  0.05339346
   0.44518000  0.22072073  0.95295289
   0.55303455  0.11358507  0.04924300
   0.44830970  0.55845993  0.94895431
   0.55850564  0.44594705  0.04828221
   0.44200939  0.88968244  0.94960727
   0.55563123  0.77409373  0.05009240
   0.77651867  0.22495880  0.94905244
   0.88987593  0.11389279  0.05259666
   0.77418949  0.55363736  0.95028322
   0.88407053  0.44156007  0.05259055
   0.77516246  0.88290330  0.94776503
   0.88559579  0.77461447  0.04996806
unknown system                          
           1
     8.280500    4.794841    0.000000
    -8.265923    4.769617    0.000000
     0.000000    0.000000   30.000000
   V    Mo   W    S 
   3   3   3  18
Direct configuration=     9
   0.67145426  0.67243220  0.00026016
   0.67684593  0.33748717 -0.00044688
   0.32779526 -0.01289020 -0.00035572
   0.31313406  0.65383841  0.00008526
   0.01100652  0.65935693  0.00003771
   1.01459191  0.34751386 -0.00011199
  -0.00363168  0.00346807  0.00025450
   0.31921337  0.33862079 -0.00030000
   0.67137777 -0.00084422  0.00035205
   0.10926949  0.22202492  0.94598442
   0.22561772  0.10954696  0.05037323
   0.11059856  0.55511202  0.94389251
   0.22236027  0.44505474  0.05590276
   0.11548817  0.89072988  0.94923948
   0.22536819  0.78303652  0.05340337
   0.44506100  0.22049289  0.95279196
   0.55279378  0.11349220  0.04931028
   0.44836784  0.55848211  0.94881721
   0.55857209  0.44603258  0.04845896
   0.44175183  0.88977354  0.94958878
   0.55558118  0.77402889  0.05022459
   0.77673224  0.22503424  0.94901012
   0.88999084  0.11395538  0.05253261
   0.77419576  0.55367763  0.95020317
   0.88411310  0.44158784  0.05266969
   0.77515147  0.88279621  0.94773642
   0.88541350  0.77437290  0.05008523
unknown system                          
           1
     8.293050    4.800158    0.000000
    -8.276305    4.771200    0.000000
     0.000000    0.000000   30.000000
   V    Mo   W    S 
   3   3   3  18
Direct configuration=    10
   0.67261669  0.67351126  0.00028442
   0.67807756  0.33787574 -0.00045721
   0.32738558 -0.01479947 -0.00036436
   0.31213581  0.65369206  0.00009748
   0.01170118  0.65889022  0.00000680
   1.01487399  0.34714081 -0.00014358
  -0.00451614  0.00458649  0.00025261
   0.31766555  0.33876098 -0.00027040
   0.67243520 -0.00071372  0.00038501
   0.10899381  0.22196526  0.94569709
   0.22550855  0.10964287  0.05027362
   0.11042239  0.55484064  0.94363234
   0.22224504  0.44536110  0.05618075
   0.11517554  0.89051186  0.94936485
   0.22531355  0.78285108  0.05362572
   0.44464920  0.22051315  0.95314790
   0.55276589  0.11338106  0.04925395
   0.44804237  0.55852142  0.94885374
   0.55827407  0.44602448  0.04825881
   0.44178463  0.88934907  0.94961868
   0.55514765  0.77387434  0.05012528
   0.77702407  0.22500572  0.94892427
   0.89011816  0.11446113  0.05276195
   0.77457389  0.55394544  0.95017669
   0.88454526  0.44168364  0.05280756
   0.77524951  0.88282617  0.94750334
   0.88600547  0.77451165  0.05000257
unknown system                          
           1
     8.294024    4.800407    0.000000
    -8.276478    4.770069    0.000000
     0.000000    0.000000   30.000000
   V    Mo   W    S 
   3   3   3  18
Direct configuration=    11
   0.67375184  0.67439356  0.00029032
   0.67954555  0.33846915 -0.00046464
   0.32737658 -0.01609861 -0.00034630
   0.31141992  0.65335663  0.00005423
   0.01163788  0.65782545 -0.00004433
   1.01475239  0.34655065 -0.00015199
  -0.00558480  0.00579635  0.00023730
   0.31645242  0.33897759 -0.00026032
   0.67376103 -0.00035024  0.00042855
   0.10889376  0.22184225  0.94556065
   0.22526087  0.10974143  0.05012636
   0.11030282  0.55458554  0.94364577
   0.22213964  0.44562195  0.05620241
   0.11471149  0.89037367  0.94952471
   0.22514401  0.78260876  0.05380527
   0.44446871  0.22065760  0.95352050
   0.55292012  0.11336667  0.04914652
   0.44775307  0.55848995  0.94903590
   0.55803271  0.44596317  0.04796607
   0.44203715  0.88901735  0.94962336
   0.55496611  0.77384049  0.04995764
   0.77697323  0.22488607  0.94892988
   0.89004552  0.11464455  0.05290738
   0.77481861  0.55408073  0.95027085
   0.88478220  0.44178065  0.05276961
   0.77534968  0.88297257  0.94741661
   0.88650195  0.77482051  0.04984758
unknown system                          
           1
     8.288784    4.797299    0.000000
    -8.271873    4.768056    0.000000
     0.000000    0.000000   30.000000
   V    Mo   W    S 
   3   3   3  18
Direct configuration=    12
   0.67441900  0.67493671  0.00031423
   0.68031650  0.33873607 -0.00046822
   0.32733078 -0.01700965 -0.00035756
   0.31095421  0.65331060  0.00005160
   0.01184024  0.65741941 -0.00005762
   1.01468502  0.34618048 -0.00016858
  -0.00616995  0.00647419  0.00022922
   0.31573368  0.33902421 -0.00025056
   0.67443007 -0.00017746  0.00045133
   0.10881350  0.22179674  0.94545229
   0.22513810  0.10978373  0.05003167
   0.11021136  0.55440689  0.94359414
   0.22206616  0.44575307  0.05626596
   0.11451464  0.89030833  0.94965161
   0.22505819  0.78248467  0.05387877
   0.44433281  0.22068849  0.95373971
   0.55295596  0.11333077  0.04908915
   0.44762747  0.55849886  0.94910742
   0.55789267  0.44594506  0.04781094
   0.44212618  0.88885677  0.94965481
   0.55485453  0.77381227  0.04985854
   0.77697249  0.22482267  0.94889693
   0.89003616  0.11480105  0.05303449
   0.77495925  0.55418189  0.95028313
   0.88492490  0.44181081  0.05280791
   0.77539297  0.88304477  0.94733665
   0.88679758  0.77499305  0.04976197
unknown system                          
           1
     8.302840    4.804337    0.000000
    -8.283270    4.770509    0.000000
     0.000000    0.000000   30.000000
   V    Mo   W    S 
   3   3   3  18
Direct configuration=    13
   0.67428389  0.67486837  0.00033113
   0.68009462  0.33870796 -0.00046738
   0.32739179 -0.01658814 -0.00036844
   0.31108998  0.65322478  0.00006938
   0.01164705  0.65741632 -0.00004250
   1.01479889  0.34625624 -0.00018030
  -0.00613917  0.00624473  0.00023441
   0.31591147  0.33905586 -0.00024818
   0.67428897 -0.00035477  0.00043474
   0.10886699  0.22183474  0.94553247
   0.22513536  0.10981297  0.05004233
   0.11025195  0.55445929  0.94365121
   0.22210089  0.44572034  0.05620718
   0.11451046  0.89032030  0.94963057
   0.22504155  0.78242524  0.05381348
   0.44440338  0.22076478  0.95369312
   0.55303436  0.11336113  0.04907749
   0.44765781  0.55848160  0.94911167
   0.55793941  0.44595046  0.04782017
   0.44216002  0.88892225  0.94968010
   0.55494585  0.77385827  0.04985057
   0.77697370  0.22484797  0.94896308
   0.89004232  0.11473307  0.05295932
   0.77487134  0.55413639  0.95031131
   0.88488202  0.44178973  0.05275385
   0.77538356  0.88302207  0.94739933
   0.88664600  0.77494251  0.04973979
unknown system                          
           1
     8.312843    4.808391    0.000000
    -8.291745    4.771935    0.000000
     0.000000    0.000000   30.000000
   V    Mo   W    S 
   3   3   3  18
Direct configuration=    14
   0.67610581  0.67623120  0.00038056
   0.68234499  0.33942734 -0.00047488
   0.32738921 -0.01927645 -0.00038422
   0.30989709  0.65327992  0.00006036
   0.01226595  0.65639176 -0.00007827
   1.01422842  0.34510460 -0.00020257
  -0.00766240  0.00820278  0.00019689
   0.31408326  0.33910104 -0.00022784
   0.67615139  0.00041387  0.00051512
   0.10863280  0.22167304  0.94518082
   0.22478744  0.10985899  0.04976672
   0.10994236  0.55389217  0.94348582
   0.22184596  0.44605595  0.05638263
   0.11400694  0.89017807  0.95002534
   0.22480078  0.78215323  0.05403019
   0.44404990  0.22075032  0.95430317
   0.55304783  0.11326080  0.04895068
   0.44738516  0.55854819  0.94930225
   0.55754840  0.44588251  0.04739677
   0.44237306  0.88848143  0.94972601
   0.55462700  0.77375219  0.04957741
   0.77683246  0.22461957  0.94877547
   0.88995942  0.11514544  0.05340660
   0.77530442  0.55442500  0.95030347
   0.88521464  0.44187457  0.05292374
   0.77547713  0.88327252  0.94714383
   0.88757504  0.77551441  0.04953385
unknown system                          
           1
     8.321364    4.810449    0.000000
    -8.297590    4.769388    0.000000
     0.000000    0.000000   30.000000
   V    Mo   W    S 
   3   3   3  18
Direct configuration=    15
   0.67752087  0.67723110  0.00040917
   0.68411928  0.33997813 -0.00047717
   0.32769846 -0.02085178 -0.00039544
   0.30906952  0.65319481  0.00003615
   0.01239125  0.65537292 -0.00010965
   1.01350538  0.34400722 -0.00020929
  -0.00897101  0.00966853  0.00015190
   0.31280529  0.33908753 -0.00022278
   0.67776952  0.00119942  0.00057918
   0.10846929  0.22154306  0.94494570
   0.22443700  0.10983505  0.04954994
   0.10972195  0.55342067  0.94340657
   0.22159527  0.44626474  0.05647913
   0.11357858  0.89016666  0.95035704
   0.22458948  0.78189749  0.05418081
   0.44395883  0.22083338  0.95474605
   0.55313137  0.11325730  0.04884531
   0.44728859  0.55863173  0.94945485
   0.55732971  0.44581467  0.04705802
   0.44262432  0.88817577  0.94975288
   0.55443989  0.77368630  0.04936040
   0.77662287  0.22445618  0.94864770
   0.88986815  0.11544604  0.05376010
   0.77552501  0.55456248  0.95030480
   0.88535047  0.44186276  0.05304413
   0.77550515  0.88343192  0.94695789
   0.88826995  0.77604040  0.04938650
unknown system                          
           1
     8.339879    4.819010    0.000000
    -8.312942    4.772496    0.000000
     0.000000    0.000000   30.000000
   V    Mo   W    S 
   3   3   3  18
Direct configuration=    16
   0.67974317  0.67874548  0.00046547
   0.68683243  0.34077277 -0.00046860
   0.32839520 -0.02314680 -0.00039559
   0.30773769  0.65285896  0.00003088
   0.01255186  0.65387843 -0.00013073
   1.01225845  0.34234441 -0.00020075
  -0.01092357  0.01176468  0.00006278
   0.31091811  0.33908731 -0.00020644
   0.68031499  0.00262153  0.00068083
   0.10818574  0.22138116  0.94461046
   0.22380686  0.10975021  0.04916365
   0.10931748  0.55257287  0.94330317
   0.22112354  0.44651771  0.05654963
   0.11292981  0.89022857  0.95095326
   0.22424112  0.78144006  0.05435918
   0.44386268  0.22096532  0.95544377
   0.55326486  0.11325145  0.04868891
   0.44714780  0.55873587  0.94971781
   0.55698566  0.44570612  0.04648955
   0.44303936  0.88768195  0.94980787
   0.55418991  0.77362988  0.04894141
   0.77622557  0.22414126  0.94841036
   0.88969511  0.11591881  0.05433921
   0.77591190  0.55475391  0.95029772
   0.88555254  0.44188078  0.05325095
   0.77550710  0.88375025  0.94670422
   0.88939911  0.77698150  0.04913092
unknown system                          
           1
     8.338926    4.817510    0.000000
    -8.309808    4.767230    0.000000
     0.000000    0.000000   30.000000
   V    Mo   W    S 
   3   3   3  18
Direct configuration=    17
   0.68212025  0.68023699  0.00048282
   0.68941670  0.34146382 -0.00045723
   0.32939771 -0.02539396 -0.00035915
   0.30635969  0.65246788  0.00000303
   0.01270420  0.65256166 -0.00014767
   1.01058168  0.34054886 -0.00018129
  -0.01275864  0.01371501 -0.00006759
   0.30915943  0.33898947 -0.00022140
   0.68302498  0.00450165  0.00076081
   0.10775651  0.22122121  0.94424205
   0.22306335  0.10948584  0.04875509
   0.10879166  0.55155522  0.94318372
   0.22044742  0.44668680  0.05666416
   0.11229712  0.89047763  0.95164184
   0.22388131  0.78091091  0.05456874
   0.44382085  0.22104635  0.95615004
   0.55337628  0.11325397  0.04857949
   0.44711190  0.55891082  0.94996341
   0.55668688  0.44562327  0.04591282
   0.44349947  0.88710249  0.94982838
   0.55389567  0.77351438  0.04848045
   0.77578220  0.22375047  0.94807824
   0.88952623  0.11648302  0.05502510
   0.77637215  0.55494422  0.95023218
   0.88576139  0.44193755  0.05354975
   0.77540674  0.88409269  0.94640229
   0.89073134  0.77812623  0.04892981
unknown system                          
           1
     8.348132    4.823200    0.000000
    -8.318576    4.772157    0.000000
     0.000000    0.000000   30.000000
   V    Mo   W    S 
   3   3   3  18
Direct configuration=    18
   0.68416574  0.68135011  0.00048216
   0.69128106  0.34195770 -0.00043757
   0.33044639 -0.02677139 -0.00028140
   0.30510970  0.65172294  0.00000513
   0.01260669  0.65148197 -0.00013039
   1.00916709  0.33922712 -0.00011333
  -0.01397936  0.01504591 -0.00016166
   0.30781067  0.33896739 -0.00023196
   0.68516390  0.00626133  0.00081856
   0.10734913  0.22117226  0.94403714
   0.22236593  0.10922659  0.04835650
   0.10828237  0.55066717  0.94315161
   0.21977207  0.44668526  0.05662808
   0.11183649  0.89085120  0.95230165
   0.22357387  0.78033183  0.05468461
   0.44384814  0.22111456  0.95674826
   0.55359348  0.11326731  0.04847522
   0.44703708  0.55898669  0.95021052
   0.55650103  0.44559357  0.04538992
   0.44396449  0.88655746  0.94986410
   0.55374936  0.77349668  0.04796924
   0.77539540  0.22340875  0.94783317
   0.88939322  0.11688797  0.05548395
   0.77679798  0.55500311  0.95020284
   0.88589189  0.44207031  0.05373198
   0.77526319  0.88444370  0.94622998
   0.89182743  0.77920696  0.04875160
unknown system                          
           1
     8.349963    4.824366    0.000000
    -8.319544    4.771830    0.000000
     0.000000    0.000000   30.000000
   V    Mo   W    S 
   3   3   3  18
Direct configuration=    19
   0.68459571  0.68150645  0.00045265
   0.69144931  0.34197167 -0.00043260
   0.33071968 -0.02693944 -0.00025323
   0.30491579  0.65159455 -0.00000179
   0.01256155  0.65140993 -0.00012179
   1.00881625  0.33899078 -0.00011014
  -0.01406976  0.01522800 -0.00019391
   0.30762152  0.33892671 -0.00025147
   0.68543345  0.00663956  0.00079362
   0.10721829  0.22117924  0.94397919
   0.22227694  0.10912557  0.04831172
   0.10812859  0.55046893  0.94312602
   0.21958447  0.44663885  0.05667053
   0.11179937  0.89098660  0.95243207
   0.22352654  0.78020015  0.05472994
   0.44386750  0.22109338  0.95683663
   0.55365422  0.11330004  0.04850177
   0.44707957  0.55903357  0.95022631
   0.55650458  0.44561278  0.04531525
   0.44405138  0.88642041  0.94985486
   0.55369701  0.77344499  0.04786639
   0.77533289  0.22335940  0.94774852
   0.88939906  0.11698237  0.05560588
   0.77688714  0.55500679  0.95015570
   0.88588271  0.44210677  0.05381036
   0.77520473  0.88449366  0.94617511
   0.89207595  0.77943272  0.04877231
unknown system                          
           1
     8.357636    4.829222    0.000000
    -8.326530    4.775493    0.000000
     0.000000    0.000000   30.000000
   V    Mo   W    S 
   3   3   3  18
Direct configuration=    20
   0.68597637  0.68207772  0.00041520
   0.69228283  0.34215756 -0.00041420
   0.33149499 -0.02764960 -0.00018043
   0.30411416  0.65112081 -0.00000381
   0.01248383  0.65092269 -0.00009422
   1.00792706  0.33826920 -0.00006762
  -0.01465904  0.01595603 -0.00024432
   0.30687191  0.33887872 -0.00027444
   0.68653252  0.00777347  0.00079413
   0.10691271  0.22119997  0.94387566
   0.22194960  0.10894253  0.04808467
   0.10774399  0.54995401  0.94312617
   0.21910415  0.44652441  0.05665932
   0.11166452  0.89131190  0.95286474
   0.22338182  0.77982578  0.05478052
   0.44386882  0.22106446  0.95717259
   0.55382378  0.11332003  0.04848089
   0.44706206  0.55906022  0.95036293
   0.55644248  0.44565311  0.04501429
   0.44427220  0.88604705  0.94989566
   0.55361640  0.77339941  0.04749715
   0.77511606  0.22319480  0.94758732
   0.88933471  0.11715284  0.05583727
   0.77715506  0.55501135  0.95010492
   0.88589147  0.44222547  0.05392401
   0.77512246  0.88471583  0.94608776
   0.89272752  0.78010468  0.04871374
unknown system                          
           1
     8.357705    4.829986    0.000000
    -8.326174    4.775512    0.000000
     0.000000    0.000000   30.000000
   V    Mo   W    S 
   3   3   3  18
Direct configuration=    21
   0.68693988  0.68238194  0.00037141
   0.69278162  0.34227909 -0.00040194
   0.33201133 -0.02811162 -0.00012017
   0.30362765  0.65083733 -0.00000120
   0.01238977  0.65065257 -0.00007471
   1.00735027  0.33792414 -0.00004685
  -0.01491035  0.01636252 -0.00029076
   0.30642865  0.33885746 -0.00029357
   0.68705498  0.00847043  0.00077373
   0.10668923  0.22122235  0.94379382
   0.22179216  0.10882526  0.04795417
   0.10745418  0.54961617  0.94311127
   0.21877820  0.44643511  0.05667568
   0.11162626  0.89154552  0.95314316
   0.22329286  0.77957164  0.05483408
   0.44386196  0.22102098  0.95737598
   0.55395337  0.11336342  0.04849618
   0.44706576  0.55908779  0.95044302
   0.55641126  0.44568935  0.04483311
   0.44440333  0.88576293  0.94990455
   0.55352516  0.77331181  0.04724698
   0.77496889  0.22311573  0.94746728
   0.88929011  0.11728240  0.05601295
   0.77732902  0.55500426  0.95005126
   0.88586313  0.44230660  0.05401444
   0.77507011  0.88485867  0.94601689
   0.89316564  0.78054060  0.04870912
unknown system                          
           1
     8.364000    4.834438    0.000000
    -8.332445    4.779915    0.000000
     0.000000    0.000000   30.000000
   V    Mo   W    S 
   3   3   3  18
Direct configuration=    22
   0.68855539  0.68290361  0.00030394
   0.69345532  0.34244075 -0.00038473
   0.33284132 -0.02848965 -0.00001957
   0.30281235  0.65023479 -0.00000086
   0.01207377  0.65012450 -0.00003620
   1.00646962  0.33737708 -0.00000586
  -0.01542329  0.01694486 -0.00032699
   0.30574638  0.33877427 -0.00032470
   0.68796452  0.00949195  0.00075980
   0.10636301  0.22129087  0.94372997
   0.22156726  0.10871428  0.04774893
   0.10703346  0.54917292  0.94312658
   0.21829132  0.44627342  0.05665622
   0.11159431  0.89189818  0.95356799
   0.22313118  0.77913461  0.05490189
   0.44387468  0.22098943  0.95768066
   0.55424109  0.11344071  0.04850590
   0.44705800  0.55910298  0.95059703
   0.55640838  0.44579959  0.04453228
   0.44462302  0.88531337  0.94992543
   0.55347797  0.77319085  0.04680985
   0.77474470  0.22303445  0.94733537
   0.88918696  0.11737253  0.05616169
   0.77757225  0.55497730  0.94999501
   0.88580769  0.44244565  0.05410634
   0.77502303  0.88507465  0.94597125
   0.89372079  0.78118651  0.04868269
unknown system                          
           1
     8.360765    4.832835    0.000000
    -8.329660    4.779087    0.000000
     0.000000    0.000000   30.000000
   V    Mo   W    S 
   3   3   3  18
Direct configuration=    23
   0.69002859  0.68321044  0.00019962
   0.69387648  0.34248183 -0.00035706
   0.33361708 -0.02882579  0.00008137
   0.30213587  0.64972308  0.00001132
   0.01180853  0.64982046  0.00000588
   1.00572382  0.33695523  0.00001580
  -0.01557772  0.01750427 -0.00038657
   0.30508460  0.33865234 -0.00034610
   0.68850039  0.01036495  0.00069775
   0.10600858  0.22136099  0.94363474
   0.22144621  0.10861834  0.04760915
   0.10658605  0.54875861  0.94310141
   0.21781941  0.44607319  0.05668441
   0.11165437  0.89226900  0.95393363
   0.22300314  0.77875860  0.05498055
   0.44388165  0.22094777  0.95791607
   0.55455444  0.11356138  0.04857256
   0.44708903  0.55912086  0.95070793
   0.55638489  0.44589419  0.04428968
   0.44477843  0.88489195  0.94993681
   0.55336001  0.77299118  0.04642025
   0.77452692  0.22297856  0.94716915
   0.88911397  0.11753874  0.05637748
   0.77779917  0.55494210  0.94987140
   0.88568534  0.44252951  0.05425093
   0.77499834  0.88527774  0.94586703
   0.89432685  0.78181492  0.04875473
unknown system                          
           1
     8.364060    4.835017    0.000000
    -8.333119    4.781548    0.000000
     0.000000    0.000000   30.000000
   V    Mo   W    S 
   3   3   3  18
Direct configuration=    24
   0.69103592  0.68336509  0.00013551
   0.69405499  0.34248468 -0.00034056
   0.33410226 -0.02904957  0.00015235
   0.30170396  0.64949575  0.00001801
   0.01164082  0.64967574  0.00004523
   1.00524370  0.33666218  0.00004725
  -0.01576520  0.01782981 -0.00038476
   0.30468390  0.33852227 -0.00036367
   0.68883485  0.01087515  0.00068162
   0.10579725  0.22143296  0.94360392
   0.22141595  0.10858366  0.04751729
   0.10631789  0.54857674  0.94311984
   0.21752529  0.44591628  0.05667543
   0.11179560  0.89252058  0.95416753
   0.22296752  0.77858169  0.05499429
   0.44384672  0.22087453  0.95805862
   0.55472128  0.11358876  0.04859681
   0.44708585  0.55907468  0.95079664
   0.55638220  0.44599448  0.04413350
   0.44479483  0.88465543  0.94997157