   27   27  100    1
  0.9710400E+02  0.1002848E-08  0.1002848E-08  0.3000000E-08  0.5000000E-15
  1.000000000000000E-004
  CAR 
 unknown system                          
    159     34    120
 
  0.0000000E+00  0.0000000E+00  0.0000000E+00  0.1562500E-01
    1      -17.844820   1.000000
    2      -16.801622   1.000000
    3      -16.702864   1.000000
    4      -16.597730   1.000000
    5      -16.563142   1.000000
    6      -16.452101   1.000000
    7      -16.402930   1.000000
    8      -16.271973   1.000000
    9      -16.233326   1.000000
   10      -16.134781   1.000000
   11      -16.098114   1.000000
   12      -15.964395   1.000000
   13      -15.904979   1.000000
   14      -15.623123   1.000000
   15      -15.589768   1.000000
   16      -15.470615   1.000000
   17      -15.227565   1.000000
   18      -15.186579   1.000000
   19       -9.408928   1.000000
   20       -9.056913   1.000000
   21       -9.037849   1.000000
   22       -8.944073   1.000000
   23       -8.743433   1.000000
   24       -8.707340   1.000000
   25       -8.697188   1.000000
   26       -8.599075   1.000000
   27       -8.504458   1.000000
   28       -8.476638   1.000000
   29       -8.433550   1.000000
   30       -8.369276   1.000000
   31       -8.299758   1.000000
   32       -8.120438   1.000000
   33       -8.094915   1.000000
   34       -8.029349   1.000000
   35       -7.803571   1.000000
   36       -7.741258   1.000000
   37       -7.628499   1.000000
   38       -7.609366   1.000000
   39       -7.513652   1.000000
   40       -7.340645   1.000000
   41       -7.310933   1.000000
   42       -7.213577   1.000000
   43       -7.103969   1.000000
   44       -6.947652   1.000000
   45       -6.859141   1.000000
   46       -6.796661   1.000000
   47       -6.736539   1.000000
   48       -6.692799   1.000000
   49       -6.608399   1.000000
   50       -6.515518   1.000000
   51       -6.437050   1.000000
   52       -6.254599   1.000000
   53       -6.210046   1.000000
   54       -6.178875   1.000000
   55       -6.160555   1.000000
   56       -6.100656   1.000000
   57       -6.004502   1.000000
   58       -5.914587   1.000000
   59       -5.879842   1.000000
   60       -5.631462   1.000000
   61       -5.596096   1.000000
   62       -5.326480   1.000000
   63       -5.287184   1.000000
   64       -5.074893   1.000000
   65       -4.988585   1.000000
   66       -4.960477   1.000000
   67       -4.877571   1.000000
   68       -4.858160   1.000000
   69       -4.751171   1.000000
   70       -4.705816   1.000000
   71       -4.664126   1.000000
   72       -4.626998   1.000000
   73       -4.448022   1.000000
   74       -4.372249   1.000000
   75       -4.262319   1.000000
   76       -3.987426   1.000000
   77       -3.794839   0.999957
   78       -3.588235   0.993169
   79       -3.507240   0.970842
   80       -3.216086   0.434296
   81       -3.152710   0.269746
   82       -2.908143   0.009566
   83       -2.698904   0.000066
   84       -2.677908   0.000036
   85       -2.579675   0.000002
   86       -2.497517   0.000000
   87       -2.324632   0.000000
   88       -2.275969   0.000000
   89       -2.242956   0.000000
   90       -2.110447   0.000000
   91       -1.761727   0.000000
   92       -1.554728   0.000000
   93       -1.345262   0.000000
   94       -1.245392   0.000000
   95       -1.054772   0.000000
   96       -0.999713   0.000000
   97       -0.937255   0.000000
   98       -0.821820   0.000000
   99       -0.814846   0.000000
  100       -0.630762   0.000000
  101       -0.596518   0.000000
  102       -0.528888   0.000000
  103       -0.403943   0.000000
  104       -0.269219   0.000000
  105       -0.208675   0.000000
  106       -0.105366   0.000000
  107       -0.102589   0.000000
  108        0.024528   0.000000
  109        0.054556   0.000000
  110        0.233971   0.000000
  111        0.490480   0.000000
  112        0.607684   0.000000
  113        0.725586   0.000000
  114        0.878297   0.000000
  115        0.950582   0.000000
  116        1.015567   0.000000
  117        1.121091   0.000000
  118        1.648459   0.000000
  119        1.841800   0.000000
  120        2.168466   0.000000
 
  0.1250000E+00  0.2775558E-16  0.0000000E+00  0.3125000E-01
    1      -17.821788   1.000000
    2      -16.831914   1.000000
    3      -16.739221   1.000000
    4      -16.668356   1.000000
    5      -16.568281   1.000000
    6      -16.453416   1.000000
    7      -16.366379   1.000000
    8      -16.283300   1.000000
    9      -16.221160   1.000000
   10      -16.117138   1.000000
   11      -16.005690   1.000000
   12      -15.953671   1.000000
   13      -15.899230   1.000000
   14      -15.628226   1.000000
   15      -15.596034   1.000000
   16      -15.487022   1.000000
   17      -15.229146   1.000000
   18      -15.189809   1.000000
   19       -9.405996   1.000000
   20       -9.190005   1.000000
   21       -9.081091   1.000000
   22       -9.029834   1.000000
   23       -8.815063   1.000000
   24       -8.755724   1.000000
   25       -8.700090   1.000000
   26       -8.583884   1.000000
   27       -8.537079   1.000000
   28       -8.472725   1.000000
   29       -8.372513   1.000000
   30       -8.213635   1.000000
   31       -8.189663   1.000000
   32       -8.093325   1.000000
   33       -8.052366   1.000000
   34       -7.954342   1.000000
   35       -7.749583   1.000000
   36       -7.691359   1.000000
   37       -7.633396   1.000000
   38       -7.612304   1.000000
   39       -7.483508   1.000000
   40       -7.464122   1.000000
   41       -7.280613   1.000000
   42       -7.174603   1.000000
   43       -7.159852   1.000000
   44       -7.010745   1.000000
   45       -6.869788   1.000000
   46       -6.815678   1.000000
   47       -6.725156   1.000000
   48       -6.624902   1.000000
   49       -6.565754   1.000000
   50       -6.469463   1.000000
   51       -6.434796   1.000000
   52       -6.314134   1.000000
   53       -6.230459   1.000000
   54       -6.199310   1.000000
   55       -6.141636   1.000000
   56       -6.079559   1.000000
   57       -6.024798   1.000000
   58       -5.979077   1.000000
   59       -5.764977   1.000000
   60       -5.618714   1.000000
   61       -5.555325   1.000000
   62       -5.419730   1.000000
   63       -5.406469   1.000000
   64       -5.176825   1.000000
   65       -5.023884   1.000000
   66       -4.969530   1.000000
   67       -4.870013   1.000000
   68       -4.854163   1.000000
   69       -4.758571   1.000000
   70       -4.678859   1.000000
   71       -4.623328   1.000000
   72       -4.553583   1.000000
   73       -4.448290   1.000000
   74       -4.306298   1.000000
   75       -4.226455   1.000000
   76       -4.042673   1.000000
   77       -3.805010   0.999968
   78       -3.666051   0.998721
   79       -3.574667   0.991108
   80       -3.176681   0.328493
   81       -3.111685   0.183084
   82       -2.868693   0.004372
   83       -2.684563   0.000044
   84       -2.650350   0.000016
   85       -2.571990   0.000001
   86       -2.487271   0.000000
   87       -2.302926   0.000000
   88       -2.247096   0.000000
   89       -2.206088   0.000000
   90       -2.109222   0.000000
   91       -1.770835   0.000000
   92       -1.543393   0.000000
   93       -1.350384   0.000000
   94       -1.255973   0.000000
   95       -1.058260   0.000000
   96       -1.001751   0.000000
   97       -0.955920   0.000000
   98       -0.841937   0.000000
   99       -0.788363   0.000000
  100       -0.715415   0.000000
  101       -0.655701   0.000000
  102       -0.583330   0.000000
  103       -0.527341   0.000000
  104       -0.383724   0.000000
  105       -0.263817   0.000000
  106       -0.083150   0.000000
  107       -0.048712   0.000000
  108        0.050757   0.000000
  109        0.139814   0.000000
  110        0.248474   0.000000
  111        0.410893   0.000000
  112        0.601189   0.000000
  113        0.755176   0.000000
  114        0.897896   0.000000
  115        0.957909   0.000000
  116        1.016993   0.000000
  117        1.134747   0.000000
  118        1.690471   0.000000
  119        1.882937   0.000000
  120        2.203192   0.000000
 
  0.2500000E+00  0.5551115E-16  0.0000000E+00  0.3125000E-01
    1      -17.755548   1.000000
    2      -16.987810   1.000000
    3      -16.760184   1.000000
    4      -16.722577   1.000000
    5      -16.619697   1.000000
    6      -16.439546   1.000000
    7      -16.346450   1.000000
    8      -16.271328   1.000000
    9      -16.183094   1.000000
   10      -16.063493   1.000000
   11      -15.937379   1.000000
   12      -15.891767   1.000000
   13      -15.838671   1.000000
   14      -15.653468   1.000000
   15      -15.602612   1.000000
   16      -15.527726   1.000000
   17      -15.233713   1.000000
   18      -15.198792   1.000000
   19       -9.532938   1.000000
   20       -9.291906   1.000000
   21       -9.207479   1.000000
   22       -9.121586   1.000000
   23       -8.952698   1.000000
   24       -8.811308   1.000000
   25       -8.639427   1.000000
   26       -8.549569   1.000000
   27       -8.517578   1.000000
   28       -8.402144   1.000000
   29       -8.288280   1.000000
   30       -8.206942   1.000000
   31       -8.102695   1.000000
   32       -8.059389   1.000000
   33       -7.919377   1.000000
   34       -7.796974   1.000000
   35       -7.719522   1.000000
   36       -7.674770   1.000000
   37       -7.607634   1.000000
   38       -7.560804   1.000000
   39       -7.501270   1.000000
   40       -7.380141   1.000000
   41       -7.288732   1.000000
   42       -7.173908   1.000000
   43       -7.122958   1.000000
   44       -7.028226   1.000000
   45       -6.908587   1.000000
   46       -6.798339   1.000000
   47       -6.710144   1.000000
   48       -6.630886   1.000000
   49       -6.498336   1.000000
   50       -6.454303   1.000000
   51       -6.335844   1.000000
   52       -6.328829   1.000000
   53       -6.295527   1.000000
   54       -6.228440   1.000000
   55       -6.162094   1.000000
   56       -6.088430   1.000000
   57       -6.027692   1.000000
   58       -5.907661   1.000000
   59       -5.728888   1.000000
   60       -5.651941   1.000000
   61       -5.617226   1.000000
   62       -5.546661   1.000000
   63       -5.430188   1.000000
   64       -5.402805   1.000000
   65       -5.241596   1.000000
   66       -4.996935   1.000000
   67       -4.874447   1.000000
   68       -4.816926   1.000000
   69       -4.713113   1.000000
   70       -4.643001   1.000000
   71       -4.511559   1.000000
   72       -4.438560   1.000000
   73       -4.395038   1.000000
   74       -4.304870   1.000000
   75       -4.224012   1.000000
   76       -4.116668   1.000000
   77       -3.828626   0.999984
   78       -3.791219   0.999952
   79       -3.627739   0.996978
   80       -3.126651   0.212480
   81       -3.044887   0.084410
   82       -2.799880   0.000940
   83       -2.671691   0.000030
   84       -2.601823   0.000003
   85       -2.522358   0.000000
   86       -2.451047   0.000000
   87       -2.250642   0.000000
   88       -2.187807   0.000000
   89       -2.120140   0.000000
   90       -2.055165   0.000000
   91       -1.778598   0.000000
   92       -1.522702   0.000000
   93       -1.376317   0.000000
   94       -1.303417   0.000000
   95       -1.133363   0.000000
   96       -1.032890   0.000000
   97       -0.967131   0.000000
   98       -0.887726   0.000000
   99       -0.862442   0.000000
  100       -0.807971   0.000000
  101       -0.751435   0.000000
  102       -0.693836   0.000000
  103       -0.660460   0.000000
  104       -0.526533   0.000000
  105       -0.338789   0.000000
  106       -0.119514   0.000000
  107       -0.031079   0.000000
  108        0.048119   0.000000
  109        0.136754   0.000000
  110        0.292597   0.000000
  111        0.361542   0.000000
  112        0.572094   0.000000
  113        0.825210   0.000000
  114        0.874238   0.000000
  115        0.907887   0.000000
  116        1.116931   0.000000
  117        1.220814   0.000000
  118        1.807751   0.000000
  119        2.000081   0.000000
  120        2.305873   0.000000
 
  0.3750000E+00  0.0000000E+00  0.0000000E+00  0.3125000E-01
    1      -17.659930   1.000000
    2      -17.170885   1.000000
    3      -16.774451   1.000000
    4      -16.738762   1.000000
    5      -16.659457   1.000000
    6      -16.438991   1.000000
    7      -16.341755   1.000000
    8      -16.274625   1.000000
    9      -16.108192   1.000000
   10      -16.004738   1.000000
   11      -15.938258   1.000000
   12      -15.847061   1.000000
   13      -15.743785   1.000000
   14      -15.673269   1.000000
   15      -15.630588   1.000000
   16      -15.553609   1.000000
   17      -15.239264   1.000000
   18      -15.209748   1.000000
   19       -9.723951   1.000000
   20       -9.325324   1.000000
   21       -9.260734   1.000000
   22       -9.173324   1.000000
   23       -9.041168   1.000000
   24       -8.849944   1.000000
   25       -8.542747   1.000000
   26       -8.514480   1.000000
   27       -8.451286   1.000000
   28       -8.301541   1.000000
   29       -8.257777   1.000000
   30       -8.231604   1.000000
   31       -8.128202   1.000000
   32       -8.098316   1.000000
   33       -7.912663   1.000000
   34       -7.828648   1.000000
   35       -7.766842   1.000000
   36       -7.728856   1.000000
   37       -7.547600   1.000000
   38       -7.407662   1.000000
   39       -7.365081   1.000000
   40       -7.313987   1.000000
   41       -7.210419   1.000000
   42       -7.127281   1.000000
   43       -7.070951   1.000000
   44       -6.984019   1.000000
   45       -6.825407   1.000000
   46       -6.777512   1.000000
   47       -6.689011   1.000000
   48       -6.592027   1.000000
   49       -6.510746   1.000000
   50       -6.442217   1.000000
   51       -6.393449   1.000000
   52       -6.373766   1.000000
   53       -6.275070   1.000000
   54       -6.218054   1.000000
   55       -6.136811   1.000000
   56       -6.053779   1.000000
   57       -6.019288   1.000000
   58       -5.864354   1.000000
   59       -5.830835   1.000000
   60       -5.735224   1.000000
   61       -5.704343   1.000000
   62       -5.594804   1.000000
   63       -5.580333   1.000000
   64       -5.437853   1.000000
   65       -5.317839   1.000000
   66       -5.035743   1.000000
   67       -4.876860   1.000000
   68       -4.822724   1.000000
   69       -4.739848   1.000000
   70       -4.677497   1.000000
   71       -4.560778   1.000000
   72       -4.445641   1.000000
   73       -4.375051   1.000000
   74       -4.239155   1.000000
   75       -4.162999   1.000000
   76       -4.051457   1.000000
   77       -3.956713   1.000000
   78       -3.760770   0.999886
   79       -3.621559   0.996550
   80       -3.102702   0.166724
   81       -2.995343   0.042144
   82       -2.764589   0.000393
   83       -2.660490   0.000021
   84       -2.590874   0.000002
   85       -2.466794   0.000000
   86       -2.375557   0.000000
   87       -2.188995   0.000000
   88       -2.111842   0.000000
   89       -2.061932   0.000000
   90       -1.924235   0.000000
   91       -1.759420   0.000000
   92       -1.535863   0.000000
   93       -1.434714   0.000000
   94       -1.385620   0.000000
   95       -1.251774   0.000000
   96       -1.078583   0.000000
   97       -1.053375   0.000000
   98       -0.985926   0.000000
   99       -0.936457   0.000000
  100       -0.858075   0.000000
  101       -0.834465   0.000000
  102       -0.710899   0.000000
  103       -0.667761   0.000000
  104       -0.592165   0.000000
  105       -0.389623   0.000000
  106       -0.191658   0.000000
  107       -0.081813   0.000000
  108       -0.006579   0.000000
  109        0.037634   0.000000
  110        0.287190   0.000000
  111        0.388823   0.000000
  112        0.591304   0.000000
  113        0.813241   0.000000
  114        0.862288   0.000000
  115        0.935534   0.000000
  116        1.179421   0.000000
  117        1.343631   0.000000
  118        1.983235   0.000000
  119        2.179542   0.000000
  120        2.427898   0.000000
 
  0.5000000E+00  0.1110223E-15  0.0000000E+00  0.1562500E-01
    1      -17.596937   1.000000
    2      -17.266010   1.000000
    3      -16.784672   1.000000
    4      -16.737089   1.000000
    5      -16.674314   1.000000
    6      -16.440818   1.000000
    7      -16.340225   1.000000
    8      -16.278587   1.000000
    9      -16.062851   1.000000
   10      -15.980143   1.000000
   11      -15.953779   1.000000
   12      -15.810880   1.000000
   13      -15.732454   1.000000
   14      -15.685342   1.000000
   15      -15.642691   1.000000
   16      -15.552591   1.000000
   17      -15.241851   1.000000
   18      -15.215018   1.000000
   19       -9.796257   1.000000
   20       -9.362979   1.000000
   21       -9.260829   1.000000
   22       -9.186067   1.000000
   23       -9.061351   1.000000
   24       -8.861159   1.000000
   25       -8.515010   1.000000
   26       -8.474689   1.000000
   27       -8.393927   1.000000
   28       -8.316082   1.000000
   29       -8.268450   1.000000
   30       -8.197030   1.000000
   31       -8.136526   1.000000
   32       -8.084036   1.000000
   33       -7.954512   1.000000
   34       -7.910095   1.000000
   35       -7.830951   1.000000
   36       -7.751843   1.000000
   37       -7.495188   1.000000
   38       -7.361882   1.000000
   39       -7.298466   1.000000
   40       -7.240499   1.000000
   41       -7.137386   1.000000
   42       -7.074067   1.000000
   43       -7.046699   1.000000
   44       -7.022018   1.000000
   45       -6.813934   1.000000
   46       -6.733737   1.000000
   47       -6.603922   1.000000
   48       -6.564973   1.000000
   49       -6.540622   1.000000
   50       -6.507635   1.000000
   51       -6.428892   1.000000
   52       -6.344288   1.000000
   53       -6.238886   1.000000
   54       -6.212756   1.000000
   55       -6.170144   1.000000
   56       -6.075570   1.000000
   57       -6.033149   1.000000
   58       -5.872868   1.000000
   59       -5.842583   1.000000
   60       -5.790190   1.000000
   61       -5.726328   1.000000
   62       -5.655032   1.000000
   63       -5.509811   1.000000
   64       -5.380260   1.000000
   65       -5.285092   1.000000
   66       -5.233080   1.000000
   67       -4.943275   1.000000
   68       -4.873398   1.000000
   69       -4.782949   1.000000
   70       -4.673848   1.000000
   71       -4.518368   1.000000
   72       -4.441181   1.000000
   73       -4.339439   1.000000
   74       -4.208057   1.000000
   75       -4.140507   1.000000
   76       -4.018909   1.000000
   77       -4.011272   1.000000
   78       -3.741730   0.999808
   79       -3.605663   0.995191
   80       -3.098169   0.158838
   81       -2.977100   0.031774
   82       -2.757505   0.000327
   83       -2.650623   0.000016
   84       -2.594926   0.000003
   85       -2.453085   0.000000
   86       -2.329609   0.000000
   87       -2.158124   0.000000
   88       -2.070474   0.000000
   89       -2.024727   0.000000
   90       -1.864879   0.000000
   91       -1.731592   0.000000
   92       -1.612555   0.000000
   93       -1.440619   0.000000
   94       -1.390624   0.000000
   95       -1.323198   0.000000
   96       -1.135604   0.000000
   97       -1.103699   0.000000
   98       -1.034240   0.000000
   99       -0.951838   0.000000
  100       -0.864343   0.000000
  101       -0.840178   0.000000
  102       -0.730032   0.000000
  103       -0.673272   0.000000
  104       -0.576754   0.000000
  105       -0.407951   0.000000
  106       -0.228703   0.000000
  107       -0.130555   0.000000
  108       -0.030493   0.000000
  109        0.000429   0.000000
  110        0.269640   0.000000
  111        0.408233   0.000000
  112        0.603472   0.000000
  113        0.798079   0.000000
  114        0.860778   0.000000
  115        0.954757   0.000000
  116        1.206897   0.000000
  117        1.392768   0.000000
  118        2.161175   0.000000
  119        2.259201   0.000000
  120        2.407306   0.000000
 
  0.0000000E+00  0.1250000E+00  0.0000000E+00  0.3125000E-01
    1      -17.819423   1.000000
    2      -16.841469   1.000000
    3      -16.783986   1.000000
    4      -16.606976   1.000000
    5      -16.529415   1.000000
    6      -16.466346   1.000000
    7      -16.367295   1.000000
    8      -16.334013   1.000000
    9      -16.245741   1.000000
   10      -16.080369   1.000000
   11      -16.020259   1.000000
   12      -15.972796   1.000000
   13      -15.868210   1.000000
   14      -15.619734   1.000000
   15      -15.584889   1.000000
   16      -15.480554   1.000000
   17      -15.249928   1.000000
   18      -15.187273   1.000000
   19       -9.397209   1.000000
   20       -9.209985   1.000000
   21       -9.108420   1.000000
   22       -9.053104   1.000000
   23       -8.765185   1.000000
   24       -8.739262   1.000000
   25       -8.653419   1.000000
   26       -8.588111   1.000000
   27       -8.529935   1.000000
   28       -8.424934   1.000000
   29       -8.397844   1.000000
   30       -8.327262   1.000000
   31       -8.266035   1.000000
   32       -8.048095   1.000000
   33       -7.974889   1.000000
   34       -7.914665   1.000000
   35       -7.812782   1.000000
   36       -7.726431   1.000000
   37       -7.717319   1.000000
   38       -7.495400   1.000000
   39       -7.464814   1.000000
   40       -7.399498   1.000000
   41       -7.306420   1.000000
   42       -7.242214   1.000000
   43       -7.120715   1.000000
   44       -6.976775   1.000000
   45       -6.896694   1.000000
   46       -6.790838   1.000000
   47       -6.753176   1.000000
   48       -6.670204   1.000000
   49       -6.609860   1.000000
   50       -6.492937   1.000000
   51       -6.438841   1.000000
   52       -6.282589   1.000000
   53       -6.240285   1.000000
   54       -6.207608   1.000000
   55       -6.150753   1.000000
   56       -6.047838   1.000000
   57       -6.005602   1.000000
   58       -5.907496   1.000000
   59       -5.797368   1.000000
   60       -5.605755   1.000000
   61       -5.539223   1.000000
   62       -5.349176   1.000000
   63       -5.328298   1.000000
   64       -5.244839   1.000000
   65       -5.064381   1.000000
   66       -5.023379   1.000000
   67       -4.903660   1.000000
   68       -4.866990   1.000000
   69       -4.785385   1.000000
   70       -4.672266   1.000000
   71       -4.608008   1.000000
   72       -4.530369   1.000000
   73       -4.442160   1.000000
   74       -4.322316   1.000000
   75       -4.208642   1.000000
   76       -3.916863   0.999999
   77       -3.828526   0.999984
   78       -3.705821   0.999512
   79       -3.500851   0.967709
   80       -3.388410   0.853845
   81       -2.988050   0.037710
   82       -2.907997   0.009540
   83       -2.716767   0.000109
   84       -2.650184   0.000015
   85       -2.573598   0.000001
   86       -2.493825   0.000000
   87       -2.318538   0.000000
   88       -2.251721   0.000000
   89       -2.201571   0.000000
   90       -2.104064   0.000000
   91       -1.770413   0.000000
   92       -1.530006   0.000000
   93       -1.349462   0.000000
   94       -1.243179   0.000000
   95       -1.055926   0.000000
   96       -0.991144   0.000000
   97       -0.946974   0.000000
   98       -0.847413   0.000000
   99       -0.809340   0.000000
  100       -0.678155   0.000000
  101       -0.632784   0.000000
  102       -0.571075   0.000000
  103       -0.451417   0.000000
  104       -0.391552   0.000000
  105       -0.288923   0.000000
  106       -0.221527   0.000000
  107       -0.117775   0.000000
  108        0.083900   0.000000
  109        0.179695   0.000000
  110        0.278544   0.000000
  111        0.460561   0.000000
  112        0.595372   0.000000
  113        0.724055   0.000000
  114        0.805226   0.000000
  115        0.942602   0.000000
  116        1.022896   0.000000
  117        1.258115   0.000000
  118        1.693709   0.000000
  119        1.880726   0.000000
  120        2.204145   0.000000
 
  0.1250000E+00  0.1250000E+00  0.0000000E+00  0.3125000E-01
    1      -17.773496   1.000000
    2      -16.936958   1.000000
    3      -16.810745   1.000000
    4      -16.708381   1.000000
    5      -16.516382   1.000000
    6      -16.447498   1.000000
    7      -16.343924   1.000000
    8      -16.317210   1.000000
    9      -16.238672   1.000000
   10      -16.048184   1.000000
   11      -15.960948   1.000000
   12      -15.910395   1.000000
   13      -15.850515   1.000000
   14      -15.627440   1.000000
   15      -15.591454   1.000000
   16      -15.513225   1.000000
   17      -15.255384   1.000000
   18      -15.189067   1.000000
   19       -9.436471   1.000000
   20       -9.339260   1.000000
   21       -9.253820   1.000000
   22       -9.112579   1.000000
   23       -8.816308   1.000000
   24       -8.760532   1.000000
   25       -8.666339   1.000000
   26       -8.544109   1.000000
   27       -8.498998   1.000000
   28       -8.395438   1.000000
   29       -8.342392   1.000000
   30       -8.286365   1.000000
   31       -8.095185   1.000000
   32       -8.066567   1.000000
   33       -7.973372   1.000000
   34       -7.828466   1.000000
   35       -7.757927   1.000000
   36       -7.676454   1.000000
   37       -7.623020   1.000000
   38       -7.553795   1.000000
   39       -7.473349   1.000000
   40       -7.394278   1.000000
   41       -7.266414   1.000000
   42       -7.219117   1.000000
   43       -7.136432   1.000000
   44       -7.040988   1.000000
   45       -6.894667   1.000000
   46       -6.790094   1.000000
   47       -6.735529   1.000000
   48       -6.643426   1.000000
   49       -6.532122   1.000000
   50       -6.450403   1.000000
   51       -6.363396   1.000000
   52       -6.331509   1.000000
   53       -6.297077   1.000000
   54       -6.226028   1.000000
   55       -6.140420   1.000000
   56       -6.061738   1.000000
   57       -6.011427   1.000000
   58       -5.919774   1.000000
   59       -5.725570   1.000000
   60       -5.611501   1.000000
   61       -5.569700   1.000000
   62       -5.504942   1.000000
   63       -5.431621   1.000000
   64       -5.293489   1.000000
   65       -5.197674   1.000000
   66       -5.054373   1.000000
   67       -4.902575   1.000000
   68       -4.832315   1.000000
   69       -4.742649   1.000000
   70       -4.646164   1.000000
   71       -4.511959   1.000000
   72       -4.483684   1.000000
   73       -4.433805   1.000000
   74       -4.269093   1.000000
   75       -4.142760   1.000000
   76       -4.096196   1.000000
   77       -3.918966   0.999999
   78       -3.719674   0.999657
   79       -3.563203   0.988962
   80       -3.276864   0.604234
   81       -2.970237   0.028464
   82       -2.863376   0.003913
   83       -2.678946   0.000037
   84       -2.629054   0.000008
   85       -2.557141   0.000001
   86       -2.457833   0.000000
   87       -2.266213   0.000000
   88       -2.201823   0.000000
   89       -2.146583   0.000000
   90       -2.084296   0.000000
   91       -1.782193   0.000000
   92       -1.521521   0.000000
   93       -1.369155   0.000000
   94       -1.261390   0.000000
   95       -1.075710   0.000000
   96       -1.019886   0.000000
   97       -0.960337   0.000000
   98       -0.867259   0.000000
   99       -0.830518   0.000000
  100       -0.758782   0.000000
  101       -0.711312   0.000000
  102       -0.684763   0.000000
  103       -0.617342   0.000000
  104       -0.485127   0.000000
  105       -0.348078   0.000000
  106       -0.163371   0.000000
  107       -0.144520   0.000000
  108        0.106686   0.000000
  109        0.256239   0.000000
  110        0.317440   0.000000
  111        0.378646   0.000000
  112        0.571866   0.000000
  113        0.748180   0.000000
  114        0.843437   0.000000
  115        0.893145   0.000000
  116        1.084298   0.000000
  117        1.272079   0.000000
  118        1.774264   0.000000
  119        1.960046   0.000000
  120        2.273348   0.000000
 
  0.2500000E+00  0.1250000E+00  0.0000000E+00  0.3125000E-01
    1      -17.689440   1.000000
    2      -17.088578   1.000000
    3      -16.888413   1.000000
    4      -16.736286   1.000000
    5      -16.517833   1.000000
    6      -16.442890   1.000000
    7      -16.325965   1.000000
    8      -16.296237   1.000000
    9      -16.173348   1.000000
   10      -16.031494   1.000000
   11      -15.949432   1.000000
   12      -15.835758   1.000000
   13      -15.789575   1.000000
   14      -15.645723   1.000000
   15      -15.598264   1.000000
   16      -15.546310   1.000000
   17      -15.264997   1.000000
   18      -15.192744   1.000000
   19       -9.627920   1.000000
   20       -9.435410   1.000000
   21       -9.319947   1.000000
   22       -9.156641   1.000000
   23       -8.878878   1.000000
   24       -8.756461   1.000000
   25       -8.586231   1.000000
   26       -8.481197   1.000000
   27       -8.453024   1.000000
   28       -8.370770   1.000000
   29       -8.288104   1.000000
   30       -8.234189   1.000000
   31       -8.123663   1.000000
   32       -8.087028   1.000000
   33       -7.980534   1.000000
   34       -7.820588   1.000000
   35       -7.739757   1.000000
   36       -7.701070   1.000000
   37       -7.608050   1.000000
   38       -7.482461   1.000000
   39       -7.386253   1.000000
   40       -7.353197   1.000000
   41       -7.193263   1.000000
   42       -7.132628   1.000000
   43       -7.110501   1.000000
   44       -6.973788   1.000000
   45       -6.854339   1.000000
   46       -6.798530   1.000000
   47       -6.678509   1.000000