       N       E                     dE             d eps       ncg     rms          rms(c)
DAV:   1     0.112418873746E+04    0.11242E+04   -0.35860E+04  8160   0.577E+02
DAV:   2    -0.922614791253E+00   -0.11251E+04   -0.10803E+04 11120   0.173E+02
DAV:   3    -0.199808533159E+03   -0.19889E+03   -0.19086E+03 10920   0.823E+01
DAV:   4    -0.208944488769E+03   -0.91360E+01   -0.88467E+01 11880   0.261E+01
DAV:   5    -0.209305675350E+03   -0.36119E+00   -0.36025E+00 11720   0.383E+00    0.275E+01
DAV:   6    -0.236764422808E+03   -0.27459E+02   -0.10831E+02 12840   0.605E+01    0.594E+01
DAV:   7    -0.196679263654E+03    0.40085E+02   -0.17821E+02 12840   0.151E+02    0.202E+01
DAV:   8    -0.189951496042E+03    0.67278E+01   -0.20212E+01 11800   0.133E+01    0.134E+01
DAV:   9    -0.188232678823E+03    0.17188E+01   -0.28883E+00 12000   0.622E+00    0.919E+00
DAV:  10    -0.187049809632E+03    0.11829E+01   -0.18567E+00 13440   0.774E+00    0.291E+00
DAV:  11    -0.187025107410E+03    0.24702E-01   -0.61206E-01 13560   0.299E+00    0.304E+00
DAV:  12    -0.187176287039E+03   -0.15118E+00   -0.82169E-01 13240   0.524E+00    0.582E+00
DAV:  13    -0.186920824240E+03    0.25546E+00   -0.78823E-01 12840   0.420E+00    0.210E+00
DAV:  14    -0.186877050350E+03    0.43774E-01   -0.11745E-01 13240   0.203E+00    0.904E-01
DAV:  15    -0.186874419983E+03    0.26304E-02   -0.17000E-02 13080   0.697E-01    0.774E-01
DAV:  16    -0.186868436583E+03    0.59834E-02   -0.99513E-03 13040   0.513E-01    0.177E-01
DAV:  17    -0.186868465244E+03   -0.28661E-04   -0.36919E-03 12920   0.221E-01    0.212E-01
DAV:  18    -0.186867786289E+03    0.67896E-03   -0.16890E-03 11800   0.133E-01    0.998E-02
DAV:  19    -0.186867820738E+03   -0.34449E-04   -0.55533E-04  9560   0.734E-02
   1 F= -.18686782E+03 E0= -.18669612E+03  d E =-.186868E+03
       N       E                     dE             d eps       ncg     rms          rms(c)
DAV:   1    -0.187481274796E+03   -0.61349E+00   -0.27046E+02  8160   0.349E+01    0.466E+00
DAV:   2    -0.189429602297E+03   -0.19483E+01   -0.20278E+01 11920   0.155E+01    0.945E+00
DAV:   3    -0.189342726436E+03    0.86876E-01   -0.45877E+00 12240   0.124E+01    0.663E+00
DAV:   4    -0.188750978078E+03    0.59175E+00   -0.61054E-01 12200   0.456E+00    0.210E+00
DAV:   5    -0.188846691885E+03   -0.95714E-01   -0.43473E-01 11360   0.351E+00    0.500E+00
DAV:   6    -0.188747187224E+03    0.99505E-01   -0.73726E-01 12400   0.435E+00    0.270E+00
DAV:   7    -0.188665460076E+03    0.81727E-01   -0.22310E-01 12240   0.167E+00    0.115E+00
DAV:   8    -0.188662229644E+03    0.32304E-02   -0.82685E-02 11760   0.143E+00    0.148E+00
DAV:   9    -0.188646596402E+03    0.15633E-01   -0.33528E-02 11280   0.106E+00    0.561E-01
DAV:  10    -0.188643909182E+03    0.26872E-02   -0.67591E-03 12120   0.356E-01    0.315E-01
DAV:  11    -0.188643480647E+03    0.42853E-03   -0.33045E-03 12680   0.245E-01    0.132E-01
DAV:  12    -0.188643472603E+03    0.80439E-05   -0.12364E-03 11120   0.109E-01    0.103E-01
DAV:  13    -0.188643618545E+03   -0.14594E-03   -0.30204E-04  6840   0.689E-02    0.404E-02
DAV:  14    -0.188643683891E+03   -0.65346E-04   -0.11759E-04  7760   0.343E-02
   2 F= -.18864368E+03 E0= -.18850241E+03  d E =-.177586E+01
       N       E                     dE             d eps       ncg     rms          rms(c)
DAV:   1    -0.190575358602E+03   -0.19317E+01   -0.31111E+01  9200   0.142E+01    0.447E+00
DAV:   2    -0.190571814596E+03    0.35440E-02   -0.28484E+00 11800   0.977E+00    0.754E+00
DAV:   3    -0.190047280885E+03    0.52453E+00   -0.13765E+00 12280   0.868E+00    0.419E+00
DAV:   4    -0.189848670624E+03    0.19861E+00   -0.74122E-01 13000   0.413E+00    0.270E+00
DAV:   5    -0.189896298562E+03   -0.47628E-01   -0.48953E-01 12440   0.424E+00    0.385E+00
DAV:   6    -0.189740253846E+03    0.15604E+00   -0.22239E-01 12280   0.324E+00    0.624E-01
DAV:   7    -0.189734271020E+03    0.59828E-02   -0.15268E-02 12160   0.467E-01    0.218E-01
DAV:   8    -0.189734605930E+03   -0.33491E-03   -0.34348E-03 11400   0.250E-01    0.257E-01
DAV:   9    -0.189734358252E+03    0.24768E-03   -0.18185E-03 10560   0.274E-01    0.184E-01
DAV:  10    -0.189734543909E+03   -0.18566E-03   -0.11654E-03 10000   0.182E-01    0.146E-01
DAV:  11    -0.189734288628E+03    0.25528E-03   -0.53324E-04  8360   0.924E-02    0.170E-02
DAV:  12    -0.189734344038E+03   -0.55411E-04   -0.71462E-05  6840   0.250E-02
   3 F= -.18973434E+03 E0= -.18961519E+03  d E =-.109066E+01
       N       E                     dE             d eps       ncg     rms          rms(c)
DAV:   1    -0.191296527377E+03   -0.15622E+01   -0.70552E+01  8160   0.192E+01    0.464E+00
DAV:   2    -0.191171329065E+03    0.12520E+00   -0.54057E+00 13480   0.837E+00    0.525E+00
DAV:   3    -0.191199067543E+03   -0.27738E-01   -0.15728E+00 12240   0.928E+00    0.624E+00
DAV:   4    -0.190809992713E+03    0.38907E+00   -0.11371E+00 12960   0.680E+00    0.255E+00
DAV:   5    -0.190710729018E+03    0.99264E-01   -0.28237E-01 11240   0.210E+00    0.101E+00
DAV:   6    -0.190708037116E+03    0.26919E-02   -0.89592E-02 12240   0.176E+00    0.128E+00
DAV:   7    -0.190698320389E+03    0.97167E-02   -0.47462E-02 11920   0.149E+00    0.684E-01
DAV:   8    -0.190692419407E+03    0.59010E-02   -0.82471E-03 10600   0.517E-01    0.152E-01
DAV:   9    -0.190692713159E+03   -0.29375E-03   -0.17140E-03 11000   0.141E-01    0.148E-01
DAV:  10    -0.190692835031E+03   -0.12187E-03   -0.15652E-03 11800   0.217E-01    0.180E-01
DAV:  11    -0.190692599919E+03    0.23511E-03   -0.80592E-04  9120   0.190E-01    0.714E-02
DAV:  12    -0.190692566561E+03    0.33358E-04   -0.12136E-04  6320   0.624E-02
   4 F= -.19069257E+03 E0= -.19059123E+03  d E =-.958223E+00
       N       E                     dE             d eps       ncg     rms          rms(c)
DAV:   1    -0.192087991916E+03   -0.13954E+01   -0.14585E+02  8160   0.271E+01    0.568E+00
DAV:   2    -0.191793632095E+03    0.29436E+00   -0.92842E+00 12360   0.807E+00    0.383E+00
DAV:   3    -0.191862299144E+03   -0.68667E-01   -0.17204E+00 12400   0.876E+00    0.614E+00
DAV:   4    -0.191609502042E+03    0.25280E+00   -0.15581E+00 12480   0.957E+00    0.385E+00
DAV:   5    -0.191371322368E+03    0.23818E+00   -0.41668E-01 12560   0.362E+00    0.828E-01
DAV:   6    -0.191369161536E+03    0.21608E-02   -0.10378E-01 12520   0.146E+00    0.102E+00
DAV:   7    -0.191368064028E+03    0.10975E-02   -0.68586E-02 11920   0.168E+00    0.971E-01
DAV:   8    -0.191356887359E+03    0.11177E-01   -0.17637E-02 12040   0.856E-01    0.165E-01
DAV:   9    -0.191357879884E+03   -0.99253E-03   -0.40173E-03 11720   0.311E-01    0.289E-01
DAV:  10    -0.191357227840E+03    0.65204E-03   -0.21937E-03 12080   0.338E-01    0.115E-01
DAV:  11    -0.191357147997E+03    0.79843E-04   -0.41201E-04  9040   0.114E-01
   5 F= -.19135715E+03 E0= -.19126125E+03  d E =-.664581E+00
       N       E                     dE             d eps       ncg     rms          rms(c)
DAV:   1    -0.191452659846E+03   -0.95432E-01   -0.89437E+00  8160   0.631E+00    0.783E-01
DAV:   2    -0.191521767091E+03   -0.69107E-01   -0.32352E-01 12680   0.288E+00    0.224E+00
DAV:   3    -0.191465854761E+03    0.55912E-01   -0.11881E-01 12480   0.261E+00    0.547E-01
DAV:   4    -0.191463288807E+03    0.25660E-02   -0.11188E-02 11000   0.526E-01    0.344E-01
DAV:   5    -0.191463010827E+03    0.27798E-03   -0.65431E-03 11240   0.561E-01    0.418E-01
DAV:   6    -0.191461912554E+03    0.10983E-02   -0.53110E-03 11680   0.524E-01    0.229E-01
DAV:   7    -0.191461355541E+03    0.55701E-03   -0.17203E-03 11560   0.220E-01    0.726E-02
DAV:   8    -0.191461353964E+03    0.15769E-05   -0.46600E-04  9040   0.123E-01
   6 F= -.19146135E+03 E0= -.19136270E+03  d E =-.104206E+00
       N       E                     dE             d eps       ncg     rms          rms(c)
DAV:   1    -0.191480246589E+03   -0.18891E-01   -0.30132E-01  8160   0.117E+00    0.170E-01
DAV:   2    -0.191483637298E+03   -0.33907E-02   -0.14585E-02 12760   0.692E-01    0.519E-01
DAV:   3    -0.191480586976E+03    0.30503E-02   -0.53861E-03 11640   0.557E-01    0.953E-02
DAV:   4    -0.191480717951E+03   -0.13098E-03   -0.82366E-04  9120   0.173E-01    0.149E-01
DAV:   5    -0.191480526998E+03    0.19095E-03   -0.68209E-04  8640   0.178E-01    0.712E-02
DAV:   6    -0.191480500688E+03    0.26311E-04   -0.16617E-04  6040   0.740E-02
   7 F= -.19148050E+03 E0= -.19138147E+03  d E =-.191467E-01
       N       E                     dE             d eps       ncg     rms          rms(c)
DAV:   1    -0.191219146304E+03    0.26138E+00   -0.45807E+01  8160   0.144E+01    0.191E+00
DAV:   2    -0.191613390417E+03   -0.39424E+00   -0.19628E+00 13120   0.764E+00    0.496E+00
DAV:   3    -0.191274014607E+03    0.33938E+00   -0.46135E-01 12320   0.553E+00    0.932E-01
DAV:   4    -0.191265426972E+03    0.85876E-02   -0.52114E-02 12240   0.960E-01    0.740E-01
DAV:   5    -0.191260439497E+03    0.49875E-02   -0.28909E-02 12400   0.101E+00    0.733E-01
DAV:   6    -0.191261858510E+03   -0.14190E-02   -0.30112E-02 12520   0.128E+00    0.783E-01
DAV:   7    -0.191254892670E+03    0.69658E-02   -0.12116E-02 11960   0.738E-01    0.139E-01
DAV:   8    -0.191254723457E+03    0.16921E-03   -0.17108E-03 11640   0.205E-01    0.131E-01
DAV:   9    -0.191254678792E+03    0.44665E-04   -0.87330E-04  9640   0.198E-01
   8 F= -.19125468E+03 E0= -.19116614E+03  d E =0.225822E+00
       N       E                     dE             d eps       ncg     rms          rms(c)
DAV:   1    -0.191133815980E+03    0.12091E+00   -0.14412E+01  8160   0.807E+00    0.104E+00
DAV:   2    -0.191240603133E+03   -0.10679E+00   -0.55671E-01 13560   0.386E+00    0.266E+00
DAV:   3    -0.191150173518E+03    0.90430E-01   -0.14838E-01 12240   0.304E+00    0.607E-01
DAV:   4    -0.191147860892E+03    0.23126E-02   -0.19619E-02 11800   0.695E-01    0.523E-01
DAV:   5    -0.191145955954E+03    0.19049E-02   -0.12392E-02 11960   0.792E-01    0.505E-01
DAV:   6    -0.191144499964E+03    0.14560E-02   -0.85199E-03 12160   0.689E-01    0.311E-01
DAV:   7    -0.191143311899E+03    0.11881E-02   -0.28028E-03 11640   0.304E-01    0.834E-02
DAV:   8    -0.191143216797E+03    0.95102E-04   -0.52598E-04 10760   0.112E-01
   9 F= -.19114322E+03 E0= -.19106163E+03  d E =0.111462E+00
       N       E                     dE             d eps       ncg     rms          rms(c)
DAV:   1    -0.191139285433E+03    0.40265E-02   -0.26612E-02  8520   0.363E-01    0.756E-02
DAV:   2    -0.191140291240E+03   -0.10058E-02   -0.28002E-03 12600   0.338E-01    0.303E-01
DAV:   3    -0.191139257009E+03    0.10342E-02   -0.16648E-03 10120   0.294E-01    0.379E-02
DAV:   4    -0.191139299857E+03   -0.42849E-04   -0.10110E-04  5760   0.727E-02
  10 F= -.19113930E+03 E0= -.19105795E+03  d E =0.391694E-02
       N       E                     dE             d eps       ncg     rms          rms(c)
DAV:   1    -0.191138586122E+03    0.67089E-03   -0.58756E+00  8160   0.517E+00    0.566E-01
DAV:   2    -0.191160917198E+03   -0.22331E-01   -0.15564E-01 13600   0.173E+00    0.124E+00
DAV:   3    -0.191145396536E+03    0.15521E-01   -0.39044E-02 11960   0.150E+00    0.495E-01
DAV:   4    -0.191144231502E+03    0.11650E-02   -0.85804E-03 11840   0.621E-01    0.385E-01
DAV:   5    -0.191142916226E+03    0.13153E-02   -0.58041E-03 11920   0.593E-01    0.302E-01
DAV:   6    -0.191142460085E+03    0.45614E-03   -0.34555E-03 12200   0.409E-01    0.188E-01
DAV:   7    -0.191141844874E+03    0.61521E-03   -0.98971E-04 10160   0.157E-01    0.384E-02
DAV:   8    -0.191141860872E+03   -0.15998E-04   -0.13220E-04  6480   0.710E-02
  11 F= -.19114186E+03 E0= -.19106017E+03  d E =-.256102E-02
       N       E                     dE             d eps       ncg     rms          rms(c)
DAV:   1    -0.191140072309E+03    0.17726E-02   -0.64157E-01  8160   0.172E+00    0.190E-01
DAV:   2    -0.191141614323E+03   -0.15420E-02   -0.15613E-02 13600   0.465E-01    0.325E-01
DAV:   3    -0.191140898516E+03    0.71581E-03   -0.42212E-03 11920   0.477E-01    0.222E-01
DAV:   4    -0.191140466496E+03    0.43202E-03   -0.11199E-03 10040   0.223E-01    0.950E-02
DAV:   5    -0.191140414781E+03    0.51715E-04   -0.49522E-04  9200   0.159E-01
  12 F= -.19114041E+03 E0= -.19105800E+03  d E =0.144609E-02
       N       E                     dE             d eps       ncg     rms          rms(c)
DAV:   1    -0.191146004953E+03   -0.55385E-02   -0.84486E+00  8160   0.626E+00    0.674E-01
DAV:   2    -0.191173606239E+03   -0.27601E-01   -0.20576E-01 13520   0.188E+00    0.139E+00
DAV:   3    -0.191155195469E+03    0.18411E-01   -0.53230E-02 12240   0.176E+00    0.590E-01
DAV:   4    -0.191153413198E+03    0.17823E-02   -0.10532E-02 12160   0.728E-01    0.464E-01
DAV:   5    -0.191151489473E+03    0.19237E-02   -0.70175E-03 12000   0.698E-01    0.301E-01
DAV:   6    -0.191151097254E+03    0.39222E-03   -0.33404E-03 12160   0.369E-01    0.176E-01
DAV:   7    -0.191150406308E+03    0.69095E-03   -0.10995E-03 10320   0.148E-01    0.468E-02
DAV:   8    -0.191150429286E+03   -0.22977E-04   -0.21299E-04  7440   0.911E-02
  13 F= -.19115043E+03 E0= -.19106422E+03  d E =-.100145E-01
       N       E                     dE             d eps       ncg     rms          rms(c)
DAV:   1    -0.191194967943E+03   -0.44562E-01   -0.48537E+01  8160   0.150E+01    0.180E+00
DAV:   2    -0.191562819372E+03   -0.36785E+00   -0.15387E+00 13520   0.678E+00    0.588E+00
DAV:   3    -0.191250633487E+03    0.31219E+00   -0.83488E-01 12080   0.640E+00    0.139E+00
DAV:   4    -0.191259977630E+03   -0.93441E-02   -0.11070E-01 12200   0.236E+00    0.171E+00
DAV:   5    -0.191227599230E+03    0.32378E-01   -0.67900E-02 12080   0.200E+00    0.722E-01
DAV:   6    -0.191224030212E+03    0.35690E-02   -0.25910E-02 12280   0.880E-01    0.531E-01
DAV:   7    -0.191226499972E+03   -0.24698E-02   -0.21712E-02 12240   0.105E+00    0.770E-01
DAV:   8    -0.191219790787E+03    0.67092E-02   -0.10044E-02 11720   0.718E-01    0.635E-02
DAV:   9    -0.191219870028E+03   -0.79241E-04   -0.54647E-04 10280   0.775E-02
  14 F= -.19121987E+03 E0= -.19113486E+03  d E =-.694407E-01
       N       E                     dE             d eps       ncg     rms          rms(c)
DAV:   1    -0.191304217765E+03   -0.84427E-01   -0.98932E+00  8160   0.663E+00    0.849E-01
DAV:   2    -0.191398080801E+03   -0.93863E-01   -0.38576E-01 13600   0.360E+00    0.269E+00
DAV:   3    -0.191316492464E+03    0.81588E-01   -0.15325E-01 12320   0.298E+00    0.475E-01
DAV:   4    -0.191315122407E+03    0.13701E-02   -0.11558E-02 11240   0.488E-01    0.393E-01
DAV:   5    -0.191314088436E+03    0.10340E-02   -0.69115E-03 12560   0.580E-01    0.406E-01
DAV:   6    -0.191313171040E+03    0.91740E-03   -0.53733E-03 12080   0.538E-01    0.243E-01
DAV:   7    -0.191312477514E+03    0.69353E-03   -0.16133E-03 11720   0.221E-01    0.508E-02
DAV:   8    -0.191312428878E+03    0.48636E-04   -0.20415E-04  7040   0.605E-02
  15 F= -.19131243E+03 E0= -.19122171E+03  d E =-.925589E-01
       N       E                     dE             d eps       ncg     rms          rms(c)
DAV:   1    -0.191126886141E+03    0.18559E+00   -0.37427E+01  8160   0.129E+01    0.159E+00
DAV:   2    -0.191412463442E+03   -0.28558E+00   -0.12560E+00 13320   0.610E+00    0.426E+00
DAV:   3    -0.191162667337E+03    0.24980E+00   -0.33989E-01 12280   0.476E+00    0.809E-01
DAV:   4    -0.191159748442E+03    0.29189E-02   -0.41044E-02 11800   0.896E-01    0.705E-01
DAV:   5    -0.191153744233E+03    0.60042E-02   -0.20411E-02 12400   0.894E-01    0.584E-01
DAV:   6    -0.191154995621E+03   -0.12514E-02   -0.18429E-02 12520   0.103E+00    0.634E-01
DAV:   7    -0.191150245502E+03    0.47501E-02   -0.76185E-03 11960   0.598E-01    0.876E-02
DAV:   8    -0.191150267450E+03   -0.21949E-04   -0.85620E-04 10480   0.147E-01
  16 F= -.19115027E+03 E0= -.19106846E+03  d E =0.162161E+00
       N       E                     dE             d eps       ncg     rms          rms(c)
DAV:   1    -0.191152538816E+03   -0.22933E-02   -0.10613E-02  9240   0.268E-01    0.911E-02
DAV:   2    -0.191154548283E+03   -0.20095E-02   -0.43879E-03 11240   0.477E-01    0.438E-01
DAV:   3    -0.191152425864E+03    0.21224E-02   -0.31294E-03 10120   0.413E-01    0.324E-02
DAV:   4    -0.191152449064E+03   -0.23199E-04   -0.59779E-05  5800   0.333E-02
  17 F= -.19115245E+03 E0= -.19107058E+03  d E =-.218161E-02
       N       E                     dE             d eps       ncg     rms          rms(c)
DAV:   1    -0.191153243902E+03   -0.81804E-03   -0.10788E-03  9440   0.732E-02    0.157E-02
DAV:   2    -0.191153277514E+03   -0.33612E-04   -0.71332E-05  6960   0.633E-02
  18 F= -.19115328E+03 E0= -.19107138E+03  d E =-.828450E-03
       N       E                     dE             d eps       ncg     rms          rms(c)
DAV:   1    -0.191099304878E+03    0.53939E-01   -0.32879E+00  8160   0.382E+00    0.529E-01
DAV:   2    -0.191139404435E+03   -0.40100E-01   -0.16580E-01 13480   0.247E+00    0.164E+00
DAV:   3    -0.191104925428E+03    0.34479E-01   -0.45447E-02 11960   0.176E+00    0.235E-01
DAV:   4    -0.191105230921E+03   -0.30549E-03   -0.42910E-03 11600   0.389E-01    0.313E-01
DAV:   5    -0.191104310139E+03    0.92078E-03   -0.24896E-03 11600   0.372E-01    0.154E-01
DAV:   6    -0.191104339301E+03   -0.29162E-04   -0.12703E-03 10360   0.200E-01    0.130E-01
DAV:   7    -0.191104144760E+03    0.19454E-03   -0.76215E-04 10640   0.152E-01    0.865E-02
DAV:   8    -0.191104080658E+03    0.64103E-04   -0.25494E-04  7680   0.116E-01
  19 F= -.19110408E+03 E0= -.19102345E+03  d E =0.491969E-01
       N       E                     dE             d eps       ncg     rms          rms(c)
DAV:   1    -0.191207961458E+03   -0.10382E+00   -0.13642E+01  8160   0.786E+00    0.113E+00
DAV:   2    -0.191364317195E+03   -0.15636E+00   -0.61382E-01 13520   0.470E+00    0.364E+00
DAV:   3    -0.191220597793E+03    0.14372E+00   -0.26627E-01 12240   0.395E+00    0.650E-01
DAV:   4    -0.191220694661E+03   -0.96868E-04   -0.28151E-02 12240   0.102E+00    0.819E-01
DAV:   5    -0.191215065292E+03    0.56294E-02   -0.20025E-02 11640   0.108E+00    0.532E-01
DAV:   6    -0.191212049016E+03    0.30163E-02   -0.94277E-03 11680   0.613E-01    0.217E-01
DAV:   7    -0.191211583279E+03    0.46574E-03   -0.31513E-03 11600   0.250E-01    0.137E-01
DAV:   8    -0.191211488764E+03    0.94515E-04   -0.13423E-03 10600   0.237E-01    0.147E-01
DAV:   9    -0.191211267228E+03    0.22154E-03   -0.51357E-04  8680   0.152E-01    0.388E-02
DAV:  10    -0.191211252565E+03    0.14663E-04   -0.75274E-05  5960   0.395E-02
  20 F= -.19121125E+03 E0= -.19112487E+03  d E =-.107172E+00
       N       E                     dE             d eps       ncg     rms          rms(c)
DAV:   1    -0.191216432885E+03   -0.51657E-02   -0.38293E+00  8160   0.412E+00    0.626E-01
DAV:   2    -0.191291654679E+03   -0.75222E-01   -0.21926E-01 13400   0.305E+00    0.262E+00
DAV:   3    -0.191220347183E+03    0.71307E-01   -0.12516E-01 11560   0.256E+00    0.444E-01
DAV:   4    -0.191219119770E+03    0.12274E-02   -0.91726E-03 11280   0.646E-01    0.366E-01
DAV:   5    -0.191218369046E+03    0.75072E-03   -0.55861E-03 12640   0.538E-01    0.288E-01
DAV:   6    -0.191217681442E+03    0.68760E-03   -0.22055E-03 10360   0.317E-01    0.183E-01
DAV:   7    -0.191217686200E+03   -0.47577E-05   -0.15793E-03 10560   0.299E-01    0.163E-01
DAV:   8    -0.191217347276E+03    0.33892E-03   -0.57097E-04  9120   0.155E-01    0.284E-02
DAV:   9    -0.191217349780E+03   -0.25045E-05   -0.56645E-05  6200   0.297E-02
  21 F= -.19121735E+03 E0= -.19112885E+03  d E =-.609721E-02
       N       E                     dE             d eps       ncg     rms          rms(c)
DAV:   1    -0.191279578014E+03   -0.62231E-01   -0.79678E+00  8160   0.594E+00    0.881E-01
DAV:   2    -0.191428206494E+03   -0.14863E+00   -0.46224E-01 13120   0.414E+00    0.383E+00
DAV:   3    -0.191292616052E+03    0.13559E+00   -0.27215E-01 11640   0.373E+00    0.482E-01
DAV:   4    -0.191293636116E+03   -0.10201E-02   -0.16414E-02 11360   0.864E-01    0.660E-01
DAV:   5    -0.191288925802E+03    0.47103E-02   -0.71520E-03 11400   0.647E-01    0.181E-01
DAV:   6    -0.191289213929E+03   -0.28813E-03   -0.30022E-03 12640   0.281E-01    0.240E-01
DAV:   7    -0.191289416869E+03   -0.20294E-03   -0.40614E-03 12240   0.427E-01    0.294E-01
DAV:   8    -0.191288492301E+03    0.92457E-03   -0.18703E-03  9840   0.288E-01    0.509E-02
DAV:   9    -0.191288475391E+03    0.16910E-04   -0.13908E-04  5720   0.523E-02
  22 F= -.19128848E+03 E0= -.19119856E+03  d E =-.711256E-01
       N       E                     dE             d eps       ncg     rms          rms(c)
DAV:   1    -0.191313978908E+03   -0.25487E-01   -0.88960E-01  8160   0.199E+00    0.286E-01
DAV:   2    -0.191326119592E+03   -0.12141E-01   -0.42381E-02 13560   0.133E+00    0.996E-01
DAV:   3    -0.191314774644E+03    0.11345E-01   -0.18056E-02 11880   0.105E+00    0.149E-01
DAV:   4    -0.191315174703E+03   -0.40006E-03   -0.21376E-03 10240   0.301E-01    0.242E-01
DAV:   5    -0.191314588338E+03    0.58637E-03   -0.13573E-03 10200   0.263E-01    0.907E-02
DAV:   6    -0.191314536261E+03    0.52077E-04   -0.35749E-04  7680   0.937E-02
  23 F= -.19131454E+03 E0= -.19122323E+03  d E =-.260609E-01
       N       E                     dE             d eps       ncg     rms          rms(c)
DAV:   1    -0.191373022382E+03   -0.58434E-01   -0.39222E+00  8160   0.422E+00    0.601E-01
DAV:   2    -0.191417621028E+03   -0.44599E-01   -0.17679E-01 13400   0.252E+00    0.198E+00
DAV:   3    -0.191376557907E+03    0.41063E-01   -0.78386E-02 12280   0.207E+00    0.386E-01
DAV:   4    -0.191377806822E+03   -0.12489E-02   -0.10621E-02 11720   0.716E-01    0.555E-01
DAV:   5    -0.191374670382E+03    0.31364E-02   -0.69082E-03 11080   0.630E-01    0.220E-01
DAV:   6    -0.191374233673E+03    0.43671E-03   -0.24969E-03 11080   0.267E-01    0.143E-01
DAV:   7    -0.191374555496E+03   -0.32182E-03   -0.22615E-03 10600   0.312E-01    0.239E-01
DAV:   8    -0.191373945866E+03    0.60963E-03   -0.11634E-03  8920   0.233E-01    0.372E-02
DAV:   9    -0.191373943653E+03    0.22136E-05   -0.75230E-05  5880   0.387E-02
  24 F= -.19137394E+03 E0= -.19127919E+03  d E =-.594074E-01
       N       E                     dE             d eps       ncg     rms          rms(c)
DAV:   1    -0.191348470394E+03    0.25475E-01   -0.53678E+00  8160   0.488E+00    0.702E-01
DAV:   2    -0.191423935009E+03   -0.75465E-01   -0.24958E-01 13600   0.319E+00    0.246E+00
DAV:   3    -0.191353423566E+03    0.70511E-01   -0.11888E-01 12240   0.258E+00    0.520E-01
DAV:   4    -0.191353237806E+03    0.18576E-03   -0.14686E-02 10960   0.840E-01    0.530E-01
DAV:   5    -0.191350670554E+03    0.25673E-02   -0.78708E-03 12400   0.615E-01    0.241E-01
DAV:   6    -0.191350357743E+03    0.31281E-03   -0.26567E-03 11840   0.329E-01    0.220E-01
DAV:   7    -0.191350450940E+03   -0.93197E-04   -0.24135E-03 10640   0.372E-01    0.218E-01
DAV:   8    -0.191349871797E+03    0.57914E-03   -0.91143E-04  9800   0.200E-01    0.306E-02
DAV:   9    -0.191349874433E+03   -0.26359E-05   -0.72051E-05  6320   0.317E-02
  25 F= -.19134987E+03 E0= -.19125577E+03  d E =0.240692E-01
       N       E                     dE             d eps       ncg     rms          rms(c)
DAV:   1    -0.191443707116E+03   -0.93835E-01   -0.14042E+01  8160   0.788E+00    0.104E+00
DAV:   2    -0.191607647876E+03   -0.16394E+00   -0.58200E-01 13520   0.474E+00    0.380E+00
DAV:   3    -0.191461470126E+03    0.14618E+00   -0.29070E-01 12320   0.404E+00    0.693E-01
DAV:   4    -0.191465511108E+03   -0.40410E-02   -0.36971E-02 11440   0.128E+00    0.959E-01
DAV:   5    -0.191455428916E+03    0.10082E-01   -0.17057E-02 11120   0.941E-01    0.268E-01
DAV:   6    -0.191455321983E+03    0.10693E-03   -0.47399E-03 11480   0.299E-01    0.225E-01
DAV:   7    -0.191455430728E+03   -0.10875E-03   -0.40010E-03 12920   0.407E-01    0.307E-01
DAV:   8    -0.191454465751E+03    0.96498E-03   -0.18872E-03 10120   0.313E-01    0.605E-02
DAV:   9    -0.191454443202E+03    0.22550E-04   -0.13303E-04  5800   0.575E-02
  26 F= -.19145444E+03 E0= -.19135726E+03  d E =-.104569E+00
       N       E                     dE             d eps       ncg     rms          rms(c)
DAV:   1    -0.191196488276E+03    0.25798E+00   -0.55388E+01  8160   0.157E+01    0.202E+00
DAV:   2    -0.191704647890E+03   -0.50816E+00   -0.20928E+00 13360   0.843E+00    0.550E+00
DAV:   3    -0.191254343168E+03    0.45030E+00   -0.51892E-01 12240   0.610E+00    0.844E-01
DAV:   4    -0.191251257333E+03    0.30858E-02   -0.50904E-02 12080   0.106E+00    0.861E-01
DAV:   5    -0.191247627025E+03    0.36303E-02   -0.34291E-02 12440   0.137E+00    0.848E-01
DAV:   6    -0.191244265916E+03    0.33611E-02   -0.25275E-02 12720   0.112E+00    0.515E-01
DAV:   7    -0.191240250426E+03    0.40155E-02   -0.85465E-03 12520   0.491E-01    0.180E-01
DAV:   8    -0.191240291708E+03   -0.41282E-04   -0.23432E-03 12120   0.311E-01    0.196E-01
DAV:   9    -0.191239949487E+03    0.34222E-03   -0.10087E-03 10600   0.211E-01    0.647E-02
DAV:  10    -0.191239876432E+03    0.73055E-04   -0.17230E-04  6440   0.599E-02
  27 F= -.19123988E+03 E0= -.19115008E+03  d E =0.214567E+00
       N       E                     dE             d eps       ncg     rms          rms(c)
DAV:   1    -0.191274240323E+03   -0.34291E-01   -0.24989E+00  8160   0.343E+00    0.493E-01
DAV:   2    -0.191294047174E+03   -0.19807E-01   -0.10656E-01 13320   0.169E+00    0.140E+00
DAV:   3    -0.191275882704E+03    0.18164E-01   -0.49847E-02 11640   0.152E+00    0.415E-01
DAV:   4    -0.191275600837E+03    0.28187E-03   -0.89075E-03 11600   0.640E-01    0.426E-01
DAV:   5    -0.191273935036E+03    0.16658E-02   -0.57003E-03 11200   0.585E-01    0.257E-01
DAV:   6    -0.191273165673E+03    0.76936E-03   -0.23408E-03 11200   0.285E-01    0.106E-01
DAV:   7    -0.191273252486E+03   -0.86814E-04   -0.95606E-04 10200   0.210E-01
  28 F= -.19127325E+03 E0= -.19118067E+03  d E =-.333761E-01
       N       E                     dE             d eps       ncg     rms          rms(c)
DAV:   1    -0.191125389624E+03    0.14778E+00   -0.40854E+01  8160   0.134E+01    0.168E+00
DAV:   2    -0.191462979597E+03   -0.33759E+00   -0.13946E+00 13440   0.694E+00    0.454E+00
DAV:   3    -0.191164508053E+03    0.29847E+00   -0.34554E-01 11760   0.506E+00    0.752E-01
DAV:   4    -0.191164230443E+03    0.27761E-03   -0.40120E-02 12280   0.110E+00    0.906E-01
DAV:   5    -0.191158637671E+03    0.55928E-02   -0.31481E-02 11880   0.131E+00    0.657E-01
DAV:   6    -0.191156697148E+03    0.19405E-02   -0.16331E-02 12240   0.778E-01    0.405E-01
DAV:   7    -0.191154439182E+03    0.22580E-02   -0.63000E-03 12320   0.444E-01    0.254E-01
DAV:   8    -0.191153921144E+03    0.51804E-03   -0.19589E-03 11600   0.330E-01    0.122E-01
DAV:   9    -0.191153790358E+03    0.13079E-03   -0.47083E-04  9040   0.136E-01    0.489E-02
DAV:  10    -0.191153740747E+03    0.49610E-04   -0.14378E-04  6880   0.491E-02
  29 F= -.19115374E+03 E0= -.19106374E+03  d E =0.119512E+00
       N       E                     dE             d eps       ncg     rms          rms(c)
DAV:   1    -0.191260570930E+03   -0.10678E+00   -0.34289E+01  8160   0.124E+01    0.156E+00
DAV:   2    -0.191577434419E+03   -0.31686E+00   -0.13115E+00 13360   0.671E+00    0.502E+00
DAV:   3    -0.191308940231E+03    0.26849E+00   -0.51331E-01 12280   0.571E+00    0.916E-01
DAV:   4    -0.191310009193E+03   -0.10690E-02   -0.56045E-02 11920   0.146E+00    0.115E+00
DAV:   5    -0.191297612352E+03    0.12397E-01   -0.39163E-02 11440   0.143E+00    0.615E-01
DAV:   6    -0.191294580568E+03    0.30318E-02   -0.15810E-02 11400   0.669E-01    0.312E-01
DAV:   7    -0.191293604743E+03    0.97582E-03   -0.59603E-03 11840   0.370E-01    0.251E-01
DAV:   8    -0.191293050671E+03    0.55407E-03   -0.21716E-03 11480   0.344E-01    0.146E-01
DAV:   9    -0.191292843962E+03    0.20671E-03   -0.56968E-04  8720   0.158E-01    0.528E-02
DAV:  10    -0.191292789754E+03    0.54208E-04   -0.14162E-04  6720   0.510E-02
  30 F= -.19129279E+03 E0= -.19119825E+03  d E =-.139049E+00
       N       E                     dE             d eps       ncg     rms          rms(c)
DAV:   1    -0.191315504429E+03   -0.22660E-01   -0.65302E-01  8160   0.171E+00    0.204E-01
DAV:   2    -0.191319663023E+03   -0.41586E-02   -0.20786E-02 13320   0.786E-01    0.552E-01
DAV:   3    -0.191316095815E+03    0.35672E-02   -0.66136E-03 11560   0.634E-01    0.130E-01
DAV:   4    -0.191316182297E+03   -0.86482E-04   -0.12044E-03  9880   0.210E-01    0.164E-01
DAV:   5    -0.191315974541E+03    0.20776E-03   -0.92481E-04  8960   0.220E-01    0.104E-01
DAV:   6    -0.191315872948E+03    0.10159E-03   -0.33858E-04  7640   0.116E-01    0.380E-02
DAV:   7    -0.191315874805E+03   -0.18572E-05   -0.12036E-04  6480   0.661E-02
  31 F= -.19131587E+03 E0= -.19122039E+03  d E =-.230851E-01
       N       E                     dE             d eps       ncg     rms          rms(c)
DAV:   1    -0.191166071602E+03    0.14980E+00   -0.20223E+01  8160   0.953E+00    0.111E+00
DAV:   2    -0.191285476615E+03   -0.11941E+00   -0.67743E-01 13280   0.405E+00    0.269E+00
DAV:   3    -0.191193506477E+03    0.91970E-01   -0.15703E-01 12240   0.316E+00    0.684E-01
DAV:   4    -0.191191775263E+03    0.17312E-02   -0.25926E-02 11800   0.909E-01    0.681E-01
DAV:   5    -0.191188741445E+03    0.30338E-02   -0.18333E-02 12600   0.991E-01    0.551E-01
DAV:   6    -0.191186778788E+03    0.19627E-02   -0.10613E-02 12520   0.666E-01    0.275E-01
DAV:   7    -0.191185653137E+03    0.11257E-02   -0.33151E-03 12080   0.267E-01    0.113E-01
DAV:   8    -0.191185597005E+03    0.56131E-04   -0.75329E-04 11160   0.186E-01
  32 F= -.19118560E+03 E0= -.19109594E+03  d E =0.130278E+00
       N       E                     dE             d eps       ncg     rms          rms(c)
DAV:   1    -0.191218908299E+03   -0.33255E-01   -0.15215E+00  8160   0.263E+00    0.363E-01
DAV:   2    -0.191232995407E+03   -0.14087E-01   -0.79860E-02 13600   0.143E+00    0.958E-01
DAV:   3    -0.191222374962E+03    0.10620E-01   -0.20649E-02 12240   0.112E+00    0.226E-01
DAV:   4    -0.191222036973E+03    0.33799E-03   -0.26849E-03 11640   0.277E-01    0.204E-01
DAV:   5    -0.191221823595E+03    0.21338E-03   -0.19802E-03 11200   0.312E-01    0.187E-01
DAV:   6    -0.191221571581E+03    0.25201E-03   -0.12090E-03  9720   0.225E-01    0.867E-02
DAV:   7    -0.191221468655E+03    0.10293E-03   -0.39952E-04  8320   0.874E-02    0.320E-02
DAV:   8    -0.191221460799E+03    0.78559E-05   -0.66362E-05  6880   0.523E-02
  33 F= -.19122146E+03 E0= -.19113024E+03  d E =-.358638E-01
       N       E                     dE             d eps       ncg     rms          rms(c)
DAV:   1    -0.191076492711E+03    0.14498E+00   -0.37489E+01  8160   0.130E+01    0.145E+00
DAV:   2    -0.191252613068E+03   -0.17612E+00   -0.10517E+00 13360   0.482E+00    0.327E+00
DAV:   3    -0.191115432113E+03    0.13718E+00   -0.24118E-01 12240   0.389E+00    0.967E-01
DAV:   4    -0.191114078154E+03    0.13540E-02   -0.50614E-02 11680   0.131E+00    0.971E-01
DAV:   5    -0.191105895383E+03    0.81828E-02   -0.33771E-02 12280   0.135E+00    0.725E-01
DAV:   6    -0.191102893136E+03    0.30022E-02   -0.19582E-02 12760   0.962E-01    0.425E-01
DAV:   7    -0.191100172229E+03    0.27209E-02   -0.54060E-03 12640   0.386E-01    0.990E-02
DAV:   8    -0.191100298488E+03   -0.12626E-03   -0.98259E-04 10880   0.210E-01    0.144E-01
DAV:   9    -0.191100109592E+03    0.18890E-03   -0.47686E-04  9040   0.169E-01    0.562E-02
DAV:  10    -0.191100075660E+03    0.33932E-04   -0.10912E-04  6320   0.571E-02
  34 F= -.19110008E+03 E0= -.19101487E+03  d E =0.121385E+00
       N       E                     dE             d eps       ncg     rms          rms(c)
DAV:   1    -0.191100232281E+03   -0.12269E-03   -0.14643E+00  8160   0.256E+00    0.274E-01
DAV:   2    -0.191104382190E+03   -0.41499E-02   -0.33109E-02 13520   0.729E-01    0.530E-01
DAV:   3    -0.191101961653E+03    0.24205E-02   -0.10601E-02 11360   0.739E-01    0.325E-01
DAV:   4    -0.191101118642E+03    0.84301E-03   -0.30169E-03 11280   0.351E-01    0.148E-01
DAV:   5    -0.191100735730E+03    0.38291E-03   -0.82220E-04 10600   0.126E-01    0.592E-02
DAV:   6    -0.191100765737E+03   -0.30006E-04   -0.34206E-04  9160   0.898E-02
  35 F= -.19110077E+03 E0= -.19101514E+03  d E =-.690077E-03
       N       E                     dE             d eps       ncg     rms          rms(c)
DAV:   1    -0.191156990964E+03   -0.56255E-01   -0.87909E+00  8160   0.632E+00    0.756E-01
DAV:   2    -0.191207076005E+03   -0.50085E-01   -0.29723E-01 13600   0.265E+00    0.190E+00
DAV:   3    -0.191169891527E+03    0.37184E-01   -0.10062E-01 12320   0.232E+00    0.654E-01
DAV:   4    -0.191168135272E+03    0.17563E-02   -0.19774E-02 11560   0.909E-01    0.588E-01
DAV:   5    -0.191165297748E+03    0.28375E-02   -0.11255E-02 11640   0.803E-01    0.408E-01
DAV:   6    -0.191163546735E+03    0.17510E-02   -0.54906E-03 11920   0.471E-01    0.171E-01
DAV:   7    -0.191163328927E+03    0.21781E-03   -0.17818E-03 11720   0.169E-01    0.831E-02
DAV:   8    -0.191163135880E+03    0.19305E-03   -0.38322E-04  9800   0.734E-02    0.257E-02
DAV:   9    -0.191163132475E+03    0.34046E-05   -0.74711E-05  6480   0.291E-02
  36 F= -.19116313E+03 E0= -.19107478E+03  d E =-.623667E-01
       N       E                     dE             d eps       ncg     rms          rms(c)
DAV:   1    -0.191178804768E+03   -0.15669E-01   -0.21942E+00  8160   0.313E+00    0.377E-01
DAV:   2    -0.191193427718E+03   -0.14623E-01   -0.68152E-02 13600   0.140E+00    0.109E+00
DAV:   3    -0.191180779275E+03    0.12648E-01   -0.26010E-02 11840   0.120E+00    0.282E-01
DAV:   4    -0.191181142805E+03   -0.36353E-03   -0.50558E-03 11560   0.467E-01    0.339E-01
DAV:   5    -0.191180076282E+03    0.10665E-02   -0.32155E-03 11400   0.426E-01    0.175E-01
DAV:   6    -0.191179754826E+03    0.32146E-03   -0.10376E-03 10280   0.191E-01    0.703E-02
DAV:   7    -0.191179704701E+03    0.50126E-04   -0.28969E-04  8000   0.681E-02
  37 F= -.19117970E+03 E0= -.19109103E+03  d E =-.165722E-01
       N       E                     dE             d eps       ncg     rms          rms(c)
DAV:   1    -0.191191287929E+03   -0.11533E-01   -0.31512E+00  8160   0.374E+00    0.401E-01
DAV:   2    -0.191203026435E+03   -0.11739E-01   -0.73684E-02 13240   0.115E+00    0.934E-01
DAV:   3    -0.191194762259E+03    0.82642E-02   -0.26541E-02 12040   0.116E+00    0.406E-01
DAV:   4    -0.191194063585E+03    0.69867E-03   -0.60833E-03 11000   0.481E-01    0.294E-01
DAV:   5    -0.191193309135E+03    0.75445E-03   -0.31441E-03 11280   0.421E-01    0.218E-01
DAV:   6    -0.191192924884E+03    0.38425E-03   -0.15893E-03 11320   0.287E-01    0.111E-01
DAV:   7    -0.191192860044E+03    0.64840E-04   -0.56890E-04 10000   0.145E-01
  38 F= -.19119286E+03 E0= -.19110395E+03  d E =-.131553E-01
       N       E                     dE             d eps       ncg     rms          rms(c)
DAV:   1    -0.191246759966E+03   -0.53835E-01   -0.49506E+00  8160   0.470E+00    0.546E-01
DAV:   2    -0.191277835289E+03   -0.31075E-01   -0.15714E-01 13600   0.208E+00    0.150E+00
DAV:   3    -0.191252775542E+03    0.25060E-01   -0.54535E-02 12320   0.177E+00    0.401E-01
DAV:   4    -0.191252671818E+03    0.10372E-03   -0.90391E-03 11560   0.585E-01    0.427E-01
DAV:   5    -0.191251128077E+03    0.15437E-02   -0.57531E-03 11360   0.551E-01    0.262E-01
DAV:   6    -0.191250467879E+03    0.66020E-03   -0.24027E-03 11080   0.284E-01    0.116E-01
DAV:   7    -0.191250370493E+03    0.97386E-04   -0.79603E-04 10640   0.111E-01
  39 F= -.19125037E+03 E0= -.19115960E+03  d E =-.575104E-01
       N       E                     dE             d eps       ncg     rms          rms(c)
DAV:   1    -0.191096844507E+03    0.15362E+00   -0.26849E+01  8160   0.109E+01    0.132E+00
DAV:   2    -0.191295401911E+03   -0.19856E+00   -0.89133E-01 13080   0.518E+00    0.355E+00
DAV:   3    -0.191124014448E+03    0.17139E+00   -0.24234E-01 12320   0.400E+00    0.689E-01
DAV:   4    -0.191121689940E+03    0.23245E-02   -0.27804E-02 11880   0.793E-01    0.608E-01
DAV:   5    -0.191118299712E+03    0.33902E-02   -0.14924E-02 11840   0.858E-01    0.534E-01
DAV:   6    -0.191117868786E+03    0.43093E-03   -0.11981E-02 12160   0.834E-01    0.435E-01
DAV:   7    -0.191115433929E+03    0.24349E-02   -0.44299E-03 12320   0.421E-01    0.943E-02
DAV:   8    -0.191115393963E+03    0.39966E-04   -0.74097E-04 10600   0.150E-01
  40 F= -.19111539E+03 E0= -.19102858E+03  d E =0.134977E+00
       N       E                     dE             d eps       ncg     rms          rms(c)
DAV:   1    -0.191091747760E+03    0.23686E-01   -0.64524E+00  8160   0.538E+00    0.571E-01
DAV:   2    -0.191112967122E+03   -0.21219E-01   -0.15333E-01 13600   0.153E+00    0.120E+00
DAV:   3    -0.191100013109E+03    0.12954E-01   -0.48633E-02 12400   0.160E+00    0.644E-01
DAV:   4    -0.191096876867E+03    0.31362E-02   -0.12273E-02 11720   0.684E-01    0.346E-01
DAV:   5    -0.191095598475E+03    0.12784E-02   -0.48218E-03 12520   0.479E-01    0.281E-01
DAV:   6    -0.191095363769E+03    0.23471E-03   -0.35612E-03 11840   0.453E-01    0.234E-01
DAV:   7    -0.191094844986E+03    0.51878E-03   -0.16043E-03 11320   0.263E-01    0.111E-01
DAV:   8    -0.191094756732E+03    0.88254E-04   -0.47671E-04  8960   0.170E-01
  41 F= -.19109476E+03 E0= -.19100799E+03  d E =0.206372E-01
       N       E                     dE             d eps       ncg     rms          rms(c)
DAV:   1    -0.191140079760E+03   -0.45235E-01   -0.44276E+00  8160   0.444E+00    0.513E-01
DAV:   2    -0.191165757754E+03   -0.25678E-01   -0.14313E-01 13280   0.175E+00    0.126E+00
DAV:   3    -0.191146939373E+03    0.18818E-01   -0.41800E-02 12320   0.158E+00    0.413E-01
DAV:   4    -0.191145611837E+03    0.13275E-02   -0.62080E-03 11040   0.431E-01    0.250E-01
DAV:   5    -0.191145268962E+03    0.34287E-03   -0.32264E-03 11720   0.388E-01    0.273E-01
DAV:   6    -0.191144821301E+03    0.44766E-03   -0.24374E-03 10520   0.355E-01    0.159E-01
DAV:   7    -0.191144602827E+03    0.21847E-03   -0.84737E-04 10480   0.160E-01    0.560E-02
DAV:   8    -0.191144547436E+03    0.55391E-04   -0.14183E-04  6600   0.687E-02
  42 F= -.19114455E+03 E0= -.19105614E+03  d E =-.497907E-01
       N       E                     dE             d eps       ncg     rms          rms(c)
DAV:   1    -0.191152366682E+03   -0.77639E-02   -0.23171E-01  8160   0.102E+00    0.114E-01
DAV:   2    -0.191153394747E+03   -0.10281E-02   -0.59426E-03 13600   0.348E-01    0.277E-01
DAV:   3    -0.191152581634E+03    0.81311E-03   -0.19729E-03 10640   0.327E-01    0.103E-01
DAV:   4    -0.191152578866E+03    0.27677E-05   -0.46749E-04  8520   0.139E-01
  43 F= -.19115258E+03 E0= -.19106376E+03  d E =-.803143E-02
       N       E                     dE             d eps       ncg     rms          rms(c)
DAV:   1    -0.191109098389E+03    0.43483E-01   -0.70127E+00  8160   0.558E+00    0.582E-01
DAV:   2    -0.191135678389E+03   -0.26580E-01   -0.15424E-01 13600   0.177E+00    0.130E+00
DAV:   3    -0.191114593644E+03    0.21085E-01   -0.40613E-02 12240   0.158E+00    0.422E-01
DAV:   4    -0.191113668270E+03    0.92537E-03   -0.77982E-03 12000   0.505E-01    0.279E-01
DAV:   5    -0.191112397799E+03    0.12705E-02   -0.36371E-03 12000   0.336E-01    0.191E-01
DAV:   6    -0.191113020444E+03   -0.62265E-03   -0.29009E-03 11000   0.423E-01    0.296E-01
DAV:   7    -0.191112081144E+03    0.93930E-03   -0.13715E-03 10000   0.284E-01    0.518E-02
DAV:   8    -0.191112066194E+03    0.14950E-04   -0.15109E-04  6160   0.749E-02
  44 F= -.19111207E+03 E0= -.19102492E+03  d E =0.405127E-01
       N       E                     dE             d eps       ncg     rms          rms(c)
DAV:   1    -0.191099041509E+03    0.13040E-01   -0.16390E+00  8160   0.270E+00    0.280E-01
DAV:   2    -0.191104149610E+03   -0.51081E-02   -0.35508E-02 13600   0.811E-01    0.570E-01
DAV:   3    -0.191100541106E+03    0.36085E-02   -0.92187E-03 12120   0.730E-01    0.251E-01
DAV:   4    -0.191100467689E+03    0.73416E-04   -0.27825E-03 11200   0.341E-01    0.219E-01
DAV:   5    -0.191100118559E+03    0.34913E-03   -0.17928E-03 10560   0.314E-01    0.172E-01
DAV:   6    -0.191099856463E+03    0.26210E-03   -0.81867E-04  9480   0.207E-01    0.691E-02
DAV:   7    -0.191099836574E+03    0.19888E-04   -0.18472E-04  6640   0.849E-02
  45 F= -.19109984E+03 E0= -.19101300E+03  d E =0.122296E-01
       N       E                     dE             d eps       ncg     rms          rms(c)
DAV:   1    -0.191152781783E+03   -0.52925E-01   -0.65970E+00  8160   0.542E+00    0.689E-01
DAV:   2    -0.191204910270E+03   -0.52128E-01   -0.22410E-01 13440   0.272E+00    0.201E+00
DAV:   3    -0.191158231840E+03    0.46678E-01   -0.84279E-02 12320   0.226E+00    0.409E-01
DAV:   4    -0.191157421509E+03    0.81033E-03   -0.94406E-03 11240   0.477E-01    0.367E-01
DAV:   5    -0.191156759423E+03    0.66209E-03   -0.66118E-03 11840   0.578E-01    0.385E-01
DAV:   6    -0.191155551777E+03    0.12076E-02   -0.44285E-03 11520   0.477E-01    0.173E-01
DAV:   7    -0.191155341656E+03    0.21012E-03   -0.13061E-03 10480   0.200E-01    0.110E-01
DAV:   8    -0.191155232429E+03    0.10923E-03   -0.49115E-04  9320   0.166E-01    0.838E-02
DAV:   9    -0.191155162277E+03    0.70152E-04   -0.14381E-04  5960   0.935E-02
  46 F= -.19115516E+03 E0= -.19106617E+03  d E =-.553257E-01
       N       E                     dE             d eps       ncg     rms          rms(c)
DAV:   1    -0.191172116960E+03   -0.16885E-01   -0.71724E-01  8160   0.178E+00    0.186E-01
DAV:   2    -0.191174469937E+03   -0.23530E-02   -0.17578E-02 13520   0.475E-01    0.353E-01
DAV:   3    -0.191173112138E+03    0.13578E-02   -0.44875E-03 12240   0.503E-01    0.198E-01
DAV:   4    -0.191172836672E+03    0.27547E-03   -0.11110E-03  9920   0.209E-01    0.114E-01
DAV:   5    -0.191172755609E+03    0.81063E-04   -0.55284E-04  8520   0.172E-01
  47 F= -.19117276E+03 E0= -.19108333E+03  d E =-.175933E-01
       N       E                     dE             d eps       ncg     rms          rms(c)
DAV:   1    -0.191196151239E+03   -0.23315E-01   -0.17829E+00  8160   0.282E+00    0.336E-01
DAV:   2    -0.191207390278E+03   -0.11239E-01   -0.49849E-02 13480   0.109E+00    0.917E-01
DAV:   3    -0.191197700772E+03    0.96895E-02   -0.19548E-02 12120   0.107E+00    0.269E-01
DAV:   4    -0.191197745122E+03   -0.44351E-04   -0.37534E-03 11080   0.377E-01    0.267E-01
DAV:   5    -0.191197183760E+03    0.56136E-03   -0.22917E-03 10520   0.358E-01    0.171E-01
DAV:   6    -0.191196903363E+03    0.28040E-03   -0.92514E-04 10120   0.194E-01    0.745E-02
DAV:   7    -0.191196957235E+03   -0.53872E-04   -0.40373E-04  9120   0.133E-01
  48 F= -.19119696E+03 E0= -.19110660E+03  d E =-.242016E-01
       N       E                     dE             d eps       ncg     rms          rms(c)
DAV:   1    -0.191225450402E+03   -0.28547E-01   -0.25577E+00  8160   0.337E+00    0.387E-01
DAV:   2    -0.191241050343E+03   -0.15600E-01   -0.75021E-02 13600   0.149E+00    0.111E+00
DAV:   3    -0.191227946009E+03    0.13104E-01   -0.27986E-02 12040   0.125E+00    0.297E-01
DAV:   4    -0.191228184675E+03   -0.23867E-03   -0.52331E-03 11480   0.482E-01    0.342E-01
DAV:   5    -0.191227097661E+03    0.10870E-02   -0.31565E-03 11200   0.423E-01    0.183E-01
DAV:   6    -0.191226784359E+03    0.31330E-03   -0.12922E-03 10080   0.200E-01    0.883E-02
DAV:   7    -0.191226785118E+03   -0.75817E-06   -0.47993E-04  9360   0.137E-01
  49 F= -.19122679E+03 E0= -.19113554E+03  d E =-.298279E-01
       N       E                     dE             d eps       ncg     rms          rms(c)
DAV:   1    -0.191253026007E+03   -0.26242E-01   -0.28491E+00  8160   0.357E+00    0.424E-01
DAV:   2    -0.191270570542E+03   -0.17545E-01   -0.83590E-02 13600   0.156E+00    0.119E+00
DAV:   3    -0.191255421978E+03    0.15149E-01   -0.31922E-02 12280   0.132E+00    0.315E-01
DAV:   4    -0.191256071554E+03   -0.64958E-03   -0.68859E-03 11400   0.541E-01    0.411E-01
DAV:   5    -0.191254513899E+03    0.15577E-02   -0.45524E-03 11400   0.498E-01    0.193E-01
DAV:   6    -0.191254103268E+03    0.41063E-03   -0.13792E-03 10240   0.214E-01    0.766E-02
DAV:   7    -0.191254049371E+03    0.53897E-04   -0.39582E-04  8840   0.865E-02
  50 F= -.19125405E+03 E0= -.19116141E+03  d E =-.272643E-01
       N       E                     dE             d eps       ncg     rms          rms(c)
DAV:   1    -0.191299174359E+03   -0.45071E-01   -0.38130E+00  8160   0.410E+00    0.439E-01
DAV:   2    -0.191317104480E+03   -0.17930E-01   -0.97338E-02 13400   0.141E+00    0.111E+00
DAV:   3    -0.191303483335E+03    0.13621E-01   -0.34005E-02 12280   0.138E+00    0.383E-01
DAV:   4    -0.191303391048E+03    0.92287E-04   -0.70400E-03 11120   0.522E-01    0.378E-01
DAV:   5    -0.191302025704E+03    0.13653E-02   -0.37775E-03 11200   0.451E-01    0.195E-01
DAV:   6    -0.191301783886E+03    0.24182E-03   -0.16003E-03 10320   0.222E-01    0.118E-01
DAV:   7    -0.191301629697E+03    0.15419E-03   -0.62311E-04 11440   0.118E-01    0.519E-02
DAV:   8    -0.191301631961E+03   -0.22641E-05   -0.15444E-04  6360   0.995E-02
  51 F= -.19130163E+03 E0= -.19120826E+03  d E =-.475826E-01
       N       E                     dE             d eps       ncg     rms          rms(c)
DAV:   1    -0.191307254476E+03   -0.56248E-02   -0.18744E+00  8160   0.289E+00    0.304E-01
DAV:   2    -0.191312427461E+03   -0.51730E-02   -0.41784E-02 13600   0.806E-01    0.590E-01
DAV:   3    -0.191309549518E+03    0.28779E-02   -0.14256E-02 11600   0.810E-01    0.371E-01
DAV:   4    -0.191308499186E+03    0.10503E-02   -0.42241E-03 10920   0.401E-01    0.169E-01
DAV:   5    -0.191308053981E+03    0.44521E-03   -0.11701E-03 10240   0.172E-01    0.973E-02
DAV:   6    -0.191308341529E+03   -0.28755E-03   -0.10585E-03 11520   0.247E-01    0.182E-01
DAV:   7    -0.191307995547E+03    0.34598E-03   -0.56122E-04  8640   0.186E-01    0.375E-02
DAV:   8    -0.191307989358E+03    0.61890E-05   -0.64739E-05  5720   0.491E-02
  52 F= -.19130799E+03 E0= -.19121423E+03  d E =-.635740E-02
       N       E                     dE             d eps       ncg     rms          rms(c)
DAV:   1    -0.191374023794E+03   -0.66028E-01   -0.79174E+00  8160   0.594E+00    0.719E-01
DAV:   2    -0.191431904733E+03   -0.57881E-01   -0.25331E-01 13600   0.291E+00    0.217E+00
DAV:   3    -0.191381286044E+03    0.50619E-01   -0.10440E-01 12280   0.243E+00    0.498E-01
DAV:   4    -0.191382582530E+03   -0.12965E-02   -0.17721E-02 11840   0.866E-01    0.649E-01
DAV:   5    -0.191378666768E+03    0.39158E-02   -0.11636E-02 12000   0.786E-01    0.326E-01
DAV:   6    -0.191377546237E+03    0.11205E-02   -0.40262E-03 10800   0.332E-01    0.140E-01
DAV:   7    -0.191377356738E+03    0.18950E-03   -0.11555E-03 11280   0.156E-01    0.101E-01
DAV:   8    -0.191377281894E+03    0.74844E-04   -0.40515E-04  9040   0.149E-01
  53 F= -.19137728E+03 E0= -.19128299E+03  d E =-.692925E-01
       N       E                     dE             d eps       ncg     rms          rms(c)
DAV:   1    -0.191408658251E+03   -0.31302E-01   -0.23158E+00  8160   0.321E+00    0.370E-01
DAV:   2    -0.191421396068E+03   -0.12738E-01   -0.67219E-02 13400   0.135E+00    0.962E-01
DAV:   3    -0.191411038506E+03    0.10358E-01   -0.21642E-02 12440   0.113E+00    0.266E-01
DAV:   4    -0.191411234306E+03   -0.19580E-03   -0.43843E-03 11000   0.409E-01    0.310E-01
DAV:   5    -0.191410473685E+03    0.76062E-03   -0.33193E-03 10880   0.411E-01    0.193E-01
DAV:   6    -0.191410122124E+03    0.35156E-03   -0.11687E-03 10080   0.211E-01    0.745E-02
DAV:   7    -0.191410067272E+03    0.54852E-04   -0.30279E-04  7800   0.741E-02
  54 F= -.19141007E+03 E0= -.19131510E+03  d E =-.327854E-01
       N       E                     dE             d eps       ncg     rms          rms(c)
DAV:   1    -0.191432384333E+03   -0.22262E-01   -0.55403E+00  8160   0.497E+00    0.521E-01
DAV:   2    -0.191447219698E+03   -0.14835E-01   -0.12107E-01 13560   0.129E+00    0.102E+00
DAV:   3    -0.191438948588E+03    0.82711E-02   -0.43169E-02 11880   0.141E+00    0.626E-01
DAV:   4    -0.191435972757E+03    0.29758E-02   -0.11615E-02 11320   0.666E-01    0.287E-01
DAV:   5    -0.191434357961E+03    0.16148E-02   -0.33629E-03 10440   0.255E-01    0.105E-01
DAV:   6    -0.191434470807E+03   -0.11285E-03   -0.11786E-03 12640   0.172E-01    0.115E-01
DAV:   7    -0.191434395030E+03    0.75777E-04   -0.59187E-04 10080   0.192E-01
  55 F= -.19143440E+03 E0= -.19134071E+03  d E =-.243278E-01
       N       E                     dE             d eps       ncg     rms          rms(c)
DAV:   1    -0.191417249145E+03    0.17222E-01   -0.26028E-01  8160   0.110E+00    0.148E-01
DAV:   2    -0.191419853512E+03   -0.26044E-02   -0.10903E-02 13360   0.629E-01    0.444E-01
DAV:   3    -0.191417464967E+03    0.23885E-02   -0.39055E-03 11640   0.494E-01    0.810E-02
DAV:   4    -0.191417561821E+03   -0.96854E-04   -0.59618E-04  8560   0.156E-01
  56 F= -.19141756E+03 E0= -.19132376E+03  d E =0.168332E-01
       N       E                     dE             d eps       ncg     rms          rms(c)
DAV:   1    -0.191429512676E+03   -0.12048E-01   -0.89363E-01  8160   0.206E+00    0.364E-01
DAV:   2    -0.191436779294E+03   -0.72666E-02   -0.45990E-02 12880   0.107E+00    0.889E-01
DAV:   3    -0.191429036239E+03    0.77431E-02   -0.23688E-02 12280   0.109E+00    0.345E-01
DAV:   4    -0.191428035075E+03    0.10012E-02   -0.44977E-03 10920   0.375E-01    0.205E-01
DAV:   5    -0.191427792274E+03    0.24280E-03   -0.25883E-03 10800   0.348E-01    0.219E-01
DAV:   6    -0.191427385215E+03    0.40706E-03   -0.15689E-03 10280   0.301E-01    0.113E-01
DAV:   7    -0.191427256485E+03    0.12873E-03   -0.48116E-04  8640   0.145E-01    0.692E-02
DAV:   8    -0.191427237371E+03    0.19114E-04   -0.16739E-04  6760   0.106E-01
  57 F= -.19142724E+03 E0= -.19133382E+03  d E =-.967555E-02
       N       E                     dE             d eps       ncg     rms          rms(c)
DAV:   1    -0.191506743323E+03   -0.79487E-01   -0.52027E+00  8160   0.494E+00    0.723E-01
DAV:   2    -0.191544422456E+03   -0.37679E-01   -0.21421E-01 13400   0.253E+00    0.184E+00
DAV:   3    -0.191508147507E+03    0.36275E-01   -0.78630E-02 12280   0.214E+00    0.461E-01
DAV:   4    -0.191508403688E+03   -0.25618E-03   -0.14538E-02 12160   0.739E-01    0.617E-01
DAV:   5    -0.191505266456E+03    0.31372E-02   -0.13411E-02 12480   0.851E-01    0.397E-01
DAV:   6    -0.191503811014E+03    0.14554E-02   -0.58760E-03 11080   0.466E-01    0.173E-01
DAV:   7    -0.191503549294E+03    0.26172E-03   -0.18534E-03 11840   0.244E-01    0.156E-01
DAV:   8    -0.191503342799E+03    0.20650E-03   -0.75866E-04  8840   0.202E-01    0.763E-02
DAV:   9    -0.191503269375E+03    0.73424E-04   -0.11897E-04  6120   0.740E-02
  58 F= -.19150327E+03 E0= -.19141100E+03  d E =-.760320E-01
       N       E                     dE             d eps       ncg     rms          rms(c)
DAV:   1    -0.191585685285E+03   -0.82342E-01   -0.68579E+00  8160   0.555E+00    0.632E-01
DAV:   2    -0.191630151071E+03   -0.44466E-01   -0.23092E-01 13560   0.255E+00    0.179E+00
DAV:   3    -0.191595455654E+03    0.34695E-01   -0.75123E-02 12320   0.208E+00    0.430E-01
DAV:   4    -0.191596635046E+03   -0.11794E-02   -0.11458E-02 11560   0.739E-01    0.589E-01
DAV:   5    -0.191593055332E+03    0.35797E-02   -0.78548E-03 11720   0.672E-01    0.213E-01
DAV:   6    -0.191593029666E+03    0.25667E-04   -0.26960E-03 12040   0.244E-01    0.155E-01
DAV:   7    -0.191592522336E+03    0.50733E-03   -0.10532E-03 10880   0.125E-01    0.330E-02
DAV:   8    -0.191592561603E+03   -0.39267E-04   -0.14937E-04  6440   0.855E-02
  59 F= -.19159256E+03 E0= -.19150239E+03  d E =-.892922E-01
       N       E                     dE             d eps       ncg     rms          rms(c)
DAV:   1    -0.191628616435E+03   -0.36094E-01   -0.11278E+00  8160   0.226E+00    0.257E-01
DAV:   2    -0.191635334304E+03   -0.67179E-02   -0.39240E-02 13440   0.981E-01    0.670E-01
DAV:   3    -0.191630397727E+03    0.49366E-02   -0.11080E-02 12120   0.805E-01    0.189E-01
DAV:   4    -0.191630572389E+03   -0.17466E-03   -0.19791E-03 10120   0.310E-01    0.238E-01
DAV:   5    -0.191629991102E+03    0.58129E-03   -0.12906E-03  9880   0.277E-01    0.887E-02
DAV:   6    -0.191629992773E+03   -0.16710E-05   -0.44655E-04  9000   0.103E-01
  60 F= -.19162999E+03 E0= -.19154118E+03  d E =-.374312E-01
       N       E                     dE             d eps       ncg     rms          rms(c)
DAV:   1    -0.191636886686E+03   -0.68956E-02   -0.43756E-02  8160   0.448E-01    0.487E-02
DAV:   2    -0.191637003296E+03   -0.11661E-03   -0.12688E-03 12440   0.118E-01    0.733E-02
DAV:   3    -0.191636974231E+03    0.29065E-04   -0.28373E-04  8400   0.127E-01
  61 F= -.19163697E+03 E0= -.19154845E+03  d E =-.698146E-02
       N       E                     dE             d eps       ncg     rms          rms(c)
DAV:   1    -0.191655044438E+03   -0.18041E-01   -0.32849E-01  8160   0.122E+00    0.154E-01
DAV:   2    -0.191657111705E+03   -0.20673E-02   -0.11078E-02 13480   0.545E-01    0.396E-01
DAV:   3    -0.191655417976E+03    0.16937E-02   -0.42801E-03 11640   0.490E-01    0.141E-01
DAV:   4    -0.191655347540E+03    0.70436E-04   -0.79956E-04  8760   0.190E-01
  62 F= -.19165535E+03 E0= -.19156782E+03  d E =-.183733E-01
       N       E                     dE             d eps       ncg     rms          rms(c)
DAV:   1    -0.191717122640E+03   -0.61705E-01   -0.36493E+00  8160   0.408E+00    0.466E-01
DAV:   2    -0.191737235589E+03   -0.20113E-01   -0.12934E-01 13600   0.169E+00    0.119E+00
DAV:   3    -0.191723480755E+03    0.13755E-01   -0.37937E-02 11760   0.142E+00    0.396E-01
DAV:   4    -0.191723524441E+03   -0.43686E-04   -0.73616E-03 11520   0.626E-01    0.428E-01
DAV:   5    -0.191721493529E+03    0.20309E-02   -0.42454E-03 11280   0.530E-01    0.178E-01
DAV:   6    -0.191721415587E+03    0.77942E-04   -0.20317E-03 11320   0.224E-01    0.125E-01
DAV:   7    -0.191721131487E+03    0.28410E-03   -0.70671E-04 10760   0.120E-01    0.550E-02
DAV:   8    -0.191721119136E+03    0.12351E-04   -0.12098E-04  6600   0.871E-02
  63 F= -.19172112E+03 E0= -.19163535E+03  d E =-.657716E-01
       N       E                     dE             d eps       ncg     rms          rms(c)
DAV:   1    -0.191860093790E+03   -0.13896E+00   -0.42415E+01  8160   0.139E+01    0.156E+00
DAV:   2    -0.192076554329E+03   -0.21646E+00   -0.15770E+00 12880   0.555E+00    0.382E+00
DAV:   3    -0.191954228492E+03    0.12233E+00   -0.45307E-01 12240   0.481E+00    0.138E+00
DAV:   4    -0.191950803753E+03    0.34247E-02   -0.78374E-02 12400   0.221E+00    0.145E+00
DAV:   5    -0.191925268247E+03    0.25536E-01   -0.44339E-02 12160   0.178E+00    0.535E-01
DAV:   6    -0.191925496885E+03   -0.22864E-03   -0.24120E-02 12600   0.747E-01    0.459E-01
DAV:   7    -0.191921983211E+03    0.35137E-02   -0.98177E-03 11680   0.589E-01    0.310E-01
DAV:   8    -0.191921112611E+03    0.87060E-03   -0.25680E-03 11920   0.390E-01    0.109E-01
DAV:   9    -0.191920934124E+03    0.17849E-03   -0.44526E-04  9960   0.114E-01    0.424E-02
DAV:  10    -0.191920901877E+03    0.32247E-04   -0.19170E-04  7520   0.450E-02
  64 F= -.19192090E+03 E0= -.19184132E+03  d E =-.199783E+00
       N       E                     dE             d eps       ncg     rms          rms(c)
DAV:   1    -0.191976642587E+03   -0.55708E-01   -0.10939E+01  8160   0.699E+00    0.714E-01
DAV:   2    -0.192015261263E+03   -0.38619E-01   -0.35926E-01 11880   0.234E+00    0.129E+00
DAV:   3    -0.192001777184E+03    0.13484E-01   -0.60732E-02 12040   0.192E+00    0.709E-01
DAV:   4    -0.191998381107E+03    0.33961E-02   -0.14155E-02 12280   0.919E-01    0.556E-01
DAV:   5    -0.191995289269E+03    0.30918E-02   -0.82577E-03 12640   0.768E-01    0.299E-01
DAV:   6    -0.191995259872E+03    0.29398E-04   -0.56583E-03 12520   0.430E-01    0.224E-01
DAV:   7    -0.191994449605E+03    0.81027E-03   -0.24184E-03 12040   0.283E-01    0.140E-01
DAV:   8    -0.191994267667E+03    0.18194E-03   -0.50921E-04  8920   0.177E-01    0.453E-02
DAV:   9    -0.191994234992E+03    0.32675E-04   -0.86059E-05  6480   0.497E-02
  65 F= -.19199423E+03 E0= -.19191661E+03  d E =-.733331E-01
       N       E                     dE             d eps       ncg     rms          rms(c)
DAV:   1    -0.192039779867E+03   -0.45512E-01   -0.45568E+00  8160   0.452E+00    0.500E-01
DAV:   2    -0.192057229425E+03   -0.17450E-01   -0.15610E-01 12400   0.161E+00    0.896E-01
DAV:   3    -0.192049935926E+03    0.72935E-02   -0.32534E-02 11600   0.141E+00    0.520E-01
DAV:   4    -0.192047558326E+03    0.23776E-02   -0.81715E-03 12560   0.661E-01    0.317E-01
DAV:   5    -0.192046894967E+03    0.66336E-03   -0.40483E-03 10440   0.510E-01    0.271E-01
DAV:   6    -0.192046306732E+03    0.58823E-03   -0.23387E-03 12000   0.357E-01    0.144E-01
DAV:   7    -0.192046384063E+03   -0.77331E-04   -0.12335E-03 11240   0.264E-01    0.176E-01
DAV:   8    -0.192046030197E+03    0.35387E-03   -0.52206E-04  8840   0.201E-01    0.359E-02
DAV:   9    -0.192046019302E+03    0.10895E-04   -0.48973E-05  6120   0.392E-02
  66 F= -.19204602E+03 E0= -.19197042E+03  d E =-.517843E-01
       N       E                     dE             d eps       ncg     rms          rms(c)
DAV:   1    -0.192086572364E+03   -0.40542E-01   -0.29982E+01  8160   0.117E+01    0.120E+00
DAV:   2    -0.192179322990E+03   -0.92751E-01   -0.10363E+00 11720   0.360E+00    0.166E+00
DAV:   3    -0.192163772502E+03    0.15550E-01   -0.13357E-01 12160   0.303E+00    0.122E+00
DAV:   4    -0.192144765917E+03    0.19007E-01   -0.30369E-02 12440   0.144E+00    0.566E-01
DAV:   5    -0.192145043304E+03   -0.27739E-03   -0.19668E-02 12400   0.113E+00    0.693E-01
DAV:   6    -0.192141771565E+03    0.32717E-02   -0.15128E-02 12600   0.972E-01    0.363E-01
DAV:   7    -0.192139251793E+03    0.25198E-02   -0.43142E-03 11480   0.331E-01    0.713E-02
DAV:   8    -0.192139227856E+03    0.23937E-04   -0.59968E-04 11440   0.843E-02
  67 F= -.19213923E+03 E0= -.19206650E+03  d E =-.932086E-01
       N       E                     dE             d eps       ncg     rms          rms(c)
DAV:   1    -0.192156104510E+03   -0.16853E-01   -0.11998E+00  8160   0.234E+00    0.345E-01
DAV:   2    -0.192167409135E+03   -0.11305E-01   -0.63783E-02 11600   0.129E+00    0.878E-01
DAV:   3    -0.192158642487E+03    0.87666E-02   -0.16641E-02 12120   0.108E+00    0.249E-01
DAV:   4    -0.192158442557E+03    0.19993E-03   -0.24208E-03 11600   0.383E-01    0.223E-01
DAV:   5    -0.192157962662E+03    0.47990E-03   -0.14169E-03 11520   0.342E-01    0.137E-01
DAV:   6    -0.192157851181E+03    0.11148E-03   -0.85575E-04 10480   0.192E-01    0.760E-02
DAV:   7    -0.192157803962E+03    0.47219E-04   -0.34843E-04  9320   0.120E-01
  68 F= -.19215780E+03 E0= -.19208626E+03  d E =-.185761E-01
       N       E                     dE             d eps       ncg     rms          rms(c)
DAV:   1    -0.192174562193E+03   -0.16711E-01   -0.18070E+00  8160   0.289E+00    0.367E-01
DAV:   2    -0.192180683780E+03   -0.61216E-02   -0.78023E-02 12040   0.940E-01    0.487E-01
DAV:   3    -0.192179867742E+03    0.81604E-03   -0.12506E-02 11960   0.905E-01    0.434E-01
DAV:   4    -0.192177847806E+03    0.20199E-02   -0.40636E-03 12440   0.533E-01    0.199E-01
DAV:   5    -0.192177650038E+03    0.19777E-03   -0.18843E-03 11160   0.351E-01    0.195E-01
DAV:   6    -0.192177449391E+03    0.20065E-03   -0.13793E-03 10960   0.300E-01    0.128E-01
DAV:   7    -0.192177270703E+03    0.17869E-03   -0.57644E-04  9080   0.175E-01    0.840E-02
DAV:   8    -0.192177193654E+03    0.77049E-04   -0.14948E-04  7680   0.107E-01
  69 F= -.19217719E+03 E0= -.19210634E+03  d E =-.193897E-01
       N       E                     dE             d eps       ncg     rms          rms(c)
DAV:   1    -0.192186756992E+03   -0.94863E-02   -0.43176E-01  8160   0.141E+00    0.203E-01
DAV:   2    -0.192189288601E+03   -0.25316E-02   -0.20107E-02 10520   0.654E-01    0.400E-01
DAV:   3    -0.192187582487E+03    0.17061E-02   -0.43407E-03 12360   0.558E-01    0.165E-01
DAV:   4    -0.192187503234E+03    0.79253E-04   -0.10615E-03 10240   0.261E-01    0.156E-01
DAV:   5    -0.192187271587E+03    0.23165E-03   -0.60953E-04  9880   0.225E-01    0.879E-02
DAV:   6    -0.192187229504E+03    0.42083E-04   -0.34011E-04  8680   0.123E-01
  70 F= -.19218723E+03 E0= -.19211731E+03  d E =-.100358E-01
       N       E                     dE             d eps       ncg     rms          rms(c)
DAV:   1    -0.192199287961E+03   -0.12016E-01   -0.80163E-01  8160   0.192E+00    0.251E-01
DAV:   2    -0.192202357057E+03   -0.30691E-02   -0.32210E-02 11080   0.629E-01    0.381E-01
DAV:   3    -0.192201371537E+03    0.98552E-03   -0.58602E-03 11720   0.639E-01    0.287E-01
DAV:   4    -0.192200687452E+03    0.68408E-03   -0.17839E-03 11720   0.344E-01    0.154E-01
DAV:   5    -0.192200476339E+03    0.21111E-03   -0.75129E-04 10560   0.242E-01    0.108E-01
DAV:   6    -0.192200425461E+03    0.50877E-04   -0.47747E-04  9200   0.168E-01
  71 F= -.19220043E+03 E0= -.19213130E+03  d E =-.131960E-01
       N       E                     dE             d eps       ncg     rms          rms(c)
DAV:   1    -0.192223029292E+03   -0.22553E-01   -0.14655E+01  8160   0.823E+00    0.104E+00
DAV:   2    -0.192279299157E+03   -0.56270E-01   -0.58747E-01 11240   0.267E+00    0.154E+00
DAV:   3    -0.192262738085E+03    0.16561E-01   -0.99209E-02 12400   0.263E+00    0.117E+00
DAV:   4    -0.192249966862E+03    0.12771E-01   -0.30046E-02 12480   0.143E+00    0.576E-01
DAV:   5    -0.192246621656E+03    0.33452E-02   -0.12072E-02 12440   0.898E-01    0.444E-01
DAV:   6    -0.192246195264E+03    0.42639E-03   -0.90801E-03 12200   0.779E-01    0.367E-01
DAV:   7    -0.192244587737E+03    0.16075E-02   -0.42611E-03 12200   0.465E-01    0.200E-01
DAV:   8    -0.192244171349E+03    0.41639E-03   -0.89271E-04 11080   0.263E-01    0.684E-02
DAV:   9    -0.192244111677E+03    0.59672E-04   -0.12991E-04  7120   0.811E-02
  72 F= -.19224411E+03 E0= -.19217855E+03  d E =-.436862E-01
       N       E                     dE             d eps       ncg     rms          rms(c)
DAV:   1    -0.192241604341E+03    0.25670E-02   -0.34737E-01  8160   0.131E+00    0.200E-01
DAV:   2    -0.192241669965E+03   -0.65624E-04   -0.13402E-02 10640   0.306E-01    0.130E-01
DAV:   3    -0.192241856095E+03   -0.18613E-03   -0.19720E-03 11680   0.297E-01    0.220E-01
DAV:   4    -0.192241384512E+03    0.47158E-03   -0.12084E-03 10360   0.319E-01    0.120E-01
DAV:   5    -0.192241240842E+03    0.14367E-03   -0.47462E-04  9520   0.153E-01    0.624E-02
DAV:   6    -0.192241222453E+03    0.18389E-04   -0.21935E-04  8800   0.119E-01
  73 F= -.19224122E+03 E0= -.19217577E+03  d E =0.288922E-02
       N       E                     dE             d eps       ncg     rms          rms(c)
DAV:   1    -0.192246716112E+03   -0.54753E-02   -0.40951E-01  8160   0.137E+00    0.171E-01
DAV:   2    -0.192248284756E+03   -0.15686E-02   -0.17167E-02 10360   0.431E-01    0.245E-01
DAV:   3    -0.192247923593E+03    0.36116E-03   -0.26538E-03 12600   0.434E-01    0.198E-01
DAV:   4    -0.192247546262E+03    0.37733E-03   -0.79353E-04 10360   0.237E-01    0.950E-02
DAV:   5    -0.192247469583E+03    0.76680E-04   -0.30875E-04  9200   0.152E-01
  74 F= -.19224747E+03 E0= -.19218260E+03  d E =-.624713E-02
       N       E                     dE             d eps       ncg     rms          rms(c)
DAV:   1    -0.192251349838E+03   -0.38036E-02   -0.21018E-01  8160   0.982E-01    0.145E-01
DAV:   2    -0.192252426463E+03   -0.10766E-02   -0.92846E-03 11000   0.406E-01    0.252E-01
DAV:   3    -0.192251749175E+03    0.67729E-03   -0.17373E-03 12160   0.374E-01    0.115E-01
DAV:   4    -0.192251662946E+03    0.86229E-04   -0.35767E-04  8880   0.161E-01
  75 F= -.19225166E+03 E0= -.19218724E+03  d E =-.419336E-02
       N       E                     dE             d eps       ncg     rms          rms(c)
DAV:   1    -0.192256153270E+03   -0.44041E-02   -0.38255E-01  8160   0.132E+00    0.181E-01
DAV:   2    -0.192257152000E+03   -0.99873E-03   -0.15471E-02 11080   0.367E-01    0.182E-01
DAV:   3    -0.192257335072E+03   -0.18307E-03   -0.23403E-03 12520   0.408E-01    0.242E-01
DAV:   4    -0.192256718330E+03    0.61674E-03   -0.99485E-04 11000   0.286E-01    0.875E-02
DAV:   5    -0.192256654984E+03    0.63346E-04   -0.35598E-04  9360   0.132E-01
  76 F= -.19225665E+03 E0= -.19219282E+03  d E =-.499204E-02
       N       E                     dE             d eps       ncg     rms          rms(c)
DAV:   1    -0.192258558734E+03   -0.18404E-02   -0.67053E-02  8160   0.563E-01    0.120E-01
DAV:   2    -0.192259923066E+03   -0.13643E-02   -0.50606E-03 11600   0.479E-01    0.329E-01
DAV:   3    -0.192258524038E+03    0.13990E-02   -0.17909E-03 11480   0.392E-01    0.583E-02
DAV:   4    -0.192258572874E+03   -0.48837E-04   -0.21375E-04  7960   0.124E-01
  77 F= -.19225857E+03 E0= -.19219498E+03  d E =-.191789E-02
       N       E                     dE             d eps       ncg     rms          rms(c)
DAV:   1    -0.192263409074E+03   -0.48850E-02   -0.38997E+00  8160   0.420E+00    0.537E-01
DAV:   2    -0.192278076517E+03   -0.14667E-01   -0.16855E-01 11000   0.139E+00    0.717E-01
DAV:   3    -0.192275391577E+03    0.26849E-02   -0.23027E-02 12160   0.130E+00    0.613E-01
DAV:   4    -0.192271719472E+03    0.36721E-02   -0.81355E-03 12080   0.779E-01    0.308E-01
DAV:   5    -0.192270886459E+03    0.83301E-03   -0.33039E-03 12240   0.478E-01    0.235E-01
DAV:   6    -0.192270759982E+03    0.12648E-03   -0.26185E-03 12160   0.406E-01    0.182E-01
DAV:   7    -0.192270256474E+03    0.50351E-03   -0.10634E-03 10720   0.203E-01    0.619E-02
DAV:   8    -0.192270240133E+03    0.16341E-04   -0.16217E-04  8320   0.108E-01
  78 F= -.19227024E+03 E0= -.19220837E+03  d E =-.116673E-01
       N       E                     dE             d eps       ncg     rms          rms(c)
DAV:   1    -0.192269867961E+03    0.38851E-03   -0.79286E-02  8160   0.618E-01    0.118E-01
DAV:   2    -0.192271438412E+03   -0.15705E-02   -0.51214E-03 12720   0.502E-01    0.379E-01
DAV:   3    -0.192269793229E+03    0.16452E-02   -0.20148E-03 10880   0.416E-01    0.605E-02
DAV:   4    -0.192269808351E+03   -0.15122E-04   -0.24489E-04  8640   0.125E-01
  79 F= -.19226981E+03 E0= -.19220766E+03  d E =0.431783E-03
       N       E                     dE             d eps       ncg     rms          rms(c)
DAV:   1    -0.192270204581E+03   -0.41135E-03   -0.20466E+00  8160   0.304E+00    0.367E-01
DAV:   2    -0.192277932284E+03   -0.77277E-02   -0.91058E-02 11080   0.942E-01    0.433E-01
DAV:   3    -0.192277232255E+03    0.70003E-03   -0.10241E-02 12480   0.857E-01    0.408E-01
DAV:   4    -0.192275271881E+03    0.19604E-02   -0.31679E-03 12400   0.492E-01    0.173E-01
DAV:   5    -0.192275216670E+03    0.55212E-04   -0.13531E-03 10880   0.316E-01    0.182E-01
DAV:   6    -0.192275078258E+03    0.13841E-03   -0.12363E-03 10440   0.284E-01    0.122E-01
DAV:   7    -0.192274847841E+03    0.23042E-03   -0.49604E-04  9360   0.137E-01    0.387E-02
DAV:   8    -0.192274846443E+03    0.13977E-05   -0.87694E-05  7280   0.767E-02
  80 F= -.19227485E+03 E0= -.19221344E+03  d E =-.503809E-02
       N       E                     dE             d eps       ncg     rms          rms(c)
DAV:   1    -0.192273285389E+03    0.15625E-02   -0.22256E-01  8160   0.100E+00    0.125E-01
DAV:   2    -0.192273967687E+03   -0.68230E-03   -0.95623E-03 10400   0.296E-01    0.131E-01
DAV:   3    -0.192274022043E+03   -0.54355E-04   -0.11486E-03 12080   0.284E-01    0.164E-01
DAV:   4    -0.192273722104E+03    0.29994E-03   -0.45464E-04  9320   0.199E-01    0.585E-02
DAV:   5    -0.192273681818E+03    0.40286E-04   -0.14042E-04  6400   0.708E-02
  81 F= -.19227368E+03 E0= -.19221207E+03  d E =0.116463E-02
       N       E                     dE             d eps       ncg     rms          rms(c)
DAV:   1    -0.192274545557E+03   -0.82345E-03   -0.21077E-01  8160   0.978E-01    0.118E-01
DAV:   2    -0.192275501938E+03   -0.95638E-03   -0.94411E-03 10360   0.321E-01    0.184E-01
DAV:   3    -0.192275237032E+03    0.26491E-03   -0.14438E-03 12280   0.313E-01    0.137E-01
DAV:   4    -0.192275052753E+03    0.18428E-03   -0.37774E-04  8840   0.162E-01    0.547E-02
DAV:   5    -0.192275005210E+03    0.47543E-04   -0.10687E-04  6680   0.669E-02
  82 F= -.19227501E+03 E0= -.19221365E+03  d E =-.132339E-02
       N       E                     dE             d eps       ncg     rms          rms(c)
DAV:   1    -0.192274790351E+03    0.26240E-03   -0.11692E-02  8160   0.248E-01    0.595E-02
DAV:   2    -0.192275416072E+03   -0.62572E-03   -0.13648E-03 11800   0.302E-01    0.223E-01
DAV:   3    -0.192274780179E+03    0.63589E-03   -0.67538E-04 10000   0.253E-01    0.281E-02
DAV:   4    -0.192274780744E+03   -0.56586E-06   -0.34293E-05  5800   0.382E-02
  83 F= -.19227478E+03 E0= -.19221336E+03  d E =0.224465E-03
