<?xml version="1.0" encoding="ISO-8859-1"?>
<modeling>
 <generator>
  <i name="program" type="string">vasp </i>
  <i name="version" type="string">5.4.1  </i>
  <i name="subversion" type="string">05Feb16 (build Jul 05 2020 17:13:04) complex                          parallel </i>
  <i name="platform" type="string">IFC91_ompi </i>
  <i name="date" type="string">2024 04 24 </i>
  <i name="time" type="string">18:58:15 </i>
 </generator>
 <incar>
  <i type="int" name="ISTART">     0</i>
  <i type="string" name="PREC">normal</i>
  <i type="string" name="ALGO"> Normal</i>
  <i type="int" name="ISPIN">     1</i>
  <i type="int" name="ICHARG">     2</i>
  <i type="int" name="IBRION">     1</i>
  <i type="int" name="NSW">   100</i>
  <i type="int" name="ISIF">     3</i>
  <i type="int" name="ISYM">     0</i>
  <i name="SYMPREC">      0.00000001</i>
  <i name="POTIM">      0.50000000</i>
  <i type="logical" name="LREAL"> F  </i>
  <i type="logical" name="LPLANE"> F  </i>
  <i type="int" name="ISMEAR">     0</i>
  <i type="logical" name="LWAVE"> F  </i>
  <i type="logical" name="LCHARG"> F  </i>
  <v type="int" name="KPOINT_BSE">    -1     0     0     0</v>
 </incar>
 <kpoints>
  <generation param="Gamma">
   <v type="int" name="divisions">       8        8        1 </v>
   <v name="usershift">      0.00000000       0.00000000       0.00000000 </v>
   <v name="genvec1">      0.12500000       0.00000000       0.00000000 </v>
   <v name="genvec2">     -0.00000000       0.12500000       0.00000000 </v>
   <v name="genvec3">      0.00000000       0.00000000       1.00000000 </v>
   <v name="shift">      0.00000000       0.00000000       0.00000000 </v>
  </generation>
  <varray name="kpointlist" >
   <v>       0.00000000       0.00000000       0.00000000 </v>
   <v>       0.12500000       0.00000000       0.00000000 </v>
   <v>       0.25000000       0.00000000       0.00000000 </v>
   <v>       0.37500000       0.00000000       0.00000000 </v>
   <v>       0.50000000       0.00000000       0.00000000 </v>
   <v>       0.00000000       0.12500000       0.00000000 </v>
   <v>       0.12500000       0.12500000       0.00000000 </v>
   <v>       0.25000000       0.12500000       0.00000000 </v>
   <v>       0.37500000       0.12500000       0.00000000 </v>
   <v>       0.50000000       0.12500000       0.00000000 </v>
   <v>      -0.37500000       0.12500000       0.00000000 </v>
   <v>      -0.25000000       0.12500000       0.00000000 </v>
   <v>      -0.12500000       0.12500000       0.00000000 </v>
   <v>       0.00000000       0.25000000       0.00000000 </v>
   <v>       0.12500000       0.25000000       0.00000000 </v>
   <v>       0.25000000       0.25000000       0.00000000 </v>
   <v>       0.37500000       0.25000000       0.00000000 </v>
   <v>       0.50000000       0.25000000       0.00000000 </v>
   <v>      -0.37500000       0.25000000       0.00000000 </v>
   <v>      -0.25000000       0.25000000       0.00000000 </v>
   <v>      -0.12500000       0.25000000       0.00000000 </v>
   <v>      -0.00000000       0.37500000       0.00000000 </v>
   <v>       0.12500000       0.37500000       0.00000000 </v>
   <v>       0.25000000       0.37500000       0.00000000 </v>
   <v>       0.37500000       0.37500000       0.00000000 </v>
   <v>       0.50000000       0.37500000       0.00000000 </v>
   <v>      -0.37500000       0.37500000       0.00000000 </v>
   <v>      -0.25000000       0.37500000       0.00000000 </v>
   <v>      -0.12500000       0.37500000       0.00000000 </v>
   <v>       0.00000000       0.50000000       0.00000000 </v>
   <v>       0.12500000       0.50000000       0.00000000 </v>
   <v>       0.25000000       0.50000000       0.00000000 </v>
   <v>       0.37500000       0.50000000       0.00000000 </v>
   <v>       0.50000000       0.50000000       0.00000000 </v>
  </varray>
  <varray name="weights" >
   <v>       0.01562500 </v>
   <v>       0.03125000 </v>
   <v>       0.03125000 </v>
   <v>       0.03125000 </v>
   <v>       0.01562500 </v>
   <v>       0.03125000 </v>
   <v>       0.03125000 </v>
   <v>       0.03125000 </v>
   <v>       0.03125000 </v>
   <v>       0.03125000 </v>
   <v>       0.03125000 </v>
   <v>       0.03125000 </v>
   <v>       0.03125000 </v>
   <v>       0.03125000 </v>
   <v>       0.03125000 </v>
   <v>       0.03125000 </v>
   <v>       0.03125000 </v>
   <v>       0.03125000 </v>
   <v>       0.03125000 </v>
   <v>       0.03125000 </v>
   <v>       0.03125000 </v>
   <v>       0.03125000 </v>
   <v>       0.03125000 </v>
   <v>       0.03125000 </v>
   <v>       0.03125000 </v>
   <v>       0.03125000 </v>
   <v>       0.03125000 </v>
   <v>       0.03125000 </v>
   <v>       0.03125000 </v>
   <v>       0.01562500 </v>
   <v>       0.03125000 </v>
   <v>       0.03125000 </v>
   <v>       0.03125000 </v>
   <v>       0.01562500 </v>
  </varray>
 </kpoints>
 <parameters>
  <separator name="general" >
   <i type="string" name="SYSTEM">unknown system</i>
   <i type="logical" name="LCOMPAT"> F  </i>
  </separator>
  <separator name="electronic" >
   <i type="string" name="PREC">normal</i>
   <i name="ENMAX">    280.00000000</i>
   <i name="ENAUG">    373.43800000</i>
   <i name="EDIFF">      0.00010000</i>
   <i type="int" name="IALGO">    38</i>
   <i type="int" name="IWAVPR">    11</i>
   <i type="int" name="NBANDS">   120</i>
   <i name="NELECT">    159.00000000</i>
   <i type="int" name="TURBO">     0</i>
   <i type="int" name="IRESTART">     0</i>
   <i type="int" name="NREBOOT">     0</i>
   <i type="int" name="NMIN">     0</i>
   <i name="EREF">      0.00000000</i>
   <separator name="electronic smearing" >
    <i type="int" name="ISMEAR">     0</i>
    <i name="SIGMA">      0.20000000</i>
    <i name="KSPACING">      0.50000000</i>
    <i type="logical" name="KGAMMA"> T  </i>
   </separator>
   <separator name="electronic projectors" >
    <i type="logical" name="LREAL"> F  </i>
    <v name="ROPT">      0.00000000      0.00000000      0.00000000      0.00000000</v>
    <i type="int" name="LMAXPAW">  -100</i>
    <i type="int" name="LMAXMIX">     2</i>
    <i type="logical" name="NLSPLINE"> F  </i>
   </separator>
   <separator name="electronic startup" >
    <i type="int" name="ISTART">     0</i>
    <i type="int" name="ICHARG">     2</i>
    <i type="int" name="INIWAV">     1</i>
   </separator>
   <separator name="electronic spin" >
    <i type="int" name="ISPIN">     1</i>
    <i type="logical" name="LNONCOLLINEAR"> F  </i>
    <v name="MAGMOM">      1.00000000      1.00000000      1.00000000      1.00000000      1.00000000      1.00000000      1.00000000      1.00000000      1.00000000      1.00000000      1.00000000      1.00000000      1.00000000      1.00000000      1.00000000      1.00000000      1.00000000      1.00000000      1.00000000      1.00000000
      1.00000000      1.00000000      1.00000000      1.00000000      1.00000000      1.00000000      1.00000000</v>
    <i name="NUPDOWN">     -1.00000000</i>
    <i type="logical" name="LSORBIT"> F  </i>
    <v name="SAXIS">      0.00000000      0.00000000      1.00000000</v>
    <i type="logical" name="LSPIRAL"> F  </i>
    <v name="QSPIRAL">      0.00000000      0.00000000      0.00000000</v>
    <i type="logical" name="LZEROZ"> F  </i>
   </separator>
   <separator name="electronic exchange-correlation" >
    <i type="logical" name="LASPH"> F  </i>
    <i type="logical" name="LMETAGGA"> F  </i>
   </separator>
   <separator name="electronic convergence" >
    <i type="int" name="NELM">    60</i>
    <i type="int" name="NELMDL">    -5</i>
    <i type="int" name="NELMIN">     2</i>
    <i name="ENINI">    280.00000000</i>
    <separator name="electronic convergence detail" >
     <i type="logical" name="LDIAG"> T  </i>
     <i type="logical" name="LSUBROT"> F  </i>
     <i name="WEIMIN">      0.00100000</i>
     <i name="EBREAK">      0.00000021</i>
     <i name="DEPER">      0.30000000</i>
     <i type="int" name="NRMM">     4</i>
     <i name="TIME">      0.40000000</i>
    </separator>
   </separator>
   <separator name="electronic mixer" >
    <i name="AMIX">      0.40000000</i>
    <i name="BMIX">      1.00000000</i>
    <i name="AMIN">      0.10000000</i>
    <i name="AMIX_MAG">      1.60000000</i>
    <i name="BMIX_MAG">      1.00000000</i>
    <separator name="electronic mixer details" >
     <i type="int" name="IMIX">     4</i>
     <i type="logical" name="MIXFIRST"> F  </i>
     <i type="int" name="MAXMIX">   -45</i>
     <i name="WC">    100.00000000</i>
     <i type="int" name="INIMIX">     1</i>
     <i type="int" name="MIXPRE">     1</i>
     <i type="int" name="MREMOVE">     5</i>
    </separator>
   </separator>
   <separator name="electronic dipolcorrection" >
    <i type="logical" name="LDIPOL"> F  </i>
    <i type="logical" name="LMONO"> F  </i>
    <i type="int" name="IDIPOL">     0</i>
    <i name="EPSILON">      1.00000000</i>
    <v name="DIPOL">   -100.00000000   -100.00000000   -100.00000000</v>
    <i name="EFIELD">      0.00000000</i>
   </separator>
  </separator>
  <separator name="grids" >
   <i type="int" name="NGX">    42</i>
   <i type="int" name="NGY">    42</i>
   <i type="int" name="NGZ">   126</i>
   <i type="int" name="NGXF">    84</i>
   <i type="int" name="NGYF">    84</i>
   <i type="int" name="NGZF">   252</i>
   <i type="logical" name="ADDGRID"> F  </i>
  </separator>
  <separator name="ionic" >
   <i type="int" name="NSW">   100</i>
   <i type="int" name="IBRION">     1</i>
   <i type="int" name="ISIF">     3</i>
   <i name="PSTRESS">      0.00000000</i>
   <i name="EDIFFG">      0.00100000</i>
   <i type="int" name="NFREE">     0</i>
   <i name="POTIM">      0.50000000</i>
   <i name="SMASS">     -3.00000000</i>
   <i name="SCALEE">      1.00000000</i>
  </separator>
  <separator name="ionic md" >
   <i name="TEBEG">      0.00010000</i>
   <i name="TEEND">      0.00010000</i>
   <i type="int" name="NBLOCK">     1</i>
   <i type="int" name="KBLOCK">   100</i>
   <i type="int" name="NPACO">   256</i>
   <i name="APACO">     16.00000000</i>
  </separator>
  <separator name="symmetry" >
   <i type="int" name="ISYM">     0</i>
   <i name="SYMPREC">      0.00000001</i>
  </separator>
  <separator name="dos" >
   <i type="logical" name="LORBIT"> F  </i>
   <v name="RWIGS">     -1.00000000     -1.00000000     -1.00000000     -1.00000000</v>
   <i type="int" name="NEDOS">   301</i>
   <i name="EMIN">     10.00000000</i>
   <i name="EMAX">    -10.00000000</i>
   <i name="EFERMI">      0.00000000</i>
  </separator>
  <separator name="writing" >
   <i type="int" name="NWRITE">     2</i>
   <i type="logical" name="LWAVE"> F  </i>
   <i type="logical" name="LCHARG"> F  </i>
   <i type="logical" name="LPARD"> F  </i>
   <i type="logical" name="LVTOT"> F  </i>
   <i type="logical" name="LVHAR"> F  </i>
   <i type="logical" name="LELF"> F  </i>
   <i type="logical" name="LOPTICS"> F  </i>
   <v name="STM">      0.00000000      0.00000000      0.00000000      0.00000000      0.00000000      0.00000000      0.00000000</v>
  </separator>
  <separator name="performance" >
   <i type="int" name="NPAR">    40</i>
   <i type="int" name="NSIM">     4</i>
   <i type="int" name="NBLK">    -1</i>
   <i type="logical" name="LPLANE"> F  </i>
   <i type="logical" name="LSCALAPACK"> T  </i>
   <i type="logical" name="LSCAAWARE"> F  </i>
   <i type="logical" name="LSCALU"> F  </i>
   <i type="logical" name="LASYNC"> F  </i>
   <i type="logical" name="LORBITALREAL"> F  </i>
  </separator>
  <separator name="miscellaneous" >
   <i type="int" name="IDIOT">     3</i>
   <i type="logical" name="LMUSIC"> F  </i>
   <v name="POMASS">     50.94100000     95.94000000    183.85000000     32.06600000</v>
   <v name="DARWINR">      0.00000000      0.00000000      0.00000000      0.00000000</v>
   <v name="DARWINV">      1.00000000      1.00000000      1.00000000      1.00000000</v>
   <i type="logical" name="LCORR"> T  </i>
  </separator>
  <i type="logical" name="GGA_COMPAT"> T  </i>
  <i type="logical" name="LBERRY"> F  </i>
  <i type="int" name="ICORELEVEL">     0</i>
  <i type="logical" name="LDAU"> F  </i>
  <i type="int" name="I_CONSTRAINED_M">     0</i>
  <separator name="electronic exchange-correlation" >
   <i type="string" name="GGA">--</i>
   <i type="int" name="VOSKOWN">     0</i>
   <i type="logical" name="LHFCALC"> F  </i>
   <i type="string" name="PRECFOCK"></i>
   <i type="logical" name="LSYMGRAD"> F  </i>
   <i type="logical" name="LHFONE"> F  </i>
   <i type="logical" name="LRHFCALC"> F  </i>
   <i type="logical" name="LTHOMAS"> F  </i>
   <i type="logical" name="LMODELHF"> F  </i>
   <i name="ENCUT4O">     -1.00000000</i>
   <i type="int" name="EXXOEP">     0</i>
   <i type="int" name="FOURORBIT">     0</i>
   <i name="AEXX">      0.00000000</i>
   <i name="HFALPHA">      0.00000000</i>
   <i name="MCALPHA">      0.00000000</i>
   <i name="ALDAX">      1.00000000</i>
   <i name="AGGAX">      1.00000000</i>
   <i name="ALDAC">      1.00000000</i>
   <i name="AGGAC">      1.00000000</i>
   <i type="int" name="NKREDX">     1</i>
   <i type="int" name="NKREDY">     1</i>
   <i type="int" name="NKREDZ">     1</i>
   <i type="logical" name="SHIFTRED"> F  </i>
   <i type="logical" name="ODDONLY"> F  </i>
   <i type="logical" name="EVENONLY"> F  </i>
   <i type="int" name="LMAXFOCK">     0</i>
   <i type="int" name="NMAXFOCKAE">     0</i>
   <i type="logical" name="LFOCKAEDFT"> F  </i>
   <i name="HFSCREEN">      0.00000000</i>
   <i name="HFSCREENC">      0.00000000</i>
   <i type="int" name="NBANDSGWLOW">     0</i>
  </separator>
  <separator name="vdW DFT" >
   <i type="logical" name="LUSE_VDW"> F  </i>
   <i name="Zab_VDW">     -0.84910000</i>
   <i name="PARAM1">      0.12340000</i>
   <i name="PARAM2">      1.00000000</i>
   <i name="PARAM3">      0.00000000</i>
  </separator>
  <separator name="model GW" >
   <i type="int" name="MODEL_GW">     0</i>
   <i name="MODEL_EPS0">     58.26239943</i>
   <i name="MODEL_ALPHA">      1.00000000</i>
  </separator>
  <separator name="linear response parameters" >
   <i type="logical" name="LEPSILON"> F  </i>
   <i type="logical" name="LRPA"> F  </i>
   <i type="logical" name="LNABLA"> F  </i>
   <i type="logical" name="LVEL"> F  </i>
   <i type="int" name="KINTER">     0</i>
   <i name="CSHIFT">      0.10000000</i>
   <i name="OMEGAMAX">     -1.00000000</i>
   <i name="DEG_THRESHOLD">      0.00200000</i>
  </separator>
  <separator name="orbital magnetization" >
   <i type="logical" name="NUCIND"> F  </i>
   <v name="MAGPOS">      0.00000000      0.00000000      0.00000000</v>
   <i type="logical" name="LNICSALL"> T  </i>
   <i type="logical" name="ORBITALMAG"> F  </i>
   <i type="logical" name="LMAGBLOCH"> F  </i>
   <i type="logical" name="LCHIMAG"> F  </i>
   <i type="logical" name="LGAUGE"> T  </i>
   <i type="int" name="MAGATOM">     0</i>
   <v name="MAGDIPOL">      0.00000000      0.00000000      0.00000000</v>
   <v name="AVECCONST">      0.00000000      0.00000000      0.00000000</v>
  </separator>
  <separator name="response functions" >
   <i type="logical" name="LADDER"> F  </i>
   <i type="logical" name="LFXC"> F  </i>
   <i type="logical" name="LHARTREE"> T  </i>
   <i type="int" name="IBSE">     0</i>
   <v type="int" name="KPOINT">    -1     0     0     0</v>
   <i type="logical" name="LTCTE"> F  </i>
   <i type="logical" name="LTETE"> F  </i>
   <i type="logical" name="LTRIPLET"> F  </i>
   <i type="logical" name="LFXCEPS"> F  </i>
   <i type="logical" name="LFXHEG"> F  </i>
   <i type="int" name="NATURALO">     0</i>
   <i type="logical" name="L2ORDER"> F  </i>
   <i type="logical" name="LUSEW"> F  </i>
   <i name="ENCUTGW">     -2.00000000</i>
   <i name="ENCUTGWSOFT">     -2.00000000</i>
   <i name="ENCUTLF">     -1.00000000</i>
   <i type="int" name="LMAXMP2">    -1</i>
   <i name="SCISSOR">      0.00000000</i>
   <i type="int" name="NOMEGA">     0</i>
   <i type="int" name="NOMEGAR">     0</i>
   <i type="int" name="NBANDSGW">    -1</i>
   <i type="int" name="NBANDSO">    -1</i>
   <i type="int" name="NBANDSV">    -1</i>
   <i type="int" name="NELM">     1</i>
   <i type="int" name="NELMHF">     1</i>
   <i type="int" name="DIM">     3</i>
   <i type="int" name="ANTIRES">     0</i>
   <i name="OMEGAMAX">    -30.00000000</i>
   <i name="OMEGAMIN">    -30.00000000</i>
   <i name="OMEGATL">   -200.00000000</i>
   <i type="int" name="OMEGAGRID">     0</i>
   <i name="CSHIFT">     -0.10000000</i>
   <i type="logical" name="SELFENERGY"> F  </i>
   <i type="logical" name="LSPECTRAL"> F  </i>
   <i type="logical" name="LSPECTRALGW"> F  </i>
   <i type="logical" name="LSINGLES"> F  </i>
   <i type="logical" name="LFERMIGW"> F  </i>
   <i type="logical" name="ODDONLYGW"> F  </i>
   <i type="logical" name="EVENONLYGW"> F  </i>
   <i type="int" name="NKREDLFX">     1</i>
   <i type="int" name="NKREDLFY">     1</i>
   <i type="int" name="NKREDLFZ">     1</i>
   <i type="int" name="MAXMEM">  1800</i>
   <i type="int" name="TELESCOPE">     0</i>
   <i type="int" name="TAUPAR">     1</i>
   <i type="int" name="OMEGAPAR">    -1</i>
   <i name="LAMBDA">      1.00000000</i>
  </separator>
  <separator name="External order field" >
   <i name="OFIELD_KAPPA">      0.00000000</i>
   <v name="OFIELD_K">      0.00000000      0.00000000      0.00000000</v>
   <i name="OFIELD_Q6_NEAR">      0.00000000</i>
   <i name="OFIELD_Q6_FAR">      0.00000000</i>
   <i name="OFIELD_A">      0.00000000</i>
  </separator>
 </parameters>
 <atominfo>
  <atoms>      27 </atoms>
  <types>       4 </types>
  <array name="atoms" >
   <dimension dim="1">ion</dimension>
   <field type="string">element</field>
   <field type="int">atomtype</field>
   <set>
    <rc><c>V </c><c>   1</c></rc>
    <rc><c>V </c><c>   1</c></rc>
    <rc><c>V </c><c>   1</c></rc>
    <rc><c>Mo</c><c>   2</c></rc>
    <rc><c>Mo</c><c>   2</c></rc>
    <rc><c>Mo</c><c>   2</c></rc>
    <rc><c>W </c><c>   3</c></rc>
    <rc><c>W </c><c>   3</c></rc>
    <rc><c>W </c><c>   3</c></rc>
    <rc><c>S </c><c>   4</c></rc>
    <rc><c>S </c><c>   4</c></rc>
    <rc><c>S </c><c>   4</c></rc>
    <rc><c>S </c><c>   4</c></rc>
    <rc><c>S </c><c>   4</c></rc>
    <rc><c>S </c><c>   4</c></rc>
    <rc><c>S </c><c>   4</c></rc>
    <rc><c>S </c><c>   4</c></rc>
    <rc><c>S </c><c>   4</c></rc>
    <rc><c>S </c><c>   4</c></rc>
    <rc><c>S </c><c>   4</c></rc>
    <rc><c>S </c><c>   4</c></rc>
    <rc><c>S </c><c>   4</c></rc>
    <rc><c>S </c><c>   4</c></rc>
    <rc><c>S </c><c>   4</c></rc>
    <rc><c>S </c><c>   4</c></rc>
    <rc><c>S </c><c>   4</c></rc>
    <rc><c>S </c><c>   4</c></rc>
   </set>
  </array>
  <array name="atomtypes" >
   <dimension dim="1">type</dimension>
   <field type="int">atomspertype</field>
   <field type="string">element</field>
   <field>mass</field>
   <field>valence</field>
   <field type="string">pseudopotential</field>
   <set>
    <rc><c>   3</c><c>V </c><c>     50.94100000</c><c>      5.00000000</c><c> PAW_PBE V 08Apr2002                    </c></rc>
    <rc><c>   3</c><c>Mo</c><c>     95.94000000</c><c>      6.00000000</c><c> PAW_PBE Mo 08Apr2002                   </c></rc>
    <rc><c>   3</c><c>W </c><c>    183.85000000</c><c>      6.00000000</c><c> PAW_PBE W 08Apr2002                    </c></rc>
    <rc><c>  18</c><c>S </c><c>     32.06600000</c><c>      6.00000000</c><c>  PAW_PBE S 17Jan2003                   </c></rc>
   </set>
  </array>
 </atominfo>
 <structure name="initialpos" >
  <crystal>
   <varray name="basis" >
    <v>       8.66999996       5.03999989       0.00000000 </v>
    <v>      -8.66999982       5.04000013       0.00000000 </v>
    <v>       0.00000000       0.00000000      30.00000000 </v>
   </varray>
   <i name="volume">   2621.80797419 </i>
   <varray name="rec_basis" >
    <v>       0.05767013       0.09920635       0.00000000 </v>
    <v>      -0.05767013       0.09920635       0.00000000 </v>
    <v>       0.00000000       0.00000000       0.03333333 </v>
   </varray>
  </crystal>
  <varray name="positions" >
   <v>       0.66666669       0.00000000       0.00000000 </v>
   <v>       0.33333334       0.33333334       0.00000000 </v>
   <v>       0.66666669       0.66666669       0.00000000 </v>
   <v>       0.66666669       0.33333334       0.00000000 </v>
   <v>       0.00000000       0.66666669       0.00000000 </v>
   <v>       0.00000000       0.00000000       0.00000000 </v>
   <v>       1.00000000       0.33333334       0.00000000 </v>
   <v>       0.33333334       0.00000000       0.00000000 </v>
   <v>       0.33333334       0.66666669       0.00000000 </v>
   <v>       0.11068511       0.22244981       0.95539999 </v>
   <v>       0.22244981       0.11068511       0.04460000 </v>
   <v>       0.11068511       0.55578315       0.95539999 </v>
   <v>       0.22244981       0.44401845       0.04460000 </v>
   <v>       0.11068511       0.88911647       0.95539999 </v>
   <v>       0.22244981       0.77735180       0.04460000 </v>
   <v>       0.44401845       0.22244981       0.95539999 </v>
   <v>       0.55578315       0.11068511       0.04460000 </v>
   <v>       0.44401845       0.55578315       0.95539999 </v>
   <v>       0.55578315       0.44401845       0.04460000 </v>
   <v>       0.44401845       0.88911647       0.95539999 </v>
   <v>       0.55578315       0.77735180       0.04460000 </v>
   <v>       0.77735180       0.22244981       0.95539999 </v>
   <v>       0.88911647       0.11068511       0.04460000 </v>
   <v>       0.77735180       0.55578315       0.95539999 </v>
   <v>       0.88911647       0.44401845       0.04460000 </v>
   <v>       0.77735180       0.88911647       0.95539999 </v>
   <v>       0.88911647       0.77735180       0.04460000 </v>
  </varray>
 </structure>
 <calculation>
  <scstep>
   <time name="dav">   21.92   21.98</time>
   <time name="total">   21.97   22.02</time>
   <energy>
    <i name="alphaZ">     81.65567618 </i>
    <i name="ewald">  41890.23010383 </i>
    <i name="hartreedc"> -47722.86567441 </i>
    <i name="XCdc">   -242.92868304 </i>
    <i name="pawpsdc">   3467.42045192 </i>
    <i name="pawaedc">  -2871.19716117 </i>
    <i name="eentropy">     -0.53529692 </i>
    <i name="bandstr">   -239.03320319 </i>
    <i name="atom">   6761.44252427 </i>
    <i name="e_fr_energy">   1124.18873746 </i>
    <i name="e_wo_entrp">   1124.72403438 </i>
    <i name="e_0_energy">   1124.45638592 </i>
   </energy>
  </scstep>
  <scstep>
   <time name="dav">   28.20   28.27</time>
   <time name="total">   28.20   28.28</time>
   <energy>
    <i name="e_fr_energy">     -0.92261479 </i>
    <i name="e_wo_entrp">     -0.74049225 </i>
    <i name="e_0_energy">     -0.83155352 </i>
   </energy>
  </scstep>
  <scstep>
   <time name="dav">   27.80   27.87</time>
   <time name="total">   27.80   27.88</time>
   <energy>
    <i name="e_fr_energy">   -199.80853316 </i>
    <i name="e_wo_entrp">   -199.55157678 </i>
    <i name="e_0_energy">   -199.68005497 </i>
   </energy>
  </scstep>
  <scstep>
   <time name="dav">   29.80   29.88</time>
   <time name="total">   29.81   29.88</time>
   <energy>
    <i name="e_fr_energy">   -208.94448877 </i>
    <i name="e_wo_entrp">   -208.63610108 </i>
    <i name="e_0_energy">   -208.79029492 </i>
   </energy>
  </scstep>
  <scstep>
   <time name="dav">   29.41   29.48</time>
   <time name="total">   29.88   29.96</time>
   <energy>
    <i name="e_fr_energy">   -209.30567535 </i>
    <i name="e_wo_entrp">   -209.00000426 </i>
    <i name="e_0_energy">   -209.15283981 </i>
   </energy>
  </scstep>
  <scstep>
   <time name="dav">   31.75   31.82</time>
   <time name="total">   32.25   32.33</time>
   <energy>
    <i name="e_fr_energy">   -236.76442281 </i>
    <i name="e_wo_entrp">   -236.48084096 </i>
    <i name="e_0_energy">   -236.62263189 </i>
   </energy>
  </scstep>
  <scstep>
   <time name="dav">   31.72   31.80</time>
   <time name="total">   32.23   32.32</time>
   <energy>
    <i name="e_fr_energy">   -196.67926365 </i>
    <i name="e_wo_entrp">   -196.35771347 </i>
    <i name="e_0_energy">   -196.51848856 </i>
   </energy>
  </scstep>
  <scstep>
   <time name="dav">   29.62   29.70</time>
   <time name="total">   30.13   30.21</time>
   <energy>
    <i name="e_fr_energy">   -189.95149604 </i>
    <i name="e_wo_entrp">   -189.67453453 </i>
    <i name="e_0_energy">   -189.81301529 </i>
   </energy>
  </scstep>
  <scstep>
   <time name="dav">   30.00   30.07</time>
   <time name="total">   30.52   30.60</time>
   <energy>
    <i name="e_fr_energy">   -188.23267882 </i>
    <i name="e_wo_entrp">   -187.90379098 </i>
    <i name="e_0_energy">   -188.06823490 </i>
   </energy>
  </scstep>
  <scstep>
   <time name="dav">   33.02   33.10</time>
   <time name="total">   33.55   33.64</time>
   <energy>
    <i name="e_fr_energy">   -187.04980963 </i>
    <i name="e_wo_entrp">   -186.70778858 </i>
    <i name="e_0_energy">   -186.87879911 </i>
   </energy>
  </scstep>
  <scstep>
   <time name="dav">   33.30   33.38</time>
   <time name="total">   33.84   33.92</time>
   <energy>
    <i name="e_fr_energy">   -187.02510741 </i>
    <i name="e_wo_entrp">   -186.67275383 </i>
    <i name="e_0_energy">   -186.84893062 </i>
   </energy>
  </scstep>
  <scstep>
   <time name="dav">   32.62   32.70</time>
   <time name="total">   33.15   33.24</time>
   <energy>
    <i name="e_fr_energy">   -187.17628704 </i>
    <i name="e_wo_entrp">   -186.84232668 </i>
    <i name="e_0_energy">   -187.00930686 </i>
   </energy>
  </scstep>
  <scstep>
   <time name="dav">   31.78   31.86</time>
   <time name="total">   32.32   32.41</time>
   <energy>
    <i name="e_fr_energy">   -186.92082424 </i>
    <i name="e_wo_entrp">   -186.58715542 </i>
    <i name="e_0_energy">   -186.75398983 </i>
   </energy>
  </scstep>
  <scstep>
   <time name="dav">   32.59   32.67</time>
   <time name="total">   33.12   33.21</time>
   <energy>
    <i name="e_fr_energy">   -186.87705035 </i>
    <i name="e_wo_entrp">   -186.53107186 </i>
    <i name="e_0_energy">   -186.70406110 </i>
   </energy>
  </scstep>
  <scstep>
   <time name="dav">   32.25   32.33</time>
   <time name="total">   32.79   32.87</time>
   <energy>
    <i name="e_fr_energy">   -186.87441998 </i>
    <i name="e_wo_entrp">   -186.52884460 </i>
    <i name="e_0_energy">   -186.70163229 </i>
   </energy>
  </scstep>
  <scstep>
   <time name="dav">   32.14   32.21</time>
   <time name="total">   32.67   32.76</time>
   <energy>
    <i name="e_fr_energy">   -186.86843658 </i>
    <i name="e_wo_entrp">   -186.52455491 </i>
    <i name="e_0_energy">   -186.69649575 </i>
   </energy>
  </scstep>
  <scstep>
   <time name="dav">   31.98   32.06</time>
   <time name="total">   32.52   32.61</time>
   <energy>
    <i name="e_fr_energy">   -186.86846524 </i>
    <i name="e_wo_entrp">   -186.52544986 </i>
    <i name="e_0_energy">   -186.69695755 </i>
   </energy>
  </scstep>
  <scstep>
   <time name="dav">   29.61   29.68</time>
   <time name="total">   30.14   30.22</time>
   <energy>
    <i name="e_fr_energy">   -186.86778629 </i>
    <i name="e_wo_entrp">   -186.52448784 </i>
    <i name="e_0_energy">   -186.69613707 </i>
   </energy>
  </scstep>
  <scstep>
   <time name="dav">   24.98   25.04</time>
   <time name="total">   25.02   25.09</time>
   <energy>
    <i name="alphaZ">     81.65567618 </i>
    <i name="ewald">  41890.23010383 </i>
    <i name="hartreedc"> -47817.85481289 </i>
    <i name="XCdc">   -231.69524914 </i>
    <i name="pawpsdc">   4194.28210007 </i>
    <i name="pawaedc">  -3612.31278882 </i>
    <i name="eentropy">     -0.34340554 </i>
    <i name="bandstr">  -1452.27196868 </i>
    <i name="atom">   6761.44252427 </i>
    <i name="e_fr_energy">   -186.86782074 </i>
    <i name="e_wo_entrp">   -186.52441520 </i>
    <i name="e_0_energy">   -186.69611797 </i>
   </energy>
  </scstep>
  <structure>
   <crystal>
    <varray name="basis" >
     <v>       8.66999996       5.03999989       0.00000000 </v>
     <v>      -8.66999982       5.04000013       0.00000000 </v>
     <v>       0.00000000       0.00000000      30.00000000 </v>
    </varray>
    <i name="volume">   2621.80797419 </i>
    <varray name="rec_basis" >
     <v>       0.05767013       0.09920635       0.00000000 </v>
     <v>      -0.05767013       0.09920635       0.00000000 </v>
     <v>       0.00000000       0.00000000       0.03333333 </v>
    </varray>
   </crystal>
   <varray name="positions" >
    <v>       0.66666669       0.00000000       0.00000000 </v>
    <v>       0.33333334       0.33333334       0.00000000 </v>
    <v>       0.66666669       0.66666669       0.00000000 </v>
    <v>       0.66666669       0.33333334       0.00000000 </v>
    <v>       0.00000000       0.66666669       0.00000000 </v>
    <v>       0.00000000       0.00000000       0.00000000 </v>
    <v>       1.00000000       0.33333334       0.00000000 </v>
    <v>       0.33333334       0.00000000       0.00000000 </v>
    <v>       0.33333334       0.66666669       0.00000000 </v>
    <v>       0.11068511       0.22244981       0.95539999 </v>
    <v>       0.22244981       0.11068511       0.04460000 </v>
    <v>       0.11068511       0.55578315       0.95539999 </v>
    <v>       0.22244981       0.44401845       0.04460000 </v>
    <v>       0.11068511       0.88911647       0.95539999 </v>
    <v>       0.22244981       0.77735180       0.04460000 </v>
    <v>       0.44401845       0.22244981       0.95539999 </v>
    <v>       0.55578315       0.11068511       0.04460000 </v>
    <v>       0.44401845       0.55578315       0.95539999 </v>
    <v>       0.55578315       0.44401845       0.04460000 </v>
    <v>       0.44401845       0.88911647       0.95539999 </v>
    <v>       0.55578315       0.77735180       0.04460000 </v>
    <v>       0.77735180       0.22244981       0.95539999 </v>
    <v>       0.88911647       0.11068511       0.04460000 </v>
    <v>       0.77735180       0.55578315       0.95539999 </v>
    <v>       0.88911647       0.44401845       0.04460000 </v>
    <v>       0.77735180       0.88911647       0.95539999 </v>
    <v>       0.88911647       0.77735180       0.04460000 </v>
   </varray>
  </structure>
  <varray name="forces" >
   <v>       0.08512116       0.19484346      -0.09435952 </v>
   <v>       0.20624426      -0.03123129       0.08990609 </v>
   <v>       0.35935859       0.20492515       0.00030619 </v>
   <v>      -0.06806980       0.27959651       0.06776605 </v>
   <v>      -0.26637531      -0.13231746       0.00655916 </v>
   <v>       0.23633964      -0.20283065      -0.05976617 </v>
   <v>      -0.23556730      -0.19520116      -0.15257814 </v>
   <v>      -0.30501641      -0.11567173       0.15143318 </v>
   <v>      -0.11773173      -0.08489018      -0.00739531 </v>
   <v>       0.35048170       0.69710987      -2.10585075 </v>
   <v>      -0.34928796       0.72768844       2.20533810 </v>
   <v>       0.27460290      -0.01962789      -2.89812287 </v>
   <v>       0.63813405       0.01417714       2.12663776 </v>
   <v>       0.21058691       0.13087389      -2.89168649 </v>
   <v>      -0.06832392       0.14344533       2.90598659 </v>
   <v>      -0.64841977      -0.13232868      -2.10097136 </v>
   <v>       0.65136183      -0.16002891       2.05710239 </v>
   <v>       0.73739954      -0.00569604      -1.43881751 </v>
   <v>      -0.89743212      -0.01671108       1.46573842 </v>
   <v>       0.49844454       0.59748267      -2.17204219 </v>
   <v>       0.23223641       0.52370345       1.39524302 </v>
   <v>       0.64695651      -0.54838857      -2.19275745 </v>
   <v>      -0.59616436      -0.54604008       2.13623835 </v>
   <v>      -0.74189976       0.00722621      -2.14169155 </v>
   <v>       0.02885784       0.02223032       2.89232684 </v>
   <v>      -0.33751546      -0.65960974      -1.42134102 </v>
   <v>      -0.52432198      -0.69272899       2.17679822 </v>
  </varray>
  <varray name="stress" >
   <v>       7.43241116       0.03776266      -1.52933083 </v>
   <v>       0.03776245       4.50147815      -0.04230479 </v>
   <v>      -1.52933068      -0.04230483      31.08011393 </v>
  </varray>
  <energy>
   <i name="e_fr_energy">   -186.86782074 </i>
   <i name="e_wo_entrp">   -186.69611797 </i>
   <i name="e_0_energy">     -0.34340554 </i>
  </energy>
  <time name="totalsc">  624.38  626.03</time>
 </calculation>
 <calculation>
  <scstep>
   <time name="dav">   21.93   21.98</time>
   <time name="total">   22.47   22.53</time>
   <energy>
    <i name="alphaZ">     78.88072138 </i>
    <i name="ewald">  39358.64296284 </i>
    <i name="hartreedc"> -45306.61047718 </i>
    <i name="XCdc">   -239.15121966 </i>
    <i name="pawpsdc">   4193.07267257 </i>
    <i name="pawaedc">  -3611.08184953 </i>
    <i name="eentropy">     -0.28380176 </i>
    <i name="bandstr">  -1422.39280774 </i>
    <i name="atom">   6761.44252427 </i>
    <i name="e_fr_energy">   -187.48127480 </i>
    <i name="e_wo_entrp">   -187.19747303 </i>
    <i name="e_0_energy">   -187.33937391 </i>
   </energy>
  </scstep>
  <scstep>
   <time name="dav">   29.80   29.88</time>
   <time name="total">   30.34   30.42</time>
   <energy>
    <i name="e_fr_energy">   -189.42960230 </i>
    <i name="e_wo_entrp">   -189.09837372 </i>
    <i name="e_0_energy">   -189.26398801 </i>
   </energy>
  </scstep>
  <scstep>
   <time name="dav">   30.36   30.43</time>
   <time name="total">   30.91   30.99</time>
   <energy>
    <i name="e_fr_energy">   -189.34272644 </i>
    <i name="e_wo_entrp">   -189.06662989 </i>
    <i name="e_0_energy">   -189.20467816 </i>
   </energy>
  </scstep>
  <scstep>
   <time name="dav">   30.25   30.32</time>
   <time name="total">   30.80   30.88</time>
   <energy>
    <i name="e_fr_energy">   -188.75097808 </i>
    <i name="e_wo_entrp">   -188.46652298 </i>
    <i name="e_0_energy">   -188.60875053 </i>
   </energy>
  </scstep>
  <scstep>
   <time name="dav">   28.53   28.60</time>
   <time name="total">   29.07   29.15</time>
   <energy>
    <i name="e_fr_energy">   -188.84669189 </i>
    <i name="e_wo_entrp">   -188.55631418 </i>
    <i name="e_0_energy">   -188.70150303 </i>
   </energy>
  </scstep>
  <scstep>
   <time name="dav">   30.66   30.74</time>
   <time name="total">   31.21   31.29</time>
   <energy>
    <i name="e_fr_energy">   -188.74718722 </i>
    <i name="e_wo_entrp">   -188.46013383 </i>
    <i name="e_0_energy">   -188.60366053 </i>
   </energy>
  </scstep>
  <scstep>
   <time name="dav">   30.43   30.50</time>
   <time name="total">   30.98   31.07</time>
   <energy>
    <i name="e_fr_energy">   -188.66546008 </i>
    <i name="e_wo_entrp">   -188.38056294 </i>
    <i name="e_0_energy">   -188.52301151 </i>
   </energy>
  </scstep>
  <scstep>
   <time name="dav">   29.37   29.44</time>
   <time name="total">   29.92   30.00</time>
   <energy>
    <i name="e_fr_energy">   -188.66222964 </i>
    <i name="e_wo_entrp">   -188.37837752 </i>
    <i name="e_0_energy">   -188.52030358 </i>
   </energy>
  </scstep>
  <scstep>
   <time name="dav">   28.43   28.50</time>
   <time name="total">   28.98   29.06</time>
   <energy>
    <i name="e_fr_energy">   -188.64659640 </i>
    <i name="e_wo_entrp">   -188.36301196 </i>
    <i name="e_0_energy">   -188.50480418 </i>
   </energy>
  </scstep>
  <scstep>
   <time name="dav">   30.12   30.19</time>
   <time name="total">   30.67   30.75</time>
   <energy>
    <i name="e_fr_energy">   -188.64390918 </i>
    <i name="e_wo_entrp">   -188.36080083 </i>
    <i name="e_0_energy">   -188.50235500 </i>
   </energy>
  </scstep>
  <scstep>
   <time name="dav">   31.36   31.44</time>
   <time name="total">   31.91   31.99</time>
   <energy>
    <i name="e_fr_energy">   -188.64348065 </i>
    <i name="e_wo_entrp">   -188.36057745 </i>
    <i name="e_0_energy">   -188.50202905 </i>
   </energy>
  </scstep>
  <scstep>
   <time name="dav">   28.11   28.17</time>
   <time name="total">   28.65   28.73</time>
   <energy>
    <i name="e_fr_energy">   -188.64347260 </i>
    <i name="e_wo_entrp">   -188.36124867 </i>
    <i name="e_0_energy">   -188.50236063 </i>
   </energy>
  </scstep>
  <scstep>
   <time name="dav">   19.38   19.43</time>
   <time name="total">   19.94   19.99</time>
   <energy>
    <i name="e_fr_energy">   -188.64361854 </i>
    <i name="e_wo_entrp">   -188.36113845 </i>
    <i name="e_0_energy">   -188.50237850 </i>
   </energy>
  </scstep>
  <scstep>
   <time name="dav">   21.33   21.38</time>
   <time name="total">   21.37   21.43</time>
   <energy>
    <i name="alphaZ">     78.88072138 </i>
    <i name="ewald">  39358.64296284 </i>
    <i name="hartreedc"> -45323.84520790 </i>
    <i name="XCdc">   -238.01884109 </i>
    <i name="pawpsdc">   3949.56608888 </i>
    <i name="pawaedc">  -3364.06461469 </i>
    <i name="eentropy">     -0.28254039 </i>
    <i name="bandstr">  -1410.96477720 </i>
    <i name="atom">   6761.44252427 </i>
    <i name="e_fr_energy">   -188.64368389 </i>
    <i name="e_wo_entrp">   -188.36114350 </i>
    <i name="e_0_energy">   -188.50241370 </i>
   </energy>
  </scstep>
  <structure>
   <crystal>
    <varray name="basis" >
     <v>       8.85896757       5.10729228       0.00000000 </v>
     <v>      -8.85785447       5.10537796       0.00000000 </v>
     <v>       0.00000000       0.00000000      30.00000000 </v>
    </varray>
    <i name="volume">   2714.04088584 </i>
    <varray name="rec_basis" >
     <v>       0.05643295       0.09791143       0.00000000 </v>
     <v>      -0.05645411       0.09792374       0.00000000 </v>
     <v>       0.00000000       0.00000000       0.03333333 </v>
    </varray>
   </crystal>
   <varray name="positions" >
    <v>       0.66783602       0.00069570      -0.00015174 </v>
    <v>       0.33375768       0.33261007       0.00014458 </v>
    <v>       0.66864725       0.66664766       0.00000049 </v>
    <v>       0.66781545       0.33486087       0.00010897 </v>
    <v>      -0.00137437       0.66677452       0.00001055 </v>
    <v>      -0.00031321      -0.00162828      -0.00009611 </v>
    <v>       0.99841039       0.33305450      -0.00024536 </v>
    <v>       0.33193114       0.00029500       0.00024352 </v>
    <v>       0.33259951       0.66658795      -0.00001189 </v>
    <v>       0.11499656       0.22481107       0.95201360 </v>
    <v>       0.22496073       0.11513959       0.04814638 </v>
    <v>       0.11135516       0.55492522       0.95073955 </v>
    <v>       0.22429305       0.44231091       0.04801982 </v>
    <v>       0.11189736       0.88915694       0.95074990 </v>
    <v>       0.22294625       0.77822841       0.04927308 </v>
    <v>       0.44158112       0.22362049       0.95202144 </v>
    <v>       0.55682945       0.10810702       0.04790800 </v>
    <v>       0.44604276       0.55370433       0.95308624 </v>
    <v>       0.55320637       0.44643527       0.04695704 </v>
    <v>       0.44826474       0.89058925       0.95190715 </v>
    <v>       0.55893570       0.77921211       0.04684367 </v>
    <v>       0.77652716       0.21802530       0.95187384 </v>
    <v>       0.88484451       0.10973040       0.04803526 </v>
    <v>       0.77532230       0.55788182       0.95195596 </v>
    <v>       0.88930315       0.44404456       0.04925112 </v>
    <v>       0.77325590       0.88689861       0.95311435 </v>
    <v>       0.88434233       0.77549516       0.04810048 </v>
   </varray>
  </structure>
  <varray name="forces" >
   <v>       0.02428254       0.21874584       0.04221462 </v>
   <v>       0.20038966      -0.08096324      -0.04460381 </v>
   <v>       0.32565479       0.18492817       0.00038184 </v>
   <v>       0.12520640       0.36544961       0.07661210 </v>
   <v>      -0.07759291      -0.04121634       0.00093797 </v>
   <v>       0.38179049      -0.07174007      -0.07643385 </v>
   <v>      -0.35171754      -0.09908447      -0.04043740 </v>
   <v>      -0.25887355      -0.26220648       0.04410413 </v>
   <v>      -0.30072620      -0.17462344      -0.00076379 </v>
   <v>      -0.10681449       0.05899943       0.13604378 </v>
   <v>       0.10534019       0.06079290       0.09570648 </v>
   <v>       0.09060782      -0.00854157      -0.04328165 </v>
   <v>      -0.08207360      -0.00362134      -0.12207076 </v>
   <v>       0.07284231       0.11080794      -0.13477578 </v>
   <v>       0.05776940       0.09472139       0.03721529 </v>
   <v>       0.02365241      -0.09223806       0.07171681 </v>
   <v>      -0.01304930      -0.11034307      -0.11709422 </v>
   <v>      -0.10689702       0.00495566       0.24680129 </v>
   <v>      -0.03767796       0.01662048      -0.04985137 </v>
   <v>      -0.05259350      -0.05026394       0.14691086 </v>
   <v>      -0.05899369      -0.08224429      -0.23005415 </v>
   <v>       0.08152687       0.04532644      -0.09751766 </v>
   <v>      -0.07040926       0.04848420      -0.08967975 </v>
   <v>      -0.07885210      -0.00872052      -0.16124112 </v>
   <v>       0.14619719       0.01366893       0.12293874 </v>
   <v>       0.00856197      -0.05475696       0.03361688 </v>
   <v>      -0.04755094      -0.08293718       0.15260454 </v>
  </varray>
  <varray name="stress" >
   <v>     -19.94701183      -0.01941157       0.05829463 </v>
   <v>      -0.01941151     -19.53635070      -0.04691005 </v>
   <v>       0.05829448      -0.04691025      -1.66999758 </v>
  </varray>
  <energy>
   <i name="e_fr_energy">   -188.64368389 </i>
   <i name="e_wo_entrp">   -188.50241370 </i>
   <i name="e_0_energy">     -0.28254039 </i>
  </energy>
  <time name="totalsc">  439.53  440.71</time>
 </calculation>
 <calculation>
  <scstep>
   <time name="dav">   24.04   24.10</time>
   <time name="total">   24.58   24.64</time>
   <energy>
    <i name="alphaZ">     82.31893705 </i>
    <i name="ewald">  41290.14526549 </i>
    <i name="hartreedc"> -47286.36743493 </i>
    <i name="XCdc">   -233.87389449 </i>
    <i name="pawpsdc">   3948.58086052 </i>
    <i name="pawaedc">  -3363.07014005 </i>
    <i name="eentropy">     -0.23606814 </i>
    <i name="bandstr">  -1389.51540833 </i>
    <i name="atom">   6761.44252427 </i>
    <i name="e_fr_energy">   -190.57535860 </i>
    <i name="e_wo_entrp">   -190.33929046 </i>
    <i name="e_0_energy">   -190.45732453 </i>
   </energy>
  </scstep>
  <scstep>
   <time name="dav">   29.53   29.60</time>
   <time name="total">   30.05   30.13</time>
   <energy>
    <i name="e_fr_energy">   -190.57181460 </i>
    <i name="e_wo_entrp">   -190.33314890 </i>
    <i name="e_0_energy">   -190.45248175 </i>
   </energy>
  </scstep>
  <scstep>
   <time name="dav">   30.46   30.54</time>
   <time name="total">   30.99   31.07</time>
   <energy>
    <i name="e_fr_energy">   -190.04728088 </i>
    <i name="e_wo_entrp">   -189.79692256 </i>
    <i name="e_0_energy">   -189.92210172 </i>
   </energy>
  </scstep>
  <scstep>
   <time name="dav">   32.02   32.10</time>
   <time name="total">   32.56   32.65</time>
   <energy>
    <i name="e_fr_energy">   -189.84867062 </i>
    <i name="e_wo_entrp">   -189.61257314 </i>
    <i name="e_0_energy">   -189.73062188 </i>
   </energy>
  </scstep>
  <scstep>
   <time name="dav">   30.79   30.87</time>
   <time name="total">   31.32   31.41</time>
   <energy>
    <i name="e_fr_energy">   -189.89629856 </i>
    <i name="e_wo_entrp">   -189.65079764 </i>
    <i name="e_0_energy">   -189.77354810 </i>
   </energy>
  </scstep>
  <scstep>
   <time name="dav">   30.44   30.52</time>
   <time name="total">   30.98   31.06</time>
   <energy>
    <i name="e_fr_energy">   -189.74025385 </i>
    <i name="e_wo_entrp">   -189.50174638 </i>
    <i name="e_0_energy">   -189.62100011 </i>
   </energy>
  </scstep>
  <scstep>
   <time name="dav">   30.26   30.33</time>
   <time name="total">   30.80   30.88</time>
   <energy>
    <i name="e_fr_energy">   -189.73427102 </i>
    <i name="e_wo_entrp">   -189.49608373 </i>
    <i name="e_0_energy">   -189.61517738 </i>
   </energy>
  </scstep>
  <scstep>
   <time name="dav">   28.57   28.64</time>
   <time name="total">   29.11   29.18</time>
   <energy>
    <i name="e_fr_energy">   -189.73460593 </i>
    <i name="e_wo_entrp">   -189.49643147 </i>
    <i name="e_0_energy">   -189.61551870 </i>
   </energy>
  </scstep>
  <scstep>
   <time name="dav">   26.90   26.97</time>
   <time name="total">   27.44   27.51</time>
   <energy>
    <i name="e_fr_energy">   -189.73435825 </i>
    <i name="e_wo_entrp">   -189.49611809 </i>
    <i name="e_0_energy">   -189.61523817 </i>
   </energy>
  </scstep>
  <scstep>
   <time name="dav">   25.70   25.76</time>
   <time name="total">   26.23   26.30</time>
   <energy>
    <i name="e_fr_energy">   -189.73454391 </i>
    <i name="e_wo_entrp">   -189.49618613 </i>
    <i name="e_0_energy">   -189.61536502 </i>
   </energy>
  </scstep>
  <scstep>
   <time name="dav">   22.36   22.42</time>
   <time name="total">   22.90   22.96</time>
   <energy>
    <i name="e_fr_energy">   -189.73428863 </i>
    <i name="e_wo_entrp">   -189.49597763 </i>
    <i name="e_0_energy">   -189.61513313 </i>
   </energy>
  </scstep>
  <scstep>
   <time name="dav">   19.36   19.40</time>
   <time name="total">   19.39   19.45</time>
   <energy>
    <i name="alphaZ">     82.31893705 </i>
    <i name="ewald">  41290.14526549 </i>
    <i name="hartreedc"> -47261.57146567 </i>
    <i name="XCdc">   -235.26405253 </i>
    <i name="pawpsdc">   4038.48441873 </i>
    <i name="pawaedc">  -3454.18273461 </i>
    <i name="eentropy">     -0.23830240 </i>
    <i name="bandstr">  -1410.86893438 </i>
    <i name="atom">   6761.44252427 </i>
    <i name="e_fr_energy">   -189.73434404 </i>
    <i name="e_wo_entrp">   -189.49604164 </i>
    <i name="e_0_energy">   -189.61519284 </i>
   </energy>
  </scstep>
  <structure>
   <crystal>
    <varray name="basis" >
     <v>       8.66993755       5.00043398       0.00000000 </v>
     <v>      -8.66906014       4.99892733       0.00000000 </v>
     <v>       0.00000000       0.00000000      30.00000000 </v>
    </varray>
    <i name="volume">   2600.68351968 </i>
    <varray name="rec_basis" >
     <v>       0.05766477       0.10000133       0.00000000 </v>
     <v>      -0.05768215       0.10001145       0.00000000 </v>
     <v>       0.00000000       0.00000000       0.03333333 </v>
    </varray>
   </crystal>
   <varray name="positions" >
    <v>       0.66822435       0.00103735      -0.00012776 </v>
    <v>       0.33381530       0.33228219       0.00011924 </v>
    <v>       0.66926896       0.66664296       0.00000071 </v>
    <v>       0.66854559       0.33535023       0.00015249 </v>
    <v>      -0.00151775       0.66678039       0.00001108 </v>
    <v>      -0.00006576      -0.00211528      -0.00013953 </v>
    <v>       0.99790684       0.33322752      -0.00026833 </v>
    <v>       0.33124471       0.00010650       0.00026857 </v>
    <v>       0.33201897       0.66658586      -0.00001233 </v>
    <v>       0.11499228       0.22501227       0.95209087 </v>
    <v>       0.22516347       0.11513969       0.04820074 </v>
    <v>       0.11142804       0.55482381       0.95071497 </v>
    <v>       0.22420808       0.44238383       0.04795048 </v>
    <v>       0.11215228       0.88927177       0.95067335 </v>
    <v>       0.22315984       0.77833090       0.04929422 </v>
    <v>       0.44144997       0.22344383       0.95206218 </v>
    <v>       0.55663280       0.10793545       0.04784149 </v>
    <v>       0.44594823       0.55381543       0.95322643 </v>
    <v>       0.55319787       0.44649926       0.04692872 </v>
    <v>       0.44813030       0.89055597       0.95199060 </v>
    <v>       0.55874175       0.77913162       0.04671300 </v>
    <v>       0.77668118       0.21802250       0.95181845 </v>
    <v>       0.88485769       0.10987904       0.04798432 </v>
    <v>       0.77523192       0.55794313       0.95186437 </v>
    <v>       0.88946654       0.44392673       0.04932095 </v>
    <v>       0.77317277       0.88679900       0.95313344 </v>
    <v>       0.88415823       0.77540251       0.04818717 </v>
   </varray>
  </structure>
  <varray name="forces" >
   <v>      -0.01418215       0.23941873       0.06583513 </v>
   <v>       0.19777060      -0.12913000      -0.06631294 </v>
   <v>       0.32695656       0.18703094       0.00113134 </v>
   <v>       0.19133472       0.37581686       0.05201548 </v>
   <v>      -0.00984352      -0.00157907      -0.00094003 </v>
   <v>       0.42490071      -0.02215096      -0.05328537 </v>
   <v>      -0.39418135      -0.05987240      -0.00110919 </v>
   <v>      -0.24679258      -0.32280958       0.00349758 </v>
   <v>      -0.36470290      -0.21370336       0.00056828 </v>
   <v>       0.00652507       0.11542557      -0.34412417 </v>
   <v>      -0.03060751       0.11406828       0.62341930 </v>
   <v>       0.00340314      -0.01393731      -0.61614790 </v>
   <v>       0.05742815      -0.01994117       0.37685847 </v>
   <v>       0.04539536       0.04032427      -0.69725638 </v>
   <v>       0.00795052       0.02171593       0.61163024 </v>
   <v>      -0.07078981      -0.01388863      -0.40532622 </v>
   <v>       0.09127613      -0.04208158       0.36305193 </v>
   <v>       0.04638607       0.01302245      -0.19958370 </v>
   <v>      -0.11791631       0.02472155       0.40324730 </v>
   <v>       0.00343224       0.07813209      -0.35382895 </v>
   <v>       0.02379619       0.04396415       0.21550862 </v>
   <v>       0.06276700      -0.09432237      -0.62545333 </v>
   <v>      -0.05001820      -0.06985038       0.38796558 </v>
   <v>      -0.15170832      -0.00722660      -0.66105570 </v>
   <v>       0.06902455       0.02598347       0.68599907 </v>
   <v>      -0.02234924      -0.12352860      -0.41922674 </v>
   <v>      -0.08525511      -0.14560228       0.65292231 </v>
  </varray>
  <varray name="stress" >
   <v>     -10.20605987      -0.00226921       0.04247565 </v>
   <v>      -0.00226928      -9.88774957      -0.04185348 </v>
   <v>       0.04247559      -0.04185352       6.49867181 </v>
  </varray>
  <energy>
   <i name="e_fr_energy">   -189.73434404 </i>
   <i name="e_wo_entrp">   -189.61519284 </i>
   <i name="e_0_energy">     -0.23830240 </i>
  </energy>
  <time name="totalsc">  378.64  379.64</time>
 </calculation>
 <calculation>
  <scstep>
   <time name="dav">   21.88   21.93</time>
   <time name="total">   22.40   22.46</time>
   <energy>
    <i name="alphaZ">     85.82927805 </i>
    <i name="ewald">  42838.27354395 </i>
    <i name="hartreedc"> -48854.77548426 </i>
    <i name="XCdc">   -232.94226900 </i>
    <i name="pawpsdc">   4038.28515039 </i>
    <i name="pawaedc">  -3453.97601457 </i>
    <i name="eentropy">     -0.19712293 </i>
    <i name="bandstr">  -1373.23613329 </i>
    <i name="atom">   6761.44252427 </i>
    <i name="e_fr_energy">   -191.29652738 </i>
    <i name="e_wo_entrp">   -191.09940445 </i>
    <i name="e_0_energy">   -191.19796591 </i>
   </energy>
  </scstep>
  <scstep>
   <time name="dav">   33.11   33.19</time>
   <time name="total">   33.63   33.71</time>
   <energy>
    <i name="e_fr_energy">   -191.17132906 </i>
    <i name="e_wo_entrp">   -190.96950655 </i>
    <i name="e_0_energy">   -191.07041781 </i>
   </energy>
  </scstep>
  <scstep>
   <time name="dav">   30.37   30.44</time>
   <time name="total">   30.88   30.96</time>
   <energy>
    <i name="e_fr_energy">   -191.19906754 </i>
    <i name="e_wo_entrp">   -190.98088359 </i>
    <i name="e_0_energy">   -191.08997557 </i>
   </energy>
  </scstep>
  <scstep>
   <time name="dav">   31.94   32.02</time>
   <time name="total">   32.46   32.55</time>
   <energy>
    <i name="e_fr_energy">   -190.80999271 </i>
    <i name="e_wo_entrp">   -190.61054278 </i>
    <i name="e_0_energy">   -190.71026775 </i>
   </energy>
  </scstep>
  <scstep>
   <time name="dav">   28.26   28.33</time>
   <time name="total">   28.78   28.86</time>
   <energy>
    <i name="e_fr_energy">   -190.71072902 </i>
    <i name="e_wo_entrp">   -190.50744528 </i>
    <i name="e_0_energy">   -190.60908715 </i>
   </energy>
  </scstep>
  <scstep>
   <time name="dav">   30.41   30.48</time>
   <time name="total">   30.93   31.01</time>
   <energy>
    <i name="e_fr_energy">   -190.70803712 </i>
    <i name="e_wo_entrp">   -190.50454906 </i>
    <i name="e_0_energy">   -190.60629309 </i>
   </energy>
  </scstep>
  <scstep>
   <time name="dav">   29.73   29.80</time>
   <time name="total">   30.25   30.33</time>
   <energy>
    <i name="e_fr_energy">   -190.69832039 </i>
    <i name="e_wo_entrp">   -190.49567579 </i>
    <i name="e_0_energy">   -190.59699809 </i>
   </energy>
  </scstep>
  <scstep>
   <time name="dav">   26.88   26.95</time>
   <time name="total">   27.40   27.48</time>
   <energy>
    <i name="e_fr_energy">   -190.69241941 </i>
    <i name="e_wo_entrp">   -190.48972831 </i>
    <i name="e_0_energy">   -190.59107386 </i>
   </energy>
  </scstep>
  <scstep>
   <time name="dav">   27.82   27.88</time>
   <time name="total">   28.33   28.41</time>
   <energy>
    <i name="e_fr_energy">   -190.69271316 </i>
    <i name="e_wo_entrp">   -190.48983302 </i>
    <i name="e_0_energy">   -190.59127309 </i>
   </energy>
  </scstep>
  <scstep>
   <time name="dav">   29.46   29.53</time>
   <time name="total">   29.98   30.06</time>
   <energy>
    <i name="e_fr_energy">   -190.69283503 </i>
    <i name="e_wo_entrp">   -190.49009041 </i>
    <i name="e_0_energy">   -190.59146272 </i>
   </energy>
  </scstep>
  <scstep>
   <time name="dav">   24.05   24.11</time>
   <time name="total">   24.58   24.64</time>
   <energy>
    <i name="e_fr_energy">   -190.69259992 </i>
    <i name="e_wo_entrp">   -190.48989987 </i>
    <i name="e_0_energy">   -190.59124989 </i>
   </energy>
  </scstep>
  <scstep>
   <time name="dav">   18.24   18.29</time>
   <time name="total">   18.28   18.33</time>
   <energy>
    <i name="alphaZ">     85.82927805 </i>
    <i name="ewald">  42838.27354395 </i>
    <i name="hartreedc"> -48826.26041098 </i>
    <i name="XCdc">   -234.29285138 </i>
    <i name="pawpsdc">   4063.35769514 </i>
    <i name="pawaedc">  -3479.23034946 </i>
    <i name="eentropy">     -0.20267306 </i>
    <i name="bandstr">  -1399.60932310 </i>
    <i name="atom">   6761.44252427 </i>
    <i name="e_fr_energy">   -190.69256656 </i>
    <i name="e_wo_entrp">   -190.48989350 </i>
    <i name="e_0_energy">   -190.59123003 </i>
   </energy>
  </scstep>
  <structure>
   <crystal>
    <varray name="basis" >
     <v>       8.48659269       4.89976931       0.00000000 </v>
     <v>      -8.48552856       4.89793707       0.00000000 </v>
     <v>       0.00000000       0.00000000      30.00000000 </v>
    </varray>
    <i name="volume">   2494.31788065 </i>
    <varray name="rec_basis" >
     <v>       0.05890914       0.10205831       0.00000000 </v>
     <v>      -0.05893117       0.10207110       0.00000000 </v>
     <v>       0.00000000       0.00000000       0.03333333 </v>
    </varray>
   </crystal>
   <varray name="positions" >
    <v>       0.66967153       0.00269840       0.00002890 </v>
    <v>       0.33359636       0.33063912      -0.00003678 </v>
    <v>       0.67163286       0.66663647       0.00000369 </v>
    <v>       0.67171752       0.33694643       0.00023939 </v>
    <v>      -0.00136624       0.66680756       0.00000753 </v>
    <v>       0.00151932      -0.00373041      -0.00023029 </v>
    <v>       0.99614157       0.33443821      -0.00023710 </v>
    <v>       0.32819177      -0.00119506       0.00024120 </v>
    <v>       0.32916804       0.66655951      -0.00001001 </v>
    <v>       0.11604503       0.22569064       0.95096790 </v>
    <v>       0.22570563       0.11629601       0.04994342 </v>
    <v>       0.11121353       0.55483643       0.94894887 </v>
    <v>       0.22445127       0.44180851       0.04915733 </v>
    <v>       0.11235346       0.88922359       0.94874791 </v>
    <v>       0.22307015       0.77832748       0.05105227 </v>
    <v>       0.44116654       0.22394551       0.95081496 </v>
    <v>       0.55702059       0.10736130       0.04900369 </v>
    <v>       0.44643924       0.55352812       0.95243200 </v>
    <v>       0.55283074       0.44721737       0.04815121 </v>
    <v>       0.44903537       0.89127452       0.95082997 </v>
    <v>       0.55953927       0.77951792       0.04753976 </v>
    <v>       0.77593971       0.21688074       0.95007137 </v>
    <v>       0.88397150       0.10929596       0.04919605 </v>
    <v>       0.77453615       0.55855588       0.95006743 </v>
    <v>       0.88979882       0.44398219       0.05122353 </v>
    <v>       0.77209996       0.88597713       0.95187803 </v>
    <v>       0.88272476       0.77469493       0.04996767 </v>
   </varray>
  </structure>
  <varray name="forces" >
   <v>      -0.04643611       0.27003033       0.07735094 </v>
   <v>       0.20741966      -0.17332629      -0.07652841 </v>
   <v>       0.28379605       0.16284918       0.00136015 </v>
   <v>       0.26673083       0.38857661      -0.00708049 </v>
   <v>       0.09479391       0.06102854      -0.00185099 </v>
   <v>       0.47422752       0.02863223       0.00842473 </v>
   <v>      -0.47518192      -0.01783922       0.02924457 </v>
   <v>      -0.24962572      -0.41052590      -0.03396157 </v>
   <v>      -0.38392569      -0.22588270      -0.00251048 </v>
   <v>      -0.01192237      -0.00674115      -0.18836007 </v>
   <v>      -0.02940675       0.01871798       0.49141442 </v>
   <v>      -0.05868825      -0.04646971      -0.49022063 </v>
   <v>      -0.00269384      -0.03639213       0.21410572 </v>
   <v>       0.02523718      -0.03699531      -0.54755187 </v>
   <v>      -0.07110512      -0.02611899       0.49331728 </v>
   <v>       0.03033035       0.03506901      -0.20328243 </v>
   <v>      -0.02426378      -0.00718064       0.19420035 </v>
   <v>      -0.00371130       0.01844780      -0.09467318 </v>
   <v>      -0.00923732       0.04123577       0.31252027 </v>
   <v>      -0.02834516       0.02654599      -0.20410559 </v>
   <v>       0.00255940      -0.01121076       0.09780922 </v>
   <v>       0.00236579      -0.03258433      -0.49093281 </v>
   <v>       0.04043673      -0.00137063       0.19875875 </v>
   <v>      -0.03679527       0.01310332      -0.46979622 </v>
   <v>      -0.02375290       0.04133837       0.54336055 </v>
   <v>       0.04257330      -0.02621393      -0.31809347 </v>
   <v>      -0.01537920      -0.04672345       0.46708126 </v>
  </varray>
  <varray name="stress" >
   <v>      -5.76337577       0.03155058      -0.09249572 </v>
   <v>       0.03155065      -5.82573667       0.03265774 </v>
   <v>      -0.09249565       0.03265768       4.54656525 </v>
  </varray>
  <energy>
   <i name="e_fr_energy">   -190.69256656 </i>
   <i name="e_wo_entrp">   -190.59123003 </i>
   <i name="e_0_energy">     -0.20267306 </i>
  </energy>
  <time name="totalsc">  379.97  380.98</time>
 </calculation>
 <calculation>
  <scstep>
   <time name="dav">   21.91   21.96</time>
   <time name="total">   22.42   22.47</time>
   <energy>
    <i name="alphaZ">     90.23045719 </i>
    <i name="ewald">  44692.37847908 </i>
    <i name="hartreedc"> -50736.24046654 </i>
    <i name="XCdc">   -231.79832835 </i>
    <i name="pawpsdc">   4063.28218619 </i>
    <i name="pawaedc">  -3479.15053239 </i>
    <i name="eentropy">     -0.18343149 </i>
    <i name="bandstr">  -1352.04887988 </i>
    <i name="atom">   6761.44252427 </i>
    <i name="e_fr_energy">   -192.08799192 </i>
    <i name="e_wo_entrp">   -191.90456043 </i>
    <i name="e_0_energy">   -191.99627617 </i>
   </energy>
  </scstep>
  <scstep>
   <time name="dav">   30.67   30.74</time>
   <time name="total">   31.18   31.26</time>
   <energy>
    <i name="e_fr_energy">   -191.79363210 </i>
    <i name="e_wo_entrp">   -191.60379942 </i>
    <i name="e_0_energy">   -191.69871576 </i>
   </energy>
  </scstep>
  <scstep>
   <time name="dav">   30.69   30.77</time>
   <time name="total">   31.20   31.28</time>
   <energy>
    <i name="e_fr_energy">   -191.86229914 </i>
    <i name="e_wo_entrp">   -191.66321029 </i>
    <i name="e_0_energy">   -191.76275472 </i>
   </energy>
  </scstep>
  <scstep>
   <time name="dav">   30.82   30.90</time>
   <time name="total">   31.34   31.42</time>
   <energy>
    <i name="e_fr_energy">   -191.60950204 </i>
    <i name="e_wo_entrp">   -191.42581455 </i>
    <i name="e_0_energy">   -191.51765830 </i>
   </energy>
  </scstep>
  <scstep>
   <time name="dav">   31.06   31.14</time>
   <time name="total">   31.57   31.66</time>
   <energy>
    <i name="e_fr_energy">   -191.37132237 </i>
    <i name="e_wo_entrp">   -191.17916240 </i>
    <i name="e_0_energy">   -191.27524238 </i>
   </energy>
  </scstep>
  <scstep>
   <time name="dav">   30.93   31.00</time>
   <time name="total">   31.44   31.52</time>
   <energy>
    <i name="e_fr_energy">   -191.36916154 </i>
    <i name="e_wo_entrp">   -191.17723774 </i>
    <i name="e_0_energy">   -191.27319964 </i>
   </energy>
  </scstep>
  <scstep>
   <time name="dav">   29.76   29.83</time>
   <time name="total">   30.27   30.47</time>
   <energy>
    <i name="e_fr_energy">   -191.36806403 </i>
    <i name="e_wo_entrp">   -191.17621261 </i>
    <i name="e_0_energy">   -191.27213832 </i>
   </energy>
  </scstep>
  <scstep>
   <time name="dav">   30.00   30.07</time>
   <time name="total">   30.52   30.60</time>
   <energy>
    <i name="e_fr_energy">   -191.35688736 </i>
    <i name="e_wo_entrp">   -191.16512286 </i>
    <i name="e_0_energy">   -191.26100511 </i>
   </energy>
  </scstep>
  <scstep>
   <time name="dav">   29.32   29.39</time>
   <time name="total">   29.82   29.90</time>
   <energy>
    <i name="e_fr_energy">   -191.35787988 </i>
    <i name="e_wo_entrp">   -191.16612947 </i>
    <i name="e_0_energy">   -191.26200467 </i>
   </energy>
  </scstep>
  <scstep>
   <time name="dav">   30.08   30.16</time>
   <time name="total">   30.60   30.68</time>
   <energy>
    <i name="e_fr_energy">   -191.35722784 </i>
    <i name="e_wo_entrp">   -191.16538627 </i>
    <i name="e_0_energy">   -191.26130706 </i>
   </energy>
  </scstep>
  <scstep>
   <time name="dav">   23.82   23.88</time>
   <time name="total">   23.86   23.93</time>
   <energy>
    <i name="alphaZ">     90.23045719 </i>
    <i name="ewald">  44692.37847908 </i>
    <i name="hartreedc"> -50701.61046821 </i>
    <i name="XCdc">   -233.36111041 </i>
    <i name="pawpsdc">   4084.01322071 </i>
    <i name="pawaedc">  -3499.94745905 </i>
    <i name="eentropy">     -0.19180026 </i>
    <i name="bandstr">  -1384.31099132 </i>
    <i name="atom">   6761.44252427 </i>
    <i name="e_fr_energy">   -191.35714800 </i>
    <i name="e_wo_entrp">   -191.16534774 </i>
    <i name="e_0_energy">   -191.26124787 </i>
   </energy>
  </scstep>
  <structure>
   <crystal>
    <varray name="basis" >
     <v>       8.27938950       4.77990673       0.00000000 </v>
     <v>      -8.27619428       4.77438266       0.00000000 </v>
     <v>       0.00000000       0.00000000      30.00000000 </v>
    </varray>
    <i name="volume">   2372.65231290 </i>
    <varray name="rec_basis" >
     <v>       0.06036766       0.10464484       0.00000000 </v>
     <v>      -0.06043751       0.10468524       0.00000000 </v>
     <v>       0.00000000       0.00000000       0.03333333 </v>
    </varray>
   </crystal>
   <varray name="positions" >
    <v>       0.67262587       0.00637527       0.00035454 </v>
    <v>       0.33286135       0.32699828      -0.00035796 </v>
    <v>       0.67572319       0.66662696       0.00000973 </v>
    <v>       0.67840726       0.33979095       0.00021865 </v>
    <v>       0.00007264       0.66688271      -0.00000121 </v>
    <v>       0.00530416      -0.00669898      -0.00020701 </v>
    <v>       0.99261453       0.33761505      -0.00009812 </v>
    <v>       0.32139441      -0.00450895       0.00008595 </v>
    <v>       0.32350828       0.66650318      -0.00001708 </v>
    <v>       0.11644978       0.22585255       0.94966262 </v>
    <v>       0.22581255       0.11727204       0.05249189 </v>
    <v>       0.11018339       0.55480589       0.94636419 </v>
    <v>       0.22425615       0.44107306       0.05058746 </v>
    <v>       0.11197871       0.88854420       0.94593190 </v>
    <v>       0.22211075       0.77838661       0.05364675 </v>
    <v>       0.44170039       0.22455834       0.94942844 </v>
    <v>       0.55718347       0.10729900       0.05033925 </v>
    <v>       0.44695544       0.55349203       0.95156087 </v>
    <v>       0.55302867       0.44802115       0.04989065 </v>
    <v>       0.44973891       0.89213198       0.94944494 </v>
    <v>       0.56003281       0.77965984       0.04842943 </v>
    <v>       0.77507973       0.21593326       0.94752325 </v>
    <v>       0.88373282       0.10859181       0.05055824 </v>
    <v>       0.77417564       0.55917834       0.94760086 </v>
    <v>       0.89010825       0.44470508       0.05401960 </v>
    <v>       0.77160618       0.88510872       0.95011104 </v>
    <v>       0.88156911       0.77401610       0.05242100 </v>
   </varray>
  </structure>
  <varray name="forces" >
   <v>      -0.02398826       0.30468924       0.00152970 </v>
   <v>       0.24526221      -0.17042999      -0.00149625 </v>
   <v>       0.22350408       0.12774084      -0.00405976 </v>
   <v>       0.21861308       0.31654973      -0.01974244 </v>
   <v>       0.16547208       0.09516682       0.00159639 </v>
   <v>       0.37781894       0.02241075       0.01964607 </v>
   <v>      -0.47556248       0.06159292       0.00150189 </v>
   <v>      -0.18201521      -0.44218545       0.00696931 </v>
   <v>      -0.35950953      -0.21412725       0.00477967 </v>
   <v>      -0.10903396      -0.15987959       0.15579351 </v>
   <v>       0.03486265      -0.05193895       0.18061982 </v>
   <v>      -0.06547723      -0.07654663      -0.24742081 </v>
   <v>      -0.09587838      -0.06422656      -0.07304913 </v>
   <v>       0.02076882      -0.12278443      -0.28216266 </v>
   <v>      -0.10225364      -0.01839390       0.24321652 </v>
   <v>       0.18472546       0.03472105       0.10030239 </v>
   <v>      -0.19304243      -0.01835503      -0.15886844 </v>
   <v>      -0.09217721      -0.00283501       0.16892110 </v>
   <v>       0.11949100       0.02510974      -0.00423125 </v>
   <v>      -0.09944919      -0.05093192       0.07082007 </v>
   <v>      -0.05104292      -0.07686274      -0.17377874 </v>
   <v>      -0.02316590       0.05569448      -0.18755666 </v>
   <v>       0.12579534       0.14578907      -0.09277433 </v>
   <v>       0.09062655       0.04223049      -0.11329868 </v>
   <v>      -0.09727260       0.08183461       0.27824690 </v>
   <v>       0.07949541       0.09397810       0.00700364 </v>
   <v>       0.08343333       0.06198960       0.11749216 </v>
  </varray>
  <varray name="stress" >
   <v>      -0.14580327       0.19320290      -0.17954725 </v>
   <v>       0.19320305      -0.32353293       0.30281450 </v>
   <v>      -0.17954741       0.30281452      -0.39784045 </v>
  </varray>
  <energy>
   <i name="e_fr_energy">   -191.35714800 </i>
   <i name="e_wo_entrp">   -191.26124787 </i>
   <i name="e_0_energy">     -0.19180026 </i>
  </energy>
  <time name="totalsc">  366.76  367.84</time>
 </calculation>
 <calculation>
  <scstep>
   <time name="dav">   21.92   21.97</time>
   <time name="total">   22.44   22.49</time>
   <energy>
    <i name="alphaZ">     90.38230548 </i>
    <i name="ewald">  44746.74859798 </i>
    <i name="hartreedc"> -50758.11528184 </i>
    <i name="XCdc">   -233.32007272 </i>
    <i name="pawpsdc">   4084.15236245 </i>
    <i name="pawaedc">  -3500.08407449 </i>
    <i name="eentropy">     -0.19482125 </i>
    <i name="bandstr">  -1382.46419974 </i>
    <i name="atom">   6761.44252427 </i>
    <i name="e_fr_energy">   -191.45265985 </i>
    <i name="e_wo_entrp">   -191.25783860 </i>
    <i name="e_0_energy">   -191.35524922 </i>
   </energy>
  </scstep>
  <scstep>
   <time name="dav">   31.35   31.42</time>
   <time name="total">   31.85   31.94</time>
   <energy>
    <i name="e_fr_energy">   -191.52176709 </i>
    <i name="e_wo_entrp">   -191.31701132 </i>
    <i name="e_0_energy">   -191.41938921 </i>
   </energy>
  </scstep>
  <scstep>
   <time name="dav">   30.89   30.96</time>
   <time name="total">   31.40   31.48</time>
   <energy>
    <i name="e_fr_energy">   -191.46585476 </i>
    <i name="e_wo_entrp">   -191.26987212 </i>
    <i name="e_0_energy">   -191.36786344 </i>
   </energy>
  </scstep>
  <scstep>
   <time name="dav">   27.87   27.93</time>
   <time name="total">   28.37   28.45</time>
   <energy>
    <i name="e_fr_energy">   -191.46328881 </i>
    <i name="e_wo_entrp">   -191.26672518 </i>
    <i name="e_0_energy">   -191.36500700 </i>
   </energy>
  </scstep>
  <scstep>
   <time name="dav">   28.36   28.43</time>
   <time name="total">   28.87   28.94</time>
   <energy>
    <i name="e_fr_energy">   -191.46301083 </i>
    <i name="e_wo_entrp">   -191.26560552 </i>
    <i name="e_0_energy">   -191.36430817 </i>
   </energy>
  </scstep>
  <scstep>
   <time name="dav">   29.28   29.35</time>
   <time name="total">   29.78   29.86</time>
   <energy>
    <i name="e_fr_energy">   -191.46191255 </i>
    <i name="e_wo_entrp">   -191.26471609 </i>
    <i name="e_0_energy">   -191.36331432 </i>
   </energy>
  </scstep>
  <scstep>
   <time name="dav">   29.01   29.08</time>
   <time name="total">   29.53   29.61</time>
   <energy>
    <i name="e_fr_energy">   -191.46135554 </i>
    <i name="e_wo_entrp">   -191.26394074 </i>
    <i name="e_0_energy">   -191.36264814 </i>
   </energy>
  </scstep>
  <scstep>
   <time name="dav">   23.87   23.92</time>
   <time name="total">   23.90   23.97</time>
   <energy>
    <i name="alphaZ">     90.38230548 </i>
    <i name="ewald">  44746.74859798 </i>
    <i name="hartreedc"> -50757.96404760 </i>
    <i name="XCdc">   -233.34985268 </i>
    <i name="pawpsdc">   4084.56189189 </i>
    <i name="pawaedc">  -3500.48239381 </i>
    <i name="eentropy">     -0.19731197 </i>
    <i name="bandstr">  -1382.60306753 </i>
    <i name="atom">   6761.44252427 </i>
    <i name="e_fr_energy">   -191.46135396 </i>
    <i name="e_wo_entrp">   -191.26404199 </i>
    <i name="e_0_energy">   -191.36269798 </i>
   </energy>
  </scstep>
  <structure>
   <crystal>
    <varray name="basis" >
     <v>       8.27695394       4.77909071       0.00000000 </v>
     <v>      -8.26873186       4.76485883       0.00000000 </v>
     <v>       0.00000000       0.00000000      30.00000000 </v>
    </varray>
    <i name="volume">   2368.66609887 </i>
    <varray name="rec_basis" >
     <v>       0.06034863       0.10472643       0.00000000 </v>
     <v>      -0.06052889       0.10483057       0.00000000 </v>
     <v>       0.00000000       0.00000000       0.03333333 </v>
    </varray>
   </crystal>
   <varray name="positions" >
    <v>       0.67416932       0.00807306       0.00036175 </v>
    <v>       0.33270086       0.32533455      -0.00036504 </v>
    <v>       0.67710698       0.66662016       0.00000314 </v>
    <v>       0.68078766       0.34081396       0.00018595 </v>
    <v>       0.00107764       0.66688186       0.00000128 </v>
    <v>       0.00659938      -0.00775146      -0.00017445 </v>
    <v>       0.99146681       0.33939682      -0.00009350 </v>
    <v>       0.31847293      -0.00629772       0.00009507 </v>
    <v>       0.32125020       0.66646838      -0.00000928 </v>
    <v>       0.11530990       0.22535537       0.94989564 </v>
    <v>       0.22565042       0.11691825       0.05283007 </v>
    <v>       0.10957804       0.55460639       0.94591520 </v>
    <v>       0.22363843       0.44101407       0.05049255 </v>
    <v>       0.11140015       0.88783778       0.94542250 </v>
    <v>       0.22169635       0.77859630       0.05408894 </v>
    <v>       0.44243668       0.22419890       0.94956881 </v>
    <v>       0.55651958       0.10777787       0.05010167 </v>
    <v>       0.44667625       0.55374919       0.95182209 </v>
    <v>       0.55351498       0.44780779       0.04991250 </v>
    <v>       0.44919464       0.89218053       0.94953686 </v>
    <v>       0.55949624       0.77941967       0.04816054 </v>
    <v>       0.77528195       0.21627203       0.94717365 </v>
    <v>       0.88485277       0.10895635       0.05042987 </v>
    <v>       0.77465642       0.55913675       0.94737456 </v>
    <v>       0.89024516       0.44542875       0.05452226 </v>
    <v>       0.77231726       0.88534280       0.95009331 </v>
    <v>       0.88211744       0.77407605       0.05265400 </v>
   </varray>
  </structure>
  <varray name="forces" >
   <v>       0.02002403       0.32747000       0.03585318 </v>
   <v>       0.29832862      -0.15053100      -0.04068200 </v>
   <v>       0.25250534       0.13482460       0.00031633 </v>
   <v>       0.17707543       0.35825420      -0.00140968 </v>
   <v>       0.14735564       0.07810083      -0.00175391 </v>
   <v>       0.40169948      -0.01334720       0.00018757 </v>
   <v>      -0.49387221       0.07332917       0.02061740 </v>
   <v>      -0.19615078      -0.45267274      -0.02626449 </v>
   <v>      -0.38586322      -0.23500418      -0.00052363 </v>
   <v>      -0.10338637      -0.11313848       0.21184721 </v>
   <v>       0.02563564      -0.03729113       0.17452891 </v>
   <v>      -0.04487327      -0.05220534      -0.23945982 </v>
   <v>      -0.07858332      -0.05682107      -0.09010543 </v>
   <v>       0.02486637      -0.10699550      -0.24452243 </v>
   <v>      -0.06915159      -0.01363210       0.23960502 </v>
   <v>       0.15465829       0.00675818       0.13206984 </v>
   <v>      -0.15608301      -0.03394893      -0.20654985 </v>
   <v>      -0.07746022      -0.01539430       0.23313806 </v>
   <v>       0.07791097       0.00780540      -0.03070791 </v>
   <v>      -0.08623117      -0.04504177       0.09141939 </v>
   <v>      -0.05217546      -0.06317076      -0.23181849 </v>
   <v>      -0.01813379       0.04809377      -0.18040886 </v>
   <v>       0.08731273       0.13787275      -0.11931699 </v>
   <v>       0.06435889       0.03822603      -0.10145010 </v>
   <v>      -0.08320611       0.07559829       0.24748128 </v>
   <v>       0.04818479       0.06596875       0.02681802 </v>
   <v>       0.06525431       0.03689253       0.10109136 </v>
  </varray>
  <varray name="stress" >
   <v>       0.29414455       0.10702490      -0.15649144 </v>
   <v>       0.10702480       0.18670027       0.24877710 </v>
   <v>      -0.15649132       0.24877699      -0.94025809 </v>
  </varray>
  <energy>
   <i name="e_fr_energy">   -191.46135396 </i>
   <i name="e_wo_entrp">   -191.36269798 </i>
   <i name="e_0_energy">     -0.19731197 </i>
  </energy>
  <time name="totalsc">  269.38  270.09</time>
 </calculation>
 <calculation>
  <scstep>
   <time name="dav">   21.89   21.95</time>
   <time name="total">   22.41   22.47</time>
   <energy>
    <i name="alphaZ">     90.32560004 </i>
    <i name="ewald">  44722.45138320 </i>
    <i name="hartreedc"> -50732.97741237 </i>
    <i name="XCdc">   -233.38302929 </i>
    <i name="pawpsdc">   4084.58723517 </i>
    <i name="pawaedc">  -3500.50830685 </i>
    <i name="eentropy">     -0.19757556 </i>
    <i name="bandstr">  -1383.22066521 </i>
    <i name="atom">   6761.44252427 </i>
    <i name="e_fr_energy">   -191.48024659 </i>
    <i name="e_wo_entrp">   -191.28267103 </i>
    <i name="e_0_energy">   -191.38145881 </i>
   </energy>
  </scstep>
  <scstep>
   <time name="dav">   31.58   31.66</time>
   <time name="total">   32.08   32.17</time>
   <energy>
    <i name="e_fr_energy">   -191.48363730 </i>
    <i name="e_wo_entrp">   -191.28373149 </i>
    <i name="e_0_energy">   -191.38368439 </i>
   </energy>
  </scstep>
  <scstep>
   <time name="dav">   29.15   29.22</time>
   <time name="total">   29.70   29.78</time>
   <energy>
    <i name="e_fr_energy">   -191.48058698 </i>
    <i name="e_wo_entrp">   -191.28270664 </i>
    <i name="e_0_energy">   -191.38164681 </i>
   </energy>
  </scstep>
  <scstep>
   <time name="dav">   24.00   24.05</time>
   <time name="total">   24.50   24.57</time>
   <energy>
    <i name="e_fr_energy">   -191.48071795 </i>
    <i name="e_wo_entrp">   -191.28284683 </i>
    <i name="e_0_energy">   -191.38178239 </i>
   </energy>
  </scstep>
  <scstep>
   <time name="dav">   22.96   23.02</time>
   <time name="total">   23.47   23.54</time>
   <energy>
    <i name="e_fr_energy">   -191.48052700 </i>
    <i name="e_wo_entrp">   -191.28245318 </i>
    <i name="e_0_energy">   -191.38149009 </i>
   </energy>
  </scstep>
  <scstep>
   <time name="dav">   17.75   17.79</time>
   <time name="total">   17.79   17.84</time>
   <energy>
    <i name="alphaZ">     90.32560004 </i>
    <i name="ewald">  44722.45138320 </i>
    <i name="hartreedc"> -50733.89177983 </i>
    <i name="XCdc">   -233.35741057 </i>
    <i name="pawpsdc">   4085.10196905 </i>
    <i name="pawaedc">  -3501.02848537 </i>
    <i name="eentropy">     -0.19806364 </i>
    <i name="bandstr">  -1382.32623785 </i>
    <i name="atom">   6761.44252427 </i>
    <i name="e_fr_energy">   -191.48050069 </i>
    <i name="e_wo_entrp">   -191.28243705 </i>
    <i name="e_0_energy">   -191.38146887 </i>
   </energy>
  </scstep>
  <structure>
   <crystal>
    <varray name="basis" >
     <v>       8.28002336       4.78089662       0.00000000 </v>
     <v>      -8.27129831       4.76579355       0.00000000 </v>
     <v>       0.00000000       0.00000000      30.00000000 </v>
    </varray>
    <i name="volume">   2370.15312204 </i>
    <varray name="rec_basis" >
     <v>       0.06032260       0.10469321       0.00000000 </v>
     <v>      -0.06051377       0.10480365       0.00000000 </v>
     <v>       0.00000000       0.00000000       0.03333333 </v>
    </varray>
   </crystal>
   <varray name="positions" >
    <v>       0.67450014       0.00836696       0.00037117 </v>
    <v>       0.33273650       0.32503184      -0.00037629 </v>
    <v>       0.67736054       0.66660777       0.00000331 </v>
    <v>       0.68120309       0.34106021       0.00018617 </v>
    <v>       0.00123167       0.66687308       0.00000070 </v>
    <v>       0.00678641      -0.00798361      -0.00017513 </v>
    <v>       0.99128140       0.33974345      -0.00008767 </v>
    <v>       0.31794695      -0.00662077       0.00008709 </v>
    <v>       0.32082609       0.66645560      -0.00000956 </v>
    <v>       0.11512352       0.22529991       0.94998653 </v>
    <v>       0.22562571       0.11685057       0.05285690 </v>
    <v>       0.10951031       0.55457915       0.94586728 </v>
    <v>       0.22353232       0.44101188       0.05044221 </v>
    <v>       0.11130868       0.88771834       0.94537624 </v>
    <v>       0.22165335       0.77862306       0.05413695 </v>
    <v>       0.44252887       0.22410118       0.94963320 </v>
    <v>       0.55638444       0.10783564       0.05001242 </v>
    <v>       0.44660463       0.55378077       0.95191527 </v>
    <v>       0.55356650       0.44775874       0.04987914 </v>
    <v>       0.44908405       0.89217376       0.94958722 </v>
    <v>       0.55938920       0.77938236       0.04806774 </v>
    <v>       0.77533400       0.21634705       0.94714487 </v>
    <v>       0.88505505       0.10906062       0.05037021 </v>
    <v>       0.77473999       0.55913073       0.94737161 </v>
    <v>       0.89027142       0.44555004       0.05456995 </v>
    <v>       0.77242083       0.88539337       0.95012551 </v>
    <v>       0.88220877       0.77408276       0.05265686 </v>
   </varray>
  </structure>
  <varray name="forces" >
   <v>       0.02434458       0.34474148       0.03769640 </v>
[...]
      <set comment="kpoint 31">
       <r>  -17.5380    1.0000 </r>
       <r>  -17.3365    1.0000 </r>
       <r>  -16.8830    1.0000 </r>
       <r>  -16.7237    1.0000 </r>
       <r>  -16.5238    1.0000 </r>
       <r>  -16.4898    1.0000 </r>
       <r>  -16.3154    1.0000 </r>
       <r>  -16.2080    1.0000 </r>
       <r>  -16.1762    1.0000 </r>
       <r>  -16.0994    1.0000 </r>
       <r>  -15.9004    1.0000 </r>
       <r>  -15.8565    1.0000 </r>
       <r>  -15.7502    1.0000 </r>
       <r>  -15.6078    1.0000 </r>
       <r>  -15.5584    1.0000 </r>
       <r>  -15.4322    1.0000 </r>
       <r>  -15.3301    1.0000 </r>
       <r>  -15.2587    1.0000 </r>
       <r>   -9.8018    1.0000 </r>
       <r>   -9.5271    1.0000 </r>
       <r>   -9.3922    1.0000 </r>
       <r>   -8.9932    1.0000 </r>
       <r>   -8.8111    1.0000 </r>
       <r>   -8.7369    1.0000 </r>
       <r>   -8.6670    1.0000 </r>
       <r>   -8.5847    1.0000 </r>
       <r>   -8.4318    1.0000 </r>
       <r>   -8.3001    1.0000 </r>
       <r>   -8.2499    1.0000 </r>
       <r>   -8.1567    1.0000 </r>
       <r>   -8.1266    1.0000 </r>
       <r>   -8.0407    1.0000 </r>
       <r>   -7.9969    1.0000 </r>
       <r>   -7.8965    1.0000 </r>
       <r>   -7.8362    1.0000 </r>
       <r>   -7.8123    1.0000 </r>
       <r>   -7.5383    1.0000 </r>
       <r>   -7.4450    1.0000 </r>
       <r>   -7.4125    1.0000 </r>
       <r>   -7.3475    1.0000 </r>
       <r>   -7.1185    1.0000 </r>
       <r>   -7.0133    1.0000 </r>
       <r>   -6.9598    1.0000 </r>
       <r>   -6.8945    1.0000 </r>
       <r>   -6.8077    1.0000 </r>
       <r>   -6.7582    1.0000 </r>
       <r>   -6.6836    1.0000 </r>
       <r>   -6.5970    1.0000 </r>
       <r>   -6.5308    1.0000 </r>
       <r>   -6.4967    1.0000 </r>
       <r>   -6.4423    1.0000 </r>
       <r>   -6.3635    1.0000 </r>
       <r>   -6.2827    1.0000 </r>
       <r>   -6.1770    1.0000 </r>
       <r>   -6.1192    1.0000 </r>
       <r>   -6.0482    1.0000 </r>
       <r>   -5.9874    1.0000 </r>
       <r>   -5.9162    1.0000 </r>
       <r>   -5.8445    1.0000 </r>
       <r>   -5.7209    1.0000 </r>
       <r>   -5.6519    1.0000 </r>
       <r>   -5.5247    1.0000 </r>
       <r>   -5.4872    1.0000 </r>
       <r>   -5.4213    1.0000 </r>
       <r>   -5.1742    1.0000 </r>
       <r>   -5.0945    1.0000 </r>
       <r>   -5.0344    1.0000 </r>
       <r>   -4.8722    1.0000 </r>
       <r>   -4.8207    1.0000 </r>
       <r>   -4.6616    1.0000 </r>
       <r>   -4.6512    1.0000 </r>
       <r>   -4.5246    1.0000 </r>
       <r>   -4.3421    1.0000 </r>
       <r>   -4.2509    1.0000 </r>
       <r>   -4.1074    1.0000 </r>
       <r>   -4.0437    1.0000 </r>
       <r>   -3.8024    1.0000 </r>
       <r>   -3.7136    0.9996 </r>
       <r>   -3.6055    0.9952 </r>
       <r>   -3.1245    0.2080 </r>
       <r>   -3.0371    0.0762 </r>
       <r>   -2.9141    0.0107 </r>
       <r>   -2.6857    0.0000 </r>
       <r>   -2.6048    0.0000 </r>
       <r>   -2.5604    0.0000 </r>
       <r>   -2.4225    0.0000 </r>
       <r>   -2.2699    0.0000 </r>
       <r>   -2.1416    0.0000 </r>
       <r>   -2.0390    0.0000 </r>
       <r>   -1.9637    0.0000 </r>
       <r>   -1.7896    0.0000 </r>
       <r>   -1.4725    0.0000 </r>
       <r>   -1.3141    0.0000 </r>
       <r>   -1.2238    0.0000 </r>
       <r>   -1.1934    0.0000 </r>
       <r>   -1.1151    0.0000 </r>
       <r>   -1.0426    0.0000 </r>
       <r>   -0.9654    0.0000 </r>
       <r>   -0.9097    0.0000 </r>
       <r>   -0.8641    0.0000 </r>
       <r>   -0.8064    0.0000 </r>
       <r>   -0.7044    0.0000 </r>
       <r>   -0.6302    0.0000 </r>
       <r>   -0.6085    0.0000 </r>
       <r>   -0.5162    0.0000 </r>
       <r>   -0.3882    0.0000 </r>
       <r>   -0.3628    0.0000 </r>
       <r>    0.0105    0.0000 </r>
       <r>    0.1270    0.0000 </r>
       <r>    0.2396    0.0000 </r>
       <r>    0.4477    0.0000 </r>
       <r>    0.5049    0.0000 </r>
       <r>    0.7248    0.0000 </r>
       <r>    0.8862    0.0000 </r>
       <r>    1.0766    0.0000 </r>
       <r>    1.2254    0.0000 </r>
       <r>    1.5825    0.0000 </r>
       <r>    2.1514    0.0000 </r>
       <r>    2.3044    0.0000 </r>
       <r>    2.4073    0.0000 </r>
      </set>
      <set comment="kpoint 32">
       <r>  -17.5629    1.0000 </r>
       <r>  -17.2683    1.0000 </r>
       <r>  -16.9766    1.0000 </r>
       <r>  -16.7259    1.0000 </r>
       <r>  -16.5182    1.0000 </r>
       <r>  -16.3927    1.0000 </r>
       <r>  -16.2922    1.0000 </r>
       <r>  -16.2302    1.0000 </r>
       <r>  -16.1614    1.0000 </r>
       <r>  -16.1138    1.0000 </r>
       <r>  -15.9793    1.0000 </r>
       <r>  -15.8697    1.0000 </r>
       <r>  -15.7485    1.0000 </r>
       <r>  -15.5757    1.0000 </r>
       <r>  -15.5498    1.0000 </r>
       <r>  -15.4289    1.0000 </r>
       <r>  -15.3352    1.0000 </r>
       <r>  -15.2601    1.0000 </r>
       <r>   -9.7408    1.0000 </r>
       <r>   -9.6158    1.0000 </r>
       <r>   -9.4224    1.0000 </r>
       <r>   -9.0275    1.0000 </r>
       <r>   -8.7032    1.0000 </r>
       <r>   -8.6733    1.0000 </r>
       <r>   -8.6061    1.0000 </r>
       <r>   -8.4704    1.0000 </r>
       <r>   -8.4144    1.0000 </r>
       <r>   -8.3672    1.0000 </r>
       <r>   -8.2683    1.0000 </r>
       <r>   -8.2557    1.0000 </r>
       <r>   -8.1685    1.0000 </r>
       <r>   -8.1142    1.0000 </r>
       <r>   -8.0082    1.0000 </r>
       <r>   -7.9460    1.0000 </r>
       <r>   -7.8330    1.0000 </r>
       <r>   -7.8003    1.0000 </r>
       <r>   -7.5699    1.0000 </r>
       <r>   -7.4144    1.0000 </r>
       <r>   -7.3365    1.0000 </r>
       <r>   -7.2903    1.0000 </r>
       <r>   -7.1529    1.0000 </r>
       <r>   -7.0364    1.0000 </r>
       <r>   -6.9587    1.0000 </r>
       <r>   -6.9259    1.0000 </r>
       <r>   -6.8448    1.0000 </r>
       <r>   -6.7346    1.0000 </r>
       <r>   -6.6484    1.0000 </r>
       <r>   -6.5959    1.0000 </r>
       <r>   -6.5287    1.0000 </r>
       <r>   -6.4847    1.0000 </r>
       <r>   -6.4558    1.0000 </r>
       <r>   -6.3750    1.0000 </r>
       <r>   -6.3618    1.0000 </r>
       <r>   -6.1743    1.0000 </r>
       <r>   -6.1272    1.0000 </r>
       <r>   -6.0286    1.0000 </r>
       <r>   -5.9560    1.0000 </r>
       <r>   -5.8748    1.0000 </r>
       <r>   -5.7738    1.0000 </r>
       <r>   -5.7294    1.0000 </r>
       <r>   -5.6381    1.0000 </r>
       <r>   -5.5603    1.0000 </r>
       <r>   -5.4947    1.0000 </r>
       <r>   -5.4024    1.0000 </r>
       <r>   -5.1679    1.0000 </r>
       <r>   -5.0755    1.0000 </r>
       <r>   -4.9871    1.0000 </r>
       <r>   -4.8565    1.0000 </r>
       <r>   -4.8400    1.0000 </r>
       <r>   -4.7866    1.0000 </r>
       <r>   -4.7358    1.0000 </r>
       <r>   -4.5127    1.0000 </r>
       <r>   -4.3317    1.0000 </r>
       <r>   -4.2215    1.0000 </r>
       <r>   -4.1099    1.0000 </r>
       <r>   -3.9615    1.0000 </r>
       <r>   -3.7974    1.0000 </r>
       <r>   -3.7057    0.9995 </r>
       <r>   -3.6352    0.9974 </r>
       <r>   -3.1620    0.2919 </r>
       <r>   -3.0160    0.0571 </r>
       <r>   -2.8442    0.0026 </r>
       <r>   -2.7137    0.0001 </r>
       <r>   -2.5831    0.0000 </r>
       <r>   -2.5512    0.0000 </r>
       <r>   -2.4589    0.0000 </r>
       <r>   -2.2982    0.0000 </r>
       <r>   -2.1697    0.0000 </r>
       <r>   -2.0508    0.0000 </r>
       <r>   -1.9663    0.0000 </r>
       <r>   -1.7805    0.0000 </r>
       <r>   -1.4318    0.0000 </r>
       <r>   -1.3152    0.0000 </r>
       <r>   -1.2320    0.0000 </r>
       <r>   -1.2102    0.0000 </r>
       <r>   -1.1365    0.0000 </r>
       <r>   -1.0360    0.0000 </r>
       <r>   -0.9724    0.0000 </r>
       <r>   -0.9106    0.0000 </r>
       <r>   -0.8560    0.0000 </r>
       <r>   -0.7980    0.0000 </r>
       <r>   -0.6825    0.0000 </r>
       <r>   -0.6732    0.0000 </r>
       <r>   -0.6080    0.0000 </r>
       <r>   -0.4946    0.0000 </r>
       <r>   -0.3457    0.0000 </r>
       <r>   -0.3189    0.0000 </r>
       <r>   -0.0354    0.0000 </r>
       <r>    0.0674    0.0000 </r>
       <r>    0.2198    0.0000 </r>
       <r>    0.4189    0.0000 </r>
       <r>    0.5149    0.0000 </r>
       <r>    0.7077    0.0000 </r>
       <r>    0.9254    0.0000 </r>
       <r>    1.0997    0.0000 </r>
       <r>    1.2125    0.0000 </r>
       <r>    1.5922    0.0000 </r>
       <r>    2.1184    0.0000 </r>
       <r>    2.2707    0.0000 </r>
       <r>    2.5813    0.0000 </r>
      </set>
      <set comment="kpoint 33">
       <r>  -17.5610    1.0000 </r>
       <r>  -17.3006    1.0000 </r>
       <r>  -16.8961    1.0000 </r>
       <r>  -16.7259    1.0000 </r>
       <r>  -16.5352    1.0000 </r>
       <r>  -16.4697    1.0000 </r>
       <r>  -16.3237    1.0000 </r>
       <r>  -16.2117    1.0000 </r>
       <r>  -16.1646    1.0000 </r>
       <r>  -16.0583    1.0000 </r>
       <r>  -15.9444    1.0000 </r>
       <r>  -15.8795    1.0000 </r>
       <r>  -15.7465    1.0000 </r>
       <r>  -15.5895    1.0000 </r>
       <r>  -15.5573    1.0000 </r>
       <r>  -15.4279    1.0000 </r>
       <r>  -15.3377    1.0000 </r>
       <r>  -15.2615    1.0000 </r>
       <r>   -9.7987    1.0000 </r>
       <r>   -9.5176    1.0000 </r>
       <r>   -9.3487    1.0000 </r>
       <r>   -9.0627    1.0000 </r>
       <r>   -8.8213    1.0000 </r>
       <r>   -8.7324    1.0000 </r>
       <r>   -8.6112    1.0000 </r>
       <r>   -8.5472    1.0000 </r>
       <r>   -8.4721    1.0000 </r>
       <r>   -8.2931    1.0000 </r>
       <r>   -8.2593    1.0000 </r>
       <r>   -8.1967    1.0000 </r>
       <r>   -8.1136    1.0000 </r>
       <r>   -8.0531    1.0000 </r>
       <r>   -7.9821    1.0000 </r>
       <r>   -7.9274    1.0000 </r>
       <r>   -7.8320    1.0000 </r>
       <r>   -7.7799    1.0000 </r>
       <r>   -7.5818    1.0000 </r>
       <r>   -7.4229    1.0000 </r>
       <r>   -7.3526    1.0000 </r>
       <r>   -7.2477    1.0000 </r>
       <r>   -7.1692    1.0000 </r>
       <r>   -7.0914    1.0000 </r>
       <r>   -6.9806    1.0000 </r>
       <r>   -6.9244    1.0000 </r>
       <r>   -6.8451    1.0000 </r>
       <r>   -6.7320    1.0000 </r>
       <r>   -6.6263    1.0000 </r>
       <r>   -6.5794    1.0000 </r>
       <r>   -6.5334    1.0000 </r>
       <r>   -6.4997    1.0000 </r>
       <r>   -6.4719    1.0000 </r>
       <r>   -6.3500    1.0000 </r>
       <r>   -6.3101    1.0000 </r>
       <r>   -6.2230    1.0000 </r>
       <r>   -6.1649    1.0000 </r>
       <r>   -6.0196    1.0000 </r>
       <r>   -5.9836    1.0000 </r>
       <r>   -5.8872    1.0000 </r>
       <r>   -5.8301    1.0000 </r>
       <r>   -5.7179    1.0000 </r>
       <r>   -5.6714    1.0000 </r>
       <r>   -5.5358    1.0000 </r>
       <r>   -5.4485    1.0000 </r>
       <r>   -5.4023    1.0000 </r>
       <r>   -5.1846    1.0000 </r>
       <r>   -5.0826    1.0000 </r>
       <r>   -5.0459    1.0000 </r>
       <r>   -4.8999    1.0000 </r>
       <r>   -4.8117    1.0000 </r>
       <r>   -4.7064    1.0000 </r>
       <r>   -4.6051    1.0000 </r>
       <r>   -4.5071    1.0000 </r>
       <r>   -4.3289    1.0000 </r>
       <r>   -4.2225    1.0000 </r>
       <r>   -4.1360    1.0000 </r>
       <r>   -3.9243    1.0000 </r>
       <r>   -3.8503    1.0000 </r>
       <r>   -3.7228    0.9997 </r>
       <r>   -3.6359    0.9975 </r>
       <r>   -3.2001    0.3902 </r>
       <r>   -2.9878    0.0376 </r>
       <r>   -2.8255    0.0017 </r>
       <r>   -2.7284    0.0002 </r>
       <r>   -2.5951    0.0000 </r>
       <r>   -2.5528    0.0000 </r>
       <r>   -2.4516    0.0000 </r>
       <r>   -2.2924    0.0000 </r>
       <r>   -2.1804    0.0000 </r>
       <r>   -2.0526    0.0000 </r>
       <r>   -1.9510    0.0000 </r>
       <r>   -1.7701    0.0000 </r>
       <r>   -1.3837    0.0000 </r>
       <r>   -1.2992    0.0000 </r>
       <r>   -1.2672    0.0000 </r>
       <r>   -1.2252    0.0000 </r>
       <r>   -1.1361    0.0000 </r>
       <r>   -1.0669    0.0000 </r>
       <r>   -0.9847    0.0000 </r>
       <r>   -0.9093    0.0000 </r>
       <r>   -0.8624    0.0000 </r>
       <r>   -0.8201    0.0000 </r>
       <r>   -0.7552    0.0000 </r>
       <r>   -0.6290    0.0000 </r>
       <r>   -0.5277    0.0000 </r>
       <r>   -0.4970    0.0000 </r>
       <r>   -0.3615    0.0000 </r>
       <r>   -0.3222    0.0000 </r>
       <r>   -0.0751    0.0000 </r>
       <r>   -0.0173    0.0000 </r>
       <r>    0.2475    0.0000 </r>
       <r>    0.4069    0.0000 </r>
       <r>    0.5650    0.0000 </r>
       <r>    0.6869    0.0000 </r>
       <r>    0.9820    0.0000 </r>
       <r>    1.1334    0.0000 </r>
       <r>    1.2013    0.0000 </r>
       <r>    1.6033    0.0000 </r>
       <r>    2.1467    0.0000 </r>
       <r>    2.3043    0.0000 </r>
       <r>    2.3927    0.0000 </r>
      </set>
      <set comment="kpoint 34">
       <r>  -17.5525    1.0000 </r>
       <r>  -17.3356    1.0000 </r>
       <r>  -16.7786    1.0000 </r>
       <r>  -16.7139    1.0000 </r>
       <r>  -16.6443    1.0000 </r>
       <r>  -16.5033    1.0000 </r>
       <r>  -16.3299    1.0000 </r>
       <r>  -16.2039    1.0000 </r>
       <r>  -16.1663    1.0000 </r>
       <r>  -16.0466    1.0000 </r>
       <r>  -15.8927    1.0000 </r>
       <r>  -15.8704    1.0000 </r>
       <r>  -15.7413    1.0000 </r>
       <r>  -15.6295    1.0000 </r>
       <r>  -15.5552    1.0000 </r>
       <r>  -15.4277    1.0000 </r>
       <r>  -15.3384    1.0000 </r>
       <r>  -15.2622    1.0000 </r>
       <r>   -9.8324    1.0000 </r>
       <r>   -9.4350    1.0000 </r>
       <r>   -9.2296    1.0000 </r>
       <r>   -9.1429    1.0000 </r>
       <r>   -8.9311    1.0000 </r>
       <r>   -8.8116    1.0000 </r>
       <r>   -8.6160    1.0000 </r>
       <r>   -8.5671    1.0000 </r>
       <r>   -8.4796    1.0000 </r>
       <r>   -8.2760    1.0000 </r>
       <r>   -8.2562    1.0000 </r>
       <r>   -8.1678    1.0000 </r>
       <r>   -8.1205    1.0000 </r>
       <r>   -8.0187    1.0000 </r>
       <r>   -7.9769    1.0000 </r>
       <r>   -7.8725    1.0000 </r>
       <r>   -7.7292    1.0000 </r>
       <r>   -7.7043    1.0000 </r>
       <r>   -7.6317    1.0000 </r>
       <r>   -7.4739    1.0000 </r>
       <r>   -7.3754    1.0000 </r>
       <r>   -7.3101    1.0000 </r>
       <r>   -7.1954    1.0000 </r>
       <r>   -7.0511    1.0000 </r>
       <r>   -7.0082    1.0000 </r>
       <r>   -6.9235    1.0000 </r>
       <r>   -6.7621    1.0000 </r>
       <r>   -6.7224    1.0000 </r>
       <r>   -6.6222    1.0000 </r>
       <r>   -6.6175    1.0000 </r>
       <r>   -6.5514    1.0000 </r>
       <r>   -6.4993    1.0000 </r>
       <r>   -6.4304    1.0000 </r>
       <r>   -6.3619    1.0000 </r>
       <r>   -6.3378    1.0000 </r>
       <r>   -6.2449    1.0000 </r>
       <r>   -6.1663    1.0000 </r>
       <r>   -6.0541    1.0000 </r>
       <r>   -6.0114    1.0000 </r>
       <r>   -5.8308    1.0000 </r>
       <r>   -5.8050    1.0000 </r>
       <r>   -5.7212    1.0000 </r>
       <r>   -5.7188    1.0000 </r>
       <r>   -5.5398    1.0000 </r>
       <r>   -5.5251    1.0000 </r>
       <r>   -5.3757    1.0000 </r>
       <r>   -5.1762    1.0000 </r>
       <r>   -5.0692    1.0000 </r>
       <r>   -5.0121    1.0000 </r>
       <r>   -4.9595    1.0000 </r>
       <r>   -4.8193    1.0000 </r>
       <r>   -4.6409    1.0000 </r>
       <r>   -4.5505    1.0000 </r>
       <r>   -4.4190    1.0000 </r>
       <r>   -4.3226    1.0000 </r>
       <r>   -4.2614    1.0000 </r>
       <r>   -4.1579    1.0000 </r>
       <r>   -3.9527    1.0000 </r>
       <r>   -3.8603    1.0000 </r>
       <r>   -3.7503    0.9998 </r>
       <r>   -3.6208    0.9965 </r>
       <r>   -3.2156    0.4330 </r>
       <r>   -2.9719    0.0292 </r>
       <r>   -2.8453    0.0027 </r>
       <r>   -2.7162    0.0001 </r>
       <r>   -2.6168    0.0000 </r>
       <r>   -2.5561    0.0000 </r>
       <r>   -2.4341    0.0000 </r>
       <r>   -2.2797    0.0000 </r>
       <r>   -2.1767    0.0000 </r>
       <r>   -2.0569    0.0000 </r>
       <r>   -1.9364    0.0000 </r>
       <r>   -1.7643    0.0000 </r>
       <r>   -1.3585    0.0000 </r>
       <r>   -1.3100    0.0000 </r>
       <r>   -1.2627    0.0000 </r>
       <r>   -1.2343    0.0000 </r>
       <r>   -1.1313    0.0000 </r>
       <r>   -1.0967    0.0000 </r>
       <r>   -0.9616    0.0000 </r>
       <r>   -0.9521    0.0000 </r>
       <r>   -0.8523    0.0000 </r>
       <r>   -0.8249    0.0000 </r>
       <r>   -0.7849    0.0000 </r>
       <r>   -0.6100    0.0000 </r>
       <r>   -0.5219    0.0000 </r>
       <r>   -0.4576    0.0000 </r>
       <r>   -0.3955    0.0000 </r>
       <r>   -0.3473    0.0000 </r>
       <r>   -0.1150    0.0000 </r>
       <r>   -0.0076    0.0000 </r>
       <r>    0.2515    0.0000 </r>
       <r>    0.4113    0.0000 </r>
       <r>    0.5892    0.0000 </r>
       <r>    0.6836    0.0000 </r>
       <r>    1.0082    0.0000 </r>
       <r>    1.1543    0.0000 </r>
       <r>    1.1945    0.0000 </r>
       <r>    1.6082    0.0000 </r>
       <r>    2.2328    0.0000 </r>
       <r>    2.2428    0.0000 </r>
       <r>    2.3934    0.0000 </r>
      </set>
     </set>
    </set>
   </array>
  </eigenvalues>
  <separator name="orbital magnetization" >
   <v name="MAGDIPOLOUT">      0.00000000      0.00000000      0.00000000</v>
  </separator>
 </calculation>
 <structure name="finalpos" >
  <crystal>
   <varray name="basis" >
    <v>       8.33224589       4.83012261       0.00000000 </v>
    <v>      -8.30619810       4.78494628       0.00000000 </v>
    <v>       0.00000000       0.00000000      30.00000000 </v>
   </varray>
   <i name="volume">   2399.67912703 </i>
   <varray name="rec_basis" >
    <v>       0.05981983       0.10384136       0.00000000 </v>
    <v>      -0.06038461       0.10416700       0.00000000 </v>
    <v>       0.00000000       0.00000000       0.03333333 </v>
   </varray>
  </crystal>
  <varray name="positions" >
   <v>       0.70504116       0.02389098      -0.00249062 </v>
   <v>       0.29620648       0.31042807       0.00281794 </v>
   <v>       0.69788711       0.67667277      -0.00113894 </v>
   <v>       0.70440042       0.35460901      -0.00178296 </v>
   <v>       0.00283801       0.66773543      -0.00024993 </v>
   <v>       0.00541804      -0.01737355      -0.00015197 </v>
   <v>       0.99775707       0.35174092      -0.00005603 </v>
   <v>       0.29704690      -0.02039892       0.00166170 </v>
   <v>       0.29910463       0.65384225       0.00123604 </v>
   <v>       0.10717265       0.21973527       0.94997068 </v>
   <v>       0.21844443       0.10907366       0.05596217 </v>
   <v>       0.10677980       0.55523182       0.94343087 </v>
   <v>       0.21951454       0.44158403       0.05445200 </v>
   <v>       0.10806276       0.88450349       0.94346886 </v>
   <v>       0.21924123       0.77703606       0.05706430 </v>
   <v>       0.44284232       0.22441530       0.95701301 </v>
   <v>       0.55623491       0.10847217       0.04327011 </v>
   <v>       0.44355338       0.55114280       0.95801522 </v>
   <v>       0.55286071       0.44460815       0.04435332 </v>
   <v>       0.44820844       0.89231980       0.95472361 </v>
   <v>       0.55816824       0.78118251       0.04196031 </v>
   <v>       0.78396414       0.22381442       0.94420403 </v>
   <v>       0.89374920       0.11413828       0.04989076 </v>
   <v>       0.77823007       0.56118881       0.94474905 </v>
   <v>       0.89438499       0.45004899       0.05605192 </v>
   <v>       0.77607505       0.88519866       0.94741827 </v>
   <v>       0.88502779       0.77337328       0.05415618 </v>
  </varray>
 </structure>
</modeling>
