unknown system                          
           1
     8.858968    5.107292    0.000000
    -8.857854    5.105378    0.000000
     0.000000    0.000000   30.000000
   V    Mo   W    S 
   3   3   3  18
Direct configuration=     1
   0.66666669  0.00000000  0.00000000
   0.33333334  0.33333334  0.00000000
   0.66666669  0.66666669  0.00000000
   0.66666669  0.33333334  0.00000000
   0.00000000  0.66666669  0.00000000
   0.00000000  0.00000000  0.00000000
   1.00000000  0.33333334  0.00000000
   0.33333334  0.00000000  0.00000000
   0.33333334  0.66666669  0.00000000
   0.11068511  0.22244981  0.95539999
   0.22244981  0.11068511  0.04460000
   0.11068511  0.55578315  0.95539999
   0.22244981  0.44401845  0.04460000
   0.11068511  0.88911647  0.95539999
   0.22244981  0.77735180  0.04460000
   0.44401845  0.22244981  0.95539999
   0.55578315  0.11068511  0.04460000
   0.44401845  0.55578315  0.95539999
   0.55578315  0.44401845  0.04460000
   0.44401845  0.88911647  0.95539999
   0.55578315  0.77735180  0.04460000
   0.77735180  0.22244981  0.95539999
   0.88911647  0.11068511  0.04460000
   0.77735180  0.55578315  0.95539999
   0.88911647  0.44401845  0.04460000
   0.77735180  0.88911647  0.95539999
   0.88911647  0.77735180  0.04460000
unknown system                          
           1
     8.669938    5.000434    0.000000
    -8.669060    4.998927    0.000000
     0.000000    0.000000   30.000000
   V    Mo   W    S 
   3   3   3  18
Direct configuration=     2
   0.66783602  0.00069570 -0.00015174
   0.33375768  0.33261007  0.00014458
   0.66864725  0.66664766  0.00000049
   0.66781545  0.33486087  0.00010897
  -0.00137437  0.66677452  0.00001055
  -0.00031321 -0.00162828 -0.00009611
   0.99841039  0.33305450 -0.00024536
   0.33193114  0.00029500  0.00024352
   0.33259951  0.66658795 -0.00001189
   0.11499656  0.22481107  0.95201360
   0.22496073  0.11513959  0.04814638
   0.11135516  0.55492522  0.95073955
   0.22429305  0.44231091  0.04801982
   0.11189736  0.88915694  0.95074990
   0.22294625  0.77822841  0.04927308
   0.44158112  0.22362049  0.95202144
   0.55682945  0.10810702  0.04790800
   0.44604276  0.55370433  0.95308624
   0.55320637  0.44643527  0.04695704
   0.44826474  0.89058925  0.95190715
   0.55893570  0.77921211  0.04684367
   0.77652716  0.21802530  0.95187384
   0.88484451  0.10973040  0.04803526
   0.77532230  0.55788182  0.95195596
   0.88930315  0.44404456  0.04925112
   0.77325590  0.88689861  0.95311435
   0.88434233  0.77549516  0.04810048
unknown system                          
           1
     8.486593    4.899769    0.000000
    -8.485529    4.897937    0.000000
     0.000000    0.000000   30.000000
   V    Mo   W    S 
   3   3   3  18
Direct configuration=     3
   0.66822435  0.00103735 -0.00012776
   0.33381530  0.33228219  0.00011924
   0.66926896  0.66664296  0.00000071
   0.66854559  0.33535023  0.00015249
  -0.00151775  0.66678039  0.00001108
  -0.00006576 -0.00211528 -0.00013953
   0.99790684  0.33322752 -0.00026833
   0.33124471  0.00010650  0.00026857
   0.33201897  0.66658586 -0.00001233
   0.11499228  0.22501227  0.95209087
   0.22516347  0.11513969  0.04820074
   0.11142804  0.55482381  0.95071497
   0.22420808  0.44238383  0.04795048
   0.11215228  0.88927177  0.95067335
   0.22315984  0.77833090  0.04929422
   0.44144997  0.22344383  0.95206218
   0.55663280  0.10793545  0.04784149
   0.44594823  0.55381543  0.95322643
   0.55319787  0.44649926  0.04692872
   0.44813030  0.89055597  0.95199060
   0.55874175  0.77913162  0.04671300
   0.77668118  0.21802250  0.95181845
   0.88485769  0.10987904  0.04798432
   0.77523192  0.55794313  0.95186437
   0.88946654  0.44392673  0.04932095
   0.77317277  0.88679900  0.95313344
   0.88415823  0.77540251  0.04818717
unknown system                          
           1
     8.279390    4.779907    0.000000
    -8.276194    4.774383    0.000000
     0.000000    0.000000   30.000000
   V    Mo   W    S 
   3   3   3  18
Direct configuration=     4
   0.66967153  0.00269840  0.00002890
   0.33359636  0.33063912 -0.00003678
   0.67163286  0.66663647  0.00000369
   0.67171752  0.33694643  0.00023939
  -0.00136624  0.66680756  0.00000753
   0.00151932 -0.00373041 -0.00023029
   0.99614157  0.33443821 -0.00023710
   0.32819177 -0.00119506  0.00024120
   0.32916804  0.66655951 -0.00001001
   0.11604503  0.22569064  0.95096790
   0.22570563  0.11629601  0.04994342
   0.11121353  0.55483643  0.94894887
   0.22445127  0.44180851  0.04915733
   0.11235346  0.88922359  0.94874791
   0.22307015  0.77832748  0.05105227
   0.44116654  0.22394551  0.95081496
   0.55702059  0.10736130  0.04900369
   0.44643924  0.55352812  0.95243200
   0.55283074  0.44721737  0.04815121
   0.44903537  0.89127452  0.95082997
   0.55953927  0.77951792  0.04753976
   0.77593971  0.21688074  0.95007137
   0.88397150  0.10929596  0.04919605
   0.77453615  0.55855588  0.95006743
   0.88979882  0.44398219  0.05122353
   0.77209996  0.88597713  0.95187803
   0.88272476  0.77469493  0.04996767
unknown system                          
           1
     8.276954    4.779091    0.000000
    -8.268732    4.764859    0.000000
     0.000000    0.000000   30.000000
   V    Mo   W    S 
   3   3   3  18
Direct configuration=     5
   0.67262587  0.00637527  0.00035454
   0.33286135  0.32699828 -0.00035796
   0.67572319  0.66662696  0.00000973
   0.67840726  0.33979095  0.00021865
   0.00007264  0.66688271 -0.00000121
   0.00530416 -0.00669898 -0.00020701
   0.99261453  0.33761505 -0.00009812
   0.32139441 -0.00450895  0.00008595
   0.32350828  0.66650318 -0.00001708
   0.11644978  0.22585255  0.94966262
   0.22581255  0.11727204  0.05249189
   0.11018339  0.55480589  0.94636419
   0.22425615  0.44107306  0.05058746
   0.11197871  0.88854420  0.94593190
   0.22211075  0.77838661  0.05364675
   0.44170039  0.22455834  0.94942844
   0.55718347  0.10729900  0.05033925
   0.44695544  0.55349203  0.95156087
   0.55302867  0.44802115  0.04989065
   0.44973891  0.89213198  0.94944494
   0.56003281  0.77965984  0.04842943
   0.77507973  0.21593326  0.94752325
   0.88373282  0.10859181  0.05055824
   0.77417564  0.55917834  0.94760086
   0.89010825  0.44470508  0.05401960
   0.77160618  0.88510872  0.95011104
   0.88156911  0.77401610  0.05242100
unknown system                          
           1
     8.280023    4.780897    0.000000
    -8.271298    4.765794    0.000000
     0.000000    0.000000   30.000000
   V    Mo   W    S 
   3   3   3  18
Direct configuration=     6
   0.67416932  0.00807306  0.00036175
   0.33270086  0.32533455 -0.00036504
   0.67710698  0.66662016  0.00000314
   0.68078766  0.34081396  0.00018595
   0.00107764  0.66688186  0.00000128
   0.00659938 -0.00775146 -0.00017445
   0.99146681  0.33939682 -0.00009350
   0.31847293 -0.00629772  0.00009507
   0.32125020  0.66646838 -0.00000928
   0.11530990  0.22535537  0.94989564
   0.22565042  0.11691825  0.05283007
   0.10957804  0.55460639  0.94591520
   0.22363843  0.44101407  0.05049255
   0.11140015  0.88783778  0.94542250
   0.22169635  0.77859630  0.05408894
   0.44243668  0.22419890  0.94956881
   0.55651958  0.10777787  0.05010167
   0.44667625  0.55374919  0.95182209
   0.55351498  0.44780779  0.04991250
   0.44919464  0.89218053  0.94953686
   0.55949624  0.77941967  0.04816054
   0.77528195  0.21627203  0.94717365
   0.88485277  0.10895635  0.05042987
   0.77465642  0.55913675  0.94737456
   0.89024516  0.44542875  0.05452226
   0.77231726  0.88534280  0.95009331
   0.88211744  0.77407605  0.05265400
unknown system                          
           1
     8.242182    4.761658    0.000000
    -8.241520    4.760511    0.000000
     0.000000    0.000000   30.000000
   V    Mo   W    S 
   3   3   3  18
Direct configuration=     7
   0.67450014  0.00836696  0.00037117
   0.33273650  0.32503184 -0.00037629
   0.67736054  0.66660777  0.00000331
   0.68120309  0.34106021  0.00018617
   0.00123167  0.66687308  0.00000070
   0.00678641 -0.00798361 -0.00017513
   0.99128140  0.33974345 -0.00008767
   0.31794695 -0.00662077  0.00008709
   0.32082609  0.66645560 -0.00000956
   0.11512352  0.22529991  0.94998653
   0.22562571  0.11685057  0.05285690
   0.10951031  0.55457915  0.94586728
   0.22353232  0.44101188  0.05044221
   0.11130868  0.88771834  0.94537624
   0.22165335  0.77862306  0.05413695
   0.44252887  0.22410118  0.94963320
   0.55638444  0.10783564  0.05001242
   0.44660463  0.55378077  0.95191527
   0.55356650  0.44775874  0.04987914
   0.44908405  0.89217376  0.94958722
   0.55938920  0.77938236  0.04806774
   0.77533400  0.21634705  0.94714487
   0.88505505  0.10906062  0.05037021
   0.77473999  0.55913073  0.94737161
   0.89027142  0.44555004  0.05456995
   0.77242083  0.88539337  0.95012551
   0.88220877  0.77408276  0.05265686
unknown system                          
           1
     8.224520    4.750739    0.000000
    -8.226391    4.753976    0.000000
     0.000000    0.000000   30.000000
   V    Mo   W    S 
   3   3   3  18
Direct configuration=     8
   0.66940887  0.00401696  0.00022515
   0.33183967  0.32866979 -0.00027370
   0.67406582  0.66639322 -0.00000863
   0.67605665  0.33853312  0.00021666
  -0.00077058  0.66688719 -0.00000152
   0.00513198 -0.00491957 -0.00020903
   0.99422535  0.33619768 -0.00007580
   0.32424098 -0.00237598  0.00006110
   0.32610511  0.66620483 -0.00002835
   0.11727059  0.22578812  0.94881292
   0.22596007  0.11775833  0.05257565
   0.11024766  0.55490290  0.94650038
   0.22473521  0.44097441  0.05106558
   0.11244793  0.88917069  0.94603194
   0.22209773  0.77826703  0.05352653
   0.44151812  0.22550817  0.94893981
   0.55789188  0.10750591  0.05126872
   0.44738021  0.55337655  0.95074581
   0.55310258  0.44819027  0.05020594
   0.45012738  0.89212083  0.94889357
   0.56044267  0.77952971  0.04933662
   0.77483422  0.21565436  0.94737417
   0.88296896  0.10776899  0.05115746
   0.77393464  0.55917836  0.94750279
   0.89000448  0.44411046  0.05390328
   0.77163672  0.88479483  0.94972478
   0.88130956  0.77400729  0.05252807
unknown system                          
           1
     8.223837    4.750435    0.000000
    -8.225569    4.753433    0.000000
     0.000000    0.000000   30.000000
   V    Mo   W    S 
   3   3   3  18
Direct configuration=     9
   0.66595013  0.00164224  0.00018987
   0.33060789  0.33054120 -0.00023104
   0.67231996  0.66634803 -0.00000941
   0.67347861  0.33682508  0.00022331
  -0.00191794  0.66682946  0.00002538
   0.00463161 -0.00301037 -0.00019880
   0.99592698  0.33413575 -0.00008956
   0.32801088  0.00002513  0.00008256
   0.32908134  0.66615500 -0.00002806
   0.11810430  0.22588237  0.94807452
   0.22621204  0.11826993  0.05254165
   0.11054000  0.55502988  0.94675789
   0.22522480  0.44096590  0.05150991
   0.11301441  0.88977374  0.94626432
   0.22230879  0.77818214  0.05322776
   0.44121088  0.22632789  0.94856054
   0.55856301  0.10747399  0.05199350
   0.44776255  0.55327799  0.95003512
   0.55304354  0.44834513  0.05041016
   0.45048293  0.89205559  0.94844706
   0.56083221  0.77948220  0.05006851
   0.77468583  0.21530094  0.94748462
   0.88193368  0.10701073  0.05149842
   0.77367512  0.55917039  0.94751462
   0.88993448  0.44351549  0.05363414
   0.77155084  0.88459811  0.94952694
   0.88104558  0.77406052  0.05248596
unknown system                          
           1
     8.227621    4.748734    0.000000
    -8.223711    4.741959    0.000000
     0.000000    0.000000   30.000000
   V    Mo   W    S 
   3   3   3  18
Direct configuration=    10
   0.66577775  0.00155809  0.00018848
   0.33050692  0.33058649 -0.00023048
   0.67227228  0.66633986 -0.00001026
   0.67339410  0.33675103  0.00022460
  -0.00200190  0.66682015  0.00002448
   0.00466110 -0.00291435 -0.00020129
   0.99602023  0.33405133 -0.00009005
   0.32818126  0.00014717  0.00008267
   0.32918986  0.66614144 -0.00002862
   0.11812335  0.22588590  0.94804572
   0.22623719  0.11829934  0.05253933
   0.11055312  0.55502830  0.94677100
   0.22523679  0.44097046  0.05152847
   0.11304501  0.88979633  0.94627850
   0.22232729  0.77818746  0.05321322
   0.44120230  0.22636230  0.94855191
   0.55857517  0.10747423  0.05202167
   0.44776962  0.55327731  0.95001087
   0.55303429  0.44833811  0.05041151
   0.45048048  0.89204785  0.94842873
   0.56083484  0.77947214  0.05009493
   0.77468434  0.21527809  0.94749210
   0.88189921  0.10698161  0.05150435
   0.77366548  0.55916025  0.94751676
   0.88994075  0.44349349  0.05362079
   0.77155660  0.88460586  0.94952715
   0.88104701  0.77407419  0.05248337
unknown system                          
           1
     8.229952    4.750281    0.000000
    -8.225992    4.743416    0.000000
     0.000000    0.000000   30.000000
   V    Mo   W    S 
   3   3   3  18
Direct configuration=    11
   0.66317050  0.00172196  0.00026844
   0.32771071  0.32980753 -0.00023240
   0.67326439  0.66670322 -0.00000683
   0.67392194  0.33555126  0.00026047
  -0.00419860  0.66652556  0.00003421
   0.00588876 -0.00202601 -0.00022306
   0.99661205  0.33272023 -0.00013349
   0.33050246  0.00148136  0.00015523
   0.33019015  0.66654229 -0.00001791
   0.11743267  0.22562782  0.94788819
   0.22681818  0.11863833  0.05260975
   0.11042878  0.55474860  0.94685447
   0.22480188  0.44098798  0.05169776
   0.11331727  0.88954813  0.94631144
   0.22252705  0.77861118  0.05304087
   0.44158905  0.22665875  0.94871334
   0.55818162  0.10772732  0.05205497
   0.44771236  0.55332602  0.95000328
   0.55302714  0.44791217  0.05013545
   0.44987716  0.89201769  0.94832528
   0.56066780  0.77930394  0.05004538
   0.77498866  0.21494700  0.94763213
   0.88192372  0.10678671  0.05112017
   0.77376556  0.55881450  0.94753315
   0.89034714  0.44374793  0.05359812
   0.77212692  0.88521551  0.94989364
   0.88161916  0.77456746  0.05243784
unknown system                          
           1
     8.232627    4.751671    0.000000
    -8.225775    4.739785    0.000000
     0.000000    0.000000   30.000000
   V    Mo   W    S 
   3   3   3  18
Direct configuration=    12
   0.66212812  0.00164104  0.00026233
   0.32674494  0.32965528 -0.00021734
   0.67353980  0.66678208 -0.00001173
   0.67412503  0.33527627  0.00027430
  -0.00493028  0.66642625  0.00002298
   0.00636946 -0.00176236 -0.00024499
   0.99689977  0.33237894 -0.00011880
   0.33123178  0.00194354  0.00013862
   0.33058896  0.66661704 -0.00002075
   0.11736001  0.22556397  0.94776049
   0.22699294  0.11877398  0.05264098
   0.11041299  0.55472723  0.94692101
   0.22476012  0.44099810  0.05176442
   0.11347222  0.88955696  0.94635531
   0.22253380  0.77865704  0.05296840
   0.44166286  0.22685459  0.94873143
   0.55819167  0.10779556  0.05218081
   0.44773102  0.55332352  0.94998472
   0.55297836  0.44779115  0.05004928
   0.44980217  0.89203041  0.94824824
   0.56069014  0.77928177  0.05007770
   0.77500328  0.21477486  0.94762819
   0.88179413  0.10660364  0.05106980
   0.77371437  0.55869657  0.94751390
   0.89048102  0.44373548  0.05357502
   0.77221319  0.88538571  0.94998326
   0.88172260  0.77470586  0.05246230
unknown system                          
           1
     8.237031    4.756103    0.000000
    -8.235131    4.752818    0.000000
     0.000000    0.000000   30.000000
   V    Mo   W    S 
   3   3   3  18
Direct configuration=    13
   0.65825716  0.00157535  0.00026858
   0.32309095  0.32893060 -0.00018483
   0.67489369  0.66715088 -0.00001959
   0.67553115  0.33454204  0.00030936
  -0.00762801  0.66602812  0.00000897
   0.00834742 -0.00119166 -0.00028695
   0.99763333  0.33137103 -0.00007360
   0.33353995  0.00334070  0.00010503
   0.33184570  0.66702567 -0.00001786
   0.11692940  0.22520982  0.94734213
   0.22756515  0.11909511  0.05273549
   0.11026938  0.55462392  0.94720931
   0.22457615  0.44115737  0.05196704
   0.11404712  0.88948628  0.94650414
   0.22247004  0.77883510  0.05264082
   0.44201046  0.22748037  0.94888442
   0.55822976  0.10810290  0.05258970
   0.44774431  0.55338852  0.95001256
   0.55287007  0.44731213  0.04968330
   0.44948046  0.89201999  0.94799067
   0.56069269  0.77924884  0.05009726
   0.77510767  0.21420812  0.94762554
   0.88137981  0.10595338  0.05078053
   0.77350376  0.55816590  0.94742683
   0.89106730  0.44377475  0.05349298
   0.77258169  0.88609785  0.95035727
   0.88217788  0.77528135  0.05255082
unknown system                          
           1
     8.247102    4.761875    0.000000
    -8.242078    4.753187    0.000000
     0.000000    0.000000   30.000000
   V    Mo   W    S 
   3   3   3  18
Direct configuration=    14
   0.66723561  0.00335861  0.00024495
   0.33003920  0.32890172 -0.00024444
   0.67355972  0.66642220 -0.00001475
   0.67507621  0.33696095  0.00023118
  -0.00117626  0.66680415 -0.00000142
   0.00571794 -0.00332115 -0.00022403
   0.99544095  0.33519583 -0.00008751
   0.32635564 -0.00131725  0.00008392
   0.32680583  0.66613466 -0.00002770
   0.11689387  0.22569637  0.94843070
   0.22633083  0.11808516  0.05269429
   0.11030974  0.55476377  0.94645175
   0.22445663  0.44092509  0.05137326
   0.11259889  0.88926545  0.94607140
   0.22243052  0.77857551  0.05349881
   0.44178247  0.22574653  0.94880560
   0.55760421  0.10758276  0.05148604
   0.44736423  0.55361777  0.95037487
   0.55329627  0.44793414  0.05029581
   0.44975130  0.89209785  0.94872261
   0.56009029  0.77912032  0.04962910
   0.77501142  0.21546684  0.94750776
   0.88293362  0.10761419  0.05111009
   0.77426549  0.55910095  0.94754885
   0.88999455  0.44406850  0.05382876
   0.77227678  0.88511831  0.94976020
   0.88176850  0.77429523  0.05244982
unknown system                          
           1
     8.232441    4.753411    0.000000
    -8.229122    4.747664    0.000000
     0.000000    0.000000   30.000000
   V    Mo   W    S 
   3   3   3  18
Direct configuration=    15
   0.66947163  0.00512584  0.00032791
   0.33047302  0.32747143 -0.00031560
   0.67469237  0.66635842  0.00000500
   0.67733634  0.33818216  0.00020123
   0.00043229  0.66679346  0.00001822
   0.00661268 -0.00454081 -0.00017296
   0.99427404  0.33719996 -0.00005677
   0.32319557 -0.00339460  0.00006499
   0.32410408  0.66602664 -0.00001401
   0.11615641  0.22554910  0.94885664
   0.22616909  0.11770410  0.05284162
   0.10994378  0.55466235  0.94609257
   0.22405636  0.44097499  0.05114726
   0.11208676  0.88867977  0.94573639
   0.22214043  0.77863764  0.05384309
   0.44214097  0.22522828  0.94910185
   0.55707200  0.10770246  0.05104512
   0.44695107  0.55376383  0.95088102
   0.55349789  0.44774980  0.05016128
   0.44937456  0.89205311  0.94896833
   0.55956264  0.77903404  0.04909270
   0.77521353  0.21576930  0.94733759
   0.88373452  0.10810314  0.05082859
   0.77465587  0.55908259  0.94749352
   0.89008810  0.44466638  0.05414129
   0.77260038  0.88533524  0.94988686
   0.88217806  0.77429582  0.05248615
unknown system                          
           1
     8.232502    4.753434    0.000000
    -8.229167    4.747659    0.000000
     0.000000    0.000000   30.000000
   V    Mo   W    S 
   3   3   3  18
Direct configuration=    16
   0.66419380  0.00197922  0.00023183
   0.32847740  0.32984297 -0.00020174
   0.67305674  0.66649415 -0.00000108
   0.67370580  0.33567324  0.00025811
  -0.00326438  0.66656513  0.00004574
   0.00575457 -0.00196144 -0.00019564
   0.99666494  0.33324049 -0.00007377
   0.32980577  0.00098614  0.00012493
   0.32933562  0.66624739 -0.00000595
   0.11729194  0.22571307  0.94795889
   0.22662250  0.11843389  0.05256891
   0.11047885  0.55478976  0.94686519
   0.22472908  0.44103324  0.05157914
   0.11317360  0.88960790  0.94635918
   0.22253568  0.77854235  0.05304602
   0.44165054  0.22641236  0.94867633
   0.55805110  0.10760111  0.05196287
   0.44762408  0.55356024  0.95006693
   0.55312389  0.44788473  0.05021838
   0.44989840  0.89205497  0.94842973
   0.56041908  0.77916860  0.04997233
   0.77491194  0.21504491  0.94767230
   0.88210331  0.10697545  0.05115395
   0.77385257  0.55880948  0.94756498
   0.89016732  0.44368073  0.05349995
   0.77217464  0.88526129  0.94981716
   0.88167568  0.77457308  0.05240524
unknown system                          
           1
     8.232607    4.753537    0.000000
    -8.229234    4.747694    0.000000
     0.000000    0.000000   30.000000
   V    Mo   W    S 
   3   3   3  18
Direct configuration=    17
   0.66428795  0.00202833  0.00023365
   0.32852102  0.32980981 -0.00020305
   0.67307707  0.66649264 -0.00000071
   0.67375925  0.33571386  0.00025749
  -0.00319772  0.66656977  0.00004594
   0.00575800 -0.00200506 -0.00019444
   0.99662176  0.33330440 -0.00007303
   0.32969564  0.00091124  0.00012471
   0.32925234  0.66624475 -0.00000564
   0.11727541  0.22571108  0.94797373
   0.22661293  0.11842093  0.05257276
   0.11047146  0.55478792  0.94685193
   0.22471871  0.44103165  0.05157167
   0.11315506  0.88959377  0.94634837
   0.22253041  0.77854338  0.05305944
   0.44165724  0.22639189  0.94868207
   0.55803663  0.10760227  0.05194704
   0.44761380  0.55356241  0.95007850
   0.55313067  0.44788476  0.05021885
   0.44989190  0.89205571  0.94843863
   0.56040700  0.77916766  0.04995919
   0.77491591  0.21505784  0.94766682
   0.88213002  0.10699554  0.05114968
   0.77386563  0.55881564  0.94756403
   0.89016450  0.44369585  0.05350982
   0.77217971  0.88525966  0.94981639
   0.88168216  0.77456674  0.05240605
unknown system                          
           1
     8.226204    4.751526    0.000000
    -8.224662    4.748851    0.000000
     0.000000    0.000000   30.000000
   V    Mo   W    S 
   3   3   3  18
Direct configuration=    18
   0.66431303  0.00204015  0.00023381
   0.32852748  0.32979684 -0.00020354
   0.67308114  0.66648753 -0.00000062
   0.67377587  0.33573107  0.00025725
  -0.00317754  0.66657037  0.00004632
   0.00576928 -0.00201417 -0.00019400
   0.99661831  0.33332992 -0.00007281
   0.32965897  0.00089191  0.00012468
   0.32922166  0.66623674 -0.00000558
   0.11727082  0.22571105  0.94797842
   0.22661146  0.11841876  0.05257400
   0.11046964  0.55478848  0.94684784
   0.22471655  0.44103212  0.05156918
   0.11314866  0.88958743  0.94634469
   0.22252861  0.77854304  0.05306302
   0.44165953  0.22638590  0.94868447
   0.55803050  0.10760284  0.05194269
   0.44760991  0.55356357  0.95008320
   0.55313201  0.44788419  0.05021830
   0.44988810  0.89205407  0.94844145
   0.56040067  0.77916477  0.04995471
   0.77491734  0.21506178  0.94766507
   0.88214045  0.10700211  0.05114815
   0.77387086  0.55881817  0.94756369
   0.89016440  0.44370228  0.05351293
   0.77218217  0.88525909  0.94981675
   0.88168456  0.77456444  0.05240582
unknown system                          
           1
     8.249204    4.764285    0.000000
    -8.245053    4.757097    0.000000
     0.000000    0.000000   30.000000
   V    Mo   W    S 
   3   3   3  18
Direct configuration=    19
   0.66337062  0.00083610  0.00020902
   0.32857984  0.33069130 -0.00018416
   0.67287520  0.66636210  0.00000187
   0.67270955  0.33578849  0.00027631
  -0.00457249  0.66649476  0.00006707
   0.00501643 -0.00182334 -0.00019665
   0.99747549  0.33258841 -0.00009087
   0.33117039  0.00196861  0.00015090
   0.33052415  0.66605285 -0.00000806
   0.11753925  0.22573069  0.94762744
   0.22665504  0.11856824  0.05253276
   0.11074344  0.55491928  0.94711472
   0.22496709  0.44119638  0.05178278
   0.11345076  0.88986967  0.94654364
   0.22274884  0.77848679  0.05276612
   0.44152780  0.22671201  0.94843856
   0.55834449  0.10750952  0.05224346
   0.44819216  0.55384636  0.94979047
   0.55327838  0.44838832  0.05027178
   0.45007823  0.89198343  0.94827651
   0.56075738  0.77900246  0.05022124
   0.77474198  0.21481103  0.94779457
   0.88154194  0.10660259  0.05132320
   0.77346740  0.55897727  0.94767399
   0.89012738  0.44337458  0.05329107
   0.77180045  0.88482032  0.94981470
   0.88110326  0.77445626  0.05226745
unknown system                          
           1
     8.247448    4.767419    0.000000
    -8.241573    4.757244    0.000000
     0.000000    0.000000   30.000000
   V    Mo   W    S 
   3   3   3  18
Direct configuration=    20
   0.66526200  0.00300171  0.00029991
   0.32828989  0.32864285 -0.00031360
   0.67500386  0.66644858 -0.00001288
   0.67601049  0.33739085  0.00024364
  -0.00386930  0.66642929 -0.00000660
   0.00650307 -0.00358953 -0.00026565
   0.99615907  0.33473650 -0.00011894
   0.32783601 -0.00018787  0.00006956
   0.32772480  0.66611888 -0.00004306
   0.11647401  0.22537933  0.94807148
   0.22661751  0.11821611  0.05278825
   0.11023484  0.55478664  0.94676456
   0.22443248  0.44127405  0.05162304
   0.11299468  0.88914481  0.94621045
   0.22237871  0.77865446  0.05313500
   0.44204560  0.22621291  0.94881675
   0.55770575  0.10775089  0.05179657
   0.44785332  0.55412173  0.95040779
   0.55349817  0.44817541  0.05005453
   0.44955048  0.89194039  0.94853268
   0.56021627  0.77885694  0.04958090
   0.77500108  0.21500704  0.94759072
   0.88238443  0.10698816  0.05095209
   0.77380317  0.55891225  0.94752987
   0.89040132  0.44410825  0.05375523
   0.77217437  0.88514725  0.95009233
   0.88152838  0.77454655  0.05244526
unknown system                          
           1
     8.249258    4.763665    0.000000
    -8.242870    4.752605    0.000000
     0.000000    0.000000   30.000000
   V    Mo   W    S 
   3   3   3  18
Direct configuration=    21
   0.66494149  0.00240742  0.00041097
   0.32763962  0.32826408 -0.00041593
   0.67646348  0.66596169  0.00001524
   0.67716955  0.33943577  0.00031026
  -0.00599694  0.66606350  0.00006565
   0.00712438 -0.00460201 -0.00025832
   0.99723267  0.33577446 -0.00011850
   0.32745998  0.00025276  0.00012445
   0.32743714  0.66523447 -0.00003148
   0.11598603  0.22500385  0.94796500
   0.22659750  0.11819877  0.05281261
   0.11019316  0.55502541  0.94694220
   0.22446673  0.44165214  0.05173358
   0.11304338  0.88875034  0.94618907
   0.22228935  0.77862638  0.05279252
   0.44230990  0.22632505  0.94881134
   0.55765658  0.10798214  0.05179084
   0.44858651  0.55491531  0.95053947
   0.55393482  0.44892463  0.04991504
   0.44934283  0.89167269  0.94855273
   0.56016359  0.77815873  0.04939651
   0.77492238  0.21486987  0.94773153
   0.88238202  0.10679185  0.05080537
   0.77343868  0.55919653  0.94745083
   0.89066424  0.44436376  0.05373052
   0.77188560  0.88454768  0.95033410
   0.88087980  0.77441718  0.05240429
unknown system                          
           1
     8.252743    4.765679    0.000000
    -8.245918    4.753860    0.000000
     0.000000    0.000000   30.000000
   V    Mo   W    S 
   3   3   3  18
Direct configuration=    22
   0.66551673  0.00435769  0.00039621
   0.32714450  0.32713719 -0.00035487
   0.67624109  0.66650920  0.00000770
   0.67843984  0.33814258  0.00026694
  -0.00333103  0.66626272  0.00002833
   0.00823209 -0.00428313 -0.00022277
   0.99549644  0.33612017 -0.00003862
   0.32593909 -0.00128237  0.00006462
   0.32608572  0.66609680 -0.00001156
   0.11584674  0.22508093  0.94844638
   0.22659129  0.11801983  0.05282754
   0.10978131  0.55473251  0.94653347
   0.22408916  0.44119218  0.05136123
   0.11272705  0.88857613  0.94593634
   0.22193706  0.77869427  0.05330326
   0.44241475  0.22599446  0.94920867
   0.55733014  0.10810282  0.05143882
   0.44738426  0.55405322  0.95088872
   0.55348847  0.44772519  0.04982003
   0.44920332  0.89195921  0.94872683
   0.55973587  0.77878482  0.04912315
   0.77522339  0.21525885  0.94747745
   0.88311948  0.10730250  0.05054885
   0.77413323  0.55871975  0.94731289
   0.89067398  0.44464584  0.05400984
   0.77266028  0.88559060  0.95027294
   0.88211020  0.77472047  0.05262752
unknown system                          
           1
     8.265181    4.772938    0.000000
    -8.256584    4.758052    0.000000
     0.000000    0.000000   30.000000
   V    Mo   W    S 
   3   3   3  18
Direct configuration=    23
   0.66577891  0.00498746  0.00037800
   0.32696501  0.32669405 -0.00033744
   0.67646563  0.66662861  0.00000082
   0.67914082  0.33815442  0.00024243
  -0.00267749  0.66632424  0.00001718
   0.00862587 -0.00451453 -0.00021048
   0.99499136  0.33652726 -0.00001953
   0.32513281 -0.00197809  0.00004301
   0.32542800  0.66630418 -0.00000982
   0.11569927  0.22505995  0.94854094
   0.22660587  0.11794295  0.05289086
   0.10970669  0.55467117  0.94641175
   0.22398078  0.44115133  0.05129537
   0.11262731  0.88848336  0.94583752
   0.22187258  0.77870772  0.05346001
   0.44251403  0.22591176  0.94931123
   0.55720574  0.10814507  0.05138471
   0.44715015  0.55394205  0.95101073
   0.55348265  0.44751452  0.04976248
   0.44914191  0.89200521  0.94874326
   0.55963160  0.77891086  0.04902350
   0.77529051  0.21532318  0.94735890
   0.88330897  0.10738348  0.05047883
   0.77427771  0.55864615  0.94732520
   0.89070421  0.44476213  0.05412094
   0.77282724  0.88578547  0.95030001
   0.88233632  0.77474052  0.05263948
unknown system                          
           1
     8.260682    4.771818    0.000000
    -8.251764    4.756387    0.000000
     0.000000    0.000000   30.000000
   V    Mo   W    S 
   3   3   3  18
Direct configuration=    24
   0.66574916  0.00566613  0.00043923
   0.32599146  0.32557883 -0.00041689
   0.67774148  0.66657390 -0.00000478
   0.68121136  0.33940366  0.00022195
  -0.00293184  0.66609616  0.00000523
   0.00984044 -0.00548707 -0.00021803
   0.99480114  0.33791060 -0.00001901
   0.32360362 -0.00276817 -0.00000902
   0.32427526  0.66609044 -0.00003352
   0.11509449  0.22468845  0.94871189
   0.22658263  0.11783834  0.05304656
   0.10945031  0.55471161  0.94625093
   0.22378685  0.44118126  0.05126740
   0.11247758  0.88799520  0.94561267
   0.22160759  0.77872116  0.05358055
   0.44287495  0.22584063  0.94955824
   0.55696411  0.10849669  0.05120807
   0.44709169  0.55409028  0.95132313
   0.55362862  0.44748154  0.04960815
   0.44887806  0.89194789  0.94882799