   27   27  100    1
  0.9710400E+02  0.1002848E-08  0.1002848E-08  0.3000000E-08  0.5000000E-15
  1.000000000000000E-004
  CAR 
 unknown system                          
    159     34    120
 
  0.0000000E+00  0.0000000E+00  0.0000000E+00  0.1562500E-01
    1      -17.857567   1.000000
    2      -16.783608   1.000000
    3      -16.685067   1.000000
    4      -16.615592   1.000000
    5      -16.541608   1.000000
    6      -16.493609   1.000000
    7      -16.360327   1.000000
    8      -16.338264   1.000000
    9      -16.226103   1.000000
   10      -16.116041   1.000000
   11      -16.069089   1.000000
   12      -15.993689   1.000000
   13      -15.881947   1.000000
   14      -15.630648   1.000000
   15      -15.598433   1.000000
   16      -15.453286   1.000000
   17      -15.222218   1.000000
   18      -15.191147   1.000000
   19       -9.477284   1.000000
   20       -9.042766   1.000000
   21       -9.005976   1.000000
   22       -8.826252   1.000000
   23       -8.774322   1.000000
   24       -8.724229   1.000000
   25       -8.672465   1.000000
   26       -8.609706   1.000000
   27       -8.517194   1.000000
   28       -8.484848   1.000000
   29       -8.437525   1.000000
   30       -8.362908   1.000000
   31       -8.239495   1.000000
   32       -8.210966   1.000000
   33       -8.154560   1.000000
   34       -8.014118   1.000000
   35       -7.787778   1.000000
   36       -7.777436   1.000000
   37       -7.639932   1.000000
   38       -7.563241   1.000000
   39       -7.516401   1.000000
   40       -7.373601   1.000000
   41       -7.319234   1.000000
   42       -7.218737   1.000000
   43       -7.083474   1.000000
   44       -6.899501   1.000000
   45       -6.846073   1.000000
   46       -6.835715   1.000000
   47       -6.766242   1.000000
   48       -6.715941   1.000000
   49       -6.658587   1.000000
   50       -6.518535   1.000000
   51       -6.399136   1.000000
   52       -6.254308   1.000000
   53       -6.216390   1.000000
   54       -6.190301   1.000000
   55       -6.107893   1.000000
   56       -6.033601   1.000000
   57       -5.971269   1.000000
   58       -5.906116   1.000000
   59       -5.851218   1.000000
   60       -5.707240   1.000000
   61       -5.604124   1.000000
   62       -5.355504   1.000000
   63       -5.315310   1.000000
   64       -5.057694   1.000000
   65       -4.982993   1.000000
   66       -4.895920   1.000000
   67       -4.868476   1.000000
   68       -4.827379   1.000000
   69       -4.736132   1.000000
   70       -4.696030   1.000000
   71       -4.652672   1.000000
   72       -4.618791   1.000000
   73       -4.401342   1.000000
   74       -4.381389   1.000000
   75       -4.286840   1.000000
   76       -3.996104   1.000000
   77       -3.731574   0.999697
   78       -3.577161   0.990279
   79       -3.478970   0.949768
   80       -3.206462   0.388087
   81       -3.188942   0.341564
   82       -2.861297   0.003215
   83       -2.682159   0.000033
   84       -2.644655   0.000010
   85       -2.579110   0.000001
   86       -2.470780   0.000000
   87       -2.254235   0.000000
   88       -2.199533   0.000000
   89       -2.182715   0.000000
   90       -2.042427   0.000000
   91       -1.700514   0.000000
   92       -1.591475   0.000000
   93       -1.412482   0.000000
   94       -1.283060   0.000000
   95       -1.136805   0.000000
   96       -1.049943   0.000000
   97       -1.004395   0.000000
   98       -0.879690   0.000000
   99       -0.750098   0.000000
  100       -0.636607   0.000000
  101       -0.574725   0.000000
  102       -0.506101   0.000000
  103       -0.381244   0.000000
  104       -0.265953   0.000000
  105       -0.101701   0.000000
  106       -0.074035   0.000000
  107       -0.027491   0.000000
  108        0.019033   0.000000
  109        0.190468   0.000000
  110        0.329494   0.000000
  111        0.403002   0.000000
  112        0.483110   0.000000
  113        0.519287   0.000000
  114        0.640585   0.000000
  115        0.973747   0.000000
  116        1.103565   0.000000
  117        1.309157   0.000000
  118        1.646779   0.000000
  119        1.841548   0.000000
  120        2.168016   0.000000
 
  0.1250000E+00  0.2775558E-16  0.0000000E+00  0.3125000E-01
    1      -17.833864   1.000000
    2      -16.822827   1.000000
    3      -16.749035   1.000000
    4      -16.653159   1.000000
    5      -16.555184   1.000000
    6      -16.454057   1.000000
    7      -16.364329   1.000000
    8      -16.309342   1.000000
    9      -16.239180   1.000000
   10      -16.093518   1.000000
   11      -15.990778   1.000000
   12      -15.980556   1.000000
   13      -15.874137   1.000000
   14      -15.639120   1.000000
   15      -15.599420   1.000000
   16      -15.470856   1.000000
   17      -15.223494   1.000000
   18      -15.194297   1.000000
   19       -9.468388   1.000000
   20       -9.204981   1.000000
   21       -9.079835   1.000000
   22       -8.917413   1.000000
   23       -8.848366   1.000000
   24       -8.730075   1.000000
   25       -8.695741   1.000000
   26       -8.579437   1.000000
   27       -8.499820   1.000000
   28       -8.480007   1.000000
   29       -8.376635   1.000000
   30       -8.257467   1.000000
   31       -8.186126   1.000000
   32       -8.087139   1.000000
   33       -8.051419   1.000000
   34       -8.015760   1.000000
   35       -7.757694   1.000000
   36       -7.714911   1.000000
   37       -7.651349   1.000000
   38       -7.565126   1.000000
   39       -7.481601   1.000000
   40       -7.464823   1.000000
   41       -7.274829   1.000000
   42       -7.230009   1.000000
   43       -7.119677   1.000000
   44       -7.004889   1.000000
   45       -6.894773   1.000000
   46       -6.789481   1.000000
   47       -6.741357   1.000000
   48       -6.662491   1.000000
   49       -6.589216   1.000000
   50       -6.459364   1.000000
   51       -6.410575   1.000000
   52       -6.317202   1.000000
   53       -6.232649   1.000000
   54       -6.149039   1.000000
   55       -6.115773   1.000000
   56       -6.067725   1.000000
   57       -6.020218   1.000000
   58       -5.930022   1.000000
   59       -5.775642   1.000000
   60       -5.652679   1.000000
   61       -5.579417   1.000000
   62       -5.475375   1.000000
   63       -5.382105   1.000000
   64       -5.140692   1.000000
   65       -5.055673   1.000000
   66       -4.932713   1.000000
   67       -4.847072   1.000000
   68       -4.822799   1.000000
   69       -4.743382   1.000000
   70       -4.651071   1.000000
   71       -4.607974   1.000000
   72       -4.562430   1.000000
   73       -4.422844   1.000000
   74       -4.285015   1.000000
   75       -4.252916   1.000000
   76       -4.050845   1.000000
   77       -3.755319   0.999839
   78       -3.652695   0.997954
   79       -3.546889   0.983118
   80       -3.167823   0.288583
   81       -3.139332   0.223929
   82       -2.821022   0.001307
   83       -2.656175   0.000015
   84       -2.611312   0.000004
   85       -2.586111   0.000001
   86       -2.464433   0.000000
   87       -2.232063   0.000000
   88       -2.170356   0.000000
   89       -2.135866   0.000000
   90       -2.046187   0.000000
   91       -1.707736   0.000000
   92       -1.586746   0.000000
   93       -1.404691   0.000000
   94       -1.292812   0.000000
   95       -1.147337   0.000000
   96       -1.069403   0.000000
   97       -0.993211   0.000000
   98       -0.880111   0.000000
   99       -0.768657   0.000000
  100       -0.718950   0.000000
  101       -0.668987   0.000000
  102       -0.532148   0.000000
  103       -0.483728   0.000000
  104       -0.323527   0.000000
  105       -0.145295   0.000000
  106       -0.074326   0.000000
  107       -0.014218   0.000000
  108        0.040232   0.000000
  109        0.172415   0.000000
  110        0.295976   0.000000
  111        0.393991   0.000000
  112        0.502803   0.000000
  113        0.637316   0.000000
  114        0.714941   0.000000
  115        0.954078   0.000000
  116        1.098184   0.000000
  117        1.265069   0.000000
  118        1.688951   0.000000
  119        1.882676   0.000000
  120        2.202652   0.000000
 
  0.2500000E+00  0.5551115E-16  0.0000000E+00  0.3125000E-01
    1      -17.765202   1.000000
    2      -17.007667   1.000000
    3      -16.761313   1.000000
    4      -16.694241   1.000000
    5      -16.599927   1.000000
    6      -16.438512   1.000000
    7      -16.348818   1.000000
    8      -16.275563   1.000000
    9      -16.219516   1.000000
   10      -16.030836   1.000000
   11      -15.964406   1.000000
   12      -15.896138   1.000000
   13      -15.808722   1.000000
   14      -15.663067   1.000000
   15      -15.599207   1.000000
   16      -15.516494   1.000000
   17      -15.227819   1.000000
   18      -15.202684   1.000000
   19       -9.554915   1.000000
   20       -9.371725   1.000000
   21       -9.190661   1.000000
   22       -9.036921   1.000000
   23       -8.993565   1.000000
   24       -8.783798   1.000000
   25       -8.619952   1.000000
   26       -8.552677   1.000000
   27       -8.494873   1.000000
   28       -8.393330   1.000000
   29       -8.301712   1.000000
   30       -8.221200   1.000000
   31       -8.115643   1.000000
   32       -8.057565   1.000000
   33       -7.876078   1.000000
   34       -7.802549   1.000000
   35       -7.769011   1.000000
   36       -7.681091   1.000000
   37       -7.622784   1.000000
   38       -7.585094   1.000000
   39       -7.487483   1.000000
   40       -7.357367   1.000000
   41       -7.266889   1.000000
   42       -7.195062   1.000000
   43       -7.137672   1.000000
   44       -7.059542   1.000000
   45       -6.903091   1.000000
   46       -6.778274   1.000000
   47       -6.730874   1.000000
   48       -6.643262   1.000000
   49       -6.479251   1.000000
   50       -6.395841   1.000000
   51       -6.368292   1.000000
   52       -6.326648   1.000000
   53       -6.271832   1.000000
   54       -6.210257   1.000000
   55       -6.161406   1.000000
   56       -6.063182   1.000000
   57       -6.039975   1.000000
   58       -5.880148   1.000000
   59       -5.749888   1.000000
   60       -5.708779   1.000000
   61       -5.657057   1.000000
   62       -5.502330   1.000000
   63       -5.451656   1.000000
   64       -5.357973   1.000000
   65       -5.271646   1.000000
   66       -4.973030   1.000000
   67       -4.863722   1.000000
   68       -4.752019   1.000000
   69       -4.706488   1.000000
   70       -4.623255   1.000000
   71       -4.500833   1.000000
   72       -4.464893   1.000000
   73       -4.369296   1.000000
   74       -4.284747   1.000000
   75       -4.209990   1.000000
   76       -4.145550   1.000000
   77       -3.835299   0.999984
   78       -3.748660   0.999807
   79       -3.587558   0.992033
   80       -3.114590   0.175166
   81       -3.068209   0.103491
   82       -2.748381   0.000213
   83       -2.621636   0.000005
   84       -2.583698   0.000001
   85       -2.531713   0.000000
   86       -2.437681   0.000000
   87       -2.171365   0.000000
   88       -2.102629   0.000000
   89       -2.043319   0.000000
   90       -2.003361   0.000000
   91       -1.701413   0.000000
   92       -1.578919   0.000000
   93       -1.419235   0.000000
   94       -1.317722   0.000000
   95       -1.206365   0.000000
   96       -1.127804   0.000000
   97       -0.992498   0.000000
   98       -0.914856   0.000000
   99       -0.887565   0.000000
  100       -0.820867   0.000000
  101       -0.784789   0.000000
  102       -0.669586   0.000000
  103       -0.535017   0.000000
  104       -0.446745   0.000000
  105       -0.249555   0.000000
  106       -0.163187   0.000000
  107       -0.038171   0.000000
  108        0.074867   0.000000
  109        0.146694   0.000000
  110        0.284226   0.000000
  111        0.390263   0.000000
  112        0.543414   0.000000
  113        0.747763   0.000000
  114        0.832196   0.000000
  115        0.949121   0.000000
  116        1.119535   0.000000
  117        1.217931   0.000000
  118        1.806705   0.000000
  119        1.999860   0.000000
  120        2.305030   0.000000
 
  0.3750000E+00  0.0000000E+00  0.0000000E+00  0.3125000E-01
    1      -17.663590   1.000000
    2      -17.201920   1.000000
    3      -16.763407   1.000000
    4      -16.722986   1.000000
    5      -16.631435   1.000000
    6      -16.447182   1.000000
    7      -16.334742   1.000000
    8      -16.286803   1.000000
    9      -16.136698   1.000000
   10      -16.002219   1.000000
   11      -15.911260   1.000000
   12      -15.873339   1.000000
   13      -15.737885   1.000000
   14      -15.656889   1.000000
   15      -15.619993   1.000000
   16      -15.555931   1.000000
   17      -15.234245   1.000000
   18      -15.212016   1.000000
   19       -9.746419   1.000000
   20       -9.352555   1.000000
   21       -9.295761   1.000000
   22       -9.138430   1.000000
   23       -9.049700   1.000000
   24       -8.824876   1.000000
   25       -8.535582   1.000000
   26       -8.485749   1.000000
   27       -8.454010   1.000000
   28       -8.302887   1.000000
   29       -8.292641   1.000000
   30       -8.232644   1.000000
   31       -8.144982   1.000000
   32       -8.066388   1.000000
   33       -7.886388   1.000000
   34       -7.835526   1.000000
   35       -7.767744   1.000000
   36       -7.715560   1.000000
   37       -7.538708   1.000000
   38       -7.412851   1.000000
   39       -7.390298   1.000000
   40       -7.298025   1.000000
   41       -7.223090   1.000000
   42       -7.162405   1.000000
   43       -7.062345   1.000000
   44       -7.025833   1.000000
   45       -6.802112   1.000000
   46       -6.760756   1.000000
   47       -6.695941   1.000000
   48       -6.576557   1.000000
   49       -6.506795   1.000000
   50       -6.423410   1.000000
   51       -6.384008   1.000000
   52       -6.340415   1.000000
   53       -6.285396   1.000000
   54       -6.207167   1.000000
   55       -6.133569   1.000000
   56       -6.053176   1.000000
   57       -6.027173   1.000000
   58       -5.875164   1.000000
   59       -5.849643   1.000000
   60       -5.770641   1.000000
   61       -5.680122   1.000000
   62       -5.632763   1.000000
   63       -5.578338   1.000000
   64       -5.425474   1.000000
   65       -5.312281   1.000000
   66       -5.023691   1.000000
   67       -4.869235   1.000000
   68       -4.785908   1.000000
   69       -4.689958   1.000000
   70       -4.664289   1.000000
   71       -4.563575   1.000000
   72       -4.427210   1.000000
   73       -4.353184   1.000000
   74       -4.275101   1.000000
   75       -4.120574   1.000000
   76       -4.082303   1.000000
   77       -3.963161   1.000000
   78       -3.736887   0.999736
   79       -3.571651   0.989218
   80       -3.087370   0.129994
   81       -3.016443   0.051768
   82       -2.699330   0.000054
   83       -2.636181   0.000008
   84       -2.569379   0.000001
   85       -2.446023   0.000000
   86       -2.377989   0.000000
   87       -2.098967   0.000000
   88       -2.045340   0.000000
   89       -1.947816   0.000000
   90       -1.893503   0.000000
   91       -1.651027   0.000000
   92       -1.572922   0.000000
   93       -1.519464   0.000000
   94       -1.358621   0.000000
   95       -1.332392   0.000000
   96       -1.199486   0.000000
   97       -1.032214   0.000000
   98       -1.003633   0.000000
   99       -0.952151   0.000000
  100       -0.887413   0.000000
  101       -0.833269   0.000000
  102       -0.757902   0.000000
  103       -0.621226   0.000000
  104       -0.464894   0.000000
  105       -0.303932   0.000000
  106       -0.228765   0.000000
  107       -0.147946   0.000000
  108        0.045480   0.000000
  109        0.124736   0.000000
  110        0.219580   0.000000
  111        0.451195   0.000000
  112        0.562511   0.000000
  113        0.764268   0.000000
  114        0.883521   0.000000
  115        0.965573   0.000000
  116        1.154047   0.000000
  117        1.285228   0.000000
  118        1.982583   0.000000
  119        2.179002   0.000000
  120        2.438661   0.000000
 
  0.5000000E+00  0.1110223E-15  0.0000000E+00  0.1562500E-01
    1      -17.592107   1.000000
    2      -17.306466   1.000000
    3      -16.765694   1.000000
    4      -16.732430   1.000000
    5      -16.641108   1.000000
    6      -16.452285   1.000000
    7      -16.328920   1.000000
    8      -16.294653   1.000000
    9      -16.075662   1.000000
   10      -16.029536   1.000000
   11      -15.869043   1.000000
   12      -15.858739   1.000000
   13      -15.738165   1.000000
   14      -15.660259   1.000000
   15      -15.619834   1.000000
   16      -15.562222   1.000000
   17      -15.237771   1.000000
   18      -15.216058   1.000000
   19       -9.819502   1.000000
   20       -9.346387   1.000000
   21       -9.331036   1.000000
   22       -9.176204   1.000000
   23       -9.057555   1.000000
   24       -8.837840   1.000000
   25       -8.514646   1.000000
   26       -8.432647   1.000000
   27       -8.416112   1.000000
   28       -8.339582   1.000000
   29       -8.243607   1.000000
   30       -8.206733   1.000000
   31       -8.174233   1.000000
   32       -8.052334   1.000000
   33       -7.962438   1.000000
   34       -7.891178   1.000000
   35       -7.822471   1.000000
   36       -7.729572   1.000000
   37       -7.449086   1.000000
   38       -7.376091   1.000000
   39       -7.337360   1.000000
   40       -7.250590   1.000000
   41       -7.147572   1.000000
   42       -7.100633   1.000000
   43       -7.054349   1.000000
   44       -7.019966   1.000000
   45       -6.800083   1.000000
   46       -6.714268   1.000000
   47       -6.621284   1.000000
   48       -6.559351   1.000000
   49       -6.535406   1.000000
   50       -6.469386   1.000000
   51       -6.415518   1.000000
   52       -6.311926   1.000000
   53       -6.262410   1.000000
   54       -6.230279   1.000000
   55       -6.153486   1.000000
   56       -6.083364   1.000000
   57       -6.044852   1.000000
   58       -5.885443   1.000000
   59       -5.833184   1.000000
   60       -5.786547   1.000000
   61       -5.738793   1.000000
   62       -5.706261   1.000000
   63       -5.479497   1.000000
   64       -5.401916   1.000000
   65       -5.266669   1.000000
   66       -5.240422   1.000000
   67       -4.925994   1.000000
   68       -4.863116   1.000000
   69       -4.700125   1.000000
   70       -4.652260   1.000000
   71       -4.536280   1.000000
   72       -4.410359   1.000000
   73       -4.303318   1.000000
   74       -4.277473   1.000000
   75       -4.090580   1.000000
   76       -4.047796   1.000000
   77       -4.016858   1.000000
   78       -3.722942   0.999621
   79       -3.554391   0.985219
   80       -3.081265   0.121084
   81       -2.997097   0.038803
   82       -2.681935   0.000033
   83       -2.642974   0.000010
   84       -2.570684   0.000001
   85       -2.421770   0.000000
   86       -2.334255   0.000000
   87       -2.066316   0.000000
   88       -2.007472   0.000000
   89       -1.883139   0.000000
   90       -1.843473   0.000000
   91       -1.635074   0.000000
   92       -1.604698   0.000000
   93       -1.545925   0.000000
   94       -1.436137   0.000000
   95       -1.350286   0.000000
   96       -1.243338   0.000000
   97       -1.043662   0.000000
   98       -1.038544   0.000000
   99       -0.995289   0.000000
  100       -0.911991   0.000000
  101       -0.840775   0.000000
  102       -0.779586   0.000000
  103       -0.660415   0.000000
  104       -0.449712   0.000000
  105       -0.309954   0.000000
  106       -0.257313   0.000000
  107       -0.211457   0.000000
  108        0.022548   0.000000
  109        0.119173   0.000000
  110        0.185485   0.000000
  111        0.473153   0.000000
  112        0.565564   0.000000
  113        0.760457   0.000000
  114        0.905307   0.000000
  115        0.960290   0.000000
  116        1.177413   0.000000
  117        1.330049   0.000000
  118        2.156074   0.000000
  119        2.271870   0.000000
  120        2.400651   0.000000
 
  0.0000000E+00  0.1250000E+00  0.0000000E+00  0.3125000E-01
    1      -17.834223   1.000000
    2      -16.815404   1.000000
    3      -16.754454   1.000000
    4      -16.639927   1.000000
    5      -16.539830   1.000000
    6      -16.473986   1.000000
    7      -16.389145   1.000000
    8      -16.317159   1.000000
    9      -16.240459   1.000000
   10      -16.067465   1.000000
   11      -16.015053   1.000000
   12      -15.981955   1.000000
   13      -15.858477   1.000000
   14      -15.629825   1.000000
   15      -15.593286   1.000000
   16      -15.457832   1.000000
   17      -15.248494   1.000000
   18      -15.189840   1.000000
   19       -9.491697   1.000000
   20       -9.145292   1.000000
   21       -9.093606   1.000000
   22       -8.933393   1.000000
   23       -8.793117   1.000000
   24       -8.728717   1.000000
   25       -8.704758   1.000000
   26       -8.595169   1.000000
   27       -8.547173   1.000000
   28       -8.473627   1.000000
   29       -8.421526   1.000000
   30       -8.278863   1.000000
   31       -8.199033   1.000000
   32       -8.068035   1.000000
   33       -8.035429   1.000000
   34       -7.913675   1.000000
   35       -7.850936   1.000000
   36       -7.751675   1.000000
   37       -7.645373   1.000000
   38       -7.516848   1.000000
   39       -7.446439   1.000000
   40       -7.378900   1.000000
   41       -7.346343   1.000000
   42       -7.215857   1.000000
   43       -7.127516   1.000000
   44       -6.954423   1.000000
   45       -6.899883   1.000000
   46       -6.861624   1.000000
   47       -6.742568   1.000000
   48       -6.708548   1.000000
   49       -6.610267   1.000000
   50       -6.527027   1.000000
   51       -6.398677   1.000000
   52       -6.288393   1.000000
   53       -6.253289   1.000000
   54       -6.156551   1.000000
   55       -6.108674   1.000000
   56       -6.072963   1.000000
   57       -5.954294   1.000000
   58       -5.879049   1.000000
   59       -5.779714   1.000000
   60       -5.634130   1.000000
   61       -5.563186   1.000000
   62       -5.393170   1.000000
   63       -5.327421   1.000000
   64       -5.202014   1.000000
   65       -5.064282   1.000000
   66       -5.027375   1.000000
   67       -4.933753   1.000000
   68       -4.835412   1.000000
   69       -4.749250   1.000000
   70       -4.651527   1.000000
   71       -4.594472   1.000000
   72       -4.496002   1.000000
   73       -4.379486   1.000000
   74       -4.299130   1.000000
   75       -4.267985   1.000000
   76       -3.909199   0.999999
   77       -3.803895   0.999959
   78       -3.655410   0.998075
   79       -3.480889   0.951157
   80       -3.415372   0.883546
   81       -2.996562   0.038486
   82       -2.861242   0.003211
   83       -2.704160   0.000062
   84       -2.618892   0.000005
   85       -2.573798   0.000001
   86       -2.470688   0.000000
   87       -2.221259   0.000000
   88       -2.198244   0.000000
   89       -2.149180   0.000000
   90       -2.027544   0.000000
   91       -1.701909   0.000000
   92       -1.564217   0.000000
   93       -1.425429   0.000000
   94       -1.277235   0.000000
   95       -1.123707   0.000000
   96       -1.059067   0.000000
   97       -1.011345   0.000000
   98       -0.874593   0.000000
   99       -0.768711   0.000000
  100       -0.684800   0.000000
  101       -0.631518   0.000000
  102       -0.549147   0.000000
  103       -0.504530   0.000000
  104       -0.324697   0.000000
  105       -0.186903   0.000000
  106       -0.123871   0.000000
  107       -0.036637   0.000000
  108        0.100818   0.000000
  109        0.183847   0.000000
  110        0.292452   0.000000
  111        0.384743   0.000000
  112        0.478350   0.000000
  113        0.558601   0.000000
  114        0.707179   0.000000
  115        0.996195   0.000000
  116        1.154989   0.000000
  117        1.322716   0.000000
  118        1.691669   0.000000
  119        1.880327   0.000000
  120        2.203301   0.000000
 
  0.1250000E+00  0.1250000E+00  0.0000000E+00  0.3125000E-01
    1      -17.789927   1.000000
    2      -16.881533   1.000000
    3      -16.839340   1.000000
    4      -16.728768   1.000000
    5      -16.482143   1.000000
    6      -16.453977   1.000000
    7      -16.375422   1.000000
    8      -16.315373   1.000000
    9      -16.232000   1.000000
   10      -16.023990   1.000000
   11      -15.999765   1.000000
   12      -15.889222   1.000000
   13      -15.842172   1.000000
   14      -15.649257   1.000000
   15      -15.595973   1.000000
   16      -15.482303   1.000000
   17      -15.256075   1.000000
   18      -15.190839   1.000000
   19       -9.507044   1.000000
   20       -9.354190   1.000000
   21       -9.150929   1.000000
   22       -9.102804   1.000000
   23       -8.858227   1.000000
   24       -8.698403   1.000000
   25       -8.678006   1.000000
   26       -8.544866   1.000000
   27       -8.504337   1.000000
   28       -8.454289   1.000000
   29       -8.330203   1.000000
   30       -8.244852   1.000000
   31       -8.133613   1.000000
   32       -8.044390   1.000000
   33       -7.980655   1.000000
   34       -7.850823   1.000000
   35       -7.757595   1.000000
   36       -7.727471   1.000000
   37       -7.614773   1.000000
   38       -7.510866   1.000000
   39       -7.449035   1.000000
   40       -7.358680   1.000000
   41       -7.285660   1.000000
   42       -7.227692   1.000000
   43       -7.176631   1.000000
   44       -6.994557   1.000000
   45       -6.922276   1.000000
   46       -6.822511   1.000000
   47       -6.781496   1.000000
   48       -6.652120   1.000000
   49       -6.514287   1.000000
   50       -6.453681   1.000000
   51       -6.388985   1.000000
   52       -6.319391   1.000000
   53       -6.273069   1.000000
   54       -6.196246   1.000000
   55       -6.134141   1.000000
   56       -6.043730   1.000000
   57       -5.993000   1.000000
   58       -5.895886   1.000000
   59       -5.764957   1.000000
   60       -5.613657   1.000000
   61       -5.523549   1.000000
   62       -5.510291   1.000000
   63       -5.466958   1.000000
   64       -5.265929   1.000000
   65       -5.206336   1.000000
   66       -5.073050   1.000000
   67       -4.909374   1.000000
   68       -4.800356   1.000000
   69       -4.745592   1.000000
   70       -4.615713   1.000000
   71       -4.508591   1.000000
   72       -4.447321   1.000000
   73       -4.354092   1.000000
   74       -4.235320   1.000000
   75       -4.208605   1.000000
   76       -4.065314   1.000000
   77       -3.926847   0.999999
   78       -3.662248   0.998351
   79       -3.536056   0.979635
   80       -3.323817   0.707300
   81       -2.961817   0.021994
   82       -2.800582   0.000804
   83       -2.657440   0.000015
   84       -2.608103   0.000003
   85       -2.542449   0.000000
   86       -2.464239   0.000000
   87       -2.183201   0.000000
   88       -2.118034   0.000000
   89       -2.095289   0.000000
   90       -2.023202   0.000000
   91       -1.697682   0.000000
   92       -1.562427   0.000000
   93       -1.420441   0.000000
   94       -1.284979   0.000000
   95       -1.153920   0.000000
   96       -1.106815   0.000000
   97       -1.007842   0.000000
   98       -0.879692   0.000000
   99       -0.858340   0.000000
  100       -0.781618   0.000000
  101       -0.760153   0.000000
  102       -0.648634   0.000000
  103       -0.571836   0.000000
  104       -0.423771   0.000000
  105       -0.210428   0.000000
  106       -0.127211   0.000000
  107       -0.048901   0.000000
  108        0.095383   0.000000
  109        0.107204   0.000000
  110        0.307284   0.000000
  111        0.390570   0.000000
  112        0.531680   0.000000
  113        0.623952   0.000000
  114        0.804958   0.000000
  115        0.991575   0.000000
  116        1.160326   0.000000
  117        1.281308   0.000000
  118        1.771804   0.000000
  119        1.959504   0.000000
  120        2.271788   0.000000
 
  0.2500000E+00  0.1250000E+00  0.0000000E+00  0.3125000E-01
    1      -17.705049   1.000000
    2      -17.078889   1.000000
    3      -16.898483   1.000000
    4      -16.726923   1.000000
    5      -16.495895   1.000000
    6      -16.433523   1.000000
    7      -16.351179   1.000000
    8      -16.260392   1.000000
    9      -16.227043   1.000000
   10      -16.009165   1.000000
   11      -15.961570   1.000000
   12      -15.851274   1.000000
   13      -15.740071   1.000000
   14      -15.683889   1.000000
   15      -15.607744   1.000000
   16      -15.509752   1.000000
   17      -15.266875   1.000000
   18      -15.192672   1.000000
   19       -9.632965   1.000000
   20       -9.496008   1.000000
   21       -9.284735   1.000000
   22       -9.145203   1.000000
   23       -8.924364   1.000000
   24       -8.686413   1.000000
   25       -8.574781   1.000000
   26       -8.483259   1.000000
   27       -8.448110   1.000000
   28       -8.392272   1.000000
   29       -8.292334   1.000000
   30       -8.217578   1.000000
   31       -8.154750   1.000000
   32       -8.092897   1.000000
   33       -7.927346   1.000000
   34       -7.852835   1.000000
   35       -7.774727   1.000000
   36       -7.683401   1.000000
   37       -7.577614   1.000000
   38       -7.498440   1.000000
   39       -7.360368   1.000000
   40       -7.316671   1.000000
   41       -7.258937   1.000000
   42       -7.181173   1.000000
   43       -7.061355   1.000000
   44       -6.940507   1.000000
   45       -6.900918   1.000000
   46       -6.818076   1.000000
   47       -6.747256   1.000000