       N       E                     dE             d eps       ncg     rms          rms(c)
DAV:   1     0.112370422522E+04    0.11237E+04   -0.35864E+04  8160   0.577E+02
DAV:   2    -0.586579166543E+01   -0.11296E+04   -0.10907E+04 11280   0.173E+02
DAV:   3    -0.199954756339E+03   -0.19409E+03   -0.18649E+03 10880   0.817E+01
DAV:   4    -0.209000030506E+03   -0.90453E+01   -0.87574E+01 12120   0.260E+01
DAV:   5    -0.209323766467E+03   -0.32374E+00   -0.32281E+00 11360   0.360E+00    0.275E+01
DAV:   6    -0.237083591714E+03   -0.27760E+02   -0.10963E+02 12400   0.604E+01    0.596E+01
DAV:   7    -0.196443733624E+03    0.40640E+02   -0.17774E+02 13320   0.152E+02    0.199E+01
DAV:   8    -0.189402897043E+03    0.70408E+01   -0.17409E+01 11920   0.127E+01    0.126E+01
DAV:   9    -0.188169651287E+03    0.12332E+01   -0.31507E+00 13000   0.637E+00    0.914E+00
DAV:  10    -0.186998967549E+03    0.11707E+01   -0.20865E+00 13520   0.737E+00    0.271E+00
DAV:  11    -0.186967204405E+03    0.31763E-01   -0.58970E-01 13280   0.250E+00    0.274E+00
DAV:  12    -0.187089309431E+03   -0.12211E+00   -0.81616E-01 12120   0.482E+00    0.496E+00
DAV:  13    -0.186881024878E+03    0.20828E+00   -0.54394E-01 12800   0.410E+00    0.211E+00
DAV:  14    -0.186856638905E+03    0.24386E-01   -0.12750E-01 13280   0.206E+00    0.168E+00
DAV:  15    -0.186837088096E+03    0.19551E-01   -0.71216E-02 11760   0.161E+00    0.866E-01
DAV:  16    -0.186829437624E+03    0.76505E-02   -0.12298E-02 11840   0.468E-01    0.450E-01
DAV:  17    -0.186827554710E+03    0.18829E-02   -0.79864E-03 12640   0.432E-01    0.234E-01
DAV:  18    -0.186827094637E+03    0.46007E-03   -0.24506E-03 11640   0.144E-01    0.180E-01
DAV:  19    -0.186826739899E+03    0.35474E-03   -0.98383E-04 10880   0.134E-01    0.477E-02
DAV:  20    -0.186827477871E+03   -0.73797E-03   -0.69384E-04  9400   0.582E-02    0.496E-02
DAV:  21    -0.186828068992E+03   -0.59112E-03   -0.26531E-04  7800   0.450E-02    0.443E-02
DAV:  22    -0.186829235311E+03   -0.11663E-02   -0.21766E-04  7640   0.616E-02    0.400E-02
DAV:  23    -0.186830461344E+03   -0.12260E-02   -0.14566E-04  7440   0.444E-02    0.113E-02
DAV:  24    -0.186831049049E+03   -0.58771E-03   -0.30798E-05  6720   0.141E-02    0.776E-03
DAV:  25    -0.186831414016E+03   -0.36497E-03   -0.15748E-05  5760   0.121E-02    0.492E-03
DAV:  26    -0.186831648737E+03   -0.23472E-03   -0.90228E-06  6760   0.729E-03    0.160E-03
DAV:  27    -0.186831751835E+03   -0.10310E-03   -0.38325E-06  7160   0.478E-03    0.160E-03
DAV:  28    -0.186831792486E+03   -0.40651E-04   -0.19972E-06  7360   0.363E-03
   1 F= -.18683179E+03 E0= -.18665924E+03  d E =-.186832E+03
       N       E                     dE             d eps       ncg     rms          rms(c)
DAV:   1    -0.187459327943E+03   -0.62758E+00   -0.27120E+02  8160   0.350E+01    0.460E+00
DAV:   2    -0.189260660454E+03   -0.18013E+01   -0.20040E+01 12280   0.149E+01    0.789E+00
DAV:   3    -0.189367171145E+03   -0.10651E+00   -0.36212E+00 12440   0.117E+01    0.697E+00
DAV:   4    -0.188724902128E+03    0.64227E+00   -0.65836E-01 12640   0.492E+00    0.178E+00
DAV:   5    -0.188721346109E+03    0.35560E-02   -0.29496E-01 10160   0.142E+00    0.214E+00
DAV:   6    -0.188660226613E+03    0.61119E-01   -0.28280E-01 10840   0.145E+00    0.116E+00
DAV:   7    -0.188642700027E+03    0.17527E-01   -0.80918E-02 11440   0.105E+00    0.820E-01
DAV:   8    -0.188638578479E+03    0.41215E-02   -0.28444E-02 12440   0.933E-01    0.780E-01
DAV:   9    -0.188634120794E+03    0.44577E-02   -0.10621E-02 13080   0.564E-01    0.237E-01
DAV:  10    -0.188633771591E+03    0.34920E-03   -0.28635E-03 12920   0.206E-01    0.151E-01
DAV:  11    -0.188633517933E+03    0.25366E-03   -0.14163E-03 12040   0.127E-01    0.109E-01
DAV:  12    -0.188633856053E+03   -0.33812E-03   -0.99075E-04 10960   0.188E-01    0.216E-01
DAV:  13    -0.188633532023E+03    0.32403E-03   -0.57063E-04  9520   0.148E-01    0.216E-02
DAV:  14    -0.188633639628E+03   -0.10761E-03   -0.68292E-05  7400   0.272E-02    0.303E-02
DAV:  15    -0.188633673643E+03   -0.34015E-04   -0.37883E-05  7560   0.210E-02
   2 F= -.18863367E+03 E0= -.18849138E+03  d E =-.180188E+01
       N       E                     dE             d eps       ncg     rms          rms(c)
DAV:   1    -0.190551986404E+03   -0.19183E+01   -0.30897E+01  9280   0.142E+01    0.446E+00
DAV:   2    -0.190545934473E+03    0.60519E-02   -0.28405E+00 11680   0.972E+00    0.748E+00
DAV:   3    -0.190024516362E+03    0.52142E+00   -0.13436E+00 12360   0.865E+00    0.413E+00
DAV:   4    -0.189819917068E+03    0.20460E+00   -0.69847E-01 12960   0.404E+00    0.247E+00
DAV:   5    -0.189737222767E+03    0.82694E-01   -0.29527E-01 11440   0.198E+00    0.118E+00
DAV:   6    -0.189723064233E+03    0.14159E-01   -0.63922E-02 11920   0.139E+00    0.855E-01
DAV:   7    -0.189717106324E+03    0.59579E-02   -0.15037E-02 12240   0.702E-01    0.215E-01
DAV:   8    -0.189716959507E+03    0.14682E-03   -0.21954E-03 10560   0.170E-01    0.143E-01
DAV:   9    -0.189717175624E+03   -0.21612E-03   -0.10445E-03 11120   0.144E-01    0.160E-01
DAV:  10    -0.189717574261E+03   -0.39864E-03   -0.14392E-03 10160   0.263E-01    0.251E-01
DAV:  11    -0.189716990857E+03    0.58340E-03   -0.83326E-04  9760   0.193E-01    0.267E-02
DAV:  12    -0.189717013396E+03   -0.22539E-04   -0.66982E-05  5760   0.320E-02
   3 F= -.18971701E+03 E0= -.18959717E+03  d E =-.108334E+01
       N       E                     dE             d eps       ncg     rms          rms(c)
DAV:   1    -0.191282131147E+03   -0.15651E+01   -0.71857E+01  8160   0.194E+01    0.464E+00
DAV:   2    -0.191157193207E+03    0.12494E+00   -0.54527E+00 13360   0.833E+00    0.521E+00
DAV:   3    -0.191197001571E+03   -0.39808E-01   -0.16174E+00 12280   0.927E+00    0.650E+00
DAV:   4    -0.190837656614E+03    0.35934E+00   -0.13703E+00 12600   0.737E+00    0.318E+00
DAV:   5    -0.190833400333E+03    0.42563E-02   -0.56378E-01 12000   0.490E+00    0.337E+00
DAV:   6    -0.190688532391E+03    0.14487E+00   -0.21611E-01 12160   0.327E+00    0.842E-01
DAV:   7    -0.190683072808E+03    0.54596E-02   -0.39142E-02 12360   0.907E-01    0.491E-01
DAV:   8    -0.190681546189E+03    0.15266E-02   -0.11062E-02 11680   0.640E-01    0.496E-01
DAV:   9    -0.190679353634E+03    0.21926E-02   -0.39981E-03 11320   0.464E-01    0.157E-01
DAV:  10    -0.190679625800E+03   -0.27217E-03   -0.11871E-03 10440   0.144E-01    0.126E-01
DAV:  11    -0.190679465862E+03    0.15994E-03   -0.87977E-04 10480   0.108E-01    0.485E-02
DAV:  12    -0.190679459755E+03    0.61065E-05   -0.14694E-04  7120   0.453E-02
   4 F= -.19067946E+03 E0= -.19057825E+03  d E =-.962446E+00
       N       E                     dE             d eps       ncg     rms          rms(c)
DAV:   1    -0.192064026983E+03   -0.13846E+01   -0.14996E+02  8160   0.274E+01    0.569E+00
DAV:   2    -0.191841810796E+03    0.22222E+00   -0.94432E+00 12040   0.869E+00    0.450E+00
DAV:   3    -0.192225395977E+03   -0.38359E+00   -0.23900E+00 12200   0.108E+01    0.914E+00
DAV:   4    -0.191561088613E+03    0.66431E+00   -0.23401E+00 12160   0.111E+01    0.353E+00
DAV:   5    -0.191387974929E+03    0.17311E+00   -0.49993E-01 12280   0.349E+00    0.176E+00
DAV:   6    -0.191371180984E+03    0.16794E-01   -0.20051E-01 12520   0.292E+00    0.180E+00
DAV:   7    -0.191347236428E+03    0.23945E-01   -0.10385E-01 12200   0.206E+00    0.675E-01
DAV:   8    -0.191339872677E+03    0.73638E-02   -0.11470E-02 11160   0.538E-01    0.201E-01
DAV:   9    -0.191341189906E+03   -0.13172E-02   -0.38554E-03 12560   0.423E-01    0.379E-01
DAV:  10    -0.191340160057E+03    0.10298E-02   -0.35236E-03 11360   0.406E-01    0.125E-01
DAV:  11    -0.191339993379E+03    0.16668E-03   -0.73903E-04 10440   0.123E-01    0.579E-02
DAV:  12    -0.191339959865E+03    0.33514E-04   -0.13265E-04  7400   0.470E-02
   5 F= -.19133996E+03 E0= -.19124564E+03  d E =-.660500E+00
       N       E                     dE             d eps       ncg     rms          rms(c)
DAV:   1    -0.191426671587E+03   -0.86678E-01   -0.77908E+00  8160   0.589E+00    0.715E-01
DAV:   2    -0.191489328655E+03   -0.62657E-01   -0.31665E-01 13200   0.271E+00    0.223E+00
DAV:   3    -0.191442465838E+03    0.46863E-01   -0.13572E-01 12320   0.241E+00    0.660E-01
DAV:   4    -0.191442894621E+03   -0.42878E-03   -0.20581E-02 11800   0.987E-01    0.724E-01
DAV:   5    -0.191437532597E+03    0.53620E-02   -0.10101E-02 11720   0.765E-01    0.240E-01
DAV:   6    -0.191437080943E+03    0.45165E-03   -0.25837E-03 11040   0.237E-01    0.141E-01
DAV:   7    -0.191436846019E+03    0.23492E-03   -0.14038E-03 10400   0.138E-01    0.824E-02
DAV:   8    -0.191436801024E+03    0.44996E-04   -0.42242E-04  9520   0.131E-01
   6 F= -.19143680E+03 E0= -.19134101E+03  d E =-.968412E-01
       N       E                     dE             d eps       ncg     rms          rms(c)
DAV:   1    -0.191459984450E+03   -0.23138E-01   -0.45489E-01  8160   0.143E+00    0.172E-01
DAV:   2    -0.191463270393E+03   -0.32859E-02   -0.16637E-02 13600   0.641E-01    0.507E-01
DAV:   3    -0.191460636015E+03    0.26344E-02   -0.62723E-03 11480   0.547E-01    0.143E-01
DAV:   4    -0.191460803286E+03   -0.16727E-03   -0.11632E-03 10040   0.235E-01    0.188E-01
DAV:   5    -0.191460460268E+03    0.34302E-03   -0.61845E-04  8720   0.193E-01    0.566E-02
DAV:   6    -0.191460465352E+03   -0.50833E-05   -0.13599E-04  6120   0.655E-02
   7 F= -.19146047E+03 E0= -.19136461E+03  d E =-.236643E-01
       N       E                     dE             d eps       ncg     rms          rms(c)
DAV:   1    -0.191364576597E+03    0.95884E-01   -0.78019E+00  8160   0.593E+00    0.731E-01
DAV:   2    -0.191421121158E+03   -0.56545E-01   -0.28975E-01 13600   0.286E+00    0.204E+00
DAV:   3    -0.191373758629E+03    0.47363E-01   -0.90882E-02 12440   0.224E+00    0.541E-01
DAV:   4    -0.191375948015E+03   -0.21894E-02   -0.18792E-02 10600   0.957E-01    0.761E-01
DAV:   5    -0.191370239717E+03    0.57083E-02   -0.12521E-02 10800   0.823E-01    0.282E-01
DAV:   6    -0.191369819073E+03    0.42064E-03   -0.39914E-03 11600   0.336E-01    0.206E-01
DAV:   7    -0.191370096291E+03   -0.27722E-03   -0.32625E-03 12200   0.393E-01    0.297E-01
DAV:   8    -0.191369178426E+03    0.91786E-03   -0.15990E-03 10080   0.280E-01    0.486E-02
DAV:   9    -0.191369173897E+03    0.45298E-05   -0.95564E-05  5960   0.448E-02
   8 F= -.19136917E+03 E0= -.19127453E+03  d E =0.912915E-01
       N       E                     dE             d eps       ncg     rms          rms(c)
DAV:   1    -0.191322041141E+03    0.47137E-01   -0.47429E+00  8160   0.462E+00    0.442E-01
DAV:   2    -0.191331825736E+03   -0.97846E-02   -0.12230E-01 12520   0.108E+00    0.538E-01
DAV:   3    -0.191332786570E+03   -0.96083E-03   -0.23289E-02 12600   0.101E+00    0.703E-01
DAV:   4    -0.191328570959E+03    0.42156E-02   -0.11062E-02 12000   0.708E-01    0.273E-01
DAV:   5    -0.191327809570E+03    0.76139E-03   -0.31520E-03 10200   0.324E-01    0.214E-01
DAV:   6    -0.191328059645E+03   -0.25007E-03   -0.29803E-03 12000   0.381E-01    0.245E-01
DAV:   7    -0.191327514689E+03    0.54496E-03   -0.15695E-03  9920   0.274E-01    0.126E-01
DAV:   8    -0.191327367079E+03    0.14761E-03   -0.44082E-04  8560   0.155E-01    0.608E-02
DAV:   9    -0.191327328443E+03    0.38636E-04   -0.88825E-05  6720   0.660E-02
   9 F= -.19132733E+03 E0= -.19123349E+03  d E =0.418455E-01
       N       E                     dE             d eps       ncg     rms          rms(c)
DAV:   1    -0.191385317101E+03   -0.57950E-01   -0.52218E+00  8160   0.483E+00    0.539E-01
DAV:   2    -0.191407880663E+03   -0.22564E-01   -0.16473E-01 13320   0.147E+00    0.122E+00
DAV:   3    -0.191395281180E+03    0.12599E-01   -0.59790E-02 12240   0.159E+00    0.659E-01
DAV:   4    -0.191392538875E+03    0.27423E-02   -0.12736E-02 11920   0.699E-01    0.461E-01
DAV:   5    -0.191390680915E+03    0.18580E-02   -0.56702E-03 11320   0.562E-01    0.258E-01
DAV:   6    -0.191390130617E+03    0.55030E-03   -0.25200E-03 12040   0.288E-01    0.142E-01
DAV:   7    -0.191390009920E+03    0.12070E-03   -0.12782E-03 11120   0.190E-01    0.118E-01
DAV:   8    -0.191389927222E+03    0.82698E-04   -0.59461E-04  9040   0.179E-01
  10 F= -.19138993E+03 E0= -.19129420E+03  d E =-.625988E-01
       N       E                     dE             d eps       ncg     rms          rms(c)
DAV:   1    -0.191409083492E+03   -0.19074E-01   -0.39168E-01  8160   0.135E+00    0.216E-01
DAV:   2    -0.191413200782E+03   -0.41173E-02   -0.20162E-02 12760   0.808E-01    0.617E-01
DAV:   3    -0.191409171942E+03    0.40288E-02   -0.87636E-03 11560   0.657E-01    0.149E-01
DAV:   4    -0.191409512054E+03   -0.34011E-03   -0.20402E-03 10120   0.297E-01    0.257E-01
DAV:   5    -0.191408894562E+03    0.61749E-03   -0.14163E-03  9760   0.269E-01    0.892E-02
DAV:   6    -0.191408805812E+03    0.88750E-04   -0.27844E-04  6040   0.858E-02
  11 F= -.19140881E+03 E0= -.19131246E+03  d E =-.188786E-01
       N       E                     dE             d eps       ncg     rms          rms(c)
DAV:   1    -0.191491448193E+03   -0.82554E-01   -0.75355E+00  8160   0.584E+00    0.723E-01
DAV:   2    -0.191552829056E+03   -0.61381E-01   -0.28853E-01 13600   0.288E+00    0.235E+00
DAV:   3    -0.191501751377E+03    0.51078E-01   -0.13750E-01 12280   0.241E+00    0.645E-01
DAV:   4    -0.191503061258E+03   -0.13099E-02   -0.23593E-02 11320   0.106E+00    0.785E-01
DAV:   5    -0.191496837444E+03    0.62238E-02   -0.12267E-02 11840   0.801E-01    0.260E-01
DAV:   6    -0.191496208959E+03    0.62849E-03   -0.35422E-03 11320   0.266E-01    0.152E-01
DAV:   7    -0.191495956663E+03    0.25230E-03   -0.15887E-03 11640   0.187E-01    0.124E-01
DAV:   8    -0.191495835424E+03    0.12124E-03   -0.64982E-04  8920   0.182E-01    0.900E-02
DAV:   9    -0.191495748538E+03    0.86886E-04   -0.16320E-04  6400   0.914E-02
  12 F= -.19149575E+03 E0= -.19139895E+03  d E =-.869427E-01
       N       E                     dE             d eps       ncg     rms          rms(c)
DAV:   1    -0.191241752694E+03    0.25408E+00   -0.57612E+01  8160   0.161E+01    0.174E+00
DAV:   2    -0.191497340402E+03   -0.25559E+00   -0.17349E+00 13160   0.554E+00    0.373E+00
DAV:   3    -0.191319482526E+03    0.17786E+00   -0.36539E-01 11640   0.453E+00    0.145E+00
DAV:   4    -0.191320131264E+03   -0.64874E-03   -0.11420E-01 12360   0.206E+00    0.159E+00
DAV:   5    -0.191297953634E+03    0.22178E-01   -0.67834E-02 11760   0.183E+00    0.794E-01
DAV:   6    -0.191293260666E+03    0.46930E-02   -0.24588E-02 12200   0.946E-01    0.468E-01
DAV:   7    -0.191292187680E+03    0.10730E-02   -0.12427E-02 12760   0.676E-01    0.501E-01
DAV:   8    -0.191289897636E+03    0.22900E-02   -0.55539E-03 11600   0.564E-01    0.181E-01
DAV:   9    -0.191289552101E+03    0.34554E-03   -0.91283E-04 10360   0.168E-01    0.586E-02
DAV:  10    -0.191289504357E+03    0.47744E-04   -0.35232E-04 10240   0.608E-02
  13 F= -.19128950E+03 E0= -.19119693E+03  d E =0.206244E+00
       N       E                     dE             d eps       ncg     rms          rms(c)
DAV:   1    -0.191260442191E+03    0.29110E-01   -0.71628E+00  8160   0.561E+00    0.555E-01
DAV:   2    -0.191275862846E+03   -0.15421E-01   -0.15427E-01 12440   0.137E+00    0.832E-01
DAV:   3    -0.191269629218E+03    0.62336E-02   -0.31544E-02 12880   0.125E+00    0.597E-01
DAV:   4    -0.191266857522E+03    0.27717E-02   -0.11117E-02 12320   0.729E-01    0.340E-01
DAV:   5    -0.191265792667E+03    0.10649E-02   -0.49877E-03 11800   0.461E-01    0.311E-01
DAV:   6    -0.191265537720E+03    0.25495E-03   -0.40291E-03 11080   0.464E-01    0.250E-01
DAV:   7    -0.191264941568E+03    0.59615E-03   -0.14312E-03 10280   0.243E-01    0.666E-02
DAV:   8    -0.191264912016E+03    0.29552E-04   -0.28536E-04  7680   0.107E-01
  14 F= -.19126491E+03 E0= -.19117292E+03  d E =0.245923E-01
       N       E                     dE             d eps       ncg     rms          rms(c)
DAV:   1    -0.191292190147E+03   -0.27249E-01   -0.21223E+00  8160   0.309E+00    0.413E-01
DAV:   2    -0.191308201926E+03   -0.16012E-01   -0.87381E-02 13400   0.154E+00    0.111E+00
DAV:   3    -0.191295064901E+03    0.13137E-01   -0.34022E-02 12240   0.130E+00    0.344E-01
DAV:   4    -0.191294823654E+03    0.24125E-03   -0.67712E-03 11240   0.491E-01    0.369E-01
DAV:   5    -0.191293870031E+03    0.95362E-03   -0.43530E-03 11480   0.462E-01    0.228E-01
DAV:   6    -0.191293239330E+03    0.63070E-03   -0.14254E-03 10080   0.221E-01    0.662E-02
DAV:   7    -0.191293332417E+03   -0.93087E-04   -0.54268E-04 10720   0.119E-01
  15 F= -.19129333E+03 E0= -.19119875E+03  d E =-.284204E-01
       N       E                     dE             d eps       ncg     rms          rms(c)
DAV:   1    -0.191339409377E+03   -0.46170E-01   -0.11002E+01  8160   0.702E+00    0.836E-01
DAV:   2    -0.191397481672E+03   -0.58072E-01   -0.37756E-01 13480   0.289E+00    0.202E+00
DAV:   3    -0.191357592932E+03    0.39889E-01   -0.13920E-01 12320   0.255E+00    0.822E-01
DAV:   4    -0.191353916175E+03    0.36768E-02   -0.29141E-02 12200   0.102E+00    0.720E-01
DAV:   5    -0.191350835108E+03    0.30811E-02   -0.18310E-02 12240   0.947E-01    0.509E-01
DAV:   6    -0.191347884734E+03    0.29504E-02   -0.64591E-03 12280   0.486E-01    0.149E-01
DAV:   7    -0.191347833638E+03    0.51096E-04   -0.18411E-03 10600   0.154E-01    0.812E-02
DAV:   8    -0.191347669752E+03    0.16389E-03   -0.38979E-04 10080   0.857E-02    0.402E-02
DAV:   9    -0.191347694163E+03   -0.24411E-04   -0.15791E-04  6840   0.880E-02
  16 F= -.19134769E+03 E0= -.19124921E+03  d E =-.543617E-01
       N       E                     dE             d eps       ncg     rms          rms(c)
DAV:   1    -0.191358557874E+03   -0.10888E-01   -0.40071E-01  8160   0.139E+00    0.214E-01
DAV:   2    -0.191360566900E+03   -0.20090E-02   -0.17884E-02 13000   0.609E-01    0.410E-01
DAV:   3    -0.191358903146E+03    0.16638E-02   -0.58209E-03 11640   0.550E-01    0.199E-01
DAV:   4    -0.191358597416E+03    0.30573E-03   -0.18663E-03 10040   0.254E-01    0.163E-01
DAV:   5    -0.191358532937E+03    0.64479E-04   -0.12996E-03  9880   0.242E-01    0.169E-01
DAV:   6    -0.191358250397E+03    0.28254E-03   -0.64932E-04  8200   0.173E-01    0.479E-02
DAV:   7    -0.191358231457E+03    0.18940E-04   -0.14463E-04  5640   0.573E-02
  17 F= -.19135823E+03 E0= -.19125964E+03  d E =-.105373E-01
       N       E                     dE             d eps       ncg     rms          rms(c)
DAV:   1    -0.191383540627E+03   -0.25290E-01   -0.21396E+00  8160   0.313E+00    0.370E-01
DAV:   2    -0.191391752892E+03   -0.82123E-02   -0.69804E-02 13600   0.108E+00    0.697E-01
DAV:   3    -0.191387268499E+03    0.44844E-02   -0.20401E-02 12280   0.994E-01    0.403E-01
DAV:   4    -0.191386149247E+03    0.11193E-02   -0.59613E-03 12160   0.466E-01    0.288E-01
DAV:   5    -0.191385804087E+03    0.34516E-03   -0.34727E-03 11160   0.414E-01    0.260E-01
DAV:   6    -0.191385124487E+03    0.67960E-03   -0.15918E-03  9720   0.264E-01    0.764E-02
DAV:   7    -0.191385199875E+03   -0.75388E-04   -0.53913E-04 10400   0.130E-01
  18 F= -.19138520E+03 E0= -.19128665E+03  d E =-.269684E-01
       N       E                     dE             d eps       ncg     rms          rms(c)
DAV:   1    -0.191370385517E+03    0.14739E-01   -0.70573E-01  8160   0.181E+00    0.231E-01
DAV:   2    -0.191373821145E+03   -0.34356E-02   -0.24794E-02 12920   0.737E-01    0.512E-01
DAV:   3    -0.191371201145E+03    0.26200E-02   -0.78180E-03 11960   0.643E-01    0.226E-01
DAV:   4    -0.191371002754E+03    0.19839E-03   -0.23102E-03  9720   0.306E-01    0.208E-01
DAV:   5    -0.191370707312E+03    0.29544E-03   -0.14413E-03  9640   0.276E-01    0.139E-01
DAV:   6    -0.191370488103E+03    0.21921E-03   -0.56457E-04  9280   0.144E-01    0.508E-02
DAV:   7    -0.191370585950E+03   -0.97847E-04   -0.35551E-04  8240   0.130E-01
  19 F= -.19137059E+03 E0= -.19127178E+03  d E =0.146139E-01
       N       E                     dE             d eps       ncg     rms          rms(c)
DAV:   1    -0.191356870528E+03    0.13618E-01   -0.58455E-01  8160   0.164E+00    0.183E-01
DAV:   2    -0.191358633392E+03   -0.17629E-02   -0.17575E-02 13520   0.475E-01    0.302E-01
DAV:   3    -0.191358071783E+03    0.56161E-03   -0.48038E-03 11720   0.453E-01    0.253E-01
DAV:   4    -0.191357636398E+03    0.43538E-03   -0.19592E-03 10000   0.269E-01    0.143E-01
DAV:   5    -0.191357515009E+03    0.12139E-03   -0.76051E-04  8680   0.197E-01    0.117E-01
DAV:   6    -0.191357384649E+03    0.13036E-03   -0.39488E-04  8320   0.141E-01    0.465E-02
DAV:   7    -0.191357384063E+03    0.58672E-06   -0.11385E-04  6720   0.616E-02
  20 F= -.19135738E+03 E0= -.19125860E+03  d E =0.132019E-01
       N       E                     dE             d eps       ncg     rms          rms(c)
DAV:   1    -0.191369194529E+03   -0.11810E-01   -0.55107E-01  8160   0.158E+00    0.186E-01
DAV:   2    -0.191371787359E+03   -0.25928E-02   -0.18017E-02 13600   0.585E-01    0.412E-01
DAV:   3    -0.191370136903E+03    0.16505E-02   -0.61605E-03 11880   0.545E-01    0.207E-01
DAV:   4    -0.191369853049E+03    0.28385E-03   -0.15808E-03  9520   0.242E-01    0.146E-01
DAV:   5    -0.191369720294E+03    0.13276E-03   -0.71598E-04  8560   0.193E-01    0.106E-01
DAV:   6    -0.191369606847E+03    0.11345E-03   -0.33724E-04  7800   0.121E-01    0.476E-02
DAV:   7    -0.191369687292E+03   -0.80445E-04   -0.26903E-04  6640   0.115E-01
  21 F= -.19136969E+03 E0= -.19127067E+03  d E =-.123032E-01
       N       E                     dE             d eps       ncg     rms          rms(c)
DAV:   1    -0.191364543137E+03    0.50637E-02   -0.74948E-01  8160   0.182E+00    0.180E-01
DAV:   2    -0.191367026022E+03   -0.24829E-02   -0.18094E-02 13360   0.541E-01    0.403E-01
DAV:   3    -0.191365571063E+03    0.14550E-02   -0.53748E-03 11600   0.507E-01    0.196E-01
DAV:   4    -0.191365383566E+03    0.18750E-03   -0.13064E-03  9640   0.226E-01    0.146E-01
DAV:   5    -0.191365207649E+03    0.17592E-03   -0.61639E-04  8720   0.189E-01    0.923E-02
DAV:   6    -0.191365165136E+03    0.42513E-04   -0.34098E-04  7800   0.121E-01
  22 F= -.19136517E+03 E0= -.19126656E+03  d E =0.452216E-02
       N       E                     dE             d eps       ncg     rms          rms(c)
DAV:   1    -0.191364219185E+03    0.98846E-03   -0.16211E-01  8160   0.847E-01    0.123E-01
DAV:   2    -0.191367196291E+03   -0.29771E-02   -0.78620E-03 13560   0.563E-01    0.533E-01
DAV:   3    -0.191364225524E+03    0.29708E-02   -0.43951E-03 11360   0.503E-01    0.656E-02
DAV:   4    -0.191364289611E+03   -0.64087E-04   -0.27942E-04  8120   0.105E-01
  23 F= -.19136429E+03 E0= -.19126547E+03  d E =0.875525E-03
       N       E                     dE             d eps       ncg     rms          rms(c)
DAV:   1    -0.191392262914E+03   -0.28037E-01   -0.21938E+00  8160   0.319E+00    0.425E-01
DAV:   2    -0.191404339801E+03   -0.12077E-01   -0.84861E-02 13480   0.134E+00    0.925E-01
DAV:   3    -0.191395521938E+03    0.88179E-02   -0.28793E-02 12240   0.120E+00    0.401E-01
DAV:   4    -0.191394678258E+03    0.84368E-03   -0.77284E-03 11360   0.517E-01    0.359E-01
DAV:   5    -0.191393946954E+03    0.73130E-03   -0.47004E-03 11640   0.476E-01    0.278E-01
DAV:   6    -0.191393109588E+03    0.83737E-03   -0.19609E-03 10840   0.284E-01    0.831E-02
DAV:   7    -0.191393230782E+03   -0.12119E-03   -0.76391E-04 10560   0.158E-01    0.127E-01
DAV:   8    -0.191393077748E+03    0.15303E-03   -0.44634E-04  8640   0.157E-01    0.607E-02
DAV:   9    -0.191393038417E+03    0.39331E-04   -0.78485E-05  5840   0.610E-02
  24 F= -.19139304E+03 E0= -.19129435E+03  d E =-.287488E-01
       N       E                     dE             d eps       ncg     rms          rms(c)
DAV:   1    -0.191393802229E+03   -0.72448E-03   -0.14848E-03  8520   0.852E-02    0.151E-02
DAV:   2    -0.191393810454E+03   -0.82249E-05   -0.60101E-05  7200   0.361E-02
  25 F= -.19139381E+03 E0= -.19129510E+03  d E =-.772037E-03
       N       E                     dE             d eps       ncg     rms          rms(c)
DAV:   1    -0.191421524912E+03   -0.27723E-01   -0.18232E+00  8160   0.292E+00    0.373E-01
DAV:   2    -0.191430272463E+03   -0.87476E-02   -0.61486E-02 13480   0.111E+00    0.836E-01
DAV:   3    -0.191423926652E+03    0.63458E-02   -0.23048E-02 12320   0.107E+00    0.391E-01
DAV:   4    -0.191422936422E+03    0.99023E-03   -0.55753E-03 11160   0.463E-01    0.269E-01
DAV:   5    -0.191422476720E+03    0.45970E-03   -0.27512E-03 10400   0.393E-01    0.238E-01
DAV:   6    -0.191421925919E+03    0.55080E-03   -0.16760E-03 10480   0.286E-01    0.110E-01
DAV:   7    -0.191422148226E+03   -0.22231E-03   -0.10778E-03  9760   0.225E-01    0.181E-01
DAV:   8    -0.191421807565E+03    0.34066E-03   -0.57497E-04  8200   0.175E-01    0.336E-02
DAV:   9    -0.191421802349E+03    0.52158E-05   -0.52591E-05  5520   0.373E-02
  26 F= -.19142180E+03 E0= -.19132435E+03  d E =-.279919E-01
       N       E                     dE             d eps       ncg     rms          rms(c)
DAV:   1    -0.191346717996E+03    0.75090E-01   -0.12619E+01  8160   0.767E+00    0.948E-01
DAV:   2    -0.191409080481E+03   -0.62362E-01   -0.43171E-01 13560   0.281E+00    0.221E+00
DAV:   3    -0.191368109952E+03    0.40971E-01   -0.15908E-01 12320   0.277E+00    0.108E+00
DAV:   4    -0.191359074790E+03    0.90352E-02   -0.35723E-02 12160   0.113E+00    0.617E-01
DAV:   5    -0.191356677237E+03    0.23976E-02   -0.18038E-02 11360   0.920E-01    0.614E-01
DAV:   6    -0.191353564323E+03    0.31129E-02   -0.11125E-02 12360   0.741E-01    0.328E-01
DAV:   7    -0.191354647996E+03   -0.10837E-02   -0.74755E-03 11920   0.577E-01    0.455E-01
DAV:   8    -0.191352463224E+03    0.21848E-02   -0.41952E-03 10680   0.446E-01    0.872E-02
DAV:   9    -0.191352380610E+03    0.82615E-04   -0.38637E-04  9080   0.952E-02
  27 F= -.19135238E+03 E0= -.19125270E+03  d E =0.694217E-01
       N       E                     dE             d eps       ncg     rms          rms(c)
DAV:   1    -0.191299263075E+03    0.53200E-01   -0.14962E+01  8160   0.835E+00    0.991E-01
DAV:   2    -0.191354326357E+03   -0.55063E-01   -0.44166E-01 13560   0.266E+00    0.195E+00
DAV:   3    -0.191323060650E+03    0.31266E-01   -0.13390E-01 12240   0.264E+00    0.121E+00
DAV:   4    -0.191313608051E+03    0.94526E-02   -0.45197E-02 12640   0.136E+00    0.742E-01
DAV:   5    -0.191309414128E+03    0.41939E-02   -0.23405E-02 11280   0.100E+00    0.637E-01
DAV:   6    -0.191305927258E+03    0.34869E-02   -0.12375E-02 12280   0.780E-01    0.330E-01
DAV:   7    -0.191307215284E+03   -0.12880E-02   -0.83535E-03 11960   0.592E-01    0.494E-01
DAV:   8    -0.191304782179E+03    0.24331E-02   -0.50446E-03 10760   0.481E-01    0.104E-01
DAV:   9    -0.191304659719E+03    0.12246E-03   -0.45996E-04  8760   0.108E-01    0.342E-02
DAV:  10    -0.191304658563E+03    0.11562E-05   -0.11406E-04  7840   0.416E-02
  28 F= -.19130466E+03 E0= -.19120513E+03  d E =0.477220E-01
       N       E                     dE             d eps       ncg     rms          rms(c)
DAV:   1    -0.191307938196E+03   -0.32785E-02   -0.50836E-02  8160   0.485E-01    0.695E-02
DAV:   2    -0.191308289888E+03   -0.35169E-03   -0.21905E-03 13600   0.227E-01    0.164E-01
DAV:   3    -0.191307997756E+03    0.29213E-03   -0.84324E-04  9720   0.202E-01    0.687E-02
DAV:   4    -0.191307971206E+03    0.26550E-04   -0.19842E-04  6000   0.891E-02
  29 F= -.19130797E+03 E0= -.19120801E+03  d E =-.331264E-02
       N       E                     dE             d eps       ncg     rms          rms(c)
DAV:   1    -0.191322723928E+03   -0.14726E-01   -0.11006E+00  8160   0.226E+00    0.338E-01
DAV:   2    -0.191329761317E+03   -0.70374E-02   -0.48539E-02 13520   0.102E+00    0.768E-01
DAV:   3    -0.191324298686E+03    0.54626E-02   -0.21028E-02 11920   0.970E-01    0.390E-01
DAV:   4    -0.191323216856E+03    0.10818E-02   -0.60095E-03 11160   0.460E-01    0.279E-01
DAV:   5    -0.191322851627E+03    0.36523E-03   -0.32131E-03 10680   0.390E-01    0.233E-01
DAV:   6    -0.191322219316E+03    0.63231E-03   -0.15381E-03  9680   0.247E-01    0.826E-02
DAV:   7    -0.191322439558E+03   -0.22024E-03   -0.81580E-04  9480   0.194E-01    0.164E-01
DAV:   8    -0.191322169186E+03    0.27037E-03   -0.49008E-04  8560   0.163E-01    0.332E-02
DAV:   9    -0.191322165151E+03    0.40355E-05   -0.44551E-05  5920   0.349E-02
  30 F= -.19132217E+03 E0= -.19122060E+03  d E =-.141939E-01
       N       E                     dE             d eps       ncg     rms          rms(c)
DAV:   1    -0.191340275063E+03   -0.18106E-01   -0.26466E+00  8160   0.347E+00    0.432E-01
DAV:   2    -0.191353026404E+03   -0.12751E-01   -0.99838E-02 13600   0.126E+00    0.847E-01
DAV:   3    -0.191346059937E+03    0.69665E-02   -0.30482E-02 12320   0.119E+00    0.514E-01
DAV:   4    -0.191343921635E+03    0.21383E-02   -0.83938E-03 12520   0.563E-01    0.304E-01
DAV:   5    -0.191343590332E+03    0.33130E-03   -0.41491E-03 10400   0.445E-01    0.293E-01
DAV:   6    -0.191342710346E+03    0.87999E-03   -0.20864E-03 10080   0.306E-01    0.101E-01
DAV:   7    -0.191343049830E+03   -0.33948E-03   -0.12533E-03 10400   0.214E-01    0.199E-01
DAV:   8    -0.191342665596E+03    0.38423E-03   -0.85264E-04  8600   0.200E-01    0.563E-02
DAV:   9    -0.191342638082E+03    0.27514E-04   -0.87994E-05  5880   0.550E-02
  31 F= -.19134264E+03 E0= -.19123909E+03  d E =-.204729E-01
       N       E                     dE             d eps       ncg     rms          rms(c)
DAV:   1    -0.191348142672E+03   -0.54771E-02   -0.20128E-01  8160   0.967E-01    0.128E-01
DAV:   2    -0.191349266224E+03   -0.11236E-02   -0.86167E-03 13600   0.391E-01    0.266E-01
DAV:   3    -0.191348567852E+03    0.69837E-03   -0.25158E-03 11560   0.347E-01    0.139E-01
DAV:   4    -0.191348440027E+03    0.12782E-03   -0.73537E-04  8360   0.170E-01    0.103E-01
DAV:   5    -0.191348375400E+03    0.64627E-04   -0.36499E-04  7520   0.135E-01
  32 F= -.19134838E+03 E0= -.19124448E+03  d E =-.573732E-02
       N       E                     dE             d eps       ncg     rms          rms(c)
DAV:   1    -0.191340810131E+03    0.76299E-02   -0.42487E-01  8160   0.140E+00    0.176E-01
DAV:   2    -0.191343260648E+03   -0.24505E-02   -0.16318E-02 13080   0.533E-01    0.412E-01
DAV:   3    -0.191341612820E+03    0.16478E-02   -0.58376E-03 11360   0.501E-01    0.224E-01
DAV:   4    -0.191341241573E+03    0.37125E-03   -0.18250E-03  9520   0.247E-01    0.127E-01
DAV:   5    -0.191341158966E+03    0.82607E-04   -0.65067E-04  8400   0.169E-01
  33 F= -.19134116E+03 E0= -.19123754E+03  d E =0.721643E-02
       N       E                     dE             d eps       ncg     rms          rms(c)
DAV:   1    -0.191346176454E+03   -0.49349E-02   -0.38138E-01  8160   0.131E+00    0.154E-01
DAV:   2    -0.191347326770E+03   -0.11503E-02   -0.13726E-02 12000   0.352E-01    0.202E-01
DAV:   3    -0.191347234935E+03    0.91835E-04   -0.35118E-03 11560   0.351E-01    0.255E-01
DAV:   4    -0.191346696253E+03    0.53868E-03   -0.15578E-03  9560   0.247E-01    0.879E-02
DAV:   5    -0.191346596190E+03    0.10006E-03   -0.28043E-04  5800   0.856E-02    0.494E-02
DAV:   6    -0.191346679222E+03   -0.83032E-04   -0.32552E-04  8280   0.120E-01
  34 F= -.19134668E+03 E0= -.19124285E+03  d E =-.552026E-02
       N       E                     dE             d eps       ncg     rms          rms(c)
DAV:   1    -0.191351431829E+03   -0.48356E-02   -0.13752E-01  8160   0.830E-01    0.140E-01
DAV:   2    -0.191352321878E+03   -0.89005E-03   -0.65718E-03 12520   0.387E-01    0.302E-01
DAV:   3    -0.191351425136E+03    0.89674E-03   -0.30080E-03 11480   0.375E-01    0.144E-01
DAV:   4    -0.191351367630E+03    0.57506E-04   -0.11542E-03  8800   0.200E-01    0.144E-01
DAV:   5    -0.191351221369E+03    0.14626E-03   -0.68352E-04  8160   0.175E-01    0.913E-02
DAV:   6    -0.191351132124E+03    0.89246E-04   -0.25595E-04  6600   0.104E-01
  35 F= -.19135113E+03 E0= -.19124685E+03  d E =-.445290E-02
       N       E                     dE             d eps       ncg     rms          rms(c)
DAV:   1    -0.191367912458E+03   -0.16691E-01   -0.15156E+00  8160   0.269E+00    0.393E-01
DAV:   2    -0.191375087520E+03   -0.71751E-02   -0.61708E-02 13400   0.110E+00    0.775E-01
DAV:   3    -0.191369247812E+03    0.58397E-02   -0.20671E-02 12200   0.102E+00    0.376E-01
DAV:   4    -0.191368371224E+03    0.87659E-03   -0.67715E-03 11720   0.477E-01    0.328E-01
DAV:   5    -0.191367875000E+03    0.49622E-03   -0.47057E-03 10600   0.457E-01    0.291E-01
DAV:   6    -0.191367041612E+03    0.83339E-03   -0.23511E-03 10920   0.308E-01    0.987E-02
DAV:   7    -0.191367108248E+03   -0.66635E-04   -0.89819E-04  9680   0.169E-01
  36 F= -.19136711E+03 E0= -.19126188E+03  d E =-.159761E-01
       N       E                     dE             d eps       ncg     rms          rms(c)
DAV:   1    -0.191369151732E+03   -0.21101E-02   -0.32849E-02  8160   0.443E-01    0.116E-01
DAV:   2    -0.191369994493E+03   -0.84276E-03   -0.39200E-03 11520   0.377E-01    0.327E-01
DAV:   3    -0.191368966573E+03    0.10279E-02   -0.25703E-03 10160   0.359E-01    0.117E-01
DAV:   4    -0.191368876664E+03    0.89909E-04   -0.51390E-04  8200   0.136E-01
  37 F= -.19136888E+03 E0= -.19126369E+03  d E =-.176842E-02
       N       E                     dE             d eps       ncg     rms          rms(c)
DAV:   1    -0.191383783833E+03   -0.14817E-01   -0.11122E+00  8160   0.226E+00    0.276E-01
DAV:   2    -0.191388757145E+03   -0.49733E-02   -0.36306E-02 13560   0.706E-01    0.581E-01
DAV:   3    -0.191385856121E+03    0.29010E-02   -0.13437E-02 11680   0.768E-01    0.371E-01
DAV:   4    -0.191385057201E+03    0.79892E-03   -0.44366E-03 10880   0.387E-01    0.229E-01
DAV:   5    -0.191384675304E+03    0.38190E-03   -0.18481E-03  9560   0.290E-01    0.162E-01
DAV:   6    -0.191384395150E+03    0.28015E-03   -0.98276E-04 10600   0.198E-01    0.721E-02
DAV:   7    -0.191384421899E+03   -0.26748E-04   -0.34760E-04  8120   0.112E-01
  38 F= -.19138442E+03 E0= -.19127905E+03  d E =-.155452E-01
       N       E                     dE             d eps       ncg     rms          rms(c)
DAV:   1    -0.191380951809E+03    0.34433E-02   -0.46772E-02  8160   0.475E-01    0.731E-02
DAV:   2    -0.191381934625E+03   -0.98282E-03   -0.29759E-03 12840   0.320E-01    0.298E-01
DAV:   3    -0.191380986582E+03    0.94804E-03   -0.14882E-03 10080   0.281E-01    0.434E-02
DAV:   4    -0.191381008480E+03   -0.21899E-04   -0.10789E-04  5520   0.702E-02
  39 F= -.19138101E+03 E0= -.19127556E+03  d E =0.341342E-02
       N       E                     dE             d eps       ncg     rms          rms(c)
DAV:   1    -0.191401048408E+03   -0.20062E-01   -0.14109E+00  8160   0.257E+00    0.353E-01
DAV:   2    -0.191408988443E+03   -0.79400E-02   -0.55879E-02 13600   0.114E+00    0.805E-01
DAV:   3    -0.191402221706E+03    0.67667E-02   -0.17570E-02 11640   0.968E-01    0.268E-01
DAV:   4    -0.191401723801E+03    0.49791E-03   -0.38553E-03 11480   0.350E-01    0.252E-01
DAV:   5    -0.191401459095E+03    0.26471E-03   -0.28604E-03 10640   0.372E-01    0.234E-01
DAV:   6    -0.191400963412E+03    0.49568E-03   -0.16419E-03  9680   0.259E-01    0.897E-02
DAV:   7    -0.191400899251E+03    0.64162E-04   -0.50551E-04  8440   0.114E-01
  40 F= -.19140090E+03 E0= -.19129515E+03  d E =-.198908E-01
       N       E                     dE             d eps       ncg     rms          rms(c)
DAV:   1    -0.191406263917E+03   -0.53005E-02   -0.86491E-02  8160   0.636E-01    0.925E-02
DAV:   2    -0.191407300465E+03   -0.10365E-02   -0.44017E-03 12960   0.319E-01    0.321E-01
DAV:   3    -0.191406327157E+03    0.97331E-03   -0.24169E-03 10200   0.311E-01    0.839E-02
DAV:   4    -0.191406293973E+03    0.33184E-04   -0.26095E-04  7080   0.778E-02
  41 F= -.19140629E+03 E0= -.19130055E+03  d E =-.539472E-02
       N       E                     dE             d eps       ncg     rms          rms(c)
DAV:   1    -0.191412709805E+03   -0.63826E-02   -0.18497E-01  8160   0.948E-01    0.174E-01
DAV:   2    -0.191413471736E+03   -0.76193E-03   -0.10331E-02 11320   0.477E-01    0.308E-01
DAV:   3    -0.191412721757E+03    0.74998E-03   -0.32214E-03 11320   0.413E-01    0.172E-01
DAV:   4    -0.191412550800E+03    0.17096E-03   -0.14012E-03  9960   0.236E-01    0.159E-01
DAV:   5    -0.191412476292E+03    0.74509E-04   -0.11015E-03  9040   0.229E-01    0.141E-01
DAV:   6    -0.191412283817E+03    0.19247E-03   -0.55026E-04  7880   0.140E-01    0.513E-02
DAV:   7    -0.191412298542E+03   -0.14725E-04   -0.20487E-04  5760   0.921E-02
  42 F= -.19141230E+03 E0= -.19130694E+03  d E =-.600457E-02
       N       E                     dE             d eps       ncg     rms          rms(c)
DAV:   1    -0.191437955623E+03   -0.25672E-01   -0.15266E+00  8160   0.264E+00    0.288E-01
DAV:   2    -0.191441905921E+03   -0.39503E-02   -0.40177E-02 13560   0.763E-01    0.475E-01
DAV:   3    -0.191440028135E+03    0.18778E-02   -0.94247E-03 12080   0.705E-01    0.317E-01
DAV:   4    -0.191439226755E+03    0.80138E-03   -0.33451E-03 11360   0.376E-01    0.211E-01
DAV:   5    -0.191439133299E+03    0.93456E-04   -0.25022E-03  9600   0.306E-01    0.225E-01
DAV:   6    -0.191438708420E+03    0.42488E-03   -0.15768E-03  9680   0.237E-01    0.827E-02
DAV:   7    -0.191438643522E+03    0.64898E-04   -0.31268E-04  7520   0.836E-02
  43 F= -.19143864E+03 E0= -.19133356E+03  d E =-.263450E-01
       N       E                     dE             d eps       ncg     rms          rms(c)
DAV:   1    -0.191437725921E+03    0.98250E-03   -0.95319E-02  8160   0.753E-01    0.200E-01
DAV:   2    -0.191438491050E+03   -0.76513E-03   -0.82366E-03 10160   0.523E-01    0.422E-01
DAV:   3    -0.191436919437E+03    0.15716E-02   -0.50930E-03 11280   0.504E-01    0.187E-01
DAV:   4    -0.191436990047E+03   -0.70611E-04   -0.25528E-03 10000   0.310E-01    0.245E-01
DAV:   5    -0.191436527147E+03    0.46290E-03   -0.18100E-03  9600   0.290E-01    0.129E-01
DAV:   6    -0.191436314218E+03    0.21293E-03   -0.51684E-04  7360   0.126E-01    0.444E-02
DAV:   7    -0.191436312382E+03    0.18363E-05   -0.13695E-04  6480   0.777E-02
  44 F= -.19143631E+03 E0= -.19133083E+03  d E =0.233114E-02
       N       E                     dE             d eps       ncg     rms          rms(c)
DAV:   1    -0.191480971163E+03   -0.44657E-01   -0.35118E+00  8160   0.397E+00    0.394E-01
DAV:   2    -0.191485688950E+03   -0.47178E-02   -0.81761E-02 12320   0.803E-01    0.333E-01
DAV:   3    -0.191486688631E+03   -0.99968E-03   -0.13281E-02 12360   0.687E-01    0.546E-01
DAV:   4    -0.191484264523E+03    0.24241E-02   -0.85948E-03 11640   0.631E-01    0.277E-01
DAV:   5    -0.191483593594E+03    0.67093E-03   -0.30547E-03 10680   0.317E-01    0.196E-01
DAV:   6    -0.191483806071E+03   -0.21248E-03   -0.27816E-03 11640   0.361E-01    0.238E-01
DAV:   7    -0.191483321165E+03    0.48491E-03   -0.16103E-03  9520   0.261E-01    0.119E-01
DAV:   8    -0.191483216318E+03    0.10485E-03   -0.43285E-04  8160   0.142E-01    0.549E-02
DAV:   9    -0.191483185871E+03    0.30447E-04   -0.73138E-05  6800   0.527E-02
  45 F= -.19148319E+03 E0= -.19137977E+03  d E =-.468735E-01
       N       E                     dE             d eps       ncg     rms          rms(c)
DAV:   1    -0.191480103949E+03    0.31124E-02   -0.53351E-02  8160   0.532E-01    0.122E-01
DAV:   2    -0.191480408554E+03   -0.30460E-03   -0.37630E-03 10760   0.335E-01    0.230E-01
DAV:   3    -0.191479897729E+03    0.51082E-03   -0.14856E-03 10040   0.303E-01    0.976E-02
DAV:   4    -0.191479783954E+03    0.11378E-03   -0.40177E-04  6880   0.124E-01    0.692E-02
DAV:   5    -0.191479869897E+03   -0.85943E-04   -0.50828E-04  7320   0.141E-01
  46 F= -.19147987E+03 E0= -.19137694E+03  d E =0.331597E-02
       N       E                     dE             d eps       ncg     rms          rms(c)
DAV:   1    -0.191546440223E+03   -0.66656E-01   -0.54445E+00  8160   0.498E+00    0.535E-01
DAV:   2    -0.191560101928E+03   -0.13662E-01   -0.14329E-01 13560   0.150E+00    0.898E-01
DAV:   3    -0.191553135220E+03    0.69667E-02   -0.31984E-02 12400   0.133E+00    0.524E-01
DAV:   4    -0.191550137285E+03    0.29979E-02   -0.88018E-03 12080   0.590E-01    0.276E-01
DAV:   5    -0.191550192870E+03   -0.55586E-04   -0.62899E-03 11280   0.471E-01    0.391E-01
DAV:   6    -0.191549272476E+03    0.92039E-03   -0.56348E-03 11360   0.486E-01    0.222E-01
DAV:   7    -0.191548766776E+03    0.50570E-03   -0.14155E-03  9840   0.202E-01    0.633E-02
DAV:   8    -0.191548744486E+03    0.22290E-04   -0.28445E-04  7920   0.105E-01
  47 F= -.19154874E+03 E0= -.19144888E+03  d E =-.688746E-01
       N       E                     dE             d eps       ncg     rms          rms(c)
DAV:   1    -0.191500622792E+03    0.48144E-01   -0.24128E+00  8160   0.329E+00    0.315E-01
DAV:   2    -0.191506034465E+03   -0.54117E-02   -0.57325E-02 12800   0.827E-01    0.531E-01
DAV:   3    -0.191504781225E+03    0.12532E-02   -0.15705E-02 12520   0.818E-01    0.457E-01
DAV:   4    -0.191502861324E+03    0.19199E-02   -0.52865E-03 11840   0.438E-01    0.172E-01
DAV:   5    -0.191502775877E+03    0.85447E-04   -0.19887E-03 10520   0.264E-01    0.209E-01
DAV:   6    -0.191502612464E+03    0.16341E-03   -0.21246E-03 10160   0.304E-01    0.163E-01
DAV:   7    -0.191502441419E+03    0.17104E-03   -0.84440E-04 10000   0.178E-01    0.961E-02
DAV:   8    -0.191502347285E+03    0.94134E-04   -0.23714E-04  8280   0.119E-01
  48 F= -.19150235E+03 E0= -.19139994E+03  d E =0.463972E-01
       N       E                     dE             d eps       ncg     rms          rms(c)
DAV:   1    -0.191550492182E+03   -0.48051E-01   -0.27702E+00  8160   0.357E+00    0.435E-01
DAV:   2    -0.191554077361E+03   -0.35852E-02   -0.82430E-02 12400   0.994E-01    0.482E-01
DAV:   3    -0.191553811359E+03    0.26600E-03   -0.15793E-02 12160   0.883E-01    0.533E-01
DAV:   4    -0.191551477192E+03    0.23342E-02   -0.10409E-02 10960   0.688E-01    0.341E-01
DAV:   5    -0.191551214023E+03    0.26317E-03   -0.58097E-03 11440   0.504E-01    0.346E-01
DAV:   6    -0.191550149071E+03    0.10650E-02   -0.36926E-03 11000   0.412E-01    0.145E-01
DAV:   7    -0.191550054027E+03    0.95044E-04   -0.11268E-03  9800   0.191E-01    0.131E-01
DAV:   8    -0.191549908046E+03    0.14598E-03   -0.54629E-04  8360   0.157E-01    0.584E-02
DAV:   9    -0.191549877733E+03    0.30313E-04   -0.84446E-05  5840   0.549E-02
  49 F= -.19154988E+03 E0= -.19145121E+03  d E =-.475304E-01
       N       E                     dE             d eps       ncg     rms          rms(c)
DAV:   1    -0.191586111423E+03   -0.36203E-01   -0.11748E+00  8160   0.233E+00    0.276E-01
DAV:   2    -0.191589073923E+03   -0.29625E-02   -0.34204E-02 13600   0.749E-01    0.455E-01
DAV:   3    -0.191587348531E+03    0.17254E-02   -0.81861E-03 12280   0.670E-01    0.273E-01
DAV:   4    -0.191586762036E+03    0.58650E-03   -0.30649E-03 11320   0.349E-01    0.212E-01
DAV:   5    -0.191586673763E+03    0.88273E-04   -0.24401E-03  9920   0.331E-01    0.220E-01
DAV:   6    -0.191586229328E+03    0.44444E-03   -0.13430E-03  9560   0.231E-01    0.722E-02
DAV:   7    -0.191586229846E+03   -0.51763E-06   -0.37788E-04  7600   0.114E-01
  50 F= -.19158623E+03 E0= -.19148985E+03  d E =-.363521E-01
       N       E                     dE             d eps       ncg     rms          rms(c)
DAV:   1    -0.191675503271E+03   -0.89274E-01   -0.72024E+00  8160   0.574E+00    0.594E-01
DAV:   2    -0.191692575759E+03   -0.17072E-01   -0.19375E-01 13320   0.158E+00    0.949E-01
DAV:   3    -0.191687944919E+03    0.46308E-02   -0.47372E-02 12360   0.149E+00    0.757E-01
DAV:   4    -0.191683387998E+03    0.45569E-02   -0.16956E-02 12120   0.868E-01    0.456E-01
DAV:   5    -0.191682107340E+03    0.12807E-02   -0.79617E-03 11600   0.676E-01    0.380E-01
DAV:   6    -0.191680800438E+03    0.13069E-02   -0.49809E-03 11720   0.471E-01    0.170E-01
DAV:   7    -0.191680812848E+03   -0.12410E-04   -0.19906E-03 12000   0.275E-01    0.192E-01
DAV:   8    -0.191680414283E+03    0.39857E-03   -0.93300E-04  9040   0.225E-01    0.612E-02
DAV:   9    -0.191680374760E+03    0.39523E-04   -0.11081E-04  6120   0.626E-02
  51 F= -.19168037E+03 E0= -.19158991E+03  d E =-.941449E-01
       N       E                     dE             d eps       ncg     rms          rms(c)
DAV:   1    -0.191679816687E+03    0.59760E-03   -0.56132E-04 10800   0.575E-02    0.134E-02
DAV:   2    -0.191679820689E+03   -0.40018E-05   -0.31331E-05  6640   0.304E-02
  52 F= -.19167982E+03 E0= -.19158924E+03  d E =0.554071E-03
       N       E                     dE             d eps       ncg     rms          rms(c)
DAV:   1    -0.191770359458E+03   -0.90543E-01   -0.73290E+00  8160   0.577E+00    0.577E-01
DAV:   2    -0.191788271605E+03   -0.17912E-01   -0.19254E-01 12160   0.150E+00    0.922E-01
DAV:   3    -0.191783998914E+03    0.42727E-02   -0.42362E-02 12440   0.150E+00    0.783E-01
DAV:   4    -0.191778203584E+03    0.57953E-02   -0.13547E-02 12360   0.809E-01    0.285E-01
DAV:   5    -0.191777711251E+03    0.49233E-03   -0.53159E-03 11080   0.438E-01    0.317E-01
DAV:   6    -0.191777451035E+03    0.26022E-03   -0.50798E-03 12200   0.511E-01    0.266E-01
DAV:   7    -0.191776736059E+03    0.71498E-03   -0.17985E-03 11440   0.268E-01    0.711E-02
DAV:   8    -0.191776668006E+03    0.68053E-04   -0.25126E-04  8280   0.971E-02
  53 F= -.19177667E+03 E0= -.19169225E+03  d E =-.968473E-01
       N       E                     dE             d eps       ncg     rms          rms(c)
DAV:   1    -0.191855230339E+03   -0.78494E-01   -0.58918E+00  8160   0.521E+00    0.561E-01
DAV:   2    -0.191872506120E+03   -0.17276E-01   -0.18495E-01 12640   0.150E+00    0.910E-01
DAV:   3    -0.191868250706E+03    0.42554E-02   -0.38719E-02 12400   0.146E+00    0.723E-01
DAV:   4    -0.191862924235E+03    0.53265E-02   -0.11231E-02 12320   0.752E-01    0.256E-01
DAV:   5    -0.191862460728E+03    0.46351E-03   -0.43051E-03 11280   0.397E-01    0.278E-01
DAV:   6    -0.191862440404E+03    0.20324E-04   -0.43906E-03 12200   0.496E-01    0.265E-01
DAV:   7    -0.191861667115E+03    0.77329E-03   -0.16245E-03 11440   0.272E-01    0.556E-02
DAV:   8    -0.191861612784E+03    0.54331E-04   -0.14498E-04  6600   0.618E-02
  54 F= -.19186161E+03 E0= -.19178095E+03  d E =-.849448E-01
       N       E                     dE             d eps       ncg     rms          rms(c)
DAV:   1    -0.191970720938E+03   -0.10905E+00   -0.75197E+01  8160   0.187E+01    0.188E+00
DAV:   2    -0.192165162222E+03   -0.19444E+00   -0.23542E+00 11520   0.468E+00    0.230E+00
DAV:   3    -0.192158130612E+03    0.70316E-02   -0.32809E-01 12160   0.444E+00    0.252E+00
DAV:   4    -0.192093406648E+03    0.64724E-01   -0.12912E-01 12320   0.296E+00    0.866E-01
DAV:   5    -0.192082473728E+03    0.10933E-01   -0.35175E-02 11480   0.104E+00    0.547E-01
DAV:   6    -0.192087613617E+03   -0.51399E-02   -0.28111E-02 12920   0.132E+00    0.856E-01
DAV:   7    -0.192078370544E+03    0.92431E-02   -0.14455E-02 12160   0.102E+00    0.184E-01
DAV:   8    -0.192077807650E+03    0.56289E-03   -0.18435E-03 11040   0.202E-01    0.853E-02
DAV:   9    -0.192077988981E+03   -0.18133E-03   -0.98467E-04 12040   0.225E-01    0.167E-01
DAV:  10    -0.192077651479E+03    0.33750E-03   -0.50341E-04  9200   0.183E-01    0.273E-02
DAV:  11    -0.192077676086E+03   -0.24607E-04   -0.10420E-04  6440   0.408E-02
  55 F= -.19207768E+03 E0= -.19200636E+03  d E =-.216063E+00
       N       E                     dE             d eps       ncg     rms          rms(c)
DAV:   1    -0.192082587343E+03   -0.49359E-02   -0.22994E+00  8160   0.323E+00    0.357E-01
DAV:   2    -0.192088240338E+03   -0.56530E-02   -0.50052E-02 12440   0.109E+00    0.703E-01
DAV:   3    -0.192083180680E+03    0.50597E-02   -0.13123E-02 12280   0.946E-01    0.303E-01
DAV:   4    -0.192082235827E+03    0.94485E-03   -0.29369E-03 12600   0.409E-01    0.222E-01
DAV:   5    -0.192082353358E+03   -0.11753E-03   -0.30081E-03 11520   0.451E-01    0.271E-01
DAV:   6    -0.192081482701E+03    0.87066E-03   -0.18613E-03 12120   0.327E-01    0.771E-02
DAV:   7    -0.192081445369E+03    0.37332E-04   -0.38568E-04  9240   0.121E-01
  56 F= -.19208145E+03 E0= -.19200919E+03  d E =-.376928E-02
       N       E                     dE             d eps       ncg     rms          rms(c)
DAV:   1    -0.192115335647E+03   -0.33853E-01   -0.16813E+01  8160   0.872E+00    0.919E-01
DAV:   2    -0.192168228327E+03   -0.52893E-01   -0.57328E-01 11720   0.251E+00    0.127E+00
DAV:   3    -0.192158011448E+03    0.10217E-01   -0.77562E-02 12080   0.228E+00    0.103E+00
DAV:   4    -0.192147017513E+03    0.10994E-01   -0.24108E-02 12360   0.127E+00    0.479E-01
DAV:   5    -0.192145759509E+03    0.12580E-02   -0.10354E-02 12520   0.829E-01    0.443E-01
DAV:   6    -0.192144348648E+03    0.14109E-02   -0.68019E-03 12880   0.639E-01    0.254E-01
DAV:   7    -0.192143497010E+03    0.85164E-03   -0.27300E-03 11840   0.284E-01    0.112E-01
DAV:   8    -0.192143398012E+03    0.98999E-04   -0.61972E-04 10520   0.189E-01
  57 F= -.19214340E+03 E0= -.19207368E+03  d E =-.619526E-01
       N       E                     dE             d eps       ncg     rms          rms(c)
DAV:   1    -0.192146665952E+03   -0.31689E-02   -0.62040E-01  8160   0.170E+00    0.209E-01
DAV:   2    -0.192148409931E+03   -0.17440E-02   -0.20330E-02 11640   0.619E-01    0.347E-01
DAV:   3    -0.192147295305E+03    0.11146E-02   -0.39894E-03 12480   0.530E-01    0.188E-01
DAV:   4    -0.192146878827E+03    0.41648E-03   -0.10235E-03 11320   0.248E-01    0.117E-01
DAV:   5    -0.192146909861E+03   -0.31033E-04   -0.81328E-04 10560   0.242E-01
  58 F= -.19214691E+03 E0= -.19207669E+03  d E =-.351185E-02
       N       E                     dE             d eps       ncg     rms          rms(c)
DAV:   1    -0.192159291061E+03   -0.12412E-01   -0.10196E+00  8160   0.215E+00    0.263E-01
DAV:   2    -0.192161826273E+03   -0.25352E-02   -0.36036E-02 11520   0.614E-01    0.289E-01
DAV:   3    -0.192161832396E+03   -0.61228E-05   -0.58671E-03 12680   0.607E-01    0.340E-01
DAV:   4    -0.192160634251E+03    0.11981E-02   -0.25346E-03 11720   0.423E-01    0.134E-01
DAV:   5    -0.192160375669E+03    0.25858E-03   -0.93108E-04 10680   0.174E-01    0.780E-02
DAV:   6    -0.192160481343E+03   -0.10567E-03   -0.57341E-04 10640   0.190E-01    0.120E-01
DAV:   7    -0.192160310749E+03    0.17059E-03   -0.29985E-04  8880   0.145E-01    0.340E-02
DAV:   8    -0.192160304423E+03    0.63260E-05   -0.45238E-05  6560   0.532E-02
  59 F= -.19216030E+03 E0= -.19209049E+03  d E =-.133946E-01
       N       E                     dE             d eps       ncg     rms          rms(c)
DAV:   1    -0.192167380653E+03   -0.70699E-02   -0.30693E-01  8160   0.119E+00    0.176E-01
DAV:   2    -0.192169130770E+03   -0.17501E-02   -0.15556E-02 11000   0.606E-01    0.336E-01
DAV:   3    -0.192167907836E+03    0.12229E-02   -0.31433E-03 12440   0.470E-01    0.127E-01
DAV:   4    -0.192167768581E+03    0.13925E-03   -0.67713E-04  9320   0.190E-01    0.106E-01
DAV:   5    -0.192167737585E+03    0.30996E-04   -0.47895E-04  9520   0.192E-01
  60 F= -.19216774E+03 E0= -.19209861E+03  d E =-.743316E-02
       N       E                     dE             d eps       ncg     rms          rms(c)
DAV:   1    -0.192178065536E+03   -0.10297E-01   -0.10097E+00  8160   0.214E+00    0.252E-01
DAV:   2    -0.192181535046E+03   -0.34695E-02   -0.38915E-02 11840   0.681E-01    0.349E-01
DAV:   3    -0.192180880745E+03    0.65430E-03   -0.58395E-03 12480   0.624E-01    0.274E-01
DAV:   4    -0.192180079972E+03    0.80077E-03   -0.16396E-03 11360   0.336E-01    0.129E-01
DAV:   5    -0.192180047026E+03    0.32947E-04   -0.71270E-04 10600   0.236E-01
  61 F= -.19218005E+03 E0= -.19211186E+03  d E =-.123094E-01
       N       E                     dE             d eps       ncg     rms          rms(c)
DAV:   1    -0.192191142862E+03   -0.11063E-01   -0.16623E+00  8160   0.276E+00    0.323E-01
DAV:   2    -0.192195432809E+03   -0.42899E-02   -0.60255E-02 11480   0.687E-01    0.309E-01
DAV:   3    -0.192196136417E+03   -0.70361E-03   -0.72389E-03 12520   0.721E-01    0.405E-01
DAV:   4    -0.192194035090E+03    0.21013E-02   -0.25991E-03 11640   0.448E-01    0.108E-01
DAV:   5    -0.192194580483E+03   -0.54539E-03   -0.13085E-03 10880   0.322E-01    0.240E-01
DAV:   6    -0.192193981353E+03    0.59913E-03   -0.99533E-04 10680   0.284E-01    0.613E-02
DAV:   7    -0.192193919293E+03    0.62060E-04   -0.12656E-04  6520   0.672E-02
  62 F= -.19219392E+03 E0= -.19212661E+03  d E =-.138723E-01
       N       E                     dE             d eps       ncg     rms          rms(c)
DAV:   1    -0.192202603951E+03   -0.86226E-02   -0.58347E+00  8160   0.514E+00    0.593E-01
DAV:   2    -0.192221634751E+03   -0.19031E-01   -0.22467E-01 11520   0.147E+00    0.710E-01
DAV:   3    -0.192220332210E+03    0.13025E-02   -0.30167E-02 12560   0.142E+00    0.706E-01
DAV:   4    -0.192214992327E+03    0.53399E-02   -0.10247E-02 12400   0.858E-01    0.286E-01
DAV:   5    -0.192214442451E+03    0.54988E-03   -0.39254E-03 12760   0.497E-01    0.269E-01
DAV:   6    -0.192214311815E+03    0.13064E-03   -0.27286E-03 12240   0.454E-01    0.216E-01
DAV:   7    -0.192213669045E+03    0.64277E-03   -0.12701E-03 11640   0.243E-01    0.731E-02
DAV:   8    -0.192213639875E+03    0.29170E-04   -0.24250E-04  9080   0.125E-01
  63 F= -.19221364E+03 E0= -.19214759E+03  d E =-.197206E-01
       N       E                     dE             d eps       ncg     rms          rms(c)
DAV:   1    -0.192217485585E+03   -0.38165E-02   -0.91099E-01  8160   0.202E+00    0.256E-01
DAV:   2    -0.192221402721E+03   -0.39171E-02   -0.39726E-02 10640   0.757E-01    0.401E-01
DAV:   3    -0.192220116124E+03    0.12866E-02   -0.60163E-03 12240   0.657E-01    0.252E-01
DAV:   4    -0.192219507642E+03    0.60848E-03   -0.15032E-03 10760   0.320E-01    0.137E-01
DAV:   5    -0.192219427107E+03    0.80535E-04   -0.70016E-04 11400   0.246E-01
  64 F= -.19221943E+03 E0= -.19215411E+03  d E =-.578723E-02
       N       E                     dE             d eps       ncg     rms          rms(c)
DAV:   1    -0.192221978940E+03   -0.24713E-02   -0.47411E-01  8160   0.147E+00    0.193E-01
DAV:   2    -0.192223818197E+03   -0.18393E-02   -0.18249E-02 11240   0.510E-01    0.305E-01
DAV:   3    -0.192222995137E+03    0.82306E-03   -0.29980E-03 11880   0.474E-01    0.177E-01
DAV:   4    -0.192222730442E+03    0.26470E-03   -0.73367E-04 10320   0.226E-01    0.113E-01
DAV:   5    -0.192222665531E+03    0.64911E-04   -0.40809E-04  9560   0.193E-01
  65 F= -.19222267E+03 E0= -.19215799E+03  d E =-.323842E-02
       N       E                     dE             d eps       ncg     rms          rms(c)
DAV:   1    -0.192224761970E+03   -0.20315E-02   -0.38639E-01  8160   0.133E+00    0.175E-01
DAV:   2    -0.192226569064E+03   -0.18071E-02   -0.17763E-02 11680   0.502E-01    0.280E-01
DAV:   3    -0.192225923660E+03    0.64540E-03   -0.27414E-03 12640   0.464E-01    0.182E-01
DAV:   4    -0.192225594118E+03    0.32954E-03   -0.73882E-04 10520   0.217E-01    0.778E-02
DAV:   5    -0.192225515372E+03    0.78746E-04   -0.30034E-04  8000   0.995E-02
  66 F= -.19222552E+03 E0= -.19216136E+03  d E =-.284984E-02
       N       E                     dE             d eps       ncg     rms          rms(c)
DAV:   1    -0.192227334552E+03   -0.17404E-02   -0.47164E-01  8160   0.147E+00    0.197E-01
DAV:   2    -0.192230423037E+03   -0.30885E-02   -0.20688E-02 12600   0.655E-01    0.421E-01
DAV:   3    -0.192228335021E+03    0.20880E-02   -0.39912E-03 12360   0.575E-01    0.142E-01
DAV:   4    -0.192228202786E+03    0.13223E-03   -0.61492E-04  9960   0.192E-01    0.107E-01
DAV:   5    -0.192228122885E+03    0.79900E-04   -0.40183E-04 10200   0.184E-01
  67 F= -.19222812E+03 E0= -.19216448E+03  d E =-.260751E-02
       N       E                     dE             d eps       ncg     rms          rms(c)
DAV:   1    -0.192228965801E+03   -0.76302E-03   -0.73162E-02  8160   0.583E-01    0.972E-02
DAV:   2    -0.192229513194E+03   -0.54739E-03   -0.39684E-03 11800   0.324E-01    0.204E-01
DAV:   3    -0.192229060217E+03    0.45298E-03   -0.97294E-04 11120   0.282E-01    0.755E-02
DAV:   4    -0.192229011319E+03    0.48897E-04   -0.16900E-04  7040   0.107E-01
  68 F= -.19222901E+03 E0= -.19216570E+03  d E =-.888434E-03
