<?xml version="1.0" encoding="ISO-8859-1"?>
<modeling>
 <generator>
  <i name="program" type="string">vasp </i>
  <i name="version" type="string">5.4.1  </i>
  <i name="subversion" type="string">05Feb16 (build Jul 05 2020 17:13:04) complex                          parallel </i>
  <i name="platform" type="string">IFC91_ompi </i>
  <i name="date" type="string">2024 04 27 </i>
  <i name="time" type="string">22:25:32 </i>
 </generator>
 <incar>
  <i type="int" name="ISTART">     0</i>
  <i type="string" name="PREC">normal</i>
  <i type="string" name="ALGO"> Normal</i>
  <i type="int" name="ISPIN">     1</i>
  <i type="int" name="ICHARG">     2</i>
  <i type="int" name="IBRION">     1</i>
  <i type="int" name="NSW">   100</i>
  <i type="int" name="ISIF">     3</i>
  <i type="int" name="ISYM">     0</i>
  <i name="SYMPREC">      0.00000001</i>
  <i name="POTIM">      0.50000000</i>
  <i type="logical" name="LREAL"> F  </i>
  <i type="logical" name="LPLANE"> F  </i>
  <i type="int" name="ISMEAR">     0</i>
  <i type="logical" name="LWAVE"> F  </i>
  <i type="logical" name="LCHARG"> F  </i>
  <v type="int" name="KPOINT_BSE">    -1     0     0     0</v>
 </incar>
 <kpoints>
  <generation param="Gamma">
   <v type="int" name="divisions">       8        8        1 </v>
   <v name="usershift">      0.00000000       0.00000000       0.00000000 </v>
   <v name="genvec1">      0.12500000       0.00000000       0.00000000 </v>
   <v name="genvec2">     -0.00000000       0.12500000       0.00000000 </v>
   <v name="genvec3">      0.00000000       0.00000000       1.00000000 </v>
   <v name="shift">      0.00000000       0.00000000       0.00000000 </v>
  </generation>
  <varray name="kpointlist" >
   <v>       0.00000000       0.00000000       0.00000000 </v>
   <v>       0.12500000       0.00000000       0.00000000 </v>
   <v>       0.25000000       0.00000000       0.00000000 </v>
   <v>       0.37500000       0.00000000       0.00000000 </v>
   <v>       0.50000000       0.00000000       0.00000000 </v>
   <v>       0.00000000       0.12500000       0.00000000 </v>
   <v>       0.12500000       0.12500000       0.00000000 </v>
   <v>       0.25000000       0.12500000       0.00000000 </v>
   <v>       0.37500000       0.12500000       0.00000000 </v>
   <v>       0.50000000       0.12500000       0.00000000 </v>
   <v>      -0.37500000       0.12500000       0.00000000 </v>
   <v>      -0.25000000       0.12500000       0.00000000 </v>
   <v>      -0.12500000       0.12500000       0.00000000 </v>
   <v>       0.00000000       0.25000000       0.00000000 </v>
   <v>       0.12500000       0.25000000       0.00000000 </v>
   <v>       0.25000000       0.25000000       0.00000000 </v>
   <v>       0.37500000       0.25000000       0.00000000 </v>
   <v>       0.50000000       0.25000000       0.00000000 </v>
   <v>      -0.37500000       0.25000000       0.00000000 </v>
   <v>      -0.25000000       0.25000000       0.00000000 </v>
   <v>      -0.12500000       0.25000000       0.00000000 </v>
   <v>      -0.00000000       0.37500000       0.00000000 </v>
   <v>       0.12500000       0.37500000       0.00000000 </v>
   <v>       0.25000000       0.37500000       0.00000000 </v>
   <v>       0.37500000       0.37500000       0.00000000 </v>
   <v>       0.50000000       0.37500000       0.00000000 </v>
   <v>      -0.37500000       0.37500000       0.00000000 </v>
   <v>      -0.25000000       0.37500000       0.00000000 </v>
   <v>      -0.12500000       0.37500000       0.00000000 </v>
   <v>       0.00000000       0.50000000       0.00000000 </v>
   <v>       0.12500000       0.50000000       0.00000000 </v>
   <v>       0.25000000       0.50000000       0.00000000 </v>
   <v>       0.37500000       0.50000000       0.00000000 </v>
   <v>       0.50000000       0.50000000       0.00000000 </v>
  </varray>
  <varray name="weights" >
   <v>       0.01562500 </v>
   <v>       0.03125000 </v>
   <v>       0.03125000 </v>
   <v>       0.03125000 </v>
   <v>       0.01562500 </v>
   <v>       0.03125000 </v>
   <v>       0.03125000 </v>
   <v>       0.03125000 </v>
   <v>       0.03125000 </v>
   <v>       0.03125000 </v>
   <v>       0.03125000 </v>
   <v>       0.03125000 </v>
   <v>       0.03125000 </v>
   <v>       0.03125000 </v>
   <v>       0.03125000 </v>
   <v>       0.03125000 </v>
   <v>       0.03125000 </v>
   <v>       0.03125000 </v>
   <v>       0.03125000 </v>
   <v>       0.03125000 </v>
   <v>       0.03125000 </v>
   <v>       0.03125000 </v>
   <v>       0.03125000 </v>
   <v>       0.03125000 </v>
   <v>       0.03125000 </v>
   <v>       0.03125000 </v>
   <v>       0.03125000 </v>
   <v>       0.03125000 </v>
   <v>       0.03125000 </v>
   <v>       0.01562500 </v>
   <v>       0.03125000 </v>
   <v>       0.03125000 </v>
   <v>       0.03125000 </v>
   <v>       0.01562500 </v>
  </varray>
 </kpoints>
 <parameters>
  <separator name="general" >
   <i type="string" name="SYSTEM">unknown system</i>
   <i type="logical" name="LCOMPAT"> F  </i>
  </separator>
  <separator name="electronic" >
   <i type="string" name="PREC">normal</i>
   <i name="ENMAX">    280.00000000</i>
   <i name="ENAUG">    373.43800000</i>
   <i name="EDIFF">      0.00010000</i>
   <i type="int" name="IALGO">    38</i>
   <i type="int" name="IWAVPR">    11</i>
   <i type="int" name="NBANDS">   120</i>
   <i name="NELECT">    159.00000000</i>
   <i type="int" name="TURBO">     0</i>
   <i type="int" name="IRESTART">     0</i>
   <i type="int" name="NREBOOT">     0</i>
   <i type="int" name="NMIN">     0</i>
   <i name="EREF">      0.00000000</i>
   <separator name="electronic smearing" >
    <i type="int" name="ISMEAR">     0</i>
    <i name="SIGMA">      0.20000000</i>
    <i name="KSPACING">      0.50000000</i>
    <i type="logical" name="KGAMMA"> T  </i>
   </separator>
   <separator name="electronic projectors" >
    <i type="logical" name="LREAL"> F  </i>
    <v name="ROPT">      0.00000000      0.00000000      0.00000000      0.00000000</v>
    <i type="int" name="LMAXPAW">  -100</i>
    <i type="int" name="LMAXMIX">     2</i>
    <i type="logical" name="NLSPLINE"> F  </i>
   </separator>
   <separator name="electronic startup" >
    <i type="int" name="ISTART">     0</i>
    <i type="int" name="ICHARG">     2</i>
    <i type="int" name="INIWAV">     1</i>
   </separator>
   <separator name="electronic spin" >
    <i type="int" name="ISPIN">     1</i>
    <i type="logical" name="LNONCOLLINEAR"> F  </i>
    <v name="MAGMOM">      1.00000000      1.00000000      1.00000000      1.00000000      1.00000000      1.00000000      1.00000000      1.00000000      1.00000000      1.00000000      1.00000000      1.00000000      1.00000000      1.00000000      1.00000000      1.00000000      1.00000000      1.00000000      1.00000000      1.00000000
      1.00000000      1.00000000      1.00000000      1.00000000      1.00000000      1.00000000      1.00000000</v>
    <i name="NUPDOWN">     -1.00000000</i>
    <i type="logical" name="LSORBIT"> F  </i>
    <v name="SAXIS">      0.00000000      0.00000000      1.00000000</v>
    <i type="logical" name="LSPIRAL"> F  </i>
    <v name="QSPIRAL">      0.00000000      0.00000000      0.00000000</v>
    <i type="logical" name="LZEROZ"> F  </i>
   </separator>
   <separator name="electronic exchange-correlation" >
    <i type="logical" name="LASPH"> F  </i>
    <i type="logical" name="LMETAGGA"> F  </i>
   </separator>
   <separator name="electronic convergence" >
    <i type="int" name="NELM">    60</i>
    <i type="int" name="NELMDL">    -5</i>
    <i type="int" name="NELMIN">     2</i>
    <i name="ENINI">    280.00000000</i>
    <separator name="electronic convergence detail" >
     <i type="logical" name="LDIAG"> T  </i>
     <i type="logical" name="LSUBROT"> F  </i>
     <i name="WEIMIN">      0.00100000</i>
     <i name="EBREAK">      0.00000021</i>
     <i name="DEPER">      0.30000000</i>
     <i type="int" name="NRMM">     4</i>
     <i name="TIME">      0.40000000</i>
    </separator>
   </separator>
   <separator name="electronic mixer" >
    <i name="AMIX">      0.40000000</i>
    <i name="BMIX">      1.00000000</i>
    <i name="AMIN">      0.10000000</i>
    <i name="AMIX_MAG">      1.60000000</i>
    <i name="BMIX_MAG">      1.00000000</i>
    <separator name="electronic mixer details" >
     <i type="int" name="IMIX">     4</i>
     <i type="logical" name="MIXFIRST"> F  </i>
     <i type="int" name="MAXMIX">   -45</i>
     <i name="WC">    100.00000000</i>
     <i type="int" name="INIMIX">     1</i>
     <i type="int" name="MIXPRE">     1</i>
     <i type="int" name="MREMOVE">     5</i>
    </separator>
   </separator>
   <separator name="electronic dipolcorrection" >
    <i type="logical" name="LDIPOL"> F  </i>
    <i type="logical" name="LMONO"> F  </i>
    <i type="int" name="IDIPOL">     0</i>
    <i name="EPSILON">      1.00000000</i>
    <v name="DIPOL">   -100.00000000   -100.00000000   -100.00000000</v>
    <i name="EFIELD">      0.00000000</i>
   </separator>
  </separator>
  <separator name="grids" >
   <i type="int" name="NGX">    42</i>
   <i type="int" name="NGY">    42</i>
   <i type="int" name="NGZ">   126</i>
   <i type="int" name="NGXF">    84</i>
   <i type="int" name="NGYF">    84</i>
   <i type="int" name="NGZF">   252</i>
   <i type="logical" name="ADDGRID"> F  </i>
  </separator>
  <separator name="ionic" >
   <i type="int" name="NSW">   100</i>
   <i type="int" name="IBRION">     1</i>
   <i type="int" name="ISIF">     3</i>
   <i name="PSTRESS">      0.00000000</i>
   <i name="EDIFFG">      0.00100000</i>
   <i type="int" name="NFREE">     0</i>
   <i name="POTIM">      0.50000000</i>
   <i name="SMASS">     -3.00000000</i>
   <i name="SCALEE">      1.00000000</i>
  </separator>
  <separator name="ionic md" >
   <i name="TEBEG">      0.00010000</i>
   <i name="TEEND">      0.00010000</i>
   <i type="int" name="NBLOCK">     1</i>
   <i type="int" name="KBLOCK">   100</i>
   <i type="int" name="NPACO">   256</i>
   <i name="APACO">     16.00000000</i>
  </separator>
  <separator name="symmetry" >
   <i type="int" name="ISYM">     0</i>
   <i name="SYMPREC">      0.00000001</i>
  </separator>
  <separator name="dos" >
   <i type="logical" name="LORBIT"> F  </i>
   <v name="RWIGS">     -1.00000000     -1.00000000     -1.00000000     -1.00000000</v>
   <i type="int" name="NEDOS">   301</i>
   <i name="EMIN">     10.00000000</i>
   <i name="EMAX">    -10.00000000</i>
   <i name="EFERMI">      0.00000000</i>
  </separator>
  <separator name="writing" >
   <i type="int" name="NWRITE">     2</i>
   <i type="logical" name="LWAVE"> F  </i>
   <i type="logical" name="LCHARG"> F  </i>
   <i type="logical" name="LPARD"> F  </i>
   <i type="logical" name="LVTOT"> F  </i>
   <i type="logical" name="LVHAR"> F  </i>
   <i type="logical" name="LELF"> F  </i>
   <i type="logical" name="LOPTICS"> F  </i>
   <v name="STM">      0.00000000      0.00000000      0.00000000      0.00000000      0.00000000      0.00000000      0.00000000</v>
  </separator>
  <separator name="performance" >
   <i type="int" name="NPAR">    40</i>
   <i type="int" name="NSIM">     4</i>
   <i type="int" name="NBLK">    -1</i>
   <i type="logical" name="LPLANE"> F  </i>
   <i type="logical" name="LSCALAPACK"> T  </i>
   <i type="logical" name="LSCAAWARE"> F  </i>
   <i type="logical" name="LSCALU"> F  </i>
   <i type="logical" name="LASYNC"> F  </i>
   <i type="logical" name="LORBITALREAL"> F  </i>
  </separator>
  <separator name="miscellaneous" >
   <i type="int" name="IDIOT">     3</i>
   <i type="logical" name="LMUSIC"> F  </i>
   <v name="POMASS">     50.94100000     95.94000000    183.85000000     32.06600000</v>
   <v name="DARWINR">      0.00000000      0.00000000      0.00000000      0.00000000</v>
   <v name="DARWINV">      1.00000000      1.00000000      1.00000000      1.00000000</v>
   <i type="logical" name="LCORR"> T  </i>
  </separator>
  <i type="logical" name="GGA_COMPAT"> T  </i>
  <i type="logical" name="LBERRY"> F  </i>
  <i type="int" name="ICORELEVEL">     0</i>
  <i type="logical" name="LDAU"> F  </i>
  <i type="int" name="I_CONSTRAINED_M">     0</i>
  <separator name="electronic exchange-correlation" >
   <i type="string" name="GGA">--</i>
   <i type="int" name="VOSKOWN">     0</i>
   <i type="logical" name="LHFCALC"> F  </i>
   <i type="string" name="PRECFOCK"></i>
   <i type="logical" name="LSYMGRAD"> F  </i>
   <i type="logical" name="LHFONE"> F  </i>
   <i type="logical" name="LRHFCALC"> F  </i>
   <i type="logical" name="LTHOMAS"> F  </i>
   <i type="logical" name="LMODELHF"> F  </i>
   <i name="ENCUT4O">     -1.00000000</i>
   <i type="int" name="EXXOEP">     0</i>
   <i type="int" name="FOURORBIT">     0</i>
   <i name="AEXX">      0.00000000</i>
   <i name="HFALPHA">      0.00000000</i>
   <i name="MCALPHA">      0.00000000</i>
   <i name="ALDAX">      1.00000000</i>
   <i name="AGGAX">      1.00000000</i>
   <i name="ALDAC">      1.00000000</i>
   <i name="AGGAC">      1.00000000</i>
   <i type="int" name="NKREDX">     1</i>
   <i type="int" name="NKREDY">     1</i>
   <i type="int" name="NKREDZ">     1</i>
   <i type="logical" name="SHIFTRED"> F  </i>
   <i type="logical" name="ODDONLY"> F  </i>
   <i type="logical" name="EVENONLY"> F  </i>
   <i type="int" name="LMAXFOCK">     0</i>
   <i type="int" name="NMAXFOCKAE">     0</i>
   <i type="logical" name="LFOCKAEDFT"> F  </i>
   <i name="HFSCREEN">      0.00000000</i>
   <i name="HFSCREENC">      0.00000000</i>
   <i type="int" name="NBANDSGWLOW">     0</i>
  </separator>
  <separator name="vdW DFT" >
   <i type="logical" name="LUSE_VDW"> F  </i>
   <i name="Zab_VDW">     -0.84910000</i>
   <i name="PARAM1">      0.12340000</i>
   <i name="PARAM2">      1.00000000</i>
   <i name="PARAM3">      0.00000000</i>
  </separator>
  <separator name="model GW" >
   <i type="int" name="MODEL_GW">     0</i>
   <i name="MODEL_EPS0">     58.26239943</i>
   <i name="MODEL_ALPHA">      1.00000000</i>
  </separator>
  <separator name="linear response parameters" >
   <i type="logical" name="LEPSILON"> F  </i>
   <i type="logical" name="LRPA"> F  </i>
   <i type="logical" name="LNABLA"> F  </i>
   <i type="logical" name="LVEL"> F  </i>
   <i type="int" name="KINTER">     0</i>
   <i name="CSHIFT">      0.10000000</i>
   <i name="OMEGAMAX">     -1.00000000</i>
   <i name="DEG_THRESHOLD">      0.00200000</i>
  </separator>
  <separator name="orbital magnetization" >
   <i type="logical" name="NUCIND"> F  </i>
   <v name="MAGPOS">      0.00000000      0.00000000      0.00000000</v>
   <i type="logical" name="LNICSALL"> T  </i>
   <i type="logical" name="ORBITALMAG"> F  </i>
   <i type="logical" name="LMAGBLOCH"> F  </i>
   <i type="logical" name="LCHIMAG"> F  </i>
   <i type="logical" name="LGAUGE"> T  </i>
   <i type="int" name="MAGATOM">     0</i>
   <v name="MAGDIPOL">      0.00000000      0.00000000      0.00000000</v>
   <v name="AVECCONST">      0.00000000      0.00000000      0.00000000</v>
  </separator>
  <separator name="response functions" >
   <i type="logical" name="LADDER"> F  </i>
   <i type="logical" name="LFXC"> F  </i>
   <i type="logical" name="LHARTREE"> T  </i>
   <i type="int" name="IBSE">     0</i>
   <v type="int" name="KPOINT">    -1     0     0     0</v>
   <i type="logical" name="LTCTE"> F  </i>
   <i type="logical" name="LTETE"> F  </i>
   <i type="logical" name="LTRIPLET"> F  </i>
   <i type="logical" name="LFXCEPS"> F  </i>
   <i type="logical" name="LFXHEG"> F  </i>
   <i type="int" name="NATURALO">     0</i>
   <i type="logical" name="L2ORDER"> F  </i>
   <i type="logical" name="LUSEW"> F  </i>
   <i name="ENCUTGW">     -2.00000000</i>
   <i name="ENCUTGWSOFT">     -2.00000000</i>
   <i name="ENCUTLF">     -1.00000000</i>
   <i type="int" name="LMAXMP2">    -1</i>
   <i name="SCISSOR">      0.00000000</i>
   <i type="int" name="NOMEGA">     0</i>
   <i type="int" name="NOMEGAR">     0</i>
   <i type="int" name="NBANDSGW">    -1</i>
   <i type="int" name="NBANDSO">    -1</i>
   <i type="int" name="NBANDSV">    -1</i>
   <i type="int" name="NELM">     1</i>
   <i type="int" name="NELMHF">     1</i>
   <i type="int" name="DIM">     3</i>
   <i type="int" name="ANTIRES">     0</i>
   <i name="OMEGAMAX">    -30.00000000</i>
   <i name="OMEGAMIN">    -30.00000000</i>
   <i name="OMEGATL">   -200.00000000</i>
   <i type="int" name="OMEGAGRID">     0</i>
   <i name="CSHIFT">     -0.10000000</i>
   <i type="logical" name="SELFENERGY"> F  </i>
   <i type="logical" name="LSPECTRAL"> F  </i>
   <i type="logical" name="LSPECTRALGW"> F  </i>
   <i type="logical" name="LSINGLES"> F  </i>
   <i type="logical" name="LFERMIGW"> F  </i>
   <i type="logical" name="ODDONLYGW"> F  </i>
   <i type="logical" name="EVENONLYGW"> F  </i>
   <i type="int" name="NKREDLFX">     1</i>
   <i type="int" name="NKREDLFY">     1</i>
   <i type="int" name="NKREDLFZ">     1</i>
   <i type="int" name="MAXMEM">  1800</i>
   <i type="int" name="TELESCOPE">     0</i>
   <i type="int" name="TAUPAR">     1</i>
   <i type="int" name="OMEGAPAR">    -1</i>
   <i name="LAMBDA">      1.00000000</i>
  </separator>
  <separator name="External order field" >
   <i name="OFIELD_KAPPA">      0.00000000</i>
   <v name="OFIELD_K">      0.00000000      0.00000000      0.00000000</v>
   <i name="OFIELD_Q6_NEAR">      0.00000000</i>
   <i name="OFIELD_Q6_FAR">      0.00000000</i>
   <i name="OFIELD_A">      0.00000000</i>
  </separator>
 </parameters>
 <atominfo>
  <atoms>      27 </atoms>
  <types>       4 </types>
  <array name="atoms" >
   <dimension dim="1">ion</dimension>
   <field type="string">element</field>
   <field type="int">atomtype</field>
   <set>
    <rc><c>V </c><c>   1</c></rc>
    <rc><c>V </c><c>   1</c></rc>
    <rc><c>V </c><c>   1</c></rc>
    <rc><c>Mo</c><c>   2</c></rc>
    <rc><c>Mo</c><c>   2</c></rc>
    <rc><c>Mo</c><c>   2</c></rc>
    <rc><c>W </c><c>   3</c></rc>
    <rc><c>W </c><c>   3</c></rc>
    <rc><c>W </c><c>   3</c></rc>
    <rc><c>S </c><c>   4</c></rc>
    <rc><c>S </c><c>   4</c></rc>
    <rc><c>S </c><c>   4</c></rc>
    <rc><c>S </c><c>   4</c></rc>
    <rc><c>S </c><c>   4</c></rc>
    <rc><c>S </c><c>   4</c></rc>
    <rc><c>S </c><c>   4</c></rc>
    <rc><c>S </c><c>   4</c></rc>
    <rc><c>S </c><c>   4</c></rc>
    <rc><c>S </c><c>   4</c></rc>
    <rc><c>S </c><c>   4</c></rc>
    <rc><c>S </c><c>   4</c></rc>
    <rc><c>S </c><c>   4</c></rc>
    <rc><c>S </c><c>   4</c></rc>
    <rc><c>S </c><c>   4</c></rc>
    <rc><c>S </c><c>   4</c></rc>
    <rc><c>S </c><c>   4</c></rc>
    <rc><c>S </c><c>   4</c></rc>
   </set>
  </array>
  <array name="atomtypes" >
   <dimension dim="1">type</dimension>
   <field type="int">atomspertype</field>
   <field type="string">element</field>
   <field>mass</field>
   <field>valence</field>
   <field type="string">pseudopotential</field>
   <set>
    <rc><c>   3</c><c>V </c><c>     50.94100000</c><c>      5.00000000</c><c> PAW_PBE V 08Apr2002                    </c></rc>
    <rc><c>   3</c><c>Mo</c><c>     95.94000000</c><c>      6.00000000</c><c> PAW_PBE Mo 08Apr2002                   </c></rc>
    <rc><c>   3</c><c>W </c><c>    183.85000000</c><c>      6.00000000</c><c> PAW_PBE W 08Apr2002                    </c></rc>
    <rc><c>  18</c><c>S </c><c>     32.06600000</c><c>      6.00000000</c><c>  PAW_PBE S 17Jan2003                   </c></rc>
   </set>
  </array>
 </atominfo>
 <structure name="initialpos" >
  <crystal>
   <varray name="basis" >
    <v>       8.66999996       5.03999989       0.00000000 </v>
    <v>      -8.66999982       5.04000013       0.00000000 </v>
    <v>       0.00000000       0.00000000      30.00000000 </v>
   </varray>
   <i name="volume">   2621.80797419 </i>
   <varray name="rec_basis" >
    <v>       0.05767013       0.09920635       0.00000000 </v>
    <v>      -0.05767013       0.09920635       0.00000000 </v>
    <v>       0.00000000       0.00000000       0.03333333 </v>
   </varray>
  </crystal>
  <varray name="positions" >
   <v>       0.66666669       0.00000000       0.00000000 </v>
   <v>       0.00000000       0.66666669       0.00000000 </v>
   <v>       0.66666669       0.66666669       0.00000000 </v>
   <v>       0.33333334       0.66666669       0.00000000 </v>
   <v>       0.33333334       0.00000000       0.00000000 </v>
   <v>       0.00000000       0.00000000       0.00000000 </v>
   <v>       1.00000000       0.33333334       0.00000000 </v>
   <v>       0.33333334       0.33333334       0.00000000 </v>
   <v>       0.66666669       0.33333334       0.00000000 </v>
   <v>       0.11068511       0.22244981       0.95539999 </v>
   <v>       0.22244981       0.11068511       0.04460000 </v>
   <v>       0.11068511       0.55578315       0.95539999 </v>
   <v>       0.22244981       0.44401845       0.04460000 </v>
   <v>       0.11068511       0.88911647       0.95539999 </v>
   <v>       0.22244981       0.77735180       0.04460000 </v>
   <v>       0.44401845       0.22244981       0.95539999 </v>
   <v>       0.55578315       0.11068511       0.04460000 </v>
   <v>       0.44401845       0.55578315       0.95539999 </v>
   <v>       0.55578315       0.44401845       0.04460000 </v>
   <v>       0.44401845       0.88911647       0.95539999 </v>
   <v>       0.55578315       0.77735180       0.04460000 </v>
   <v>       0.77735180       0.22244981       0.95539999 </v>
   <v>       0.88911647       0.11068511       0.04460000 </v>
   <v>       0.77735180       0.55578315       0.95539999 </v>
   <v>       0.88911647       0.44401845       0.04460000 </v>
   <v>       0.77735180       0.88911647       0.95539999 </v>
   <v>       0.88911647       0.77735180       0.04460000 </v>
  </varray>
 </structure>
 <calculation>
  <scstep>
   <time name="dav">   21.94   22.00</time>
   <time name="total">   21.98   22.05</time>
   <energy>
    <i name="alphaZ">     81.65567618 </i>
    <i name="ewald">  41890.25208822 </i>
    <i name="hartreedc"> -47722.89514553 </i>
    <i name="XCdc">   -242.92702719 </i>
    <i name="pawpsdc">   3467.42045192 </i>
    <i name="pawaedc">  -2871.19716117 </i>
    <i name="eentropy">     -0.53314704 </i>
    <i name="bandstr">   -239.51403444 </i>
    <i name="atom">   6761.44252427 </i>
    <i name="e_fr_energy">   1123.70422522 </i>
    <i name="e_wo_entrp">   1124.23737226 </i>
    <i name="e_0_energy">   1123.97079874 </i>
   </energy>
  </scstep>
  <scstep>
   <time name="dav">   28.57   28.64</time>
   <time name="total">   28.57   28.65</time>
   <energy>
    <i name="e_fr_energy">     -5.86579167 </i>
    <i name="e_wo_entrp">     -5.67521462 </i>
    <i name="e_0_energy">     -5.77050314 </i>
   </energy>
  </scstep>
  <scstep>
   <time name="dav">   27.76   27.83</time>
   <time name="total">   27.77   27.84</time>
   <energy>
    <i name="e_fr_energy">   -199.95475634 </i>
    <i name="e_wo_entrp">   -199.68357324 </i>
    <i name="e_0_energy">   -199.81916479 </i>
   </energy>
  </scstep>
  <scstep>
   <time name="dav">   30.31   30.39</time>
   <time name="total">   30.32   30.40</time>
   <energy>
    <i name="e_fr_energy">   -209.00003051 </i>
    <i name="e_wo_entrp">   -208.69490282 </i>
    <i name="e_0_energy">   -208.84746666 </i>
   </energy>
  </scstep>
  <scstep>
   <time name="dav">   28.65   28.72</time>
   <time name="total">   29.11   29.19</time>
   <energy>
    <i name="e_fr_energy">   -209.32376647 </i>
    <i name="e_wo_entrp">   -209.02136691 </i>
    <i name="e_0_energy">   -209.17256669 </i>
   </energy>
  </scstep>
  <scstep>
   <time name="dav">   30.73   30.81</time>
   <time name="total">   31.24   31.32</time>
   <energy>
    <i name="e_fr_energy">   -237.08359171 </i>
    <i name="e_wo_entrp">   -236.80493445 </i>
    <i name="e_0_energy">   -236.94426308 </i>
   </energy>
  </scstep>
  <scstep>
   <time name="dav">   32.79   32.87</time>
   <time name="total">   33.31   33.71</time>
   <energy>
    <i name="e_fr_energy">   -196.44373362 </i>
    <i name="e_wo_entrp">   -196.12699258 </i>
    <i name="e_0_energy">   -196.28536310 </i>
   </energy>
  </scstep>
  <scstep>
   <time name="dav">   29.84   29.91</time>
   <time name="total">   30.35   30.43</time>
   <energy>
    <i name="e_fr_energy">   -189.40289704 </i>
    <i name="e_wo_entrp">   -189.11133126 </i>
    <i name="e_0_energy">   -189.25711415 </i>
   </energy>
  </scstep>
  <scstep>
   <time name="dav">   32.13   32.20</time>
   <time name="total">   32.65   32.74</time>
   <energy>
    <i name="e_fr_energy">   -188.16965129 </i>
    <i name="e_wo_entrp">   -187.83033374 </i>
    <i name="e_0_energy">   -187.99999251 </i>
   </energy>
  </scstep>
  <scstep>
   <time name="dav">   33.19   33.27</time>
   <time name="total">   33.72   33.81</time>
   <energy>
    <i name="e_fr_energy">   -186.99896755 </i>
    <i name="e_wo_entrp">   -186.65141174 </i>
    <i name="e_0_energy">   -186.82518964 </i>
   </energy>
  </scstep>
  <scstep>
   <time name="dav">   32.70   32.78</time>
   <time name="total">   33.23   33.32</time>
   <energy>
    <i name="e_fr_energy">   -186.96720441 </i>
    <i name="e_wo_entrp">   -186.61739200 </i>
    <i name="e_0_energy">   -186.79229820 </i>
   </energy>
  </scstep>
  <scstep>
   <time name="dav">   30.24   30.31</time>
   <time name="total">   30.77   30.86</time>
   <energy>
    <i name="e_fr_energy">   -187.08930943 </i>
    <i name="e_wo_entrp">   -186.74947939 </i>
    <i name="e_0_energy">   -186.91939441 </i>
   </energy>
  </scstep>
  <scstep>
   <time name="dav">   31.65   31.72</time>
   <time name="total">   32.18   32.27</time>
   <energy>
    <i name="e_fr_energy">   -186.88102488 </i>
    <i name="e_wo_entrp">   -186.54413871 </i>
    <i name="e_0_energy">   -186.71258180 </i>
   </energy>
  </scstep>
  <scstep>
   <time name="dav">   32.69   32.77</time>
   <time name="total">   33.23   33.31</time>
   <energy>
    <i name="e_fr_energy">   -186.85663890 </i>
    <i name="e_wo_entrp">   -186.51195946 </i>
    <i name="e_0_energy">   -186.68429918 </i>
   </energy>
  </scstep>
  <scstep>
   <time name="dav">   29.49   29.57</time>
   <time name="total">   30.03   30.11</time>
   <energy>
    <i name="e_fr_energy">   -186.83708810 </i>
    <i name="e_wo_entrp">   -186.49029034 </i>
    <i name="e_0_energy">   -186.66368922 </i>
   </energy>
  </scstep>
  <scstep>
   <time name="dav">   29.61   29.68</time>
   <time name="total">   30.15   30.23</time>
   <energy>
    <i name="e_fr_energy">   -186.82943762 </i>
    <i name="e_wo_entrp">   -186.48265479 </i>
    <i name="e_0_energy">   -186.65604621 </i>
   </energy>
  </scstep>
  <scstep>
   <time name="dav">   31.25   31.32</time>
   <time name="total">   31.78   31.87</time>
   <energy>
    <i name="e_fr_energy">   -186.82755471 </i>
    <i name="e_wo_entrp">   -186.48273537 </i>
    <i name="e_0_energy">   -186.65514504 </i>
   </energy>
  </scstep>
  <scstep>
   <time name="dav">   29.19   29.26</time>
   <time name="total">   29.72   29.80</time>
   <energy>
    <i name="e_fr_energy">   -186.82709464 </i>
    <i name="e_wo_entrp">   -186.48203172 </i>
    <i name="e_0_energy">   -186.65456318 </i>
   </energy>
  </scstep>
  <scstep>
   <time name="dav">   27.55   27.62</time>
   <time name="total">   28.09   28.16</time>
   <energy>
    <i name="e_fr_energy">   -186.82673990 </i>
    <i name="e_wo_entrp">   -186.48139022 </i>
    <i name="e_0_energy">   -186.65406506 </i>
   </energy>
  </scstep>
  <scstep>
   <time name="dav">   24.44   24.50</time>
   <time name="total">   24.98   25.05</time>
   <energy>
    <i name="e_fr_energy">   -186.82747787 </i>
    <i name="e_wo_entrp">   -186.48230277 </i>
    <i name="e_0_energy">   -186.65489032 </i>
   </energy>
  </scstep>
  <scstep>
   <time name="dav">   21.19   21.24</time>
   <time name="total">   21.72   21.78</time>
   <energy>
    <i name="e_fr_energy">   -186.82806899 </i>
    <i name="e_wo_entrp">   -186.48306393 </i>
    <i name="e_0_energy">   -186.65556646 </i>
   </energy>
  </scstep>
  <scstep>
   <time name="dav">   20.91   20.96</time>
   <time name="total">   21.44   21.50</time>
   <energy>
    <i name="e_fr_energy">   -186.82923531 </i>
    <i name="e_wo_entrp">   -186.48406921 </i>
    <i name="e_0_energy">   -186.65665226 </i>
   </energy>
  </scstep>
  <scstep>
   <time name="dav">   20.45   20.50</time>
   <time name="total">   20.98   21.04</time>
   <energy>
    <i name="e_fr_energy">   -186.83046134 </i>
    <i name="e_wo_entrp">   -186.48540313 </i>
    <i name="e_0_energy">   -186.65793224 </i>
   </energy>
  </scstep>
  <scstep>
   <time name="dav">   19.08   19.12</time>
   <time name="total">   19.61   19.67</time>
   <energy>
    <i name="e_fr_energy">   -186.83104905 </i>
    <i name="e_wo_entrp">   -186.48597319 </i>
    <i name="e_0_energy">   -186.65851112 </i>
   </energy>
  </scstep>
  <scstep>
   <time name="dav">   17.06   17.11</time>
   <time name="total">   17.60   17.65</time>
   <energy>
    <i name="e_fr_energy">   -186.83141402 </i>
    <i name="e_wo_entrp">   -186.48629888 </i>
    <i name="e_0_energy">   -186.65885645 </i>
   </energy>
  </scstep>
  <scstep>
   <time name="dav">   19.17   19.21</time>
   <time name="total">   19.70   19.76</time>
   <energy>
    <i name="e_fr_energy">   -186.83164874 </i>
    <i name="e_wo_entrp">   -186.48654974 </i>
    <i name="e_0_energy">   -186.65909924 </i>
   </energy>
  </scstep>
  <scstep>
   <time name="dav">   20.01   20.06</time>
   <time name="total">   20.55   20.60</time>
   <energy>
    <i name="e_fr_energy">   -186.83175184 </i>
    <i name="e_wo_entrp">   -186.48665087 </i>
    <i name="e_0_energy">   -186.65920135 </i>
   </energy>
  </scstep>
  <scstep>
   <time name="dav">   20.49   20.54</time>
   <time name="total">   20.52   20.58</time>
   <energy>
    <i name="alphaZ">     81.65567618 </i>
    <i name="ewald">  41890.25208822 </i>
    <i name="hartreedc"> -47832.89620589 </i>
    <i name="XCdc">   -231.61129624 </i>
    <i name="pawpsdc">   4192.00677854 </i>
    <i name="pawaedc">  -3610.00924176 </i>
    <i name="eentropy">     -0.34509834 </i>
    <i name="bandstr">  -1437.32701745 </i>
    <i name="atom">   6761.44252427 </i>
    <i name="e_fr_energy">   -186.83179249 </i>
    <i name="e_wo_entrp">   -186.48669414 </i>
    <i name="e_0_energy">   -186.65924331 </i>
   </energy>
  </scstep>
  <structure>
   <crystal>
    <varray name="basis" >
     <v>       8.66999996       5.03999989       0.00000000 </v>
     <v>      -8.66999982       5.04000013       0.00000000 </v>
     <v>       0.00000000       0.00000000      30.00000000 </v>
    </varray>
    <i name="volume">   2621.80797419 </i>
    <varray name="rec_basis" >
     <v>       0.05767013       0.09920635       0.00000000 </v>
     <v>      -0.05767013       0.09920635       0.00000000 </v>
     <v>       0.00000000       0.00000000       0.03333333 </v>
    </varray>
   </crystal>
   <varray name="positions" >
    <v>       0.66666669       0.00000000       0.00000000 </v>
    <v>       0.00000000       0.66666669       0.00000000 </v>
    <v>       0.66666669       0.66666669       0.00000000 </v>
    <v>       0.33333334       0.66666669       0.00000000 </v>
    <v>       0.33333334       0.00000000       0.00000000 </v>
    <v>       0.00000000       0.00000000       0.00000000 </v>
    <v>       1.00000000       0.33333334       0.00000000 </v>
    <v>       0.33333334       0.33333334       0.00000000 </v>
    <v>       0.66666669       0.33333334       0.00000000 </v>
    <v>       0.11068511       0.22244981       0.95539999 </v>
    <v>       0.22244981       0.11068511       0.04460000 </v>
    <v>       0.11068511       0.55578315       0.95539999 </v>
    <v>       0.22244981       0.44401845       0.04460000 </v>
    <v>       0.11068511       0.88911647       0.95539999 </v>
    <v>       0.22244981       0.77735180       0.04460000 </v>
    <v>       0.44401845       0.22244981       0.95539999 </v>
    <v>       0.55578315       0.11068511       0.04460000 </v>
    <v>       0.44401845       0.55578315       0.95539999 </v>
    <v>       0.55578315       0.44401845       0.04460000 </v>
    <v>       0.44401845       0.88911647       0.95539999 </v>
    <v>       0.55578315       0.77735180       0.04460000 </v>
    <v>       0.77735180       0.22244981       0.95539999 </v>
    <v>       0.88911647       0.11068511       0.04460000 </v>
    <v>       0.77735180       0.55578315       0.95539999 </v>
    <v>       0.88911647       0.44401845       0.04460000 </v>
    <v>       0.77735180       0.88911647       0.95539999 </v>
    <v>       0.88911647       0.77735180       0.04460000 </v>
   </varray>
  </structure>
  <varray name="forces" >
   <v>       0.06559258      -0.28289826       0.09944769 </v>
   <v>      -0.07590957       0.44311213      -0.08690813 </v>
   <v>      -0.19866518       0.20657225      -0.01067221 </v>
   <v>      -0.25137872       0.15487828      -0.00221530 </v>
   <v>       0.01803510      -0.29167298       0.09495516 </v>
   <v>       0.24615918       0.08550854       0.01600973 </v>
   <v>       0.25166762       0.12454972      -0.09795943 </v>
   <v>      -0.00855023      -0.28775091      -0.02728636 </v>
   <v>      -0.01815444      -0.23788205      -0.02983383 </v>
   <v>       0.03565101       0.15335667      -2.95252140 </v>
   <v>      -0.18555990       0.17114608       2.91127523 </v>
   <v>      -0.69053745      -0.16329137      -2.13391518 </v>
   <v>      -0.04067426      -0.10627022       2.90991143 </v>
   <v>       0.52781492      -0.73116386      -2.18333960 </v>
   <v>      -0.52482745      -0.67513280       2.17532301 </v>
   <v>       0.03825174       0.14619146      -2.88570612 </v>
   <v>       0.68313089       0.15091584       2.14106336 </v>
   <v>       0.61325323       0.53920709      -2.11293612 </v>
   <v>      -0.46714283       0.56207917       2.16884150 </v>
   <v>       0.53218569       0.69326636      -2.14781735 </v>
   <v>       0.31131414       0.69722193       1.45154959 </v>
   <v>       0.46627618      -0.55138781      -2.14808782 </v>
   <v>      -0.62628171      -0.57573805       2.13732405 </v>
   <v>      -0.22391430       0.53425000      -1.41338510 </v>
   <v>      -0.47747176       0.57173717       2.12467082 </v>
   <v>      -0.31375263      -0.66775162      -1.41289494 </v>
   <v>       0.31348817      -0.66305275       1.41510731 </v>
  </varray>
  <varray name="stress" >
   <v>       7.30516100       0.13885308      -1.63158672 </v>
   <v>       0.13885320       4.42409300       0.14736659 </v>
   <v>      -1.63158643       0.14736640      30.32934218 </v>
  </varray>
  <energy>
   <i name="e_fr_energy">   -186.83179249 </i>
   <i name="e_wo_entrp">   -186.65924331 </i>
   <i name="e_0_energy">     -0.34509834 </i>
  </energy>
  <time name="totalsc">  807.65  810.14</time>
 </calculation>
 <calculation>
  <scstep>
   <time name="dav">   21.95   22.00</time>
   <time name="total">   22.49   22.55</time>
   <energy>
    <i name="alphaZ">     78.92709425 </i>
    <i name="ewald">  39382.17053303 </i>
    <i name="hartreedc"> -45339.65899386 </i>
    <i name="XCdc">   -239.06724188 </i>
    <i name="pawpsdc">   4192.00684987 </i>
    <i name="pawaedc">  -3610.00930651 </i>
    <i name="eentropy">     -0.28733164 </i>
    <i name="bandstr">  -1412.98345548 </i>
    <i name="atom">   6761.44252427 </i>
    <i name="e_fr_energy">   -187.45932794 </i>
    <i name="e_wo_entrp">   -187.17199631 </i>
    <i name="e_0_energy">   -187.31566212 </i>
   </energy>
  </scstep>
  <scstep>
   <time name="dav">   30.62   30.69</time>
   <time name="total">   31.15   31.24</time>
   <energy>
    <i name="e_fr_energy">   -189.26066045 </i>
    <i name="e_wo_entrp">   -188.94520001 </i>
    <i name="e_0_energy">   -189.10293023 </i>
   </energy>
  </scstep>
  <scstep>
   <time name="dav">   30.74   30.82</time>
   <time name="total">   31.29   31.38</time>
   <energy>
    <i name="e_fr_energy">   -189.36717114 </i>
    <i name="e_wo_entrp">   -189.08624987 </i>
    <i name="e_0_energy">   -189.22671051 </i>
   </energy>
  </scstep>
  <scstep>
   <time name="dav">   31.21   31.28</time>
   <time name="total">   31.76   31.85</time>
   <energy>
    <i name="e_fr_energy">   -188.72490213 </i>
    <i name="e_wo_entrp">   -188.43869849 </i>
    <i name="e_0_energy">   -188.58180031 </i>
   </energy>
  </scstep>
  <scstep>
   <time name="dav">   26.06   26.12</time>
   <time name="total">   26.60   26.67</time>
   <energy>
    <i name="e_fr_energy">   -188.72134611 </i>
    <i name="e_wo_entrp">   -188.43343984 </i>
    <i name="e_0_energy">   -188.57739297 </i>
   </energy>
  </scstep>
  <scstep>
   <time name="dav">   27.55   27.61</time>
   <time name="total">   28.09   28.17</time>
   <energy>
    <i name="e_fr_energy">   -188.66022661 </i>
    <i name="e_wo_entrp">   -188.37393589 </i>
    <i name="e_0_energy">   -188.51708125 </i>
   </energy>
  </scstep>
  <scstep>
   <time name="dav">   28.80   28.86</time>
   <time name="total">   29.34   29.42</time>
   <energy>
    <i name="e_fr_energy">   -188.64270003 </i>
    <i name="e_wo_entrp">   -188.35687537 </i>
    <i name="e_0_energy">   -188.49978770 </i>
   </energy>
  </scstep>
  <scstep>
   <time name="dav">   30.84   30.91</time>
   <time name="total">   31.38   31.47</time>
   <energy>
    <i name="e_fr_energy">   -188.63857848 </i>
    <i name="e_wo_entrp">   -188.35374852 </i>
    <i name="e_0_energy">   -188.49616350 </i>
   </energy>
  </scstep>
  <scstep>
   <time name="dav">   32.19   32.27</time>
   <time name="total">   32.74   32.83</time>
   <energy>
    <i name="e_fr_energy">   -188.63412079 </i>
    <i name="e_wo_entrp">   -188.34878704 </i>
    <i name="e_0_energy">   -188.49145391 </i>
   </energy>
  </scstep>
  <scstep>
   <time name="dav">   31.81   31.88</time>
   <time name="total">   32.35   32.44</time>
   <energy>
    <i name="e_fr_energy">   -188.63377159 </i>
    <i name="e_wo_entrp">   -188.34900622 </i>
    <i name="e_0_energy">   -188.49138891 </i>
   </energy>
  </scstep>
  <scstep>
   <time name="dav">   30.01   30.08</time>
   <time name="total">   30.55   30.63</time>
   <energy>
    <i name="e_fr_energy">   -188.63351793 </i>
    <i name="e_wo_entrp">   -188.34911870 </i>
    <i name="e_0_energy">   -188.49131832 </i>
   </energy>
  </scstep>
  <scstep>
   <time name="dav">   27.82   27.89</time>
   <time name="total">   28.37   28.44</time>
   <energy>
    <i name="e_fr_energy">   -188.63385605 </i>
    <i name="e_wo_entrp">   -188.34958552 </i>
    <i name="e_0_energy">   -188.49172078 </i>
   </energy>
  </scstep>
  <scstep>
   <time name="dav">   24.82   24.88</time>
   <time name="total">   25.37   25.43</time>
   <energy>
    <i name="e_fr_energy">   -188.63353202 </i>
    <i name="e_wo_entrp">   -188.34896704 </i>
    <i name="e_0_energy">   -188.49124953 </i>
   </energy>
  </scstep>
  <scstep>
   <time name="dav">   20.53   20.58</time>
   <time name="total">   21.07   21.13</time>
   <energy>
    <i name="e_fr_energy">   -188.63363963 </i>
    <i name="e_wo_entrp">   -188.34901855 </i>
    <i name="e_0_energy">   -188.49132909 </i>
   </energy>
  </scstep>
  <scstep>
   <time name="dav">   20.93   20.98</time>
   <time name="total">   20.97   21.03</time>
   <energy>
    <i name="alphaZ">     78.92709425 </i>
    <i name="ewald">  39382.17053303 </i>
    <i name="hartreedc"> -45350.08563436 </i>
    <i name="XCdc">   -237.98535912 </i>
    <i name="pawpsdc">   3949.08390990 </i>
    <i name="pawaedc">  -3363.57569945 </i>
    <i name="eentropy">     -0.28459622 </i>
    <i name="bandstr">  -1408.32644593 </i>
    <i name="atom">   6761.44252427 </i>
    <i name="e_fr_energy">   -188.63367364 </i>
    <i name="e_wo_entrp">   -188.34907742 </i>
    <i name="e_0_energy">   -188.49137553 </i>
   </energy>
  </scstep>
  <structure>
   <crystal>
    <varray name="basis" >
     <v>       8.85723148       5.10871454       0.00000000 </v>
     <v>      -8.85313898       5.10167495       0.00000000 </v>
     <v>       0.00000000       0.00000000      30.00000000 </v>
    </varray>
    <i name="volume">   2712.44627671 </i>
    <varray name="rec_basis" >
     <v>       0.05642517       0.09791684       0.00000000 </v>
     <v>      -0.05650303       0.09796210       0.00000000 </v>
     <v>       0.00000000       0.00000000       0.03333333 </v>
    </varray>
   </crystal>
   <varray name="positions" >
    <v>       0.66549523      -0.00153643       0.00015992 </v>
    <v>       0.00190953       0.66899860      -0.00013976 </v>
    <v>       0.66710262       0.66820805      -0.00001716 </v>
    <v>       0.33337521       0.66810731      -0.00000356 </v>
    <v>       0.33198758      -0.00144612       0.00015270 </v>
    <v>       0.00109410      -0.00027561       0.00002575 </v>
    <v>       1.00129627       0.33322926      -0.00015753 </v>
    <v>       0.33193239       0.33197996      -0.00004388 </v>
    <v>       0.66547768       0.33224535      -0.00004798 </v>
    <v>       0.11151826       0.22308458       0.95065207 </v>
    <v>       0.22275265       0.11202047       0.04928159 </v>
    <v>       0.10798242       0.55692283       0.95196847 </v>
    <v>       0.22182804       0.44362301       0.04927939 </v>
    <v>       0.10865424       0.88414867       0.95188899 </v>
    <v>       0.21775848       0.77558078       0.04809811 </v>
    <v>       0.44482454       0.22304306       0.95075952 </v>
    <v>       0.55840601       0.10950681       0.04804302 </v>
    <v>       0.44830526       0.55665762       0.95200220 </v>
    <v>       0.55717358       0.44800822       0.04808769 </v>
    <v>       0.44881704       0.89095380       0.95194611 </v>
    <v>       0.55998617       0.77982256       0.04693422 </v>
    <v>       0.77601012       0.21851362       0.95194567 </v>
    <v>       0.88461858       0.10967206       0.04803700 </v>
    <v>       0.77928574       0.55896303       0.95312714 </v>
    <v>       0.89052438       0.44808318       0.04801666 </v>
    <v>       0.77328304       0.88679353       0.95312793 </v>
    <v>       0.88681528       0.77330627       0.04687562 </v>
   </varray>
  </structure>
  <varray name="forces" >
   <v>      -0.01843751      -0.24206438       0.02245221 </v>
   <v>      -0.02223101       0.40524887      -0.01492069 </v>
   <v>      -0.13982051       0.12080507      -0.07285022 </v>
   <v>      -0.23122171       0.00166034      -0.07188809 </v>
   <v>      -0.08983925      -0.14829400       0.02400383 </v>
   <v>       0.16756758       0.43037397       0.06629432 </v>
   <v>       0.37390297       0.21101763       0.06644114 </v>
   <v>      -0.03470856      -0.41624244      -0.00350371 </v>
   <v>      -0.04753348      -0.30697011       0.01621895 </v>
   <v>      -0.07187178       0.10411142      -0.15738206 </v>
   <v>      -0.03841214       0.11016232       0.18820808 </v>
   <v>      -0.00323488      -0.11064806      -0.03238514 </v>
   <v>       0.07115326      -0.09984093      -0.00424123 </v>
   <v>       0.04310436      -0.08997608      -0.16763621 </v>
   <v>      -0.04059864      -0.07426787       0.16214433 </v>
   <v>      -0.06514519       0.08844512      -0.01228750 </v>
   <v>      -0.01073383       0.09723583       0.03795128 </v>
   <v>       0.07765139      -0.03950703       0.13007947 </v>
   <v>       0.05522902      -0.05627607      -0.14435924 </v>
   <v>       0.03165648       0.07278796      -0.04278096 </v>
   <v>      -0.00024566       0.06224792       0.03567134 </v>
   <v>      -0.03960066       0.05174002       0.13626672 </v>
   <v>      -0.08282690       0.05272932      -0.09645093 </v>
   <v>       0.06102535      -0.07268817       0.18545108 </v>
   <v>       0.04144061      -0.06201655      -0.26922831 </v>
   <v>       0.00477674      -0.04420357       0.08324638 </v>
   <v>       0.00895396      -0.04557052      -0.06451484 </v>
  </varray>
  <varray name="stress" >
   <v>     -19.85554287      -0.01328664      -0.02926289 </v>
   <v>      -0.01328681     -19.45727690       0.00997506 </v>
   <v>      -0.02926295       0.00997516      -1.67460539 </v>
  </varray>
  <energy>
   <i name="e_fr_energy">   -188.63367364 </i>
   <i name="e_wo_entrp">   -188.49137553 </i>
   <i name="e_0_energy">     -0.28459622 </i>
  </energy>
  <time name="totalsc">  465.66  466.91</time>
 </calculation>
 <calculation>
  <scstep>
   <time name="dav">   24.22   24.27</time>
   <time name="total">   24.75   24.82</time>
   <energy>
    <i name="alphaZ">     82.35323502 </i>
    <i name="ewald">  41305.79013347 </i>
    <i name="hartreedc"> -47304.35747954 </i>
    <i name="XCdc">   -233.86215072 </i>
    <i name="pawpsdc">   3949.02748832 </i>
    <i name="pawaedc">  -3363.51922712 </i>
    <i name="eentropy">     -0.23671632 </i>
    <i name="bandstr">  -1387.18979378 </i>
    <i name="atom">   6761.44252427 </i>
    <i name="e_fr_energy">   -190.55198640 </i>
    <i name="e_wo_entrp">   -190.31527008 </i>
    <i name="e_0_energy">   -190.43362824 </i>
   </energy>
  </scstep>
  <scstep>
   <time name="dav">   29.28   29.35</time>
   <time name="total">   29.81   29.89</time>
   <energy>
    <i name="e_fr_energy">   -190.54593447 </i>
    <i name="e_wo_entrp">   -190.30631342 </i>
    <i name="e_0_energy">   -190.42612394 </i>
   </energy>
  </scstep>
  <scstep>
   <time name="dav">   30.58   30.66</time>
   <time name="total">   31.11   31.19</time>
   <energy>
    <i name="e_fr_energy">   -190.02451636 </i>
    <i name="e_wo_entrp">   -189.77593219 </i>
    <i name="e_0_energy">   -189.90022428 </i>
   </energy>
  </scstep>
  <scstep>
   <time name="dav">   31.89   31.97</time>
   <time name="total">   32.43   32.51</time>
   <energy>
    <i name="e_fr_energy">   -189.81991707 </i>
    <i name="e_wo_entrp">   -189.58250754 </i>
    <i name="e_0_energy">   -189.70121230 </i>
   </energy>
  </scstep>
  <scstep>
   <time name="dav">   28.67   28.73</time>
   <time name="total">   29.20   29.28</time>
   <energy>
    <i name="e_fr_energy">   -189.73722277 </i>
    <i name="e_wo_entrp">   -189.49500047 </i>
    <i name="e_0_energy">   -189.61611162 </i>
   </energy>
  </scstep>
  <scstep>
   <time name="dav">   29.71   29.78</time>
   <time name="total">   30.24   30.32</time>
   <energy>
    <i name="e_fr_energy">   -189.72306423 </i>
    <i name="e_wo_entrp">   -189.48414319 </i>
    <i name="e_0_energy">   -189.60360371 </i>
   </energy>
  </scstep>
  <scstep>
   <time name="dav">   30.35   30.42</time>
   <time name="total">   30.88   30.96</time>
   <energy>
    <i name="e_fr_energy">   -189.71710632 </i>
    <i name="e_wo_entrp">   -189.47726601 </i>
    <i name="e_0_energy">   -189.59718617 </i>
   </energy>
  </scstep>
  <scstep>
   <time name="dav">   26.87   26.93</time>
   <time name="total">   27.40   27.47</time>
   <energy>
    <i name="e_fr_energy">   -189.71695951 </i>
    <i name="e_wo_entrp">   -189.47743171 </i>
    <i name="e_0_energy">   -189.59719561 </i>
   </energy>
  </scstep>
  <scstep>
   <time name="dav">   28.06   28.13</time>
   <time name="total">   28.59   28.67</time>
   <energy>
    <i name="e_fr_energy">   -189.71717562 </i>
    <i name="e_wo_entrp">   -189.47739093 </i>
    <i name="e_0_energy">   -189.59728328 </i>
   </energy>
  </scstep>
  <scstep>
   <time name="dav">   26.03   26.10</time>
   <time name="total">   26.57   26.64</time>
   <energy>
    <i name="e_fr_energy">   -189.71757426 </i>
    <i name="e_wo_entrp">   -189.47788039 </i>
    <i name="e_0_energy">   -189.59772732 </i>
   </energy>
  </scstep>
  <scstep>
   <time name="dav">   25.35   25.41</time>
   <time name="total">   25.88   25.95</time>
   <energy>
    <i name="e_fr_energy">   -189.71699086 </i>
    <i name="e_wo_entrp">   -189.47723029 </i>
    <i name="e_0_energy">   -189.59711057 </i>
   </energy>
  </scstep>
  <scstep>
   <time name="dav">   17.10   17.14</time>
   <time name="total">   17.13   17.18</time>
   <energy>
    <i name="alphaZ">     82.35323502 </i>
    <i name="ewald">  41305.79013347 </i>
    <i name="hartreedc"> -47278.02461927 </i>
    <i name="XCdc">   -235.25360234 </i>
    <i name="pawpsdc">   4038.50824212 </i>
    <i name="pawaedc">  -3454.20472263 </i>
    <i name="eentropy">     -0.23969546 </i>
    <i name="bandstr">  -1410.08850858 </i>
    <i name="atom">   6761.44252427 </i>
    <i name="e_fr_energy">   -189.71701340 </i>
    <i name="e_wo_entrp">   -189.47731793 </i>
    <i name="e_0_energy">   -189.59716566 </i>
   </energy>
  </scstep>
  <structure>
   <crystal>
    <varray name="basis" >
     <v>       8.66907190       5.00227903       0.00000000 </v>
     <v>      -8.66521139       4.99563760       0.00000000 </v>
     <v>       0.00000000       0.00000000      30.00000000 </v>
    </varray>
    <i name="volume">   2599.60040280 </i>
    <varray name="rec_basis" >
     <v>       0.05765083       0.09999858       0.00000000 </v>
     <v>      -0.05772748       0.10004313       0.00000000 </v>
     <v>       0.00000000       0.00000000       0.03333333 </v>
    </varray>
   </crystal>
   <varray name="positions" >
    <v>       0.66507321      -0.00192313       0.00017269 </v>
    <v>       0.00256495       0.66969716      -0.00014824 </v>
    <v>       0.66716981       0.66854466      -0.00005858 </v>
    <v>       0.33315545       0.66833292      -0.00004443 </v>
    <v>       0.33165345      -0.00160732       0.00016634 </v>
    <v>       0.00197415       0.00028201       0.00006344 </v>
    <v>       1.00200855       0.33322150      -0.00011975 </v>
    <v>       0.33120380       0.33131791      -0.00004587 </v>
    <v>       0.66491925       0.33177825      -0.00003875 </v>
    <v>       0.11162297       0.22332781       0.95056259 </v>
    <v>       0.22289967       0.11224156       0.04938859 </v>
    <v>       0.10779451       0.55674107       0.95195005 </v>
    <v>       0.22172977       0.44338761       0.04927698 </v>
    <v>       0.10854545       0.88395678       0.95179368 </v>
    <v>       0.21759538       0.77549581       0.04819030 </v>
    <v>       0.44490956       0.22325362       0.95075253 </v>
    <v>       0.55855808       0.10967963       0.04806460 </v>
    <v>       0.44831401       0.55651677       0.95207616 </v>
    <v>       0.55713275       0.44786096       0.04800561 </v>
    <v>       0.44896907       0.89104491       0.95192179 </v>
    <v>       0.56008989       0.77992681       0.04695450 </v>
    <v>       0.77605842       0.21863824       0.95202315 </v>
    <v>       0.88462693       0.10983999       0.04798217 </v>
    <v>       0.77922307       0.55878276       0.95323258 </v>
    <v>       0.89046069       0.44793962       0.04786359 </v>
    <v>       0.77321381       0.88671507       0.95317526 </v>
    <v>       0.88674779       0.77322149       0.04683894 </v>
   </varray>
  </structure>
  <varray name="forces" >
   <v>      -0.06750696      -0.22044606      -0.00231327 </v>
   <v>       0.01219446       0.39913159       0.00519418 </v>
   <v>      -0.12095918       0.07549005      -0.07423839 </v>
   <v>      -0.22076941      -0.05386085      -0.07004072 </v>
   <v>      -0.12946189      -0.09777004       0.00106855 </v>
   <v>       0.13730869       0.54226323       0.05552715 </v>
   <v>       0.42923766       0.23188511       0.08356947 </v>
   <v>      -0.04200302      -0.47221543      -0.00218388 </v>
   <v>      -0.05638372      -0.33784625       0.02121577 </v>
   <v>      -0.02278115       0.02907267      -0.74580805 </v>
   <v>       0.00892108       0.04487729       0.75378817 </v>
   <v>      -0.11732425      -0.04403764      -0.53306421 </v>
   <v>       0.03527383      -0.01433310       0.55240741 </v>
   <v>       0.07580698      -0.14041991      -0.66280684 </v>
   <v>      -0.07875010      -0.13852601       0.65713034 </v>
   <v>      -0.02924763       0.00572198      -0.56849531 </v>
   <v>       0.10364137       0.00724753       0.54453441 </v>
   <v>       0.07496808       0.07991669      -0.34098803 </v>
   <v>      -0.03492452       0.06262145       0.35272912 </v>
   <v>       0.05823233       0.13746139      -0.52326244 </v>
   <v>       0.03441100       0.11109496       0.48886303 </v>
   <v>       0.04676320      -0.07052608      -0.35378715 </v>
   <v>      -0.07017771      -0.07870132       0.38936834 </v>
   <v>      -0.01351739       0.06308413      -0.26080011 </v>
   <v>      -0.03101093       0.06266670       0.20583456 </v>
   <v>      -0.02533325      -0.08239283      -0.34543037 </v>
   <v>       0.04339244      -0.10145922       0.37198826 </v>
  </varray>
  <varray name="stress" >
   <v>     -10.19890358      -0.03988620      -0.03483803 </v>
   <v>      -0.03988631      -9.84952292      -0.02357554 </v>
   <v>      -0.03483799      -0.02357558       6.49408696 </v>
  </varray>
  <energy>
   <i name="e_fr_energy">   -189.71701340 </i>
   <i name="e_wo_entrp">   -189.59716566 </i>
   <i name="e_0_energy">     -0.23969546 </i>
  </energy>
  <time name="totalsc">  376.23  377.22</time>
 </calculation>
 <calculation>
  <scstep>
   <time name="dav">   21.92   21.97</time>
   <time name="total">   22.43   22.49</time>
   <energy>
    <i name="alphaZ">     85.86163692 </i>
    <i name="ewald">  42852.75618029 </i>
    <i name="hartreedc"> -48869.77401349 </i>
    <i name="XCdc">   -232.93657544 </i>
    <i name="pawpsdc">   4038.52635883 </i>
    <i name="pawaedc">  -3454.22001933 </i>
    <i name="eentropy">     -0.19608794 </i>
    <i name="bandstr">  -1372.74213525 </i>
    <i name="atom">   6761.44252427 </i>
    <i name="e_fr_energy">   -191.28213115 </i>
    <i name="e_wo_entrp">   -191.08604321 </i>
    <i name="e_0_energy">   -191.18408718 </i>
   </energy>
  </scstep>
  <scstep>
   <time name="dav">   32.79   32.87</time>
   <time name="total">   33.31   33.39</time>
   <energy>
    <i name="e_fr_energy">   -191.15719321 </i>
    <i name="e_wo_entrp">   -190.95463843 </i>
    <i name="e_0_energy">   -191.05591582 </i>
   </energy>
  </scstep>
  <scstep>
   <time name="dav">   30.41   30.48</time>
   <time name="total">   30.93   31.01</time>
   <energy>
    <i name="e_fr_energy">   -191.19700157 </i>
    <i name="e_wo_entrp">   -190.98049367 </i>
    <i name="e_0_energy">   -191.08874762 </i>
   </energy>
  </scstep>
  <scstep>
   <time name="dav">   31.17   31.25</time>
   <time name="total">   31.69   31.77</time>
   <energy>
    <i name="e_fr_energy">   -190.83765661 </i>
    <i name="e_wo_entrp">   -190.63348309 </i>
    <i name="e_0_energy">   -190.73556985 </i>
   </energy>
  </scstep>
  <scstep>
   <time name="dav">   29.79   29.86</time>
   <time name="total">   30.31   30.39</time>
   <energy>
    <i name="e_fr_energy">   -190.83340033 </i>
    <i name="e_wo_entrp">   -190.63549973 </i>
    <i name="e_0_energy">   -190.73445003 </i>
   </energy>
  </scstep>
  <scstep>
   <time name="dav">   30.12   30.20</time>
   <time name="total">   30.64   30.72</time>
   <energy>
    <i name="e_fr_energy">   -190.68853239 </i>
    <i name="e_wo_entrp">   -190.48443797 </i>
    <i name="e_0_energy">   -190.58648518 </i>
   </energy>
  </scstep>
  <scstep>
   <time name="dav">   30.63   30.70</time>
   <time name="total">   31.15   31.23</time>
   <energy>
    <i name="e_fr_energy">   -190.68307281 </i>
    <i name="e_wo_entrp">   -190.48104856 </i>
    <i name="e_0_energy">   -190.58206068 </i>
   </energy>
  </scstep>
  <scstep>
   <time name="dav">   29.18   29.25</time>
   <time name="total">   29.70   29.78</time>
   <energy>
    <i name="e_fr_energy">   -190.68154619 </i>
    <i name="e_wo_entrp">   -190.47930522 </i>
    <i name="e_0_energy">   -190.58042570 </i>
   </energy>
  </scstep>
  <scstep>
   <time name="dav">   28.45   28.51</time>
   <time name="total">   28.96   29.04</time>
   <energy>
    <i name="e_fr_energy">   -190.67935363 </i>
    <i name="e_wo_entrp">   -190.47700634 </i>
    <i name="e_0_energy">   -190.57817999 </i>
   </energy>
  </scstep>
  <scstep>
   <time name="dav">   26.64   26.70</time>
   <time name="total">   27.15   27.23</time>
   <energy>
    <i name="e_fr_energy">   -190.67962580 </i>
    <i name="e_wo_entrp">   -190.47699458 </i>
    <i name="e_0_energy">   -190.57831019 </i>
   </energy>
  </scstep>
  <scstep>
   <time name="dav">   26.71   26.78</time>
   <time name="total">   27.23   27.31</time>
   <energy>
    <i name="e_fr_energy">   -190.67946586 </i>
    <i name="e_wo_entrp">   -190.47706113 </i>
    <i name="e_0_energy">   -190.57826350 </i>
   </energy>
  </scstep>
  <scstep>
   <time name="dav">   19.98   20.02</time>
   <time name="total">   20.01   20.07</time>
   <energy>
    <i name="alphaZ">     85.86163692 </i>
    <i name="ewald">  42852.75618029 </i>
    <i name="hartreedc"> -48840.97520674 </i>
    <i name="XCdc">   -234.28256439 </i>
    <i name="pawpsdc">   4063.65760735 </i>
    <i name="pawaedc">  -3479.53295146 </i>
    <i name="eentropy">     -0.20242345 </i>
    <i name="bandstr">  -1399.40426255 </i>
    <i name="atom">   6761.44252427 </i>
    <i name="e_fr_energy">   -190.67945976 </i>
    <i name="e_wo_entrp">   -190.47703631 </i>
    <i name="e_0_energy">   -190.57824803 </i>
   </energy>
  </scstep>
  <structure>
   <crystal>
    <varray name="basis" >
     <v>       8.48406179       4.90032585       0.00000000 </v>
     <v>      -8.48216967       4.89708825       0.00000000 </v>
     <v>       0.00000000       0.00000000      30.00000000 </v>
    </varray>
    <i name="volume">   2493.37784154 </i>
    <varray name="rec_basis" >
     <v>       0.05892113       0.10205637       0.00000000 </v>
     <v>      -0.05896009       0.10207914       0.00000000 </v>
     <v>       0.00000000       0.00000000       0.03333333 </v>
    </varray>
   </crystal>
   <varray name="positions" >
    <v>       0.66342623      -0.00293846       0.00014664 </v>
    <v>       0.00515233       0.67209714      -0.00012020 </v>
    <v>       0.66711911       0.66931663      -0.00021398 </v>
    <v>       0.33189210       0.66864024      -0.00018834 </v>
    <v>       0.33063953      -0.00156731       0.00014889 </v>
    <v>       0.00611799       0.00351950       0.00016954 </v>
    <v>       1.00515454       0.33309406       0.00006853 </v>
    <v>       0.32793199       0.32837058      -0.00004928 </v>
    <v>       0.66250084       0.32979354       0.00000960 </v>
    <v>       0.11160533       0.22333275       0.94850864 </v>
    <v>       0.22311829       0.11225797       0.05143953 </v>
    <v>       0.10709470       0.55722372       0.95041328 </v>
    <v>       0.22193088       0.44343720       0.05090194 </v>
    <v>       0.10785801       0.88262402       0.94999213 </v>
    <v>       0.21622200       0.77480403       0.04997990 </v>
    <v>       0.44468321       0.22313501       0.94909453 </v>
    <v>       0.55891857       0.10895594       0.04963026 </v>
    <v>       0.44938501       0.55705218       0.95096378 </v>
    <v>       0.55756845       0.44881227       0.04916470 </v>
    <v>       0.45024563       0.89182233       0.95042270 </v>
    <v>       0.56108626       0.78057324       0.04835872 </v>
    <v>       0.77560195       0.21759129       0.95086789 </v>
    <v>       0.88356514       0.10925007       0.04920770 </v>
    <v>       0.77980445       0.55967913       0.95230805 </v>
    <v>       0.89095114       0.44886585       0.04869865 </v>
    <v>       0.77246420       0.88623643       0.95209001 </v>
    <v>       0.88617655       0.77223509       0.04798606 </v>
   </varray>
  </structure>
  <varray name="forces" >
   <v>      -0.15277915      -0.21974397      -0.04854203 </v>
   <v>       0.02039597       0.36878469       0.05219015 </v>
   <v>      -0.07267014       0.05820093      -0.04901797 </v>
   <v>      -0.22724154      -0.06807282      -0.03204529 </v>
   <v>      -0.15038823      -0.02305109      -0.02439561 </v>
   <v>       0.09395063       0.60867233       0.01027095 </v>
   <v>       0.53433478       0.25803406       0.05173958 </v>
   <v>      -0.03163721      -0.53377064       0.00617747 </v>
   <v>      -0.10847237      -0.38240425       0.02833966 </v>
   <v>       0.01991991      -0.01503808      -0.62183793 </v>
   <v>       0.04909276       0.01068548       0.61580589 </v>
   <v>      -0.04553398      -0.02497789      -0.38335344 </v>
   <v>       0.02381983       0.07000860       0.40303403 </v>
   <v>       0.01180168      -0.01799156      -0.48117361 </v>
   <v>      -0.04797777      -0.03009564       0.46317416 </v>
   <v>      -0.01552010      -0.06300597      -0.40929807 </v>
   <v>       0.04323087      -0.07967203       0.41574524 </v>
   <v>       0.01235006      -0.01276972      -0.19110936 </v>
   <v>      -0.05429271      -0.01376815       0.20997591 </v>
   <v>      -0.00173711       0.01948077      -0.36598480 </v>
   <v>      -0.01699315       0.00524229       0.37606763 </v>
   <v>       0.05491835      -0.01872388      -0.15518622 </v>
   <v>       0.02855778      -0.02887553       0.25429542 </v>
   <v>       0.01482475       0.02517163      -0.17499247 </v>
   <v>      -0.00153981       0.01820677       0.01908104 </v>
   <v>       0.02955746       0.04935920      -0.21806461 </v>
   <v>      -0.00997156       0.04011445       0.24910427 </v>
  </varray>
  <varray name="stress" >
   <v>      -5.78576735       0.07945871      -0.05656488 </v>
   <v>       0.07945856      -5.72849122       0.05319135 </v>
   <v>      -0.05656462       0.05319143       4.56450729 </v>
  </varray>
  <energy>
   <i name="e_fr_energy">   -190.67945976 </i>
   <i name="e_wo_entrp">   -190.57824803 </i>
   <i name="e_0_energy">     -0.20242345 </i>
  </energy>
  <time name="totalsc">  385.84  386.86</time>
 </calculation>
 <calculation>
  <scstep>
   <time name="dav">   21.93   21.98</time>
   <time name="total">   22.44   22.49</time>
   <energy>
    <i name="alphaZ">     90.23221515 </i>
    <i name="ewald">  44691.62536926 </i>
    <i name="hartreedc"> -50735.38434898 </i>
    <i name="XCdc">   -231.81645321 </i>
    <i name="pawpsdc">   4063.60499348 </i>
    <i name="pawaedc">  -3479.47520135 </i>
    <i name="eentropy">     -0.18025008 </i>
    <i name="bandstr">  -1352.11287553 </i>
    <i name="atom">   6761.44252427 </i>
    <i name="e_fr_energy">   -192.06402698 </i>
    <i name="e_wo_entrp">   -191.88377690 </i>
    <i name="e_0_energy">   -191.97390194 </i>
   </energy>
  </scstep>
  <scstep>
   <time name="dav">   29.88   29.95</time>
   <time name="total">   30.38   30.46</time>
   <energy>
    <i name="e_fr_energy">   -191.84181080 </i>
    <i name="e_wo_entrp">   -191.64960636 </i>
    <i name="e_0_energy">   -191.74570858 </i>
   </energy>
  </scstep>
  <scstep>
   <time name="dav">   30.27   30.34</time>
   <time name="total">   30.77   30.85</time>
   <energy>
    <i name="e_fr_energy">   -192.22539598 </i>
    <i name="e_wo_entrp">   -192.02406531 </i>
    <i name="e_0_energy">   -192.12473064 </i>
   </energy>
  </scstep>
  <scstep>
   <time name="dav">   30.14   30.22</time>
   <time name="total">   30.66   30.74</time>
   <energy>
    <i name="e_fr_energy">   -191.56108861 </i>
    <i name="e_wo_entrp">   -191.37342138 </i>
    <i name="e_0_energy">   -191.46725500 </i>
   </energy>
  </scstep>
  <scstep>
   <time name="dav">   30.43   30.51</time>
   <time name="total">   30.94   31.03</time>
   <energy>
    <i name="e_fr_energy">   -191.38797493 </i>
    <i name="e_wo_entrp">   -191.20214186 </i>
    <i name="e_0_energy">   -191.29505840 </i>
   </energy>
  </scstep>
  <scstep>
   <time name="dav">   30.86   30.94</time>
   <time name="total">   31.37   31.46</time>
   <energy>
    <i name="e_fr_energy">   -191.37118098 </i>
    <i name="e_wo_entrp">   -191.17724117 </i>
    <i name="e_0_energy">   -191.27421107 </i>
   </energy>
  </scstep>
  <scstep>
   <time name="dav">   30.25   30.33</time>
   <time name="total">   30.76   30.84</time>
   <energy>
    <i name="e_fr_energy">   -191.34723643 </i>
    <i name="e_wo_entrp">   -191.16031906 </i>
    <i name="e_0_energy">   -191.25377774 </i>
   </energy>
  </scstep>
  <scstep>
   <time name="dav">   28.16   28.22</time>
   <time name="total">   28.66   28.74</time>
   <energy>
    <i name="e_fr_energy">   -191.33987268 </i>
    <i name="e_wo_entrp">   -191.15150290 </i>
    <i name="e_0_energy">   -191.24568779 </i>
   </energy>
  </scstep>
  <scstep>
   <time name="dav">   31.04   31.12</time>
   <time name="total">   31.55   31.63</time>
   <energy>
    <i name="e_fr_energy">   -191.34118991 </i>
    <i name="e_wo_entrp">   -191.15250772 </i>
    <i name="e_0_energy">   -191.24684881 </i>
   </energy>
  </scstep>
  <scstep>
   <time name="dav">   28.56   28.63</time>
   <time name="total">   29.07   29.15</time>
   <energy>
    <i name="e_fr_energy">   -191.34016006 </i>
    <i name="e_wo_entrp">   -191.15155047 </i>
    <i name="e_0_energy">   -191.24585526 </i>
   </energy>
  </scstep>
  <scstep>
   <time name="dav">   26.61   26.67</time>
   <time name="total">   27.12   27.19</time>
   <energy>
    <i name="e_fr_energy">   -191.33999338 </i>
    <i name="e_wo_entrp">   -191.15132869 </i>
    <i name="e_0_energy">   -191.24566104 </i>
   </energy>
  </scstep>
  <scstep>
   <time name="dav">   20.55   20.60</time>
   <time name="total">   20.58   20.64</time>
   <energy>
    <i name="alphaZ">     90.23221515 </i>
    <i name="ewald">  44691.62536926 </i>
    <i name="hartreedc"> -50701.18542121 </i>
    <i name="XCdc">   -233.35930822 </i>
    <i name="pawpsdc">   4084.64506261 </i>
    <i name="pawaedc">  -3500.58667246 </i>
    <i name="eentropy">     -0.18864184 </i>
    <i name="bandstr">  -1383.96508742 </i>
    <i name="atom">   6761.44252427 </i>
    <i name="e_fr_energy">   -191.33995986 </i>
    <i name="e_wo_entrp">   -191.15131803 </i>
    <i name="e_0_energy">   -191.24563895 </i>
   </energy>
  </scstep>
  <structure>
   <crystal>
    <varray name="basis" >
     <v>       8.27573410       4.78477451       0.00000000 </v>
     <v>      -8.27005907       4.77498447       0.00000000 </v>
     <v>       0.00000000       0.00000000      30.00000000 </v>
    </varray>
    <i name="volume">   2372.60608720 </i>
    <varray name="rec_basis" >
     <v>       0.06037645       0.10456931       0.00000000 </v>
     <v>      -0.06050024       0.10464106       0.00000000 </v>
     <v>       0.00000000       0.00000000       0.03333333 </v>
    </varray>
   </crystal>
   <varray name="positions" >
    <v>       0.65971518      -0.00448947      -0.00004667 </v>
    <v>       0.00989788       0.67645623       0.00008268 </v>
    <v>       0.66720084       0.67045750      -0.00042465 </v>
    <v>       0.32933758       0.66925396      -0.00033493 </v>
    <v>       0.32926837      -0.00071857       0.00004261 </v>
    <v>       0.01444424       0.01053511       0.00022432 </v>
    <v>       1.01210276       0.33250011       0.00030912 </v>
    <v>       0.32108719       0.32201625      -0.00002781 </v>
    <v>       0.65706914       0.32582441       0.00012384 </v>
    <v>       0.11145941       0.22282372       0.94537961 </v>
    <v>       0.22350500       0.11186977       0.05452953 </v>
    <v>       0.10636764       0.55766070       0.94830900 </v>
    <v>       0.22301433       0.44428134       0.05313974 </v>
    <v>       0.10748624       0.88185198       0.94748550 </v>
    <v>       0.21505278       0.77450040       0.05242111 </v>
    <v>       0.44372397       0.22230198       0.94682687 </v>
    <v>       0.55838274       0.10730945       0.05185842 </v>
    <v>       0.44987293       0.55725319       0.94965614 </v>
    <v>       0.55735623       0.44963182       0.05056946 </v>
    <v>       0.45095932       0.89235604       0.94840358 </v>
    <v>       0.56145663       0.78096909       0.05036727 </v>
    <v>       0.77545651       0.21639606       0.94965875 </v>
    <v>       0.88287513       0.10830462       0.05077418 </v>
    <v>       0.78052238       0.56049111       0.95112371 </v>
    <v>       0.89144928       0.44968481       0.04934322 </v>
    <v>       0.77284331       0.88640400       0.95072862 </v>
    <v>       0.88630746       0.77228884       0.04947669 </v>
   </varray>
  </structure>
  <varray name="forces" >
   <v>      -0.24802516      -0.30615808      -0.01349333 </v>
   <v>      -0.02803112       0.34178141       0.00580375 </v>
   <v>       0.01117978       0.10821414      -0.05272742 </v>
   <v>      -0.18828337      -0.00813777       0.02471081 </v>
   <v>      -0.01200353       0.08596950       0.03876674 </v>
   <v>       0.03367480       0.29851314      -0.02248049 </v>
   <v>       0.46943895       0.22400348      -0.05327467 </v>
   <v>       0.07209750      -0.27947469       0.06654808 </v>
   <v>      -0.24710502      -0.45367742       0.04638100 </v>
   <v>       0.02962713      -0.00047921      -0.35909717 </v>
   <v>       0.09116293       0.01424897       0.28322722 </v>
   <v>       0.04002756      -0.04615743      -0.04977584 </v>
   <v>       0.09514138       0.13780474       0.15316296 </v>
   <v>      -0.06897921       0.10159374      -0.12637220 </v>
   <v>      -0.02310456       0.07780649       0.13150118 </v>
   <v>      -0.07433462      -0.09695517      -0.19822050 </v>
   <v>      -0.01739939      -0.12430898       0.13462955 </v>
   <v>      -0.04206217      -0.17607699       0.12085936 </v>
   <v>      -0.07455626      -0.15550246      -0.02183417 </v>
   <v>      -0.08086506      -0.10522102      -0.11810424 </v>
   <v>      -0.06544962      -0.06620266       0.02853629 </v>
   <v>       0.03164429       0.08043366       0.18539755 </v>
   <v>       0.13392670       0.07125108      -0.06921136 </v>
   <v>       0.06581745      -0.03011793       0.09984065 </v>
   <v>       0.11632122      -0.07684535      -0.31536693 </v>
   <v>       0.04417536       0.18491477       0.09132554 </v>
   <v>      -0.06403594       0.19878002      -0.01073235 </v>
  </varray>
  <varray name="stress" >
   <v>      -0.30639905       0.18481058       0.27760721 </v>
   <v>       0.18481060       0.11805152       0.18656495 </v>
   <v>       0.27760726       0.18656472      -0.43392816 </v>
  </varray>
  <energy>
   <i name="e_fr_energy">   -191.33995986 </i>
   <i name="e_wo_entrp">   -191.24563895 </i>
   <i name="e_0_energy">     -0.18864184 </i>
  </energy>
  <time name="totalsc">  386.44  387.46</time>
 </calculation>
 <calculation>
  <scstep>
   <time name="dav">   21.92   21.97</time>
   <time name="total">   22.43   22.48</time>
   <energy>
    <i name="alphaZ">     90.31747272 </i>
    <i name="ewald">  44707.99694672 </i>
    <i name="hartreedc"> -50719.28103793 </i>
    <i name="XCdc">   -233.39211778 </i>
    <i name="pawpsdc">   4084.53881873 </i>
    <i name="pawaedc">  -3500.47528972 </i>
    <i name="eentropy">     -0.18942612 </i>
    <i name="bandstr">  -1382.38456248 </i>
    <i name="atom">   6761.44252427 </i>
    <i name="e_fr_energy">   -191.42667159 </i>
    <i name="e_wo_entrp">   -191.23724547 </i>
    <i name="e_0_energy">   -191.33195853 </i>
   </energy>
  </scstep>
  <scstep>
   <time name="dav">   32.50   32.58</time>
   <time name="total">   33.01   33.10</time>
   <energy>
    <i name="e_fr_energy">   -191.48932866 </i>
    <i name="e_wo_entrp">   -191.28875639 </i>
    <i name="e_0_energy">   -191.38904252 </i>
   </energy>
  </scstep>
  <scstep>
   <time name="dav">   30.53   30.60</time>
   <time name="total">   31.03   31.11</time>
   <energy>
    <i name="e_fr_energy">   -191.44246584 </i>
    <i name="e_wo_entrp">   -191.25242670 </i>
    <i name="e_0_energy">   -191.34744627 </i>
   </energy>
  </scstep>
  <scstep>
   <time name="dav">   29.41   29.48</time>
   <time name="total">   29.93   30.01</time>
   <energy>
    <i name="e_fr_energy">   -191.44289462 </i>
    <i name="e_wo_entrp">   -191.25181359 </i>
    <i name="e_0_energy">   -191.34735411 </i>
   </energy>
  </scstep>
  <scstep>
   <time name="dav">   29.30   29.37</time>
   <time name="total">   29.80   29.88</time>
   <energy>
    <i name="e_fr_energy">   -191.43753260 </i>
    <i name="e_wo_entrp">   -191.24618900 </i>
    <i name="e_0_energy">   -191.34186080 </i>
   </energy>
  </scstep>
  <scstep>
   <time name="dav">   27.88   27.95</time>
   <time name="total">   28.39   28.46</time>
   <energy>
    <i name="e_fr_energy">   -191.43708094 </i>
    <i name="e_wo_entrp">   -191.24548881 </i>
    <i name="e_0_energy">   -191.34128488 </i>
   </energy>
  </scstep>
  <scstep>
   <time name="dav">   26.59   26.66</time>
   <time name="total">   27.10   27.19</time>
   <energy>
    <i name="e_fr_energy">   -191.43684602 </i>
    <i name="e_wo_entrp">   -191.24507227 </i>
    <i name="e_0_energy">   -191.34095914 </i>
   </energy>
  </scstep>
  <scstep>
   <time name="dav">   24.80   24.86</time>
   <time name="total">   24.84   24.91</time>
   <energy>
    <i name="alphaZ">     90.31747272 </i>
    <i name="ewald">  44707.99694672 </i>
    <i name="hartreedc"> -50719.54967509 </i>
    <i name="XCdc">   -233.39715199 </i>
    <i name="pawpsdc">   4083.04881672 </i>
    <i name="pawaedc">  -3498.95423837 </i>
    <i name="eentropy">     -0.19158759 </i>
    <i name="bandstr">  -1382.14990841 </i>
    <i name="atom">   6761.44252427 </i>
    <i name="e_fr_energy">   -191.43680102 </i>
    <i name="e_wo_entrp">   -191.24521344 </i>
    <i name="e_0_energy">   -191.34100723 </i>
   </energy>
  </scstep>
  <structure>
   <crystal>
    <varray name="basis" >
     <v>       8.26944719       4.78947670       0.00000000 </v>
     <v>      -8.25894527       4.77132106       0.00000000 </v>
     <v>       0.00000000       0.00000000      30.00000000 </v>
    </varray>
    <i name="volume">   2370.36640302 </i>
    <varray name="rec_basis" >
     <v>       0.06038713       0.10452745       0.00000000 </v>
     <v>      -0.06061692       0.10466037       0.00000000 </v>
     <v>       0.00000000       0.00000000       0.03333333 </v>
    </varray>
   </crystal>
   <varray name="positions" >
    <v>       0.65733758      -0.00535389      -0.00007176 </v>
    <v>       0.01165242       0.67837277       0.00009520 </v>
    <v>       0.66779370       0.67099996      -0.00051481 </v>
    <v>       0.32869445       0.66978254      -0.00029657 </v>
    <v>       0.32965639      -0.00022465       0.00010484 </v>
    <v>       0.01621362       0.01208503       0.00018823 </v>
    <v>       1.01476527       0.33224627       0.00022523 </v>
    <v>       0.31975517       0.32026011       0.00008214 </v>
    <v>       0.65390569       0.32415706       0.00020198 </v>
    <v>       0.11154218       0.22272324       0.94473500 </v>
    <v>       0.22385561       0.11166334       0.05504837 </v>
    <v>       0.10623672       0.55731286       0.94819006 </v>
    <v>       0.22402740       0.44472375       0.05343159 </v>
    <v>       0.10779770       0.88256776       0.94723425 </v>
    <v>       0.21536411       0.77496479       0.05267991 </v>
    <v>       0.44298583       0.22200867       0.94646028 </v>
    <v>       0.55768154       0.10669033       0.05211898 </v>
    <v>       0.44884987       0.55647551       0.94983050 </v>
    <v>       0.55633000       0.44906853       0.05055995 </v>
    <v>       0.45018941       0.89206430       0.94817345 </v>
    <v>       0.56092876       0.78083034       0.05044913 </v>
    <v>       0.77596160       0.21669403       0.94994048 </v>
    <v>       0.88362765       0.10825473       0.05068883 </v>
    <v>       0.78057683       0.56015655       0.95126585 </v>
    <v>       0.89140946       0.44895731       0.04883873 </v>
    <v>       0.77393245       0.88722872       0.95085404 </v>
    <v>       0.88714303       0.77350448       0.04948604 </v>
   </varray>
  </structure>
  <varray name="forces" >
   <v>      -0.24874802      -0.34397646      -0.02205836 </v>
   <v>      -0.07457243       0.39072725      -0.00185945 </v>
   <v>       0.03365724       0.16299085      -0.10396175 </v>
   <v>      -0.22288385      -0.00718949       0.00410735 </v>
   <v>       0.02697436       0.08314711       0.01165546 </v>
   <v>       0.08327573       0.29385791      -0.00263651 </v>
   <v>       0.49669590       0.27772444      -0.00342395 </v>
   <v>       0.10164817      -0.28400997       0.00901764 </v>
   <v>      -0.32824857      -0.52127036       0.02506234 </v>
   <v>       0.05422824       0.02962033      -0.25478537 </v>
   <v>       0.07589508      -0.00672934       0.19930874 </v>
   <v>       0.01968190      -0.02984828      -0.01148790 </v>
   <v>       0.07599682       0.09726079       0.08242257 </v>
   <v>      -0.02367403       0.07653738      -0.09408920 </v>
   <v>      -0.03125543       0.04375296       0.11573457 </v>
   <v>      -0.05306308      -0.07973631      -0.17427444 </v>
   <v>      -0.00722350      -0.08796866       0.15160845 </v>
   <v>      -0.02288381      -0.12150672       0.18632391 </v>
   <v>      -0.06244919      -0.10538368       0.00848750 </v>
   <v>      -0.05530428      -0.08207609      -0.10120719 </v>
   <v>      -0.04728631      -0.04166745       0.00178113 </v>
   <v>       0.00523269       0.06647737       0.24233111 </v>
   <v>       0.07545738       0.05108513      -0.12711648 </v>
   <v>       0.07020636      -0.03005811       0.15906501 </v>
   <v>       0.08510678      -0.08988426      -0.39796564 </v>
   <v>       0.00793154       0.12623687       0.12641502 </v>
   <v>      -0.03439572       0.13188680      -0.02845456 </v>
  </varray>
  <varray name="stress" >
   <v>       0.05773319       0.05964938       0.13853967 </v>
   <v>       0.05964929       0.09522983       0.04384516 </v>
   <v>       0.13853996       0.04384539      -1.22656565 </v>
  </varray>
  <energy>
   <i name="e_fr_energy">   -191.43680102 </i>
   <i name="e_wo_entrp">   -191.34100723 </i>
   <i name="e_0_energy">     -0.19158759 </i>
  </energy>
  <time name="totalsc">  268.77  269.49</time>
 </calculation>
 <calculation>
  <scstep>
   <time name="dav">   21.91   21.96</time>
   <time name="total">   22.42   22.47</time>
   <energy>
    <i name="alphaZ">     90.29930052 </i>
    <i name="ewald">  44700.81427095 </i>
    <i name="hartreedc"> -50712.11197604 </i>
    <i name="XCdc">   -233.40538536 </i>
    <i name="pawpsdc">   4083.04401652 </i>
    <i name="pawaedc">  -3498.94954651 </i>
    <i name="eentropy">     -0.19118560 </i>
    <i name="bandstr">  -1382.40200320 </i>
    <i name="atom">   6761.44252427 </i>
    <i name="e_fr_energy">   -191.45998445 </i>
    <i name="e_wo_entrp">   -191.26879885 </i>
    <i name="e_0_energy">   -191.36439165 </i>
   </energy>
  </scstep>
  <scstep>
   <time name="dav">   33.37   33.46</time>
   <time name="total">   33.88   33.97</time>
   <energy>
    <i name="e_fr_energy">   -191.46327039 </i>
    <i name="e_wo_entrp">   -191.26935131 </i>
    <i name="e_0_energy">   -191.36631085 </i>
   </energy>
  </scstep>
  <scstep>
   <time name="dav">   28.74   28.81</time>
   <time name="total">   29.25   29.32</time>
   <energy>
    <i name="e_fr_energy">   -191.46063601 </i>
    <i name="e_wo_entrp">   -191.26933059 </i>
    <i name="e_0_energy">   -191.36498330 </i>
   </energy>
  </scstep>
  <scstep>
   <time name="dav">   25.82   25.88</time>
   <time name="total">   26.33   26.40</time>
   <energy>
    <i name="e_fr_energy">   -191.46080329 </i>
    <i name="e_wo_entrp">   -191.26928647 </i>
    <i name="e_0_energy">   -191.36504488 </i>
   </energy>
  </scstep>
  <scstep>
   <time name="dav">   23.12   23.17</time>
   <time name="total">   23.63   23.69</time>
   <energy>
    <i name="e_fr_energy">   -191.46046027 </i>
    <i name="e_wo_entrp">   -191.26882846 </i>
    <i name="e_0_energy">   -191.36464437 </i>
   </energy>
  </scstep>
  <scstep>
[...]
      <set comment="kpoint 31">
       <r>  -17.6068    1.0000 </r>
       <r>  -17.2423    1.0000 </r>
       <r>  -16.9094    1.0000 </r>
       <r>  -16.7031    1.0000 </r>
       <r>  -16.5507    1.0000 </r>
       <r>  -16.4789    1.0000 </r>
       <r>  -16.3418    1.0000 </r>
       <r>  -16.2432    1.0000 </r>
       <r>  -16.1516    1.0000 </r>
       <r>  -16.0279    1.0000 </r>
       <r>  -15.9150    1.0000 </r>
       <r>  -15.8799    1.0000 </r>
       <r>  -15.7728    1.0000 </r>
       <r>  -15.5898    1.0000 </r>
       <r>  -15.5541    1.0000 </r>
       <r>  -15.4123    1.0000 </r>
       <r>  -15.3057    1.0000 </r>
       <r>  -15.2913    1.0000 </r>
       <r>   -9.8264    1.0000 </r>
       <r>   -9.5526    1.0000 </r>
       <r>   -9.2737    1.0000 </r>
       <r>   -9.0644    1.0000 </r>
       <r>   -8.8468    1.0000 </r>
       <r>   -8.7616    1.0000 </r>
       <r>   -8.6186    1.0000 </r>
       <r>   -8.5496    1.0000 </r>
       <r>   -8.4270    1.0000 </r>
       <r>   -8.3357    1.0000 </r>
       <r>   -8.2458    1.0000 </r>
       <r>   -8.2209    1.0000 </r>
       <r>   -8.1090    1.0000 </r>
       <r>   -8.0400    1.0000 </r>
       <r>   -7.9875    1.0000 </r>
       <r>   -7.9037    1.0000 </r>
       <r>   -7.8269    1.0000 </r>
       <r>   -7.7272    1.0000 </r>
       <r>   -7.5665    1.0000 </r>
       <r>   -7.4736    1.0000 </r>
       <r>   -7.3869    1.0000 </r>
       <r>   -7.2559    1.0000 </r>
       <r>   -7.2121    1.0000 </r>
       <r>   -7.1062    1.0000 </r>
       <r>   -6.9648    1.0000 </r>
       <r>   -6.8953    1.0000 </r>
       <r>   -6.8399    1.0000 </r>
       <r>   -6.6993    1.0000 </r>
       <r>   -6.6408    1.0000 </r>
       <r>   -6.5728    1.0000 </r>
       <r>   -6.5381    1.0000 </r>
       <r>   -6.5025    1.0000 </r>
       <r>   -6.4258    1.0000 </r>
       <r>   -6.3393    1.0000 </r>
       <r>   -6.3168    1.0000 </r>
       <r>   -6.2270    1.0000 </r>
       <r>   -6.1012    1.0000 </r>
       <r>   -6.0626    1.0000 </r>
       <r>   -5.9855    1.0000 </r>
       <r>   -5.8941    1.0000 </r>
       <r>   -5.8355    1.0000 </r>
       <r>   -5.7094    1.0000 </r>
       <r>   -5.6712    1.0000 </r>
       <r>   -5.5239    1.0000 </r>
       <r>   -5.4621    1.0000 </r>
       <r>   -5.4065    1.0000 </r>
       <r>   -5.2024    1.0000 </r>
       <r>   -5.0812    1.0000 </r>
       <r>   -5.0470    1.0000 </r>
       <r>   -4.8922    1.0000 </r>
       <r>   -4.7822    1.0000 </r>
       <r>   -4.6976    1.0000 </r>
       <r>   -4.5995    1.0000 </r>
       <r>   -4.4961    1.0000 </r>
       <r>   -4.2902    1.0000 </r>
       <r>   -4.1945    1.0000 </r>
       <r>   -4.1324    1.0000 </r>
       <r>   -3.9019    1.0000 </r>
       <r>   -3.8342    1.0000 </r>
       <r>   -3.6956    0.9992 </r>
       <r>   -3.6260    0.9963 </r>
       <r>   -3.2670    0.5573 </r>
       <r>   -2.9315    0.0129 </r>
       <r>   -2.8150    0.0011 </r>
       <r>   -2.7460    0.0002 </r>
       <r>   -2.6031    0.0000 </r>
       <r>   -2.4826    0.0000 </r>
       <r>   -2.4255    0.0000 </r>
       <r>   -2.2058    0.0000 </r>
       <r>   -2.0922    0.0000 </r>
       <r>   -2.0097    0.0000 </r>
       <r>   -1.8311    0.0000 </r>
       <r>   -1.6952    0.0000 </r>
       <r>   -1.4736    0.0000 </r>
       <r>   -1.3680    0.0000 </r>
       <r>   -1.3011    0.0000 </r>
       <r>   -1.2124    0.0000 </r>
       <r>   -1.1866    0.0000 </r>
       <r>   -1.1068    0.0000 </r>
       <r>   -1.0105    0.0000 </r>
       <r>   -0.9221    0.0000 </r>
       <r>   -0.8513    0.0000 </r>
       <r>   -0.8053    0.0000 </r>
       <r>   -0.7718    0.0000 </r>
       <r>   -0.6414    0.0000 </r>
       <r>   -0.5749    0.0000 </r>
       <r>   -0.4813    0.0000 </r>
       <r>   -0.3404    0.0000 </r>
       <r>   -0.1280    0.0000 </r>
       <r>   -0.0604    0.0000 </r>
       <r>    0.0124    0.0000 </r>
       <r>    0.0874    0.0000 </r>
       <r>    0.3867    0.0000 </r>
       <r>    0.5532    0.0000 </r>
       <r>    0.7316    0.0000 </r>
       <r>    0.9923    0.0000 </r>
       <r>    1.1665    0.0000 </r>
       <r>    1.3346    0.0000 </r>
       <r>    1.4772    0.0000 </r>
       <r>    2.1443    0.0000 </r>
       <r>    2.3003    0.0000 </r>
       <r>    2.3915    0.0000 </r>
      </set>
      <set comment="kpoint 32">
       <r>  -17.5955    1.0000 </r>
       <r>  -17.2330    1.0000 </r>
       <r>  -16.9884    1.0000 </r>
       <r>  -16.7015    1.0000 </r>
       <r>  -16.5299    1.0000 </r>
       <r>  -16.3715    1.0000 </r>
       <r>  -16.3170    1.0000 </r>
       <r>  -16.2556    1.0000 </r>
       <r>  -16.1715    1.0000 </r>
       <r>  -16.1200    1.0000 </r>
       <r>  -15.9062    1.0000 </r>
       <r>  -15.8681    1.0000 </r>
       <r>  -15.7923    1.0000 </r>
       <r>  -15.5736    1.0000 </r>
       <r>  -15.5424    1.0000 </r>
       <r>  -15.4169    1.0000 </r>
       <r>  -15.3059    1.0000 </r>
       <r>  -15.2860    1.0000 </r>
       <r>   -9.7724    1.0000 </r>
       <r>   -9.6530    1.0000 </r>
       <r>   -9.3525    1.0000 </r>
       <r>   -9.0405    1.0000 </r>
       <r>   -8.7205    1.0000 </r>
       <r>   -8.6584    1.0000 </r>
       <r>   -8.5884    1.0000 </r>
       <r>   -8.4960    1.0000 </r>
       <r>   -8.4354    1.0000 </r>
       <r>   -8.3543    1.0000 </r>
       <r>   -8.3076    1.0000 </r>
       <r>   -8.2378    1.0000 </r>
       <r>   -8.1542    1.0000 </r>
       <r>   -8.1053    1.0000 </r>
       <r>   -8.0021    1.0000 </r>
       <r>   -7.9414    1.0000 </r>
       <r>   -7.8871    1.0000 </r>
       <r>   -7.7068    1.0000 </r>
       <r>   -7.5154    1.0000 </r>
       <r>   -7.4576    1.0000 </r>
       <r>   -7.4283    1.0000 </r>
       <r>   -7.2666    1.0000 </r>
       <r>   -7.1598    1.0000 </r>
       <r>   -7.0661    1.0000 </r>
       <r>   -6.9456    1.0000 </r>
       <r>   -6.9055    1.0000 </r>
       <r>   -6.8497    1.0000 </r>
       <r>   -6.7352    1.0000 </r>
       <r>   -6.6643    1.0000 </r>
       <r>   -6.5737    1.0000 </r>
       <r>   -6.5270    1.0000 </r>
       <r>   -6.4978    1.0000 </r>
       <r>   -6.4483    1.0000 </r>
       <r>   -6.3786    1.0000 </r>
       <r>   -6.3214    1.0000 </r>
       <r>   -6.1754    1.0000 </r>
       <r>   -6.0728    1.0000 </r>
       <r>   -6.0411    1.0000 </r>
       <r>   -5.9836    1.0000 </r>
       <r>   -5.8701    1.0000 </r>
       <r>   -5.7560    1.0000 </r>
       <r>   -5.7248    1.0000 </r>
       <r>   -5.6501    1.0000 </r>
       <r>   -5.5840    1.0000 </r>
       <r>   -5.4984    1.0000 </r>
       <r>   -5.3866    1.0000 </r>
       <r>   -5.1831    1.0000 </r>
       <r>   -5.0780    1.0000 </r>
       <r>   -4.9865    1.0000 </r>
       <r>   -4.8769    1.0000 </r>
       <r>   -4.8064    1.0000 </r>
       <r>   -4.7832    1.0000 </r>
       <r>   -4.7043    1.0000 </r>
       <r>   -4.4910    1.0000 </r>
       <r>   -4.2929    1.0000 </r>
       <r>   -4.1956    1.0000 </r>
       <r>   -4.1043    1.0000 </r>
       <r>   -3.8884    1.0000 </r>
       <r>   -3.8325    1.0000 </r>
       <r>   -3.7165    0.9996 </r>
       <r>   -3.5888    0.9922 </r>
       <r>   -3.2271    0.4450 </r>
       <r>   -2.9562    0.0200 </r>
       <r>   -2.8675    0.0037 </r>
       <r>   -2.6894    0.0000 </r>
       <r>   -2.5816    0.0000 </r>
       <r>   -2.4969    0.0000 </r>
       <r>   -2.4250    0.0000 </r>
       <r>   -2.2253    0.0000 </r>
       <r>   -2.0855    0.0000 </r>
       <r>   -2.0047    0.0000 </r>
       <r>   -1.8691    0.0000 </r>
       <r>   -1.7026    0.0000 </r>
       <r>   -1.5121    0.0000 </r>
       <r>   -1.3772    0.0000 </r>
       <r>   -1.2907    0.0000 </r>
       <r>   -1.2186    0.0000 </r>
       <r>   -1.1530    0.0000 </r>
       <r>   -1.0474    0.0000 </r>
       <r>   -1.0132    0.0000 </r>
       <r>   -0.9022    0.0000 </r>
       <r>   -0.8483    0.0000 </r>
       <r>   -0.7863    0.0000 </r>
       <r>   -0.7581    0.0000 </r>
       <r>   -0.6327    0.0000 </r>
       <r>   -0.5565    0.0000 </r>
       <r>   -0.4173    0.0000 </r>
       <r>   -0.3578    0.0000 </r>
       <r>   -0.2082    0.0000 </r>
       <r>   -0.0770    0.0000 </r>
       <r>    0.0547    0.0000 </r>
       <r>    0.0975    0.0000 </r>
       <r>    0.3459    0.0000 </r>
       <r>    0.5292    0.0000 </r>
       <r>    0.8063    0.0000 </r>
       <r>    0.9550    0.0000 </r>
       <r>    1.1656    0.0000 </r>
       <r>    1.3208    0.0000 </r>
       <r>    1.4278    0.0000 </r>
       <r>    2.1160    0.0000 </r>
       <r>    2.2679    0.0000 </r>
       <r>    2.5658    0.0000 </r>
      </set>
      <set comment="kpoint 33">
       <r>  -17.5611    1.0000 </r>
       <r>  -17.3296    1.0000 </r>
       <r>  -16.8804    1.0000 </r>
       <r>  -16.6985    1.0000 </r>
       <r>  -16.5393    1.0000 </r>
       <r>  -16.4612    1.0000 </r>
       <r>  -16.3252    1.0000 </r>
       <r>  -16.2477    1.0000 </r>
       <r>  -16.1810    1.0000 </r>
       <r>  -16.0869    1.0000 </r>
       <r>  -15.8812    1.0000 </r>
       <r>  -15.8259    1.0000 </r>
       <r>  -15.7915    1.0000 </r>
       <r>  -15.6055    1.0000 </r>
       <r>  -15.5531    1.0000 </r>
       <r>  -15.4205    1.0000 </r>
       <r>  -15.3045    1.0000 </r>
       <r>  -15.2810    1.0000 </r>
       <r>   -9.8416    1.0000 </r>
       <r>   -9.5473    1.0000 </r>
       <r>   -9.3343    1.0000 </r>
       <r>   -9.0060    1.0000 </r>
       <r>   -8.8359    1.0000 </r>
       <r>   -8.7217    1.0000 </r>
       <r>   -8.6221    1.0000 </r>
       <r>   -8.5788    1.0000 </r>
       <r>   -8.4597    1.0000 </r>
       <r>   -8.3359    1.0000 </r>
       <r>   -8.2322    1.0000 </r>
       <r>   -8.1742    1.0000 </r>
       <r>   -8.1289    1.0000 </r>
       <r>   -8.0613    1.0000 </r>
       <r>   -7.9774    1.0000 </r>
       <r>   -7.9104    1.0000 </r>
       <r>   -7.8414    1.0000 </r>
       <r>   -7.7336    1.0000 </r>
       <r>   -7.5791    1.0000 </r>
       <r>   -7.4759    1.0000 </r>
       <r>   -7.4141    1.0000 </r>
       <r>   -7.2601    1.0000 </r>
       <r>   -7.1673    1.0000 </r>
       <r>   -6.9834    1.0000 </r>
       <r>   -6.9467    1.0000 </r>
       <r>   -6.9137    1.0000 </r>
       <r>   -6.8763    1.0000 </r>
       <r>   -6.7662    1.0000 </r>
       <r>   -6.6402    1.0000 </r>
       <r>   -6.5938    1.0000 </r>
       <r>   -6.5334    1.0000 </r>
       <r>   -6.4988    1.0000 </r>
       <r>   -6.4554    1.0000 </r>
       <r>   -6.3321    1.0000 </r>
       <r>   -6.2972    1.0000 </r>
       <r>   -6.2060    1.0000 </r>
       <r>   -6.0915    1.0000 </r>
       <r>   -6.0605    1.0000 </r>
       <r>   -5.9602    1.0000 </r>
       <r>   -5.9315    1.0000 </r>
       <r>   -5.8093    1.0000 </r>
       <r>   -5.7400    1.0000 </r>
       <r>   -5.6586    1.0000 </r>
       <r>   -5.5002    1.0000 </r>
       <r>   -5.4799    1.0000 </r>
       <r>   -5.4314    1.0000 </r>
       <r>   -5.1874    1.0000 </r>
       <r>   -5.0829    1.0000 </r>
       <r>   -5.0420    1.0000 </r>
       <r>   -4.8918    1.0000 </r>
       <r>   -4.7923    1.0000 </r>
       <r>   -4.6658    1.0000 </r>
       <r>   -4.6236    1.0000 </r>
       <r>   -4.4991    1.0000 </r>
       <r>   -4.3156    1.0000 </r>
       <r>   -4.2071    1.0000 </r>
       <r>   -4.0991    1.0000 </r>
       <r>   -3.9512    1.0000 </r>
       <r>   -3.8191    1.0000 </r>
       <r>   -3.7753    0.9999 </r>
       <r>   -3.5485    0.9836 </r>
       <r>   -3.1828    0.3257 </r>
       <r>   -2.9811    0.0302 </r>
       <r>   -2.9340    0.0135 </r>
       <r>   -2.6532    0.0000 </r>
       <r>   -2.5898    0.0000 </r>
       <r>   -2.5065    0.0000 </r>
       <r>   -2.3935    0.0000 </r>
       <r>   -2.2168    0.0000 </r>
       <r>   -2.0599    0.0000 </r>
       <r>   -1.9950    0.0000 </r>
       <r>   -1.8795    0.0000 </r>
       <r>   -1.7159    0.0000 </r>
       <r>   -1.5562    0.0000 </r>
       <r>   -1.3517    0.0000 </r>
       <r>   -1.2845    0.0000 </r>
       <r>   -1.2041    0.0000 </r>
       <r>   -1.1345    0.0000 </r>
       <r>   -1.0697    0.0000 </r>
       <r>   -0.9826    0.0000 </r>
       <r>   -0.9158    0.0000 </r>
       <r>   -0.8278    0.0000 </r>
       <r>   -0.7640    0.0000 </r>
       <r>   -0.7130    0.0000 </r>
       <r>   -0.6038    0.0000 </r>
       <r>   -0.5735    0.0000 </r>
       <r>   -0.5111    0.0000 </r>
       <r>   -0.3490    0.0000 </r>
       <r>   -0.2605    0.0000 </r>
       <r>   -0.1132    0.0000 </r>
       <r>    0.1175    0.0000 </r>
       <r>    0.1932    0.0000 </r>
       <r>    0.2815    0.0000 </r>
       <r>    0.5240    0.0000 </r>
       <r>    0.8242    0.0000 </r>
       <r>    0.9856    0.0000 </r>
       <r>    1.1873    0.0000 </r>
       <r>    1.2919    0.0000 </r>
       <r>    1.3895    0.0000 </r>
       <r>    2.1492    0.0000 </r>
       <r>    2.3040    0.0000 </r>
       <r>    2.4020    0.0000 </r>
      </set>
      <set comment="kpoint 34">
       <r>  -17.5275    1.0000 </r>
       <r>  -17.3947    1.0000 </r>
       <r>  -16.7573    1.0000 </r>
       <r>  -16.6763    1.0000 </r>
       <r>  -16.6425    1.0000 </r>
       <r>  -16.5170    1.0000 </r>
       <r>  -16.3208    1.0000 </r>
       <r>  -16.2527    1.0000 </r>
       <r>  -16.1805    1.0000 </r>
       <r>  -16.0587    1.0000 </r>
       <r>  -15.8767    1.0000 </r>
       <r>  -15.7958    1.0000 </r>
       <r>  -15.7375    1.0000 </r>
       <r>  -15.6724    1.0000 </r>
       <r>  -15.5592    1.0000 </r>
       <r>  -15.4218    1.0000 </r>
       <r>  -15.3039    1.0000 </r>
       <r>  -15.2787    1.0000 </r>
       <r>   -9.8762    1.0000 </r>
       <r>   -9.4659    1.0000 </r>
       <r>   -9.2900    1.0000 </r>
       <r>   -8.9850    1.0000 </r>
       <r>   -8.9330    1.0000 </r>
       <r>   -8.8254    1.0000 </r>
       <r>   -8.6545    1.0000 </r>
       <r>   -8.5957    1.0000 </r>
       <r>   -8.4665    1.0000 </r>
       <r>   -8.3306    1.0000 </r>
       <r>   -8.2050    1.0000 </r>
       <r>   -8.1696    1.0000 </r>
       <r>   -8.1225    1.0000 </r>
       <r>   -8.0043    1.0000 </r>
       <r>   -7.9575    1.0000 </r>
       <r>   -7.8340    1.0000 </r>
       <r>   -7.7981    1.0000 </r>
       <r>   -7.7018    1.0000 </r>
       <r>   -7.5601    1.0000 </r>
       <r>   -7.5210    1.0000 </r>
       <r>   -7.4930    1.0000 </r>
       <r>   -7.3176    1.0000 </r>
       <r>   -7.0934    1.0000 </r>
       <r>   -7.0315    1.0000 </r>
       <r>   -6.9412    1.0000 </r>
       <r>   -6.9310    1.0000 </r>
       <r>   -6.8635    1.0000 </r>
       <r>   -6.6882    1.0000 </r>
       <r>   -6.6279    1.0000 </r>
       <r>   -6.5725    1.0000 </r>
       <r>   -6.5093    1.0000 </r>
       <r>   -6.4823    1.0000 </r>
       <r>   -6.4715    1.0000 </r>
       <r>   -6.4255    1.0000 </r>
       <r>   -6.3003    1.0000 </r>
       <r>   -6.2228    1.0000 </r>
       <r>   -6.1681    1.0000 </r>
       <r>   -6.0638    1.0000 </r>
       <r>   -5.9442    1.0000 </r>
       <r>   -5.8583    1.0000 </r>
       <r>   -5.8406    1.0000 </r>
       <r>   -5.7613    1.0000 </r>
       <r>   -5.6185    1.0000 </r>
       <r>   -5.5801    1.0000 </r>
       <r>   -5.5133    1.0000 </r>
       <r>   -5.3969    1.0000 </r>
       <r>   -5.1923    1.0000 </r>
       <r>   -5.0623    1.0000 </r>
       <r>   -5.0372    1.0000 </r>
       <r>   -4.9292    1.0000 </r>
       <r>   -4.7982    1.0000 </r>
       <r>   -4.5690    1.0000 </r>
       <r>   -4.5349    1.0000 </r>
       <r>   -4.4944    1.0000 </r>
       <r>   -4.3122    1.0000 </r>
       <r>   -4.2343    1.0000 </r>
       <r>   -4.1413    1.0000 </r>
       <r>   -3.9825    1.0000 </r>
       <r>   -3.8216    1.0000 </r>
       <r>   -3.7952    0.9999 </r>
       <r>   -3.5366    0.9798 </r>
       <r>   -3.1624    0.2756 </r>
       <r>   -2.9930    0.0364 </r>
       <r>   -2.9668    0.0239 </r>
       <r>   -2.6410    0.0000 </r>
       <r>   -2.6038    0.0000 </r>
       <r>   -2.5082    0.0000 </r>
       <r>   -2.3712    0.0000 </r>
       <r>   -2.2042    0.0000 </r>
       <r>   -2.0451    0.0000 </r>
       <r>   -1.9883    0.0000 </r>
       <r>   -1.8795    0.0000 </r>
       <r>   -1.7248    0.0000 </r>
       <r>   -1.5732    0.0000 </r>
       <r>   -1.3254    0.0000 </r>
       <r>   -1.2892    0.0000 </r>
       <r>   -1.1911    0.0000 </r>
       <r>   -1.1328    0.0000 </r>
       <r>   -1.0946    0.0000 </r>
       <r>   -0.9591    0.0000 </r>
       <r>   -0.9138    0.0000 </r>
       <r>   -0.8141    0.0000 </r>
       <r>   -0.7849    0.0000 </r>
       <r>   -0.6664    0.0000 </r>
       <r>   -0.6359    0.0000 </r>
       <r>   -0.5851    0.0000 </r>
       <r>   -0.5408    0.0000 </r>
       <r>   -0.3713    0.0000 </r>
       <r>   -0.2315    0.0000 </r>
       <r>   -0.1511    0.0000 </r>
       <r>    0.1470    0.0000 </r>
       <r>    0.2080    0.0000 </r>
       <r>    0.2883    0.0000 </r>
       <r>    0.5219    0.0000 </r>
       <r>    0.8245    0.0000 </r>
       <r>    1.0090    0.0000 </r>
       <r>    1.2049    0.0000 </r>
       <r>    1.2799    0.0000 </r>
       <r>    1.3719    0.0000 </r>
       <r>    2.2326    0.0000 </r>
       <r>    2.2582    0.0000 </r>
       <r>    2.4018    0.0000 </r>
      </set>
     </set>
    </set>
   </array>
  </eigenvalues>
  <separator name="orbital magnetization" >
   <v name="MAGDIPOLOUT">      0.00000000      0.00000000      0.00000000</v>
  </separator>
 </calculation>
 <structure name="finalpos" >
  <crystal>
   <varray name="basis" >
    <v>       8.31863768       4.83094023       0.00000000 </v>
    <v>      -8.29658247       4.79288412       0.00000000 </v>
    <v>       0.00000000       0.00000000      30.00000000 </v>
   </varray>
   <i name="volume">   2398.51681410 </i>
   <varray name="rec_basis" >
    <v>       0.05994810       0.10377141       0.00000000 </v>
    <v>      -0.06042409       0.10404727       0.00000000 </v>
    <v>       0.00000000       0.00000000       0.03333333 </v>
   </varray>
  </crystal>
  <varray name="positions" >
   <v>       0.63027143      -0.01864802       0.00206306 </v>
   <v>       0.03188399       0.69321370      -0.00151180 </v>
   <v>       0.63183915       0.65468911       0.00165900 </v>
   <v>       0.33160714       0.68335253       0.00006705 </v>
   <v>       0.33129020       0.00078476       0.00012168 </v>
   <v>       0.03665653       0.01876306      -0.00176098 </v>
   <v>       1.04021002       0.34398276      -0.00212284 </v>
   <v>       0.32771063       0.31211293       0.00018149 </v>
   <v>       0.63115984       0.31161305       0.00121741 </v>
   <v>       0.12017068       0.22391649       0.94212733 </v>
   <v>       0.22773400       0.11070658       0.05655238 </v>
   <v>       0.10957951       0.56063224       0.94622795 </v>
   <v>       0.23478405       0.44937804       0.05256231 </v>
   <v>       0.11148576       0.88516159       0.94426138 </v>
   <v>       0.21703036       0.77823063       0.05437615 </v>
   <v>       0.43978030       0.21748570       0.94382256 </v>
   <v>       0.55381363       0.10506483       0.05526238 </v>
   <v>       0.43999214       0.55403472       0.94987400 </v>
   <v>       0.55445321       0.44560499       0.05387242 </v>
   <v>       0.44708095       0.89212046       0.94618699 </v>
   <v>       0.55475532       0.78028441       0.05406984 </v>
   <v>       0.77815170       0.21675552       0.95571941 </v>
   <v>       0.88611741       0.10988434       0.04425527 </v>
   <v>       0.77730479       0.55904724       0.95740155 </v>
   <v>       0.89137490       0.44587573       0.04178751 </v>
   <v>       0.77484997       0.88811636       0.95742597 </v>
   <v>       0.88712684       0.77605069       0.04430043 </v>
  </varray>
 </structure>
</modeling>
