unknown system                          
           1
     8.857231    5.108715    0.000000
    -8.853139    5.101675    0.000000
     0.000000    0.000000   30.000000
   V    Mo   W    S 
   3   3   3  18
Direct configuration=     1
   0.66666669  0.00000000  0.00000000
   0.00000000  0.66666669  0.00000000
   0.66666669  0.66666669  0.00000000
   0.33333334  0.66666669  0.00000000
   0.33333334  0.00000000  0.00000000
   0.00000000  0.00000000  0.00000000
   1.00000000  0.33333334  0.00000000
   0.33333334  0.33333334  0.00000000
   0.66666669  0.33333334  0.00000000
   0.11068511  0.22244981  0.95539999
   0.22244981  0.11068511  0.04460000
   0.11068511  0.55578315  0.95539999
   0.22244981  0.44401845  0.04460000
   0.11068511  0.88911647  0.95539999
   0.22244981  0.77735180  0.04460000
   0.44401845  0.22244981  0.95539999
   0.55578315  0.11068511  0.04460000
   0.44401845  0.55578315  0.95539999
   0.55578315  0.44401845  0.04460000
   0.44401845  0.88911647  0.95539999
   0.55578315  0.77735180  0.04460000
   0.77735180  0.22244981  0.95539999
   0.88911647  0.11068511  0.04460000
   0.77735180  0.55578315  0.95539999
   0.88911647  0.44401845  0.04460000
   0.77735180  0.88911647  0.95539999
   0.88911647  0.77735180  0.04460000
unknown system                          
           1
     8.669072    5.002279    0.000000
    -8.665211    4.995638    0.000000
     0.000000    0.000000   30.000000
   V    Mo   W    S 
   3   3   3  18
Direct configuration=     2
   0.66549523 -0.00153643  0.00015992
   0.00190953  0.66899860 -0.00013976
   0.66710262  0.66820805 -0.00001716
   0.33337521  0.66810731 -0.00000356
   0.33198758 -0.00144612  0.00015270
   0.00109410 -0.00027561  0.00002575
   1.00129627  0.33322926 -0.00015753
   0.33193239  0.33197996 -0.00004388
   0.66547768  0.33224535 -0.00004798
   0.11151826  0.22308458  0.95065207
   0.22275265  0.11202047  0.04928159
   0.10798242  0.55692283  0.95196847
   0.22182804  0.44362301  0.04927939
   0.10865424  0.88414867  0.95188899
   0.21775848  0.77558078  0.04809811
   0.44482454  0.22304306  0.95075952
   0.55840601  0.10950681  0.04804302
   0.44830526  0.55665762  0.95200220
   0.55717358  0.44800822  0.04808769
   0.44881704  0.89095380  0.95194611
   0.55998617  0.77982256  0.04693422
   0.77601012  0.21851362  0.95194567
   0.88461858  0.10967206  0.04803700
   0.77928574  0.55896303  0.95312714
   0.89052438  0.44808318  0.04801666
   0.77328304  0.88679353  0.95312793
   0.88681528  0.77330627  0.04687562
unknown system                          
           1
     8.484062    4.900326    0.000000
    -8.482170    4.897088    0.000000
     0.000000    0.000000   30.000000
   V    Mo   W    S 
   3   3   3  18
Direct configuration=     3
   0.66507321 -0.00192313  0.00017269
   0.00256495  0.66969716 -0.00014824
   0.66716981  0.66854466 -0.00005858
   0.33315545  0.66833292 -0.00004443
   0.33165345 -0.00160732  0.00016634
   0.00197415  0.00028201  0.00006344
   1.00200855  0.33322150 -0.00011975
   0.33120380  0.33131791 -0.00004587
   0.66491925  0.33177825 -0.00003875
   0.11162297  0.22332781  0.95056259
   0.22289967  0.11224156  0.04938859
   0.10779451  0.55674107  0.95195005
   0.22172977  0.44338761  0.04927698
   0.10854545  0.88395678  0.95179368
   0.21759538  0.77549581  0.04819030
   0.44490956  0.22325362  0.95075253
   0.55855808  0.10967963  0.04806460
   0.44831401  0.55651677  0.95207616
   0.55713275  0.44786096  0.04800561
   0.44896907  0.89104491  0.95192179
   0.56008989  0.77992681  0.04695450
   0.77605842  0.21863824  0.95202315
   0.88462693  0.10983999  0.04798217
   0.77922307  0.55878276  0.95323258
   0.89046069  0.44793962  0.04786359
   0.77321381  0.88671507  0.95317526
   0.88674779  0.77322149  0.04683894
unknown system                          
           1
     8.275734    4.784775    0.000000
    -8.270059    4.774984    0.000000
     0.000000    0.000000   30.000000
   V    Mo   W    S 
   3   3   3  18
Direct configuration=     4
   0.66342623 -0.00293846  0.00014664
   0.00515233  0.67209714 -0.00012020
   0.66711911  0.66931663 -0.00021398
   0.33189210  0.66864024 -0.00018834
   0.33063953 -0.00156731  0.00014889
   0.00611799  0.00351950  0.00016954
   1.00515454  0.33309406  0.00006853
   0.32793199  0.32837058 -0.00004928
   0.66250084  0.32979354  0.00000960
   0.11160533  0.22333275  0.94850864
   0.22311829  0.11225797  0.05143953
   0.10709470  0.55722372  0.95041328
   0.22193088  0.44343720  0.05090194
   0.10785801  0.88262402  0.94999213
   0.21622200  0.77480403  0.04997990
   0.44468321  0.22313501  0.94909453
   0.55891857  0.10895594  0.04963026
   0.44938501  0.55705218  0.95096378
   0.55756845  0.44881227  0.04916470
   0.45024563  0.89182233  0.95042270
   0.56108626  0.78057324  0.04835872
   0.77560195  0.21759129  0.95086789
   0.88356514  0.10925007  0.04920770
   0.77980445  0.55967913  0.95230805
   0.89095114  0.44886585  0.04869865
   0.77246420  0.88623643  0.95209001
   0.88617655  0.77223509  0.04798606
unknown system                          
           1
     8.269447    4.789477    0.000000
    -8.258945    4.771321    0.000000
     0.000000    0.000000   30.000000
   V    Mo   W    S 
   3   3   3  18
Direct configuration=     5
   0.65971518 -0.00448947 -0.00004667
   0.00989788  0.67645623  0.00008268
   0.66720084  0.67045750 -0.00042465
   0.32933758  0.66925396 -0.00033493
   0.32926837 -0.00071857  0.00004261
   0.01444424  0.01053511  0.00022432
   1.01210276  0.33250011  0.00030912
   0.32108719  0.32201625 -0.00002781
   0.65706914  0.32582441  0.00012384
   0.11145941  0.22282372  0.94537961
   0.22350500  0.11186977  0.05452953
   0.10636764  0.55766070  0.94830900
   0.22301433  0.44428134  0.05313974
   0.10748624  0.88185198  0.94748550
   0.21505278  0.77450040  0.05242111
   0.44372397  0.22230198  0.94682687
   0.55838274  0.10730945  0.05185842
   0.44987293  0.55725319  0.94965614
   0.55735623  0.44963182  0.05056946
   0.45095932  0.89235604  0.94840358
   0.56145663  0.78096909  0.05036727
   0.77545651  0.21639606  0.94965875
   0.88287513  0.10830462  0.05077418
   0.78052238  0.56049111  0.95112371
   0.89144928  0.44968481  0.04934322
   0.77284331  0.88640400  0.95072862
   0.88630746  0.77228884  0.04947669
unknown system                          
           1
     8.270384    4.790302    0.000000
    -8.259531    4.771539    0.000000
     0.000000    0.000000   30.000000
   V    Mo   W    S 
   3   3   3  18
Direct configuration=     6
   0.65733758 -0.00535389 -0.00007176
   0.01165242  0.67837277  0.00009520
   0.66779370  0.67099996 -0.00051481
   0.32869445  0.66978254 -0.00029657
   0.32965639 -0.00022465  0.00010484
   0.01621362  0.01208503  0.00018823
   1.01476527  0.33224627  0.00022523
   0.31975517  0.32026011  0.00008214
   0.65390569  0.32415706  0.00020198
   0.11154218  0.22272324  0.94473500
   0.22385561  0.11166334  0.05504837
   0.10623672  0.55731286  0.94819006
   0.22402740  0.44472375  0.05343159
   0.10779770  0.88256776  0.94723425
   0.21536411  0.77496479  0.05267991
   0.44298583  0.22200867  0.94646028
   0.55768154  0.10669033  0.05211898
   0.44884987  0.55647551  0.94983050
   0.55633000  0.44906853  0.05055995
   0.45018941  0.89206430  0.94817345
   0.56092876  0.78083034  0.05044913
   0.77596160  0.21669403  0.94994048
   0.88362765  0.10825473  0.05068883
   0.78057683  0.56015655  0.95126585
   0.89140946  0.44895731  0.04883873
   0.77393245  0.88722872  0.95085404
   0.88714303  0.77350448  0.04948604
unknown system                          
           1
     8.260818    4.780296    0.000000
    -8.253259    4.767237    0.000000
     0.000000    0.000000   30.000000
   V    Mo   W    S 
   3   3   3  18
Direct configuration=     7
   0.65673378 -0.00560229 -0.00008008
   0.01207556  0.67890833  0.00009373
   0.66802552  0.67117869 -0.00055633
   0.32853114  0.66993532 -0.00029458
   0.32978591 -0.00014304  0.00010965
   0.01661772  0.01237074  0.00018713
   1.01545627  0.33223663  0.00022344
   0.31949406  0.31984756  0.00008520
   0.65302412  0.32375161  0.00021149
   0.11162093  0.22272348  0.94464511
   0.22390051  0.11160067  0.05511630
   0.10621614  0.55725922  0.94819389
   0.22420026  0.44478704  0.05345543
   0.10787870  0.88268380  0.94720617
   0.21540026  0.77504365  0.05271704
   0.44285080  0.22195005  0.94639921
   0.55756801  0.10659160  0.05217156
   0.44867904  0.55633844  0.94991142
   0.55615321  0.44897837  0.05055780
   0.45004332  0.89199901  0.94814072
   0.56084062  0.78081095  0.05044195
   0.77604955  0.21677931  0.95004362
   0.88374894  0.10826836  0.05063091
   0.78058713  0.56006324  0.95133523
   0.89135503  0.44877784  0.04867469
   0.77409487  0.88738116  0.95091068
   0.88728306  0.77369470  0.04946850
unknown system                          
           1
     8.260429    4.782803    0.000000
    -8.251766    4.767828    0.000000
     0.000000    0.000000   30.000000
   V    Mo   W    S 
   3   3   3  18
Direct configuration=     8
   0.65958033 -0.00437191 -0.00007813
   0.01094294  0.67689533  0.00009914
   0.66684137  0.67004659 -0.00036534
   0.32854834  0.66884879 -0.00031502
   0.32838502 -0.00067483  0.00005262
   0.01556588  0.01148886  0.00019163
   1.01295973  0.33238321  0.00026746
   0.32002952  0.32129095  0.00002259
   0.65691069  0.32562003  0.00007293
   0.11130810  0.22278448  0.94492261
   0.22372818  0.11183331  0.05494496
   0.10626346  0.55748803  0.94816002
   0.22340986  0.44456163  0.05341653
   0.10756568  0.88227029  0.94737316
   0.21517812  0.77479543  0.05254827
   0.44347695  0.22227337  0.94673623
   0.55782957  0.10694234  0.05198109
   0.44911786  0.55673959  0.94953504
   0.55667535  0.44919014  0.05056768
   0.45031826  0.89221157  0.94826102
   0.56099109  0.78073224  0.05053678
   0.77586671  0.21647161  0.94953307
   0.88353997  0.10828124  0.05093489
   0.78066081  0.56051451  0.95105721
   0.89176911  0.44958308  0.04940787
   0.77382982  0.88682800  0.95066289
   0.88692175  0.77318657  0.04947269
unknown system                          
           1
     8.252499    4.778847    0.000000
    -8.243682    4.763605    0.000000
     0.000000    0.000000   30.000000
   V    Mo   W    S 
   3   3   3  18
Direct configuration=     9
   0.66150041 -0.00352618 -0.00010194
   0.01041078  0.67518598  0.00013331
   0.66516726  0.66884889 -0.00022522
   0.32853951  0.66768804 -0.00034267
   0.32723132 -0.00068417  0.00011046
   0.01559101  0.01202098  0.00019869
   1.01134017  0.33221599  0.00027166
   0.31979600  0.32217032  0.00005659
   0.66012312  0.32672120  0.00007435
   0.11104497  0.22283500  0.94480901
   0.22382533  0.11214612  0.05510350
   0.10613426  0.55738798  0.94794944
   0.22317515  0.44452050  0.05359281
   0.10732531  0.88231828  0.94725041
   0.21529308  0.77496617  0.05261931
   0.44357921  0.22250517  0.94688436
   0.55770039  0.10696416  0.05173952
   0.44881492  0.55662516  0.94924192
   0.55646998  0.44885951  0.05051961
   0.45011463  0.89226243  0.94843529
   0.56077837  0.78068923  0.05055664
   0.77607419  0.21625323  0.94914194
   0.88385875  0.10830026  0.05119330
   0.78083206  0.56086030  0.95084407
   0.89221364  0.44988118  0.04992000
   0.77414796  0.88661805  0.95060970
   0.88713267  0.77358067  0.04941383
unknown system                          
           1
     8.257333    4.782585    0.000000
    -8.247938    4.766342    0.000000
     0.000000    0.000000   30.000000
   V    Mo   W    S 
   3   3   3  18
Direct configuration=    10
   0.65940975 -0.00446644 -0.00016321
   0.01179188  0.67688321  0.00010624
   0.66546628  0.66937537 -0.00036967
   0.32817650  0.66810914 -0.00031556
   0.32752632 -0.00025684  0.00008213
   0.01743501  0.01350438  0.00017689
   1.01360958  0.33210696  0.00021172
   0.31854059  0.32062086  0.00007331
   0.65762619  0.32531896  0.00006649
   0.11139634  0.22294972  0.94453476
   0.22400681  0.11210520  0.05532084
   0.10610803  0.55711315  0.94798002
   0.22366202  0.44467299  0.05365921
   0.10760812  0.88277665  0.94720076
   0.21549846  0.77520232  0.05272300
   0.44318183  0.22240532  0.94677873
   0.55738994  0.10657276  0.05188012
   0.44819655  0.55611385  0.94951189
   0.55586077  0.44843743  0.05045857
   0.44967229  0.89208105  0.94843122
   0.56046038  0.78070910  0.05048313
   0.77636689  0.21647934  0.94953745
   0.88423907  0.10836799  0.05097488
   0.78079604  0.56046986  0.95114569
   0.89198908  0.44917165  0.04936232
   0.77463084  0.88711411  0.95089002
   0.88756889  0.77427637  0.04925896
unknown system                          
           1
     8.266513    4.791534    0.000000
    -8.254706    4.771114    0.000000
     0.000000    0.000000   30.000000
   V    Mo   W    S 
   3   3   3  18
Direct configuration=    11
   0.65879183 -0.00474418 -0.00016718
   0.01216323  0.67734363  0.00010914
   0.66552391  0.66949768 -0.00040150
   0.32810298  0.66823761 -0.00030316
   0.32767868 -0.00013648  0.00010451
   0.01785340  0.01382523  0.00017617
   1.01422241  0.33210192  0.00021009
   0.31832188  0.32029187  0.00009917
   0.65685668  0.32490549  0.00008681
   0.11146607  0.22295838  0.94441903
   0.22407202  0.11207800  0.05540378
   0.10608766  0.55706139  0.94796292
   0.22380430  0.44471861  0.05369792
   0.10766483  0.88287728  0.94715054
   0.21553184  0.77526585  0.05276738
   0.44306220  0.22236613  0.94670333
   0.55730848  0.10645981  0.05193397
   0.44805729  0.55599428  0.94955771
   0.55573011  0.44836416  0.05045993
   0.44956180  0.89204302  0.94839409
   0.56040686  0.78071855  0.05048749
   0.77643527  0.21651125  0.94961452
   0.88431566  0.10836695  0.05092636
   0.78080792  0.56040271  0.95120420
   0.89196161  0.44902401  0.04922511
   0.77475319  0.88724304  0.95094577
   0.88767234  0.77443827  0.04923179
unknown system                          
           1
     8.251623    4.773531    0.000000
    -8.248002    4.767274    0.000000
     0.000000    0.000000   30.000000
   V    Mo   W    S 
   3   3   3  18
Direct configuration=    12
   0.65604147 -0.00597155 -0.00018458
   0.01384991  0.67951610  0.00011358
   0.66603488  0.67009303 -0.00056267
   0.32764137  0.66883069 -0.00026874
   0.32841682  0.00029274  0.00017554
   0.01954036  0.01499816  0.00016194
   1.01705251  0.33218930  0.00019036
   0.31753114  0.31889178  0.00017154
   0.65312568  0.32310910  0.00016181
   0.11180841  0.22299763  0.94404643
   0.22431231  0.11192739  0.05568312
   0.10603353  0.55688970  0.94796005
   0.22443605  0.44491056  0.05380074
   0.10793613  0.88325649  0.94699762
   0.21562248  0.77548052  0.05291358
   0.44257169  0.22218277  0.94640992
   0.55699137  0.10607557  0.05217438
   0.44752084  0.55552919  0.94982451
   0.55523499  0.44810176  0.05046134
   0.44908366  0.89182053  0.94823495
   0.56018605  0.78070897  0.05048871
   0.77669008  0.21673932  0.95002018
   0.88465375  0.10840452  0.05066236
   0.78082808  0.56005766  0.95149947
   0.89176448  0.44838473  0.04855242
   0.77522329  0.88777384  0.95119958
   0.88808312  0.77502397  0.04911177
unknown system                          
           1
     8.247189    4.773266    0.000000
    -8.241533    4.763487    0.000000
     0.000000    0.000000   30.000000
   V    Mo   W    S 
   3   3   3  18
Direct configuration=    13
   0.66404250 -0.00233299 -0.00013748
   0.00945974  0.67308705  0.00014765
   0.66391454  0.66780945 -0.00003669
   0.32815790  0.66625004 -0.00030697
   0.32583903 -0.00053447  0.00006169
   0.01566188  0.01302153  0.00019274
   1.00985129  0.33180795  0.00032716
   0.31867976  0.32259599  0.00005210
   0.66431732  0.32827977 -0.00005464
   0.11090390  0.22300773  0.94480219
   0.22376999  0.11257634  0.05513785
   0.10623151  0.55729962  0.94786919
   0.22256413  0.44429438  0.05356540
   0.10711304  0.88241172  0.94736776
   0.21539883  0.77502527  0.05249044
   0.44400103  0.22299914  0.94726488
   0.55756136  0.10686336  0.05150947
   0.44845564  0.55636983  0.94902475
   0.55614640  0.44834361  0.05031209
   0.45002791  0.89238718  0.94866684
   0.56051436  0.78071725  0.05050958
   0.77620987  0.21598621  0.94868311
   0.88415366  0.10830469  0.05151535
   0.78083281  0.56113991  0.95067745
   0.89265988  0.45007439  0.05052189
   0.77445787  0.88639293  0.95055632
   0.88728828  0.77403657  0.04927977
unknown system                          
           1
     8.252750    4.780078    0.000000
    -8.244999    4.766673    0.000000
     0.000000    0.000000   30.000000
   V    Mo   W    S 
   3   3   3  18
Direct configuration=    14
   0.66628455 -0.00135473 -0.00018996
   0.00845796  0.67118356  0.00013572
   0.66268509  0.66715826  0.00011416
   0.32838692  0.66538006 -0.00040202
   0.32440762 -0.00081783 -0.00001177
   0.01556053  0.01340403  0.00018863
   1.00744351  0.33150500  0.00020821
   0.31807073  0.32318271 -0.00000107
   0.66879156  0.32973903 -0.00008716
   0.11063746  0.22315036  0.94481801
   0.22374445  0.11293650  0.05512869
   0.10616618  0.55712087  0.94784068
   0.22214889  0.44418991  0.05370985
   0.10675977  0.88229133  0.94748698
   0.21542478  0.77500171  0.05240073
   0.44438342  0.22343231  0.94763291
   0.55779107  0.10705813  0.05120811
   0.44843724  0.55637589  0.94884030
   0.55615638  0.44801274  0.05015724
   0.45008292  0.89251274  0.94898280
   0.56046015  0.78076688  0.05046729
   0.77629253  0.21575152  0.94835370
   0.88416517  0.10837220  0.05178429
   0.78087559  0.56135996  0.95051783
   0.89300022  0.45033111  0.05106343
   0.77437732  0.88607126  0.95049379
   0.88722245  0.77409895  0.04915853
unknown system                          
           1
     8.258969    4.790718    0.000000
    -8.247326    4.770575    0.000000
     0.000000    0.000000   30.000000
   V    Mo   W    S 
   3   3   3  18
Direct configuration=    15
   0.66526975 -0.00187876 -0.00019297
   0.00943688  0.67204862  0.00013022
   0.66220276  0.66749225  0.00006320
   0.32827028  0.66537362 -0.00036846
   0.32358687 -0.00093642  0.00002483
   0.01727898  0.01470479  0.00019609
   1.00823238  0.33147236  0.00018918
   0.31661652  0.32220575  0.00006627
   0.66911649  0.32927589 -0.00000412
   0.11077176  0.22328557  0.94448379
   0.22397054  0.11303116  0.05535125
   0.10607446  0.55690563  0.94779449
   0.22230138  0.44421863  0.05382506
   0.10665766  0.88244633  0.94740348
   0.21549618  0.77510513  0.05246005
   0.44433289  0.22365199  0.94769258
   0.55774933  0.10686308  0.05118556
   0.44803044  0.55597296  0.94894827
   0.55575204  0.44746778  0.05000158
   0.44973949  0.89245591  0.94905372
   0.56023485  0.78081132  0.05043494
   0.77653773  0.21573056  0.94845707
   0.88439304  0.10845018  0.05165703
   0.78096522  0.56112663  0.95071485
   0.89304240  0.44999517  0.05081683
   0.77468618  0.88638549  0.95068030
   0.88746796  0.77455285  0.04893481
unknown system                          
           1
     8.264985    4.795630    0.000000
    -8.251582    4.772445    0.000000
     0.000000    0.000000   30.000000
   V    Mo   W    S 
   3   3   3  18
Direct configuration=    16
   0.66278094 -0.00325179 -0.00022822
   0.01141358  0.67391330  0.00004345
   0.66053464  0.66816189 -0.00000960
   0.32848197  0.66542129 -0.00034931
   0.32180087 -0.00098811  0.00007211
   0.02085950  0.01746731  0.00010379
   1.00988345  0.33114134  0.00006701
   0.31317344  0.32024002  0.00016986
   0.67077741  0.32829553  0.00004036
   0.11097867  0.22354985  0.94391279
   0.22454192  0.11326816  0.05587403
   0.10609540  0.55658872  0.94775534
   0.22239343  0.44421869  0.05402033
   0.10655104  0.88290844  0.94721666
   0.21566717  0.77535920  0.05260367
   0.44427360  0.22407837  0.94806438
   0.55738242  0.10622227  0.05112622
   0.44711117  0.55505336  0.94917573
   0.55492008  0.44636782  0.04952146
   0.44887983  0.89242921  0.94922728
   0.55974553  0.78083514  0.05044095
   0.77693781  0.21536886  0.94860236
   0.88497168  0.10853062  0.05132056
   0.78109225  0.56071554  0.95119051
   0.89356493  0.44965742  0.05050466
   0.77545420  0.88704026  0.95114269
   0.88794753  0.77562176  0.04839082
unknown system                          
           1
     8.268652    4.800771    0.000000
    -8.252773    4.773307    0.000000
     0.000000    0.000000   30.000000
   V    Mo   W    S 
   3   3   3  18
Direct configuration=    17
   0.66163265 -0.00388076 -0.00021900
   0.01191418  0.67456579  0.00004977
   0.66031704  0.66827460 -0.00001115
   0.32851874  0.66560380 -0.00033278
   0.32186516 -0.00107253  0.00014184
   0.02110765  0.01731009  0.00010040
   1.01053583  0.33140038  0.00007347
   0.31306381  0.32024820  0.00024773
   0.67067167  0.32807899  0.00006426
   0.11099553  0.22349520  0.94382010
   0.22463335  0.11328869  0.05591813
   0.10617818  0.55668857  0.94777473
   0.22248706  0.44428789  0.05403221
   0.10665909  0.88296345  0.94713112
   0.21561972  0.77536365  0.05261325
   0.44420470  0.22407047  0.94807643
   0.55723362  0.10613883  0.05120570
   0.44700501  0.55492964  0.94918399
   0.55486027  0.44636170  0.04945825
   0.44868522  0.89238733  0.94912291
   0.55966560  0.78074975  0.05054069
   0.77693005  0.21520708  0.94860883
   0.88503138  0.10845009  0.05120988
   0.78110974  0.56072675  0.95126600
   0.89372592  0.44976708  0.05041555
   0.77557347  0.88711735  0.95118003
   0.88798982  0.77569237  0.04832758
unknown system                          
           1
     8.264452    4.796305    0.000000
    -8.250239    4.771720    0.000000
     0.000000    0.000000   30.000000
   V    Mo   W    S 
   3   3   3  18
Direct configuration=    18
   0.65959022 -0.00501309 -0.00022200
   0.01292641  0.67575241  0.00000637
   0.65947834  0.66860701 -0.00004711
   0.32881819  0.66583851 -0.00031801
   0.32140081 -0.00118580  0.00019116
   0.02250984  0.01801017  0.00004892
   1.01154691  0.33151398  0.00002274
   0.31179861  0.31969250  0.00030201
   0.67135053  0.32756133  0.00006084
   0.11110653  0.22352107  0.94363141
   0.22487265  0.11339071  0.05609960
   0.10628096  0.55669475  0.94778933
   0.22258051  0.44438715  0.05410717
   0.10679263  0.88317694  0.94701242
   0.21563900  0.77543991  0.05267410
   0.44416774  0.22423127  0.94826702
   0.55701940  0.10589729  0.05125387
   0.44662548  0.55455610  0.94926601
   0.55459303  0.44600973  0.04924177
   0.44824201  0.89233411  0.94908432
   0.55941009  0.78067500  0.05063874
   0.77702158  0.21489922  0.94868280
   0.88523316  0.10839221  0.05095744
   0.78115132  0.56061910  0.95150514
   0.89405973  0.44979957  0.05026023
   0.77585540  0.88736120  0.95138416
   0.88814336  0.77605212  0.04809946
unknown system                          
           1
     8.263309    4.793888    0.000000
    -8.250748    4.772158    0.000000
     0.000000    0.000000   30.000000
   V    Mo   W    S 
   3   3   3  18
Direct configuration=    19
   0.66058467 -0.00445332 -0.00022652
   0.01235993  0.67517400  0.00002291
   0.66002050  0.66847451 -0.00004231
   0.32871100  0.66579059 -0.00033378
   0.32180967 -0.00106646  0.00015069
   0.02173913  0.01762962  0.00007163
   1.01109909  0.33142430  0.00003707
   0.31251554  0.31995488  0.00024081
   0.67068036  0.32772816  0.00004641
   0.11108702  0.22350926  0.94377182
   0.22471897  0.11330617  0.05599474
   0.10624068  0.55670146  0.94779403
   0.22255977  0.44434663  0.05406100
   0.10676342  0.88307834  0.94708384
   0.21563215  0.77540041  0.05264811
   0.44415049  0.22410169  0.94815423
   0.55712400  0.10602173  0.05124382
   0.44683974  0.55476542  0.94924491
   0.55475273  0.44624592  0.04937456
   0.44849503  0.89236035  0.94909901
   0.55956242  0.78071283  0.05058366
   0.77695266  0.21509165  0.94868230
   0.88512615  0.10842555  0.05107570
   0.78110707  0.56066328  0.95138857
   0.89385363  0.44976374  0.05031578
   0.77568106  0.88721892  0.95128284
   0.88804757  0.77584482  0.04823407
unknown system                          
           1
     8.264030    4.795780    0.000000
    -8.250391    4.772183    0.000000
     0.000000    0.000000   30.000000
   V    Mo   W    S 
   3   3   3  18
Direct configuration=    20
   0.66162759 -0.00390396 -0.00022956
   0.01182341  0.67461700  0.00004901
   0.66053100  0.66834499 -0.00003198
   0.32857887  0.66570035 -0.00033751
   0.32212849 -0.00091297  0.00013011
   0.02110632  0.01739765  0.00010333
   1.01072977  0.33132214  0.00006080
   0.31312474  0.32012250  0.00021201
   0.66998073  0.32788832  0.00005610
   0.11105881  0.22351009  0.94385029
   0.22459366  0.11323489  0.05591761
   0.10618881  0.55668689  0.94778684
   0.22254682  0.44428212  0.05401855
   0.10669680  0.88298748  0.94713924
   0.21562951  0.77536918  0.05262235
   0.44410980  0.22397642  0.94801762
   0.55719898  0.10610743  0.05123453
   0.44704226  0.55493383  0.94922627
   0.55486302  0.44646403  0.04949551
   0.44871957  0.89239499  0.94911372
   0.55972662  0.78074630  0.05052442
   0.77691825  0.21529600  0.94866873
   0.88505314  0.10847104  0.05121093
   0.78106521  0.56070736  0.95127127
   0.89365698  0.44969283  0.05035599
   0.77555503  0.88708734  0.95118325
   0.88796022  0.77569020  0.04835046
unknown system                          
           1
     8.264731    4.796190    0.000000
    -8.250831    4.772145    0.000000
     0.000000    0.000000   30.000000
   V    Mo   W    S 
   3   3   3  18
Direct configuration=    21
   0.66052102 -0.00446616 -0.00023493
   0.01229615  0.67530763  0.00003541
   0.66038889  0.66859128 -0.00006464
   0.32875071  0.66597396 -0.00032374
   0.32225045 -0.00076119  0.00016134
   0.02168526  0.01772116  0.00007942
   1.01143522  0.33131776  0.00004873
   0.31271316  0.31972543  0.00026475
   0.66946362  0.32731067  0.00007579
   0.11112548  0.22350102  0.94373811
   0.22469876  0.11325017  0.05599972
   0.10623120  0.55667678  0.94780992
   0.22266452  0.44433349  0.05403261
   0.10680233  0.88313613  0.94709674
   0.21566478  0.77540550  0.05264382
   0.44399733  0.22395931  0.94801142
   0.55709076  0.10594724  0.05128192
   0.44686995  0.55475175  0.94928106
   0.55471740  0.44636141  0.04943573
   0.44855827  0.89237254  0.94908387
   0.55966293  0.78075172  0.05056270
   0.77694106  0.21521379  0.94876273
   0.88513782  0.10845819  0.05109245
   0.78105181  0.56061297  0.95137646
   0.89371877  0.44960426  0.05019510
   0.77571675  0.88726065  0.95127363
   0.88806005  0.77589698  0.04827979
unknown system                          
           1
     8.263791    4.795363    0.000000
    -8.250240    4.771921    0.000000
     0.000000    0.000000   30.000000
   V    Mo   W    S 
   3   3   3  18
Direct configuration=    22
   0.66112455 -0.00427180 -0.00022376
   0.01202901  0.67481296  0.00003396
   0.66001081  0.66839311 -0.00000572
   0.32879263  0.66570002 -0.00032699
   0.32170543 -0.00109931  0.00015729
   0.02152870  0.01759495  0.00008434
   1.01079184  0.33135284  0.00005301
   0.31263916  0.32009200  0.00026954
   0.67097581  0.32804457  0.00006707
   0.11100856  0.22349177  0.94379014
   0.22468995  0.11332952  0.05594038
   0.10622485  0.55668575  0.94777779
   0.22250162  0.44429068  0.05404102
   0.10668764  0.88301986  0.94710032
   0.21565839  0.77538526  0.05263210
   0.44417414  0.22408308  0.94814739
   0.55716835  0.10609954  0.05118606
   0.44696719  0.55486034  0.94921490
   0.55481012  0.44633791  0.04938274
   0.44857866  0.89237613  0.94913204
   0.55963971  0.78068616  0.05054304
   0.77696404  0.21515586  0.94863907
   0.88509178  0.10843862  0.05114639
   0.78108858  0.56074034  0.95131568
   0.89383531  0.44977783  0.05039604
   0.77559166  0.88708124  0.95124353
   0.88793594  0.77575525  0.04826253
unknown system                          
           1
     8.270617    4.802390    0.000000
    -8.254303    4.774171    0.000000
     0.000000    0.000000   30.000000
   V    Mo   W    S 
   3   3   3  18
Direct configuration=    23
   0.66106821 -0.00424359 -0.00022361
   0.01205114  0.67491357  0.00004022
   0.66025294  0.66844064 -0.00002491
   0.32872778  0.66576296 -0.00031975
   0.32200754 -0.00092409  0.00016158
   0.02146858  0.01759553  0.00009053
   1.01098606  0.33134140  0.00005941
   0.31279685  0.31999676  0.00027353
   0.67022039  0.32775947  0.00007631
   0.11104332  0.22349097  0.94378452
   0.22467366  0.11328900  0.05594282
   0.10621081  0.55667776  0.94778192
   0.22256634  0.44429483  0.05402489
   0.10672414  0.88304949  0.94710351
   0.21566202  0.77539239  0.05263487
   0.44410482  0.22401413  0.94806085
   0.55714976  0.10605963  0.05122801
   0.44696696  0.55485845  0.94923826
   0.55480099  0.44638901  0.04942425
   0.44860734  0.89237351  0.94910993
   0.55967210  0.78071336  0.05053294
   0.77694833  0.21521044  0.94868165
   0.88509927  0.10845590  0.05114551
   0.78106789  0.56069820  0.95132086
   0.89374672  0.44969620  0.05032169
   0.77561883  0.88713105  0.95123949
   0.88797168  0.77577747  0.04829062
unknown system                          
           1
     8.270705    4.802491    0.000000
    -8.254329    4.774165    0.000000
     0.000000    0.000000   30.000000
   V    Mo   W    S 
   3   3   3  18
Direct configuration=    24
   0.65856080 -0.00555101 -0.00022031
   0.01322056  0.67636075  0.00000153
   0.65955709  0.66877946 -0.00008719
   0.32898758  0.66615747 -0.00030341
   0.32176476 -0.00106280  0.00021373
   0.02276147  0.01798547  0.00003567
   1.01219936  0.33159936  0.00002434
   0.31178054  0.31949870  0.00032224
   0.67046961  0.32708057  0.00006431
   0.11118421  0.22347530  0.94359082
   0.22490719  0.11335367  0.05612681
   0.10632456  0.55673175  0.94781821
   0.22272795  0.44446993  0.05410710
   0.10695472  0.88327793  0.94698228
   0.21564014  0.77544627  0.05269074
   0.44404676  0.22416026  0.94820865
   0.55694613  0.10581948  0.05133754
   0.44656953  0.55448287  0.94930575
   0.55455325  0.44606126  0.04925272
   0.44815340  0.89230153  0.94899505