   27   27  100    1
  0.9710400E+02  0.1002848E-08  0.1002848E-08  0.3000000E-08  0.5000000E-15
  1.000000000000000E-004
  CAR 
 unknown system                          
    159     34    120
 
  0.0000000E+00  0.0000000E+00  0.0000000E+00  0.1562500E-01
    1      -17.862268   1.000000
    2      -16.799433   1.000000
    3      -16.687236   1.000000
    4      -16.604489   1.000000
    5      -16.579057   1.000000
    6      -16.428844   1.000000
    7      -16.356366   1.000000
    8      -16.342912   1.000000
    9      -16.236315   1.000000
   10      -16.135132   1.000000
   11      -16.084140   1.000000
   12      -15.982349   1.000000
   13      -15.868660   1.000000
   14      -15.632710   1.000000
   15      -15.578184   1.000000
   16      -15.463646   1.000000
   17      -15.224055   1.000000
   18      -15.182579   1.000000
   19       -9.480005   1.000000
   20       -9.060756   1.000000
   21       -9.029434   1.000000
   22       -8.925955   1.000000
   23       -8.760870   1.000000
   24       -8.705674   1.000000
   25       -8.640527   1.000000
   26       -8.572075   1.000000
   27       -8.485223   1.000000
   28       -8.454830   1.000000
   29       -8.410782   1.000000
   30       -8.363167   1.000000
   31       -8.229070   1.000000
   32       -8.194986   1.000000
   33       -8.149664   1.000000
   34       -8.050609   1.000000
   35       -7.814371   1.000000
   36       -7.770287   1.000000
   37       -7.638824   1.000000
   38       -7.614564   1.000000
   39       -7.505799   1.000000
   40       -7.367038   1.000000
   41       -7.301324   1.000000
   42       -7.206642   1.000000
   43       -7.080864   1.000000
   44       -6.956727   1.000000
   45       -6.831016   1.000000
   46       -6.827520   1.000000
   47       -6.752187   1.000000
   48       -6.717376   1.000000
   49       -6.647228   1.000000
   50       -6.511556   1.000000
   51       -6.398425   1.000000
   52       -6.247238   1.000000
   53       -6.209720   1.000000
   54       -6.172169   1.000000
   55       -6.117061   1.000000
   56       -6.030074   1.000000
   57       -5.975426   1.000000
   58       -5.872923   1.000000
   59       -5.848630   1.000000
   60       -5.725248   1.000000
   61       -5.619668   1.000000
   62       -5.336025   1.000000
   63       -5.286807   1.000000
   64       -5.041970   1.000000
   65       -4.983176   1.000000
   66       -4.895855   1.000000
   67       -4.846845   1.000000
   68       -4.784334   1.000000
   69       -4.745265   1.000000
   70       -4.712202   1.000000
   71       -4.647858   1.000000
   72       -4.619009   1.000000
   73       -4.409518   1.000000
   74       -4.356481   1.000000
   75       -4.286521   1.000000
   76       -3.985775   1.000000
   77       -3.751902   0.999927
   78       -3.576356   0.994729
   79       -3.519067   0.984319
   80       -3.177992   0.397699
   81       -3.124641   0.262208
   82       -2.844730   0.004451
   83       -2.685838   0.000092
   84       -2.664684   0.000050
   85       -2.514401   0.000000
   86       -2.502149   0.000000
   87       -2.272331   0.000000
   88       -2.214694   0.000000
   89       -2.191013   0.000000
   90       -1.944208   0.000000
   91       -1.748533   0.000000
   92       -1.604533   0.000000
   93       -1.484287   0.000000
   94       -1.181703   0.000000
   95       -1.122583   0.000000
   96       -1.018926   0.000000
   97       -0.957460   0.000000
   98       -0.872442   0.000000
   99       -0.805913   0.000000
  100       -0.621807   0.000000
  101       -0.539928   0.000000
  102       -0.486774   0.000000
  103       -0.375714   0.000000
  104       -0.225848   0.000000
  105       -0.128532   0.000000
  106       -0.065587   0.000000
  107       -0.017750   0.000000
  108        0.028101   0.000000
  109        0.133113   0.000000
  110        0.187140   0.000000
  111        0.436841   0.000000
  112        0.548994   0.000000
  113        0.615375   0.000000
  114        0.894437   0.000000
  115        0.975357   0.000000
  116        1.033406   0.000000
  117        1.144223   0.000000
  118        1.650648   0.000000
  119        1.843267   0.000000
  120        2.171492   0.000000
 
  0.1250000E+00  0.2775558E-16  0.0000000E+00  0.3125000E-01
    1      -17.837999   1.000000
    2      -16.830636   1.000000
    3      -16.778206   1.000000
    4      -16.611987   1.000000
    5      -16.543772   1.000000
    6      -16.441695   1.000000
    7      -16.380587   1.000000
    8      -16.324824   1.000000
    9      -16.266803   1.000000
   10      -16.058944   1.000000
   11      -16.017894   1.000000
   12      -16.002074   1.000000
   13      -15.834672   1.000000
   14      -15.632723   1.000000
   15      -15.572772   1.000000
   16      -15.469335   1.000000
   17      -15.247693   1.000000
   18      -15.184088   1.000000
   19       -9.488411   1.000000
   20       -9.154884   1.000000
   21       -9.110134   1.000000
   22       -9.040982   1.000000
   23       -8.784593   1.000000
   24       -8.700822   1.000000
   25       -8.633841   1.000000
   26       -8.572226   1.000000
   27       -8.505242   1.000000
   28       -8.494270   1.000000
   29       -8.389524   1.000000
   30       -8.308691   1.000000
   31       -8.203509   1.000000
   32       -8.073822   1.000000
   33       -8.006460   1.000000
   34       -7.912407   1.000000
   35       -7.842877   1.000000
   36       -7.764071   1.000000
   37       -7.701314   1.000000
   38       -7.494377   1.000000
   39       -7.437918   1.000000
   40       -7.404582   1.000000
   41       -7.333468   1.000000
   42       -7.198310   1.000000
   43       -7.129779   1.000000
   44       -6.998176   1.000000
   45       -6.888213   1.000000
   46       -6.855799   1.000000
   47       -6.740016   1.000000
   48       -6.681971   1.000000
   49       -6.617054   1.000000
   50       -6.539980   1.000000
   51       -6.387805   1.000000
   52       -6.270837   1.000000
   53       -6.233522   1.000000
   54       -6.168067   1.000000
   55       -6.126996   1.000000
   56       -6.028042   1.000000
   57       -5.972565   1.000000
   58       -5.850549   1.000000
   59       -5.770623   1.000000
   60       -5.665744   1.000000
   61       -5.571086   1.000000
   62       -5.358807   1.000000
   63       -5.307617   1.000000
   64       -5.211997   1.000000
   65       -5.054707   1.000000
   66       -5.005395   1.000000
   67       -4.881672   1.000000
   68       -4.864109   1.000000
   69       -4.768247   1.000000
   70       -4.642168   1.000000
   71       -4.579476   1.000000
   72       -4.477204   1.000000
   73       -4.372353   1.000000
   74       -4.296604   1.000000
   75       -4.277861   1.000000
   76       -3.904554   0.999999
   77       -3.811521   0.999988
   78       -3.674043   0.999420
   79       -3.483998   0.971576
   80       -3.388272   0.890201
   81       -2.944391   0.027995
   82       -2.855218   0.005516
   83       -2.703550   0.000151
   84       -2.637411   0.000022
   85       -2.510690   0.000000
   86       -2.496247   0.000000
   87       -2.276646   0.000000
   88       -2.185626   0.000000
   89       -2.155238   0.000000
   90       -1.947942   0.000000
   91       -1.751169   0.000000
   92       -1.585243   0.000000
   93       -1.467552   0.000000
   94       -1.182931   0.000000
   95       -1.123582   0.000000
   96       -1.007953   0.000000
   97       -0.965465   0.000000
   98       -0.876210   0.000000
   99       -0.813660   0.000000
  100       -0.661132   0.000000
  101       -0.595893   0.000000
  102       -0.553598   0.000000
  103       -0.458224   0.000000
  104       -0.310737   0.000000
  105       -0.191667   0.000000
  106       -0.130765   0.000000
  107       -0.052788   0.000000
  108        0.072597   0.000000
  109        0.165143   0.000000
  110        0.227522   0.000000
  111        0.431676   0.000000
  112        0.547269   0.000000
  113        0.630628   0.000000
  114        0.811258   0.000000
  115        0.996602   0.000000
  116        1.099164   0.000000
  117        1.236347   0.000000
  118        1.695836   0.000000
  119        1.882574   0.000000
  120        2.207013   0.000000
 
  0.2500000E+00  0.5551115E-16  0.0000000E+00  0.3125000E-01
    1      -17.767499   1.000000
    2      -17.017657   1.000000
    3      -16.776732   1.000000
    4      -16.644558   1.000000
    5      -16.595738   1.000000
    6      -16.480298   1.000000
    7      -16.365096   1.000000
    8      -16.278183   1.000000
    9      -16.218509   1.000000
   10      -16.049626   1.000000
   11      -15.977360   1.000000
   12      -15.913636   1.000000
   13      -15.775222   1.000000
   14      -15.615198   1.000000
   15      -15.557672   1.000000
   16      -15.475806   1.000000
   17      -15.298948   1.000000
   18      -15.200402   1.000000
   19       -9.601729   1.000000
   20       -9.335492   1.000000
   21       -9.206404   1.000000
   22       -9.108854   1.000000
   23       -8.887293   1.000000
   24       -8.723528   1.000000
   25       -8.632890   1.000000
   26       -8.549964   1.000000
   27       -8.486685   1.000000
   28       -8.450189   1.000000
   29       -8.354936   1.000000
   30       -8.256173   1.000000
   31       -8.084674   1.000000
   32       -8.043992   1.000000
   33       -7.951488   1.000000
   34       -7.819492   1.000000
   35       -7.744333   1.000000
   36       -7.607866   1.000000
   37       -7.576186   1.000000
   38       -7.541904   1.000000
   39       -7.432430   1.000000
   40       -7.390070   1.000000
   41       -7.300469   1.000000
   42       -7.202047   1.000000
   43       -7.130657   1.000000
   44       -7.026287   1.000000
   45       -6.951536   1.000000
   46       -6.840780   1.000000
   47       -6.762378   1.000000
   48       -6.679707   1.000000
   49       -6.541604   1.000000
   50       -6.506922   1.000000
   51       -6.367859   1.000000
   52       -6.302827   1.000000
   53       -6.269427   1.000000
   54       -6.192785   1.000000
   55       -6.098584   1.000000
   56       -6.072196   1.000000
   57       -5.862077   1.000000
   58       -5.815374   1.000000
   59       -5.757457   1.000000
   60       -5.683347   1.000000
   61       -5.525704   1.000000
   62       -5.503301   1.000000
   63       -5.443044   1.000000
   64       -5.248150   1.000000
   65       -5.176621   1.000000
   66       -5.115844   1.000000
   67       -5.004640   1.000000
   68       -4.857888   1.000000
   69       -4.761641   1.000000
   70       -4.596167   1.000000
   71       -4.444233   1.000000
   72       -4.415488   1.000000
   73       -4.272858   1.000000
   74       -4.253218   1.000000
   75       -4.133468   1.000000
   76       -4.056136   1.000000
   77       -3.918920   1.000000
   78       -3.719521   0.999821
   79       -3.486567   0.972738
   80       -3.407427   0.913566
   81       -2.929889   0.022023
   82       -2.837451   0.003823
   83       -2.686909   0.000095
   84       -2.591343   0.000005
   85       -2.516924   0.000000
   86       -2.464415   0.000000
   87       -2.275725   0.000000
   88       -2.135934   0.000000
   89       -2.068280   0.000000
   90       -1.949964   0.000000
   91       -1.759352   0.000000
   92       -1.519629   0.000000
   93       -1.423101   0.000000
   94       -1.211997   0.000000
   95       -1.131612   0.000000
   96       -1.008023   0.000000
   97       -0.988130   0.000000
   98       -0.872884   0.000000
   99       -0.859737   0.000000
  100       -0.783669   0.000000
  101       -0.700159   0.000000
  102       -0.673894   0.000000
  103       -0.583014   0.000000
  104       -0.457384   0.000000
  105       -0.334049   0.000000
  106       -0.193837   0.000000
  107       -0.085689   0.000000
  108        0.020571   0.000000
  109        0.146428   0.000000
  110        0.217748   0.000000
  111        0.409900   0.000000
  112        0.569020   0.000000
  113        0.683697   0.000000
  114        0.774390   0.000000
  115        1.090323   0.000000
  116        1.171629   0.000000
  117        1.406105   0.000000
  118        1.820789   0.000000
  119        1.995617   0.000000
  120        2.312020   0.000000
 
  0.3750000E+00  0.0000000E+00  0.0000000E+00  0.3125000E-01
    1      -17.662042   1.000000
    2      -17.212248   1.000000
    3      -16.762327   1.000000
    4      -16.672083   1.000000
    5      -16.656214   1.000000
    6      -16.518274   1.000000
    7      -16.337433   1.000000
    8      -16.228725   1.000000
    9      -16.180414   1.000000
   10      -16.053864   1.000000
   11      -15.893977   1.000000
   12      -15.879827   1.000000
   13      -15.764083   1.000000
   14      -15.591878   1.000000
   15      -15.542191   1.000000
   16      -15.443931   1.000000
   17      -15.345895   1.000000
   18      -15.233297   1.000000
   19       -9.781208   1.000000
   20       -9.443333   1.000000
   21       -9.221911   1.000000
   22       -9.122204   1.000000
   23       -8.955814   1.000000
   24       -8.771492   1.000000
   25       -8.618018   1.000000
   26       -8.538376   1.000000
   27       -8.453767   1.000000
   28       -8.359205   1.000000
   29       -8.287798   1.000000
   30       -8.255914   1.000000
   31       -8.102424   1.000000
   32       -8.004421   1.000000
   33       -7.937277   1.000000
   34       -7.799740   1.000000
   35       -7.737353   1.000000
   36       -7.615745   1.000000
   37       -7.585249   1.000000
   38       -7.548117   1.000000
   39       -7.414462   1.000000
   40       -7.313030   1.000000
   41       -7.211307   1.000000
   42       -7.138828   1.000000
   43       -7.032487   1.000000
   44       -6.998794   1.000000
   45       -6.914349   1.000000
   46       -6.805966   1.000000
   47       -6.734092   1.000000
   48       -6.578924   1.000000
   49       -6.508533   1.000000
   50       -6.470719   1.000000
   51       -6.349630   1.000000
   52       -6.267590   1.000000
   53       -6.220814   1.000000
   54       -6.185912   1.000000
   55       -6.117374   1.000000
   56       -6.078766   1.000000
   57       -6.022167   1.000000
   58       -5.950240   1.000000
   59       -5.812740   1.000000
   60       -5.716594   1.000000
   61       -5.654310   1.000000
   62       -5.512718   1.000000
   63       -5.454830   1.000000
   64       -5.312966   1.000000
   65       -5.168520   1.000000
   66       -5.099962   1.000000
   67       -5.009899   1.000000
   68       -4.819126   1.000000
   69       -4.776124   1.000000
   70       -4.681595   1.000000
   71       -4.495474   1.000000
   72       -4.411733   1.000000
   73       -4.257094   1.000000
   74       -4.219385   1.000000
   75       -4.135543   1.000000
   76       -4.023596   1.000000
   77       -3.917945   1.000000
   78       -3.722402   0.999835
   79       -3.562102   0.992990
   80       -3.222678   0.522597
   81       -2.991291   0.057113
   82       -2.856627   0.005676
   83       -2.659157   0.000043
   84       -2.577853   0.000003
   85       -2.524851   0.000001
   86       -2.410362   0.000000
   87       -2.246210   0.000000
   88       -2.098996   0.000000
   89       -2.022670   0.000000
   90       -1.891016   0.000000
   91       -1.771878   0.000000
   92       -1.468862   0.000000
   93       -1.350291   0.000000
   94       -1.269525   0.000000
   95       -1.147336   0.000000
   96       -1.059278   0.000000
   97       -1.035025   0.000000
   98       -0.960187   0.000000
   99       -0.881991   0.000000
  100       -0.834760   0.000000
  101       -0.767374   0.000000
  102       -0.736181   0.000000
  103       -0.701141   0.000000
  104       -0.547226   0.000000
  105       -0.484249   0.000000
  106       -0.230240   0.000000
  107       -0.133008   0.000000
  108       -0.036297   0.000000
  109        0.054895   0.000000
  110        0.164931   0.000000
  111        0.421416   0.000000
  112        0.568489   0.000000
  113        0.697148   0.000000
  114        0.854225   0.000000
  115        1.175722   0.000000
  116        1.240273   0.000000
  117        1.542327   0.000000
  118        2.006642   0.000000
  119        2.172769   0.000000
  120        2.473462   0.000000
 
  0.5000000E+00  0.1110223E-15  0.0000000E+00  0.1562500E-01
    1      -17.585318   1.000000
    2      -17.321000   1.000000
    3      -16.751775   1.000000
    4      -16.695711   1.000000
    5      -16.668106   1.000000
    6      -16.533195   1.000000
    7      -16.324762   1.000000
    8      -16.218226   1.000000
    9      -16.169404   1.000000
   10      -16.037663   1.000000
   11      -15.884586   1.000000
   12      -15.846086   1.000000
   13      -15.766127   1.000000
   14      -15.607182   1.000000
   15      -15.521837   1.000000
   16      -15.431348   1.000000
   17      -15.343423   1.000000
   18      -15.260511   1.000000
   19       -9.854222   1.000000
   20       -9.482704   1.000000
   21       -9.235632   1.000000
   22       -9.111358   1.000000
   23       -8.952835   1.000000
   24       -8.794039   1.000000
   25       -8.615761   1.000000
   26       -8.580769   1.000000
   27       -8.420380   1.000000
   28       -8.329524   1.000000
   29       -8.250884   1.000000
   30       -8.190377   1.000000
   31       -8.102579   1.000000
   32       -8.030942   1.000000
   33       -7.965179   1.000000
   34       -7.780809   1.000000
   35       -7.729969   1.000000
   36       -7.718789   1.000000
   37       -7.575703   1.000000
   38       -7.546692   1.000000
   39       -7.473343   1.000000
   40       -7.302570   1.000000
   41       -7.203616   1.000000
   42       -7.028863   1.000000
   43       -6.964260   1.000000
   44       -6.930752   1.000000
   45       -6.793613   1.000000
   46       -6.683327   1.000000
   47       -6.640145   1.000000
   48       -6.583836   1.000000
   49       -6.553438   1.000000
   50       -6.520816   1.000000
   51       -6.387934   1.000000
   52       -6.342620   1.000000
   53       -6.338077   1.000000
   54       -6.223783   1.000000
   55       -6.143040   1.000000
   56       -6.054938   1.000000
   57       -5.983652   1.000000
   58       -5.880042   1.000000
   59       -5.771804   1.000000
   60       -5.749136   1.000000
   61       -5.637201   1.000000
   62       -5.564773   1.000000
   63       -5.511718   1.000000
   64       -5.371824   1.000000
   65       -5.169904   1.000000
   66       -5.052206   1.000000
   67       -5.006891   1.000000
   68       -4.966060   1.000000
   69       -4.784286   1.000000
   70       -4.610919   1.000000
   71       -4.523195   1.000000
   72       -4.459953   1.000000
   73       -4.274557   1.000000
   74       -4.199925   1.000000
   75       -4.157173   1.000000
   76       -3.951302   1.000000
   77       -3.855759   0.999997
   78       -3.726610   0.999853
   79       -3.616714   0.997765
   80       -3.102274   0.213389
   81       -3.005369   0.069445
   82       -2.926153   0.020671
   83       -2.656294   0.000039
   84       -2.568464   0.000002
   85       -2.525671   0.000001
   86       -2.384703   0.000000
   87       -2.226836   0.000000
   88       -2.080172   0.000000
   89       -2.017847   0.000000
   90       -1.853597   0.000000
   91       -1.776609   0.000000
   92       -1.451582   0.000000
   93       -1.312144   0.000000
   94       -1.299013   0.000000
   95       -1.141408   0.000000
   96       -1.096482   0.000000
   97       -1.090117   0.000000
   98       -0.989838   0.000000
   99       -0.915820   0.000000
  100       -0.811001   0.000000
  101       -0.802253   0.000000
  102       -0.752639   0.000000
  103       -0.733803   0.000000
  104       -0.589637   0.000000
  105       -0.547284   0.000000
  106       -0.230025   0.000000
  107       -0.165280   0.000000
  108       -0.068465   0.000000
  109        0.027500   0.000000
  110        0.134166   0.000000
  111        0.435667   0.000000
  112        0.561385   0.000000
  113        0.708518   0.000000
  114        0.885235   0.000000
  115        1.201847   0.000000
  116        1.273096   0.000000
  117        1.594027   0.000000
  118        2.236271   0.000000
  119        2.244455   0.000000
  120        2.400547   0.000000
 
  0.0000000E+00  0.1250000E+00  0.0000000E+00  0.3125000E-01
    1      -17.837623   1.000000
    2      -16.817830   1.000000
    3      -16.795416   1.000000
    4      -16.629549   1.000000
    5      -16.512327   1.000000
    6      -16.446105   1.000000
    7      -16.375547   1.000000
    8      -16.315925   1.000000
    9      -16.290777   1.000000
   10      -16.067310   1.000000
   11      -16.027322   1.000000
   12      -15.968551   1.000000
   13      -15.847617   1.000000
   14      -15.628415   1.000000
   15      -15.572046   1.000000
   16      -15.473724   1.000000
   17      -15.247396   1.000000
   18      -15.182947   1.000000
   19       -9.483157   1.000000
   20       -9.173655   1.000000
   21       -9.117524   1.000000
   22       -9.045263   1.000000
   23       -8.761594   1.000000
   24       -8.726098   1.000000
   25       -8.616478   1.000000
   26       -8.574942   1.000000
   27       -8.516771   1.000000
   28       -8.419927   1.000000
   29       -8.396609   1.000000
   30       -8.292119   1.000000
   31       -8.252105   1.000000
   32       -8.078885   1.000000
   33       -7.987664   1.000000
   34       -7.940181   1.000000
   35       -7.834182   1.000000
   36       -7.777169   1.000000
   37       -7.705151   1.000000
   38       -7.520816   1.000000
   39       -7.422198   1.000000
   40       -7.394678   1.000000
   41       -7.316488   1.000000
   42       -7.236138   1.000000
   43       -7.115170   1.000000
   44       -6.976944   1.000000
   45       -6.909707   1.000000
   46       -6.813174   1.000000
   47       -6.764795   1.000000
   48       -6.696704   1.000000
   49       -6.603831   1.000000
   50       -6.516942   1.000000
   51       -6.382170   1.000000
   52       -6.279542   1.000000
   53       -6.227627   1.000000
   54       -6.169241   1.000000
   55       -6.133893   1.000000
   56       -6.034572   1.000000
   57       -5.954652   1.000000
   58       -5.879442   1.000000
   59       -5.783681   1.000000
   60       -5.653420   1.000000
   61       -5.572241   1.000000
   62       -5.355364   1.000000
   63       -5.318849   1.000000
   64       -5.212480   1.000000
   65       -5.045155   1.000000
   66       -5.013065   1.000000
   67       -4.896513   1.000000
   68       -4.852515   1.000000
   69       -4.749767   1.000000
   70       -4.618422   1.000000
   71       -4.579716   1.000000
   72       -4.492098   1.000000
   73       -4.417782   1.000000
   74       -4.299654   1.000000
   75       -4.249563   1.000000
   76       -3.900585   0.999999
   77       -3.789139   0.999976
   78       -3.703629   0.999727
   79       -3.488937   0.973774
   80       -3.380402   0.879390
   81       -2.944501   0.028045
   82       -2.852444   0.005214
   83       -2.699354   0.000134
   84       -2.647907   0.000031
   85       -2.513926   0.000000
   86       -2.487995   0.000000
   87       -2.277053   0.000000
   88       -2.182428   0.000000
   89       -2.155494   0.000000
   90       -1.936603   0.000000
   91       -1.764868   0.000000
   92       -1.582776   0.000000
   93       -1.460343   0.000000
   94       -1.190385   0.000000
   95       -1.121357   0.000000
   96       -1.009770   0.000000
   97       -0.968257   0.000000
   98       -0.877415   0.000000
   99       -0.806577   0.000000
  100       -0.668924   0.000000
  101       -0.598586   0.000000
  102       -0.513345   0.000000
  103       -0.451911   0.000000
  104       -0.308363   0.000000
  105       -0.172279   0.000000
  106       -0.135317   0.000000
  107       -0.109784   0.000000
  108        0.031696   0.000000
  109        0.167208   0.000000
  110        0.236814   0.000000
  111        0.502638   0.000000
  112        0.571240   0.000000
  113        0.637126   0.000000
  114        0.802918   0.000000
  115        0.969551   0.000000
  116        1.084579   0.000000
  117        1.223271   0.000000
  118        1.695628   0.000000
  119        1.881729   0.000000
  120        2.206962   0.000000
 
  0.1250000E+00  0.1250000E+00  0.0000000E+00  0.3125000E-01
    1      -17.788281   1.000000
    2      -16.970181   1.000000
    3      -16.771410   1.000000
    4      -16.682817   1.000000
    5      -16.525788   1.000000
    6      -16.461936   1.000000
    7      -16.370762   1.000000
    8      -16.288997   1.000000
    9      -16.242198   1.000000
   10      -16.088709   1.000000
   11      -16.014884   1.000000
   12      -15.894726   1.000000
   13      -15.784255   1.000000
   14      -15.605890   1.000000
   15      -15.557322   1.000000
   16      -15.474390   1.000000
   17      -15.292242   1.000000
   18      -15.200857   1.000000
   19       -9.561993   1.000000
   20       -9.304481   1.000000
   21       -9.216223   1.000000
   22       -9.080202   1.000000
   23       -8.839050   1.000000
   24       -8.666933   1.000000
   25       -8.661401   1.000000
   26       -8.523670   1.000000
   27       -8.492611   1.000000
   28       -8.425663   1.000000
   29       -8.374866   1.000000
   30       -8.340319   1.000000
   31       -8.166023   1.000000
   32       -8.058288   1.000000
   33       -7.971302   1.000000
   34       -7.859298   1.000000
   35       -7.716627   1.000000
   36       -7.628250   1.000000
   37       -7.600088   1.000000
   38       -7.511521   1.000000
   39       -7.429052   1.000000
   40       -7.334488   1.000000
   41       -7.310280   1.000000
   42       -7.224990   1.000000
   43       -7.150314   1.000000
   44       -7.029733   1.000000
   45       -6.984897   1.000000
   46       -6.868364   1.000000
   47       -6.738290   1.000000
   48       -6.706473   1.000000
   49       -6.565051   1.000000
   50       -6.496386   1.000000
   51       -6.384767   1.000000
   52       -6.319931   1.000000
   53       -6.291218   1.000000
   54       -6.191153   1.000000
   55       -6.106316   1.000000
   56       -6.021852   1.000000
   57       -5.891143   1.000000
   58       -5.759953   1.000000
   59       -5.726712   1.000000
   60       -5.659384   1.000000
   61       -5.532140   1.000000
   62       -5.499392   1.000000
   63       -5.299118   1.000000
   64       -5.245371   1.000000
   65       -5.207299   1.000000
   66       -5.150786   1.000000
   67       -5.033205   1.000000
   68       -4.836994   1.000000
   69       -4.751150   1.000000
   70       -4.616456   1.000000
   71       -4.471041   1.000000
   72       -4.429424   1.000000
   73       -4.289757   1.000000
   74       -4.250421   1.000000
   75       -4.153376   1.000000
   76       -3.979777   1.000000
   77       -3.865583   0.999998
   78       -3.681846   0.999523
   79       -3.579236   0.995030
   80       -3.404431   0.910179
   81       -2.948078   0.029712
   82       -2.842718   0.004269
   83       -2.698703   0.000132
   84       -2.599612   0.000007
   85       -2.517563   0.000000
   86       -2.480170   0.000000
   87       -2.318860   0.000000
   88       -2.155528   0.000000
   89       -2.077439   0.000000
   90       -1.943077   0.000000
   91       -1.774857   0.000000
   92       -1.517958   0.000000
   93       -1.435532   0.000000
   94       -1.202497   0.000000
   95       -1.108145   0.000000
   96       -1.012704   0.000000
   97       -0.974325   0.000000
   98       -0.875708   0.000000
   99       -0.829177   0.000000
  100       -0.701393   0.000000
  101       -0.650855   0.000000
  102       -0.613679   0.000000
  103       -0.534689   0.000000
  104       -0.451523   0.000000
  105       -0.306134   0.000000
  106       -0.195489   0.000000
  107       -0.106412   0.000000
  108       -0.024446   0.000000
  109        0.146246   0.000000
  110        0.213405   0.000000
  111        0.515623   0.000000
  112        0.577397   0.000000
  113        0.644213   0.000000
  114        0.753636   0.000000
  115        1.040569   0.000000
  116        1.166171   0.000000
  117        1.402799   0.000000
  118        1.782829   0.000000
  119        1.955354   0.000000
  120        2.277978   0.000000
 
  0.2500000E+00  0.1250000E+00  0.0000000E+00  0.3125000E-01
    1      -17.697326   1.000000
    2      -17.138833   1.000000
    3      -16.820368   1.000000
    4      -16.726154   1.000000
    5      -16.546649   1.000000
    6      -16.469048   1.000000
    7      -16.332590   1.000000
    8      -16.244090   1.000000
    9      -16.196074   1.000000
   10      -16.094204   1.000000
   11      -15.976851   1.000000
   12      -15.860284   1.000000
   13      -15.750855   1.000000
   14      -15.564406   1.000000
   15      -15.538466   1.000000
   16      -15.456249   1.000000
   17      -15.338249   1.000000
   18      -15.235622   1.000000
   19       -9.712343   1.000000
   20       -9.483011   1.000000
   21       -9.213669   1.000000
   22       -9.154467   1.000000
   23       -8.840683   1.000000
   24       -8.715337   1.000000
   25       -8.593860   1.000000
   26       -8.530359   1.000000
   27       -8.457759   1.000000
   28       -8.373243   1.000000
   29       -8.316007   1.000000
   30       -8.302953   1.000000
   31       -8.123677   1.000000
   32       -8.069072   1.000000
   33       -7.965669   1.000000
   34       -7.907095   1.000000
   35       -7.767801   1.000000
   36       -7.615230   1.000000
   37       -7.464604   1.000000
   38       -7.427164   1.000000
   39       -7.390063   1.000000
   40       -7.302614   1.000000
   41       -7.243177   1.000000
   42       -7.182296   1.000000
   43       -7.120429   1.000000
   44       -6.980591   1.000000
   45       -6.942998   1.000000
   46       -6.856358   1.000000
   47       -6.731839   1.000000