       N       E                     dE             d eps       ncg     rms          rms(c)
DAV:   1     0.112615528492E+04    0.11262E+04   -0.35979E+04  8160   0.577E+02
DAV:   2    -0.956177778668E+00   -0.11271E+04   -0.10846E+04 11120   0.173E+02
DAV:   3    -0.199670444637E+03   -0.19871E+03   -0.19047E+03 10920   0.822E+01
DAV:   4    -0.208994315179E+03   -0.93239E+01   -0.90377E+01 12160   0.263E+01
DAV:   5    -0.209324375704E+03   -0.33006E+00   -0.32911E+00 11440   0.361E+00    0.275E+01
DAV:   6    -0.236763354858E+03   -0.27439E+02   -0.10598E+02 12560   0.604E+01    0.594E+01
DAV:   7    -0.196509614623E+03    0.40254E+02   -0.17686E+02 13120   0.152E+02    0.200E+01
DAV:   8    -0.189389069145E+03    0.71205E+01   -0.17476E+01 12080   0.127E+01    0.125E+01
DAV:   9    -0.188129750134E+03    0.12593E+01   -0.30501E+00 13200   0.648E+00    0.902E+00
DAV:  10    -0.187011147622E+03    0.11186E+01   -0.21787E+00 13600   0.716E+00    0.284E+00
DAV:  11    -0.186968922267E+03    0.42225E-01   -0.60777E-01 13360   0.259E+00    0.275E+00
DAV:  12    -0.187104914887E+03   -0.13599E+00   -0.86861E-01 12600   0.498E+00    0.512E+00
DAV:  13    -0.186887810811E+03    0.21710E+00   -0.60609E-01 13000   0.417E+00    0.218E+00
DAV:  14    -0.186862334763E+03    0.25476E-01   -0.13746E-01 13360   0.216E+00    0.177E+00
DAV:  15    -0.186839205331E+03    0.23129E-01   -0.74565E-02 12560   0.165E+00    0.826E-01
DAV:  16    -0.186832237471E+03    0.69679E-02   -0.11489E-02 12280   0.432E-01    0.469E-01
DAV:  17    -0.186830471884E+03    0.17656E-02   -0.78789E-03 12960   0.398E-01    0.238E-01
DAV:  18    -0.186829707992E+03    0.76389E-03   -0.29765E-03 12320   0.169E-01    0.203E-01
DAV:  19    -0.186829313189E+03    0.39480E-03   -0.10962E-03 11400   0.159E-01    0.468E-02
DAV:  20    -0.186830048821E+03   -0.73563E-03   -0.69677E-04  9160   0.572E-02    0.496E-02
DAV:  21    -0.186830628516E+03   -0.57970E-03   -0.25438E-04  8160   0.435E-02    0.412E-02
DAV:  22    -0.186831801852E+03   -0.11733E-02   -0.19743E-04  7520   0.532E-02    0.338E-02
DAV:  23    -0.186833034879E+03   -0.12330E-02   -0.13331E-04  7520   0.401E-02    0.107E-02
DAV:  24    -0.186833634475E+03   -0.59960E-03   -0.30450E-05  6680   0.137E-02    0.674E-03
DAV:  25    -0.186833996580E+03   -0.36210E-03   -0.14983E-05  5600   0.107E-02    0.467E-03
DAV:  26    -0.186834232717E+03   -0.23614E-03   -0.92035E-06  6800   0.726E-03    0.150E-03
DAV:  27    -0.186834332662E+03   -0.99945E-04   -0.37206E-06  7200   0.461E-03
   1 F= -.18683433E+03 E0= -.18666213E+03  d E =-.186834E+03
       N       E                     dE             d eps       ncg     rms          rms(c)
DAV:   1    -0.187451515359E+03   -0.61728E+00   -0.27165E+02  8160   0.350E+01    0.460E+00
DAV:   2    -0.189261171531E+03   -0.18097E+01   -0.20061E+01 12240   0.149E+01    0.802E+00
DAV:   3    -0.189362992929E+03   -0.10182E+00   -0.36584E+00 12480   0.118E+01    0.691E+00
DAV:   4    -0.188719824370E+03    0.64317E+00   -0.62148E-01 12680   0.487E+00    0.179E+00
DAV:   5    -0.188738938389E+03   -0.19114E-01   -0.32377E-01 11440   0.183E+00    0.266E+00
DAV:   6    -0.188699909560E+03    0.39029E-01   -0.38228E-01 12840   0.304E+00    0.293E+00
DAV:   7    -0.188662825855E+03    0.37084E-01   -0.24759E-01 12040   0.278E+00    0.175E+00
DAV:   8    -0.188631719286E+03    0.31107E-01   -0.65131E-02 12840   0.129E+00    0.650E-01
DAV:   9    -0.188629678358E+03    0.20409E-02   -0.14912E-02 12920   0.694E-01    0.509E-01
DAV:  10    -0.188627975378E+03    0.17030E-02   -0.46248E-03 13600   0.364E-01    0.182E-01
DAV:  11    -0.188627495994E+03    0.47938E-03   -0.21391E-03 12640   0.149E-01    0.113E-01
DAV:  12    -0.188627511084E+03   -0.15090E-04   -0.94743E-04 11000   0.943E-02
   2 F= -.18862751E+03 E0= -.18848558E+03  d E =-.179318E+01
       N       E                     dE             d eps       ncg     rms          rms(c)
DAV:   1    -0.190545885674E+03   -0.19184E+01   -0.30834E+01  9320   0.142E+01    0.448E+00
DAV:   2    -0.190566610523E+03   -0.20725E-01   -0.28822E+00 11400   0.992E+00    0.763E+00
DAV:   3    -0.190010220286E+03    0.55639E+00   -0.13343E+00 12360   0.872E+00    0.408E+00
DAV:   4    -0.189810323291E+03    0.19990E+00   -0.67655E-01 12720   0.397E+00    0.250E+00
DAV:   5    -0.189734550263E+03    0.75773E-01   -0.31070E-01 11520   0.214E+00    0.150E+00
DAV:   6    -0.189713565268E+03    0.20985E-01   -0.82309E-02 11920   0.168E+00    0.930E-01
DAV:   7    -0.189705645830E+03    0.79194E-02   -0.16940E-02 12640   0.728E-01    0.194E-01
DAV:   8    -0.189705708789E+03   -0.62959E-04   -0.25319E-03 11080   0.174E-01    0.151E-01
DAV:   9    -0.189705910831E+03   -0.20204E-03   -0.11186E-03 10880   0.178E-01    0.180E-01
DAV:  10    -0.189706273770E+03   -0.36294E-03   -0.15317E-03 10480   0.270E-01    0.237E-01
DAV:  11    -0.189705716630E+03    0.55714E-03   -0.83746E-04  9960   0.177E-01    0.261E-02
DAV:  12    -0.189705745177E+03   -0.28547E-04   -0.84127E-05  6280   0.337E-02
   3 F= -.18970575E+03 E0= -.18958638E+03  d E =-.107823E+01
       N       E                     dE             d eps       ncg     rms          rms(c)
DAV:   1    -0.191210671783E+03   -0.15050E+01   -0.66582E+01  8160   0.187E+01    0.457E+00
DAV:   2    -0.191158150688E+03    0.52521E-01   -0.53471E+00 13520   0.879E+00    0.561E+00
DAV:   3    -0.191080005363E+03    0.78145E-01   -0.15393E+00 12040   0.918E+00    0.582E+00
DAV:   4    -0.190760400139E+03    0.31961E+00   -0.10841E+00 13080   0.644E+00    0.276E+00
DAV:   5    -0.190745272648E+03    0.15127E-01   -0.41590E-01 12200   0.411E+00    0.301E+00
DAV:   6    -0.190641897324E+03    0.10338E+00   -0.18796E-01 12240   0.312E+00    0.963E-01
DAV:   7    -0.190635472101E+03    0.64252E-02   -0.36256E-02 12520   0.100E+00    0.502E-01
DAV:   8    -0.190633773731E+03    0.16984E-02   -0.11198E-02 11240   0.670E-01    0.506E-01
DAV:   9    -0.190631424426E+03    0.23493E-02   -0.40465E-03 11520   0.461E-01    0.144E-01
DAV:  10    -0.190631761768E+03   -0.33734E-03   -0.11955E-03 10280   0.131E-01    0.124E-01
DAV:  11    -0.190631565998E+03    0.19577E-03   -0.78415E-04 10800   0.107E-01    0.465E-02
DAV:  12    -0.190631568303E+03   -0.23047E-05   -0.11517E-04  7080   0.435E-02
   4 F= -.19063157E+03 E0= -.19053169E+03  d E =-.925823E+00
       N       E                     dE             d eps       ncg     rms          rms(c)
DAV:   1    -0.192081288260E+03   -0.14497E+01   -0.14190E+02  8160   0.269E+01    0.590E+00
DAV:   2    -0.191884490441E+03    0.19680E+00   -0.98878E+00 12600   0.983E+00    0.529E+00
DAV:   3    -0.192167007434E+03   -0.28252E+00   -0.24605E+00 10920   0.114E+01    0.942E+00
DAV:   4    -0.191533105351E+03    0.63390E+00   -0.30006E+00 12120   0.118E+01    0.413E+00
DAV:   5    -0.191458340624E+03    0.74765E-01   -0.86312E-01 12240   0.627E+00    0.374E+00
DAV:   6    -0.191265800909E+03    0.19254E+00   -0.29399E-01 12240   0.402E+00    0.984E-01
DAV:   7    -0.191259152420E+03    0.66485E-02   -0.54113E-02 12160   0.112E+00    0.547E-01
DAV:   8    -0.191254336045E+03    0.48164E-02   -0.11049E-02 10600   0.519E-01    0.287E-01
DAV:   9    -0.191254907292E+03   -0.57125E-03   -0.43175E-03 12680   0.482E-01    0.346E-01
DAV:  10    -0.191254213648E+03    0.69364E-03   -0.31329E-03 11280   0.354E-01    0.104E-01
DAV:  11    -0.191254123763E+03    0.89885E-04   -0.70683E-04 10720   0.103E-01
   5 F= -.19125412E+03 E0= -.19116173E+03  d E =-.622555E+00
       N       E                     dE             d eps       ncg     rms          rms(c)
DAV:   1    -0.191313431710E+03   -0.59218E-01   -0.51689E+00  8160   0.480E+00    0.637E-01
DAV:   2    -0.191372045467E+03   -0.58614E-01   -0.23680E-01 13520   0.267E+00    0.225E+00
DAV:   3    -0.191322934922E+03    0.49111E-01   -0.11402E-01 11800   0.235E+00    0.516E-01
DAV:   4    -0.191322687990E+03    0.24693E-03   -0.13074E-02 11480   0.780E-01    0.532E-01
DAV:   5    -0.191319851930E+03    0.28361E-02   -0.63289E-03 11320   0.603E-01    0.216E-01
DAV:   6    -0.191319382884E+03    0.46905E-03   -0.17317E-03 11040   0.221E-01    0.121E-01
DAV:   7    -0.191319780669E+03   -0.39779E-03   -0.17294E-03 11640   0.283E-01    0.228E-01
DAV:   8    -0.191319246614E+03    0.53406E-03   -0.10578E-03  9720   0.249E-01    0.601E-02
DAV:   9    -0.191319214915E+03    0.31699E-04   -0.10227E-04  6160   0.586E-02
   6 F= -.19131921E+03 E0= -.19122353E+03  d E =-.650912E-01
       N       E                     dE             d eps       ncg     rms          rms(c)
DAV:   1    -0.191362167688E+03   -0.42921E-01   -0.25464E+00  8160   0.337E+00    0.428E-01
DAV:   2    -0.191386189474E+03   -0.24022E-01   -0.99848E-02 13600   0.171E+00    0.144E+00
DAV:   3    -0.191365768306E+03    0.20421E-01   -0.46976E-02 12000   0.152E+00    0.351E-01
DAV:   4    -0.191365835822E+03   -0.67515E-04   -0.61252E-03 11240   0.530E-01    0.374E-01
DAV:   5    -0.191364448376E+03    0.13874E-02   -0.31023E-03 11040   0.421E-01    0.149E-01
DAV:   6    -0.191364249126E+03    0.19925E-03   -0.87594E-04 10480   0.157E-01    0.857E-02
DAV:   7    -0.191364395744E+03   -0.14662E-03   -0.74850E-04 10400   0.181E-01    0.143E-01
DAV:   8    -0.191364186230E+03    0.20951E-03   -0.43198E-04  8840   0.160E-01    0.416E-02
DAV:   9    -0.191364174674E+03    0.11556E-04   -0.50035E-05  6240   0.423E-02
   7 F= -.19136417E+03 E0= -.19126647E+03  d E =-.449598E-01
       N       E                     dE             d eps       ncg     rms          rms(c)
DAV:   1    -0.191351930956E+03    0.12255E-01   -0.18378E-01  8160   0.910E-01    0.116E-01
DAV:   2    -0.191353454610E+03   -0.15237E-02   -0.68934E-03 13600   0.458E-01    0.346E-01
DAV:   3    -0.191352122810E+03    0.13318E-02   -0.25375E-03 11080   0.377E-01    0.853E-02
DAV:   4    -0.191352153983E+03   -0.31172E-04   -0.41659E-04  8600   0.137E-01
   8 F= -.19135215E+03 E0= -.19125492E+03  d E =0.120207E-01
       N       E                     dE             d eps       ncg     rms          rms(c)
DAV:   1    -0.191326861286E+03    0.25262E-01   -0.13926E+00  8160   0.250E+00    0.279E-01
DAV:   2    -0.191331867767E+03   -0.50065E-02   -0.38657E-02 13560   0.803E-01    0.578E-01
DAV:   3    -0.191329094280E+03    0.27735E-02   -0.11885E-02 12480   0.769E-01    0.352E-01
DAV:   4    -0.191328028835E+03    0.10654E-02   -0.33559E-03 11600   0.366E-01    0.164E-01
DAV:   5    -0.191327748268E+03    0.28057E-03   -0.10436E-03 10520   0.193E-01    0.126E-01
DAV:   6    -0.191327747158E+03    0.11092E-05   -0.89865E-04 10360   0.222E-01
   9 F= -.19132775E+03 E0= -.19123118E+03  d E =0.244068E-01
       N       E                     dE             d eps       ncg     rms          rms(c)
DAV:   1    -0.191376706876E+03   -0.48959E-01   -0.39091E+00  8160   0.417E+00    0.492E-01
DAV:   2    -0.191403818671E+03   -0.27112E-01   -0.13120E-01 13520   0.166E+00    0.150E+00
DAV:   3    -0.191382554527E+03    0.21264E-01   -0.60021E-02 11880   0.167E+00    0.484E-01
DAV:   4    -0.191381479352E+03    0.10752E-02   -0.88672E-03 11080   0.602E-01    0.402E-01
DAV:   5    -0.191380022879E+03    0.14565E-02   -0.43328E-03 11080   0.496E-01    0.213E-01
DAV:   6    -0.191379587120E+03    0.43576E-03   -0.15522E-03 10680   0.223E-01    0.115E-01
DAV:   7    -0.191379777089E+03   -0.18997E-03   -0.12075E-03 10520   0.230E-01    0.175E-01
DAV:   8    -0.191379467497E+03    0.30959E-03   -0.69491E-04  8840   0.203E-01    0.587E-02
DAV:   9    -0.191379432166E+03    0.35331E-04   -0.88054E-05  6000   0.559E-02
  10 F= -.19137943E+03 E0= -.19128049E+03  d E =-.516850E-01
       N       E                     dE             d eps       ncg     rms          rms(c)
DAV:   1    -0.191391301536E+03   -0.11834E-01   -0.21000E-01  8160   0.977E-01    0.114E-01
DAV:   2    -0.191392307099E+03   -0.10056E-02   -0.66784E-03 13600   0.385E-01    0.261E-01
DAV:   3    -0.191391550554E+03    0.75654E-03   -0.19020E-03 11160   0.324E-01    0.902E-02
DAV:   4    -0.191391513500E+03    0.37055E-04   -0.34290E-04  7320   0.109E-01
  11 F= -.19139151E+03 E0= -.19129221E+03  d E =-.120813E-01
       N       E                     dE             d eps       ncg     rms          rms(c)
DAV:   1    -0.191355051233E+03    0.36499E-01   -0.57483E+00  8160   0.510E+00    0.665E-01
DAV:   2    -0.191408195400E+03   -0.53144E-01   -0.21860E-01 13600   0.256E+00    0.216E+00
DAV:   3    -0.191361354293E+03    0.46841E-01   -0.10011E-01 12360   0.226E+00    0.599E-01
DAV:   4    -0.191359816790E+03    0.15375E-02   -0.15724E-02 11040   0.799E-01    0.515E-01
DAV:   5    -0.191357631882E+03    0.21849E-02   -0.85582E-03 11560   0.670E-01    0.328E-01
DAV:   6    -0.191356338666E+03    0.12932E-02   -0.34929E-03 11560   0.373E-01    0.144E-01
DAV:   7    -0.191356811758E+03   -0.47309E-03   -0.23604E-03 11640   0.334E-01    0.253E-01
DAV:   8    -0.191356141912E+03    0.66985E-03   -0.13406E-03  9760   0.276E-01    0.626E-02
DAV:   9    -0.191356092935E+03    0.48977E-04   -0.11982E-04  5720   0.610E-02
  12 F= -.19135609E+03 E0= -.19125744E+03  d E =0.354206E-01
       N       E                     dE             d eps       ncg     rms          rms(c)
DAV:   1    -0.191420133443E+03   -0.63992E-01   -0.62139E+00  8160   0.535E+00    0.730E-01
DAV:   2    -0.191468849856E+03   -0.48716E-01   -0.24948E-01 13560   0.268E+00    0.206E+00
DAV:   3    -0.191426100296E+03    0.42750E-01   -0.10710E-01 12280   0.233E+00    0.577E-01
DAV:   4    -0.191426243263E+03   -0.14297E-03   -0.19666E-02 12280   0.916E-01    0.687E-01
DAV:   5    -0.191422252483E+03    0.39908E-02   -0.13655E-02 12240   0.852E-01    0.387E-01
DAV:   6    -0.191420730409E+03    0.15221E-02   -0.50298E-03 11400   0.421E-01    0.198E-01
DAV:   7    -0.191421186813E+03   -0.45640E-03   -0.35108E-03 12080   0.420E-01    0.297E-01
DAV:   8    -0.191420265047E+03    0.92177E-03   -0.17286E-03 10120   0.310E-01    0.672E-02
DAV:   9    -0.191420198096E+03    0.66951E-04   -0.15966E-04  5960   0.656E-02
  13 F= -.19142020E+03 E0= -.19131890E+03  d E =-.641052E-01
       N       E                     dE             d eps       ncg     rms          rms(c)
DAV:   1    -0.191448570089E+03   -0.28305E-01   -0.13016E+00  8160   0.241E+00    0.291E-01
DAV:   2    -0.191459011132E+03   -0.10441E-01   -0.46900E-02 13600   0.104E+00    0.971E-01
DAV:   3    -0.191450230113E+03    0.87810E-02   -0.21465E-02 12240   0.997E-01    0.237E-01
DAV:   4    -0.191450069925E+03    0.16019E-03   -0.21727E-03 11120   0.277E-01    0.214E-01
DAV:   5    -0.191449703266E+03    0.36666E-03   -0.14489E-03 10640   0.287E-01    0.138E-01
DAV:   6    -0.191449602850E+03    0.10042E-03   -0.74029E-04  9920   0.173E-01    0.865E-02
DAV:   7    -0.191449620251E+03   -0.17401E-04   -0.44278E-04  9520   0.152E-01
  14 F= -.19144962E+03 E0= -.19134799E+03  d E =-.294222E-01
       N       E                     dE             d eps       ncg     rms          rms(c)
DAV:   1    -0.191491706278E+03   -0.42103E-01   -0.25679E+00  8160   0.341E+00    0.393E-01
DAV:   2    -0.191505989352E+03   -0.14283E-01   -0.85277E-02 13600   0.134E+00    0.107E+00
DAV:   3    -0.191495638001E+03    0.10351E-01   -0.32631E-02 12200   0.122E+00    0.381E-01
DAV:   4    -0.191495162355E+03    0.47565E-03   -0.54515E-03 11360   0.484E-01    0.331E-01
DAV:   5    -0.191494139174E+03    0.10232E-02   -0.31021E-03 11440   0.423E-01    0.188E-01
DAV:   6    -0.191493898910E+03    0.24026E-03   -0.14425E-03 10120   0.235E-01    0.121E-01
DAV:   7    -0.191494045416E+03   -0.14651E-03   -0.10670E-03 10520   0.238E-01    0.169E-01
DAV:   8    -0.191493718899E+03    0.32652E-03   -0.50267E-04  8640   0.174E-01    0.306E-02
DAV:   9    -0.191493716103E+03    0.27958E-05   -0.55690E-05  5880   0.361E-02
  15 F= -.19149372E+03 E0= -.19139195E+03  d E =-.440959E-01
       N       E                     dE             d eps       ncg     rms          rms(c)
DAV:   1    -0.191471420814E+03    0.22298E-01   -0.65295E-01  8160   0.173E+00    0.196E-01
DAV:   2    -0.191473263710E+03   -0.18429E-02   -0.18725E-02 13320   0.526E-01    0.334E-01
DAV:   3    -0.191472330652E+03    0.93306E-03   -0.45773E-03 12400   0.486E-01    0.219E-01
DAV:   4    -0.191472055440E+03    0.27521E-03   -0.17380E-03 10080   0.266E-01    0.164E-01
DAV:   5    -0.191471848722E+03    0.20672E-03   -0.92042E-04  9440   0.220E-01    0.119E-01
DAV:   6    -0.191471736986E+03    0.11174E-03   -0.46821E-04  8320   0.146E-01    0.579E-02
DAV:   7    -0.191471736482E+03    0.50367E-06   -0.18792E-04  6720   0.910E-02
  16 F= -.19147174E+03 E0= -.19136981E+03  d E =0.219796E-01
       N       E                     dE             d eps       ncg     rms          rms(c)
DAV:   1    -0.191551699907E+03   -0.79963E-01   -0.84983E+00  8160   0.627E+00    0.772E-01
DAV:   2    -0.191595429226E+03   -0.43729E-01   -0.29767E-01 13400   0.251E+00    0.195E+00
DAV:   3    -0.191563482432E+03    0.31947E-01   -0.11673E-01 12000   0.227E+00    0.739E-01
DAV:   4    -0.191562044236E+03    0.14382E-02   -0.23865E-02 12320   0.107E+00    0.739E-01
DAV:   5    -0.191556630141E+03    0.54141E-02   -0.14555E-02 12120   0.922E-01    0.367E-01
DAV:   6    -0.191555520371E+03    0.11098E-02   -0.61528E-03 10960   0.454E-01    0.228E-01
DAV:   7    -0.191555720599E+03   -0.20023E-03   -0.38412E-03 12040   0.442E-01    0.290E-01
DAV:   8    -0.191554798876E+03    0.92172E-03   -0.17307E-03 10200   0.317E-01    0.703E-02
DAV:   9    -0.191554729303E+03    0.69572E-04   -0.21203E-04  6560   0.722E-02
  17 F= -.19155473E+03 E0= -.19145397E+03  d E =-.829928E-01
       N       E                     dE             d eps       ncg     rms          rms(c)
DAV:   1    -0.191587585971E+03   -0.32787E-01   -0.14410E+00  8160   0.255E+00    0.267E-01
DAV:   2    -0.191592358872E+03   -0.47729E-02   -0.41796E-02 13000   0.761E-01    0.543E-01
DAV:   3    -0.191590220096E+03    0.21388E-02   -0.11352E-02 12200   0.728E-01    0.310E-01
DAV:   4    -0.191589406857E+03    0.81324E-03   -0.21577E-03 11240   0.292E-01    0.150E-01
DAV:   5    -0.191589319512E+03    0.87344E-04   -0.11586E-03 10560   0.243E-01    0.155E-01
DAV:   6    -0.191589243026E+03    0.76486E-04   -0.10043E-03 10480   0.226E-01    0.110E-01
DAV:   7    -0.191589125817E+03    0.11721E-03   -0.37716E-04  8280   0.130E-01    0.621E-02
DAV:   8    -0.191589088125E+03    0.37691E-04   -0.10126E-04  6720   0.835E-02
  18 F= -.19158909E+03 E0= -.19148954E+03  d E =-.343588E-01
       N       E                     dE             d eps       ncg     rms          rms(c)
DAV:   1    -0.191618236655E+03   -0.29111E-01   -0.10872E+00  8160   0.222E+00    0.225E-01
DAV:   2    -0.191620515109E+03   -0.22785E-02   -0.29189E-02 12240   0.541E-01    0.302E-01
DAV:   3    -0.191620613828E+03   -0.98719E-04   -0.63270E-03 11560   0.547E-01    0.336E-01
DAV:   4    -0.191619552212E+03    0.10616E-02   -0.22137E-03 10320   0.328E-01    0.123E-01
DAV:   5    -0.191619475174E+03    0.77038E-04   -0.69925E-04  9640   0.190E-01
  19 F= -.19161948E+03 E0= -.19152130E+03  d E =-.303870E-01
       N       E                     dE             d eps       ncg     rms          rms(c)
DAV:   1    -0.191602114570E+03    0.17438E-01   -0.38263E-01  8160   0.136E+00    0.189E-01
DAV:   2    -0.191606466003E+03   -0.43514E-02   -0.18005E-02 13240   0.738E-01    0.602E-01
DAV:   3    -0.191602483377E+03    0.39826E-02   -0.82738E-03 10760   0.678E-01    0.139E-01
DAV:   4    -0.191602346297E+03    0.13708E-03   -0.95975E-04  9560   0.172E-01    0.101E-01
DAV:   5    -0.191602303014E+03    0.43284E-04   -0.52857E-04  8720   0.161E-01
  20 F= -.19160230E+03 E0= -.19150301E+03  d E =0.171722E-01
       N       E                     dE             d eps       ncg     rms          rms(c)
DAV:   1    -0.191459505251E+03    0.14284E+00   -0.33613E+01  8160   0.125E+01    0.153E+00
DAV:   2    -0.191604808941E+03   -0.14530E+00   -0.11301E+00 13400   0.467E+00    0.321E+00
DAV:   3    -0.191506699076E+03    0.98110E-01   -0.33194E-01 12240   0.419E+00    0.147E+00
DAV:   4    -0.191497888688E+03    0.88104E-02   -0.89192E-02 12280   0.202E+00    0.135E+00
DAV:   5    -0.191482021862E+03    0.15867E-01   -0.53299E-02 12240   0.174E+00    0.833E-01
DAV:   6    -0.191477702467E+03    0.43194E-02   -0.28575E-02 12560   0.112E+00    0.581E-01
DAV:   7    -0.191477362178E+03    0.34029E-03   -0.18588E-02 12280   0.934E-01    0.579E-01
DAV:   8    -0.191473550491E+03    0.38117E-02   -0.70772E-03 11880   0.604E-01    0.122E-01
DAV:   9    -0.191473348017E+03    0.20247E-03   -0.90120E-04 10640   0.129E-01    0.488E-02
DAV:  10    -0.191473338346E+03    0.96713E-05   -0.25679E-04  8320   0.545E-02
  21 F= -.19147334E+03 E0= -.19137375E+03  d E =0.128965E+00
       N       E                     dE             d eps       ncg     rms          rms(c)
DAV:   1    -0.191654448869E+03   -0.18110E+00   -0.73937E+01  8160   0.188E+01    0.222E+00
DAV:   2    -0.191931878711E+03   -0.27743E+00   -0.24279E+00 12680   0.628E+00    0.455E+00
DAV:   3    -0.191781066093E+03    0.15081E+00   -0.81566E-01 12240   0.624E+00    0.225E+00
DAV:   4    -0.191736709873E+03    0.44356E-01   -0.16222E-01 12320   0.281E+00    0.167E+00
DAV:   5    -0.191712731571E+03    0.23978E-01   -0.10054E-01 12120   0.242E+00    0.130E+00
DAV:   6    -0.191698453061E+03    0.14279E-01   -0.67689E-02 12640   0.175E+00    0.698E-01
DAV:   7    -0.191696529996E+03    0.19231E-02   -0.32950E-02 12000   0.112E+00    0.677E-01
DAV:   8    -0.191691606851E+03    0.49231E-02   -0.12612E-02 12040   0.860E-01    0.247E-01
DAV:   9    -0.191690702329E+03    0.90452E-03   -0.18658E-03 11720   0.254E-01    0.818E-02
DAV:  10    -0.191690620024E+03    0.82305E-04   -0.74572E-04 10640   0.816E-02
  22 F= -.19169062E+03 E0= -.19159632E+03  d E =-.217282E+00
       N       E                     dE             d eps       ncg     rms          rms(c)
DAV:   1    -0.191707235828E+03   -0.16533E-01   -0.91396E-01  8160   0.202E+00    0.246E-01
DAV:   2    -0.191713762477E+03   -0.65266E-02   -0.34926E-02 13120   0.960E-01    0.693E-01
DAV:   3    -0.191708541534E+03    0.52209E-02   -0.11382E-02 12280   0.807E-01    0.187E-01
DAV:   4    -0.191708372641E+03    0.16889E-03   -0.13580E-03  9800   0.247E-01    0.160E-01
DAV:   5    -0.191708265877E+03    0.10676E-03   -0.10443E-03 11520   0.258E-01    0.140E-01
DAV:   6    -0.191708161082E+03    0.10479E-03   -0.70323E-04  9120   0.180E-01    0.890E-02
DAV:   7    -0.191708142779E+03    0.18303E-04   -0.36795E-04  8720   0.154E-01
  23 F= -.19170814E+03 E0= -.19161435E+03  d E =-.175228E-01
       N       E                     dE             d eps       ncg     rms          rms(c)
DAV:   1    -0.191753110473E+03   -0.44949E-01   -0.28537E+00  8160   0.362E+00    0.378E-01
DAV:   2    -0.191759206693E+03   -0.60962E-02   -0.79404E-02 12000   0.909E-01    0.485E-01
DAV:   3    -0.191759081374E+03    0.12532E-03   -0.15384E-02 12360   0.921E-01    0.505E-01
DAV:   4    -0.191756404880E+03    0.26765E-02   -0.57097E-03 12440   0.546E-01    0.184E-01
DAV:   5    -0.191756247127E+03    0.15775E-03   -0.19469E-03 10800   0.291E-01    0.199E-01
DAV:   6    -0.191756260304E+03   -0.13177E-04   -0.18837E-03 11480   0.342E-01    0.185E-01
DAV:   7    -0.191755845197E+03    0.41511E-03   -0.75334E-04  8920   0.194E-01    0.529E-02
DAV:   8    -0.191755831678E+03    0.13519E-04   -0.12046E-04  6320   0.855E-02
  24 F= -.19175583E+03 E0= -.19166528E+03  d E =-.476889E-01
       N       E                     dE             d eps       ncg     rms          rms(c)
DAV:   1    -0.191812828470E+03   -0.56983E-01   -0.51929E+00  8160   0.488E+00    0.506E-01
DAV:   2    -0.191826268814E+03   -0.13440E-01   -0.15600E-01 11880   0.130E+00    0.708E-01
DAV:   3    -0.191824927379E+03    0.13414E-02   -0.27945E-02 12360   0.127E+00    0.654E-01
DAV:   4    -0.191820364687E+03    0.45627E-02   -0.87897E-03 12280   0.684E-01    0.228E-01
DAV:   5    -0.191820239754E+03    0.12493E-03   -0.29377E-03 11760   0.387E-01    0.257E-01
DAV:   6    -0.191820196324E+03    0.43430E-04   -0.29955E-03 12960   0.445E-01    0.226E-01
DAV:   7    -0.191819545065E+03    0.65126E-03   -0.13031E-03  9840   0.256E-01    0.815E-02
DAV:   8    -0.191819496450E+03    0.48615E-04   -0.23689E-04  8080   0.119E-01
  25 F= -.19181950E+03 E0= -.19173334E+03  d E =-.636648E-01
       N       E                     dE             d eps       ncg     rms          rms(c)
DAV:   1    -0.191911670019E+03   -0.92125E-01   -0.23340E+01  8160   0.104E+01    0.109E+00
DAV:   2    -0.191978267763E+03   -0.66598E-01   -0.76127E-01 11800   0.285E+00    0.149E+00
DAV:   3    -0.191972664059E+03    0.56037E-02   -0.11719E-01 12240   0.274E+00    0.138E+00
DAV:   4    -0.191951146083E+03    0.21518E-01   -0.36958E-02 12320   0.149E+00    0.466E-01
DAV:   5    -0.191950208247E+03    0.93784E-03   -0.12307E-02 12000   0.759E-01    0.492E-01
DAV:   6    -0.191950299420E+03   -0.91173E-04   -0.12273E-02 12920   0.925E-01    0.468E-01
DAV:   7    -0.191947225930E+03    0.30735E-02   -0.52330E-03 11840   0.533E-01    0.143E-01
DAV:   8    -0.191947139439E+03    0.86492E-04   -0.99307E-04 10760   0.237E-01
  26 F= -.19194714E+03 E0= -.19186949E+03  d E =-.127643E+00
       N       E                     dE             d eps       ncg     rms          rms(c)
DAV:   1    -0.191953910669E+03   -0.66847E-02   -0.84647E-01  8160   0.204E+00    0.304E-01
DAV:   2    -0.191955113937E+03   -0.12033E-02   -0.33622E-02 11840   0.653E-01    0.334E-01
DAV:   3    -0.191954948484E+03    0.16545E-03   -0.61925E-03 11600   0.640E-01    0.340E-01
DAV:   4    -0.191953690675E+03    0.12578E-02   -0.35224E-03 11240   0.459E-01    0.182E-01
DAV:   5    -0.191953684135E+03    0.65396E-05   -0.18141E-03 12520   0.334E-01    0.201E-01
DAV:   6    -0.191953253374E+03    0.43076E-03   -0.98171E-04 10200   0.264E-01    0.615E-02
DAV:   7    -0.191953223966E+03    0.29408E-04   -0.12595E-04  6400   0.819E-02
  27 F= -.19195322E+03 E0= -.19187659E+03  d E =-.608453E-02
       N       E                     dE             d eps       ncg     rms          rms(c)
DAV:   1    -0.191987681985E+03   -0.34429E-01   -0.27769E+00  8160   0.359E+00    0.374E-01
DAV:   2    -0.191993459037E+03   -0.57771E-02   -0.74613E-02 11160   0.890E-01    0.488E-01
DAV:   3    -0.191992948522E+03    0.51051E-03   -0.11113E-02 12120   0.903E-01    0.482E-01
DAV:   4    -0.191990243498E+03    0.27050E-02   -0.40722E-03 12000   0.502E-01    0.132E-01
DAV:   5    -0.191990160192E+03    0.83307E-04   -0.15864E-03 10440   0.197E-01    0.122E-01
DAV:   6    -0.191990157748E+03    0.24437E-05   -0.10875E-03 10880   0.246E-01    0.146E-01
DAV:   7    -0.191989891149E+03    0.26660E-03   -0.38998E-04  9240   0.169E-01    0.303E-02
DAV:   8    -0.191989899475E+03   -0.83256E-05   -0.57835E-05  6000   0.605E-02
  28 F= -.19198990E+03 E0= -.19191569E+03  d E =-.366755E-01
       N       E                     dE             d eps       ncg     rms          rms(c)
DAV:   1    -0.192033693273E+03   -0.43802E-01   -0.74097E+00  8160   0.581E+00    0.619E-01
DAV:   2    -0.192054439217E+03   -0.20746E-01   -0.26400E-01 11840   0.150E+00    0.655E-01
DAV:   3    -0.192057336508E+03   -0.28973E-02   -0.28689E-02 12120   0.145E+00    0.892E-01
DAV:   4    -0.192048570696E+03    0.87658E-02   -0.12602E-02 12040   0.982E-01    0.237E-01
DAV:   5    -0.192048324671E+03    0.24602E-03   -0.41229E-03 11720   0.361E-01    0.222E-01
DAV:   6    -0.192048606811E+03   -0.28214E-03   -0.34583E-03 11120   0.463E-01    0.282E-01
DAV:   7    -0.192047587885E+03    0.10189E-02   -0.14566E-03 11360   0.314E-01    0.552E-02
DAV:   8    -0.192047602228E+03   -0.14343E-04   -0.18622E-04  6920   0.109E-01
  29 F= -.19204760E+03 E0= -.19197706E+03  d E =-.577028E-01
       N       E                     dE             d eps       ncg     rms          rms(c)
DAV:   1    -0.192084028945E+03   -0.36441E-01   -0.19043E+01  8160   0.929E+00    0.975E-01
DAV:   2    -0.192131036154E+03   -0.47007E-01   -0.64066E-01 12000   0.223E+00    0.841E-01
DAV:   3    -0.192140547941E+03   -0.95118E-02   -0.64068E-02 12560   0.207E+00    0.132E+00
DAV:   4    -0.192121354296E+03    0.19194E-01   -0.31109E-02 12080   0.162E+00    0.433E-01
DAV:   5    -0.192119947642E+03    0.14067E-02   -0.93723E-03 12600   0.635E-01    0.356E-01
DAV:   6    -0.192120926749E+03   -0.97911E-03   -0.82936E-03 12680   0.758E-01    0.451E-01
DAV:   7    -0.192118369693E+03    0.25571E-02   -0.36941E-03 12680   0.507E-01    0.102E-01
DAV:   8    -0.192118341345E+03    0.28348E-04   -0.60377E-04 10400   0.184E-01
  30 F= -.19211834E+03 E0= -.19205271E+03  d E =-.707391E-01
       N       E                     dE             d eps       ncg     rms          rms(c)
DAV:   1    -0.192134065637E+03   -0.15696E-01   -0.33974E+00  8160   0.390E+00    0.440E-01
DAV:   2    -0.192143823790E+03   -0.97582E-02   -0.12788E-01 12280   0.102E+00    0.413E-01
DAV:   3    -0.192144526774E+03   -0.70298E-03   -0.13628E-02 12520   0.938E-01    0.502E-01
DAV:   4    -0.192141490488E+03    0.30363E-02   -0.49386E-03 12600   0.637E-01    0.181E-01
DAV:   5    -0.192141330677E+03    0.15981E-03   -0.16047E-03 12560   0.278E-01    0.165E-01
DAV:   6    -0.192141519040E+03   -0.18836E-03   -0.14490E-03 11360   0.348E-01    0.193E-01
DAV:   7    -0.192141059881E+03    0.45916E-03   -0.65464E-04 10160   0.218E-01    0.359E-02
DAV:   8    -0.192141051413E+03    0.84680E-05   -0.74060E-05  6520   0.521E-02
  31 F= -.19214105E+03 E0= -.19207672E+03  d E =-.227101E-01
       N       E                     dE             d eps       ncg     rms          rms(c)
DAV:   1    -0.192152137093E+03   -0.11077E-01   -0.27068E+00  8160   0.349E+00    0.389E-01
DAV:   2    -0.192158918663E+03   -0.67816E-02   -0.99607E-02 12240   0.864E-01    0.280E-01
DAV:   3    -0.192160360241E+03   -0.14416E-02   -0.86488E-03 12600   0.723E-01    0.481E-01
DAV:   4    -0.192157765348E+03    0.25949E-02   -0.44999E-03 12640   0.616E-01    0.172E-01
DAV:   5    -0.192157494735E+03    0.27061E-03   -0.16112E-03 10840   0.224E-01    0.115E-01
DAV:   6    -0.192157628240E+03   -0.13351E-03   -0.10093E-03 11280   0.239E-01    0.152E-01
DAV:   7    -0.192157344988E+03    0.28325E-03   -0.42850E-04  9200   0.194E-01    0.390E-02
DAV:   8    -0.192157333966E+03    0.11022E-04   -0.58599E-05  6400   0.575E-02
  32 F= -.19215733E+03 E0= -.19209369E+03  d E =-.162826E-01
       N       E                     dE             d eps       ncg     rms          rms(c)
DAV:   1    -0.192161486425E+03   -0.41414E-02   -0.28689E-01  8240   0.114E+00    0.150E-01
DAV:   2    -0.192162639728E+03   -0.11533E-02   -0.12293E-02 12920   0.486E-01    0.245E-01
DAV:   3    -0.192162021921E+03    0.61781E-03   -0.18236E-03 12640   0.373E-01    0.112E-01
DAV:   4    -0.192161855927E+03    0.16599E-03   -0.40324E-04  8840   0.152E-01    0.659E-02
DAV:   5    -0.192161897477E+03   -0.41551E-04   -0.34353E-04  9280   0.144E-01
  33 F= -.19216190E+03 E0= -.19209865E+03  d E =-.456351E-02
       N       E                     dE             d eps       ncg     rms          rms(c)
DAV:   1    -0.192166010898E+03   -0.41550E-02   -0.33640E-01  8160   0.124E+00    0.140E-01
DAV:   2    -0.192166943154E+03   -0.93226E-03   -0.13160E-02 11840   0.351E-01    0.124E-01
DAV:   3    -0.192167191921E+03   -0.24877E-03   -0.14324E-03 12400   0.319E-01    0.194E-01
DAV:   4    -0.192166722572E+03    0.46935E-03   -0.58520E-04  9320   0.226E-01    0.462E-02
DAV:   5    -0.192166768406E+03   -0.45834E-04   -0.17220E-04  6880   0.854E-02
  34 F= -.19216677E+03 E0= -.19210378E+03  d E =-.487093E-02
       N       E                     dE             d eps       ncg     rms          rms(c)
DAV:   1    -0.192172938812E+03   -0.62162E-02   -0.15388E+00  8160   0.264E+00    0.293E-01
DAV:   2    -0.192177087200E+03   -0.41484E-02   -0.56463E-02 11680   0.688E-01    0.267E-01
DAV:   3    -0.192177571540E+03   -0.48434E-03   -0.57160E-03 11760   0.625E-01    0.366E-01
DAV:   4    -0.192176056529E+03    0.15150E-02   -0.23052E-03 10840   0.451E-01    0.132E-01
DAV:   5    -0.192175961878E+03    0.94650E-04   -0.90801E-04 10520   0.207E-01
  35 F= -.19217596E+03 E0= -.19211366E+03  d E =-.919347E-02
       N       E                     dE             d eps       ncg     rms          rms(c)
DAV:   1    -0.192180332910E+03   -0.42764E-02   -0.88670E-01  8160   0.201E+00    0.278E-01
DAV:   2    -0.192185543088E+03   -0.52102E-02   -0.37824E-02 12920   0.943E-01    0.558E-01
DAV:   3    -0.192181777198E+03    0.37659E-02   -0.70926E-03 12640   0.756E-01    0.173E-01
DAV:   4    -0.192181541788E+03    0.23541E-03   -0.10506E-03 10480   0.240E-01    0.140E-01
DAV:   5    -0.192181549344E+03   -0.75560E-05   -0.84142E-04 11600   0.275E-01
  36 F= -.19218155E+03 E0= -.19211979E+03  d E =-.558747E-02
       N       E                     dE             d eps       ncg     rms          rms(c)
DAV:   1    -0.192183096294E+03   -0.15545E-02   -0.18489E-01  8160   0.926E-01    0.125E-01
DAV:   2    -0.192184241172E+03   -0.11449E-02   -0.85743E-03 13200   0.418E-01    0.250E-01
DAV:   3    -0.192183579746E+03    0.66143E-03   -0.16339E-03 11360   0.361E-01    0.113E-01
DAV:   4    -0.192183470775E+03    0.10897E-03   -0.36766E-04  9120   0.139E-01    0.573E-02
DAV:   5    -0.192183428655E+03    0.42120E-04   -0.12318E-04  6840   0.708E-02
  37 F= -.19218343E+03 E0= -.19212180E+03  d E =-.187931E-02
       N       E                     dE             d eps       ncg     rms          rms(c)
DAV:   1    -0.192184748683E+03   -0.12779E-02   -0.86455E-02  8160   0.641E-01    0.924E-02
DAV:   2    -0.192185413789E+03   -0.66511E-03   -0.39862E-03 12640   0.305E-01    0.204E-01
DAV:   3    -0.192184895591E+03    0.51820E-03   -0.86057E-04 10400   0.274E-01    0.620E-02
DAV:   4    -0.192184892769E+03    0.28225E-05   -0.10476E-04  6120   0.936E-02
  38 F= -.19218489E+03 E0= -.19212332E+03  d E =-.146411E-02
       N       E                     dE             d eps       ncg     rms          rms(c)
DAV:   1    -0.192186374512E+03   -0.14789E-02   -0.15667E-01  8160   0.848E-01    0.117E-01
DAV:   2    -0.192186782504E+03   -0.40799E-03   -0.69041E-03 11760   0.259E-01    0.114E-01
DAV:   3    -0.192186794521E+03   -0.12016E-04   -0.86419E-04 11280   0.244E-01
  39 F= -.19218679E+03 E0= -.19212535E+03  d E =-.190175E-02
       N       E                     dE             d eps       ncg     rms          rms(c)
DAV:   1    -0.192187444385E+03   -0.66188E-03   -0.46020E-02  8160   0.481E-01    0.851E-02
DAV:   2    -0.192187889678E+03   -0.44529E-03   -0.24053E-03 13600   0.244E-01    0.179E-01
DAV:   3    -0.192187501022E+03    0.38866E-03   -0.71515E-04 11080   0.241E-01    0.751E-02
DAV:   4    -0.192187464065E+03    0.36957E-04   -0.18123E-04  7840   0.967E-02
  40 F= -.19218746E+03 E0= -.19212610E+03  d E =-.669544E-03
       N       E                     dE             d eps       ncg     rms          rms(c)
DAV:   1    -0.192188741283E+03   -0.12403E-02   -0.24696E-01  8160   0.106E+00    0.129E-01
DAV:   2    -0.192189597415E+03   -0.85613E-03   -0.10587E-02 11760   0.332E-01    0.154E-01
DAV:   3    -0.192189574952E+03    0.22463E-04   -0.12668E-03 11680   0.312E-01    0.163E-01
DAV:   4    -0.192189283309E+03    0.29164E-03   -0.49484E-04  9240   0.193E-01    0.548E-02
DAV:   5    -0.192189255858E+03    0.27452E-04   -0.14655E-04  6600   0.709E-02
  41 F= -.19218926E+03 E0= -.19212815E+03  d E =-.179179E-02
       N       E                     dE             d eps       ncg     rms          rms(c)
DAV:   1    -0.192190197419E+03   -0.91411E-03   -0.42388E-01  8160   0.138E+00    0.178E-01
DAV:   2    -0.192192583087E+03   -0.23857E-02   -0.20347E-02 12080   0.581E-01    0.324E-01
DAV:   3    -0.192191425566E+03    0.11575E-02   -0.29133E-03 12480   0.485E-01    0.138E-01
DAV:   4    -0.192191233471E+03    0.19209E-03   -0.49791E-04  8880   0.184E-01    0.888E-02
DAV:   5    -0.192191214690E+03    0.18781E-04   -0.33281E-04 10280   0.165E-01
  42 F= -.19219121E+03 E0= -.19213039E+03  d E =-.195883E-02
       N       E                     dE             d eps       ncg     rms          rms(c)
DAV:   1    -0.192191908692E+03   -0.67522E-03   -0.30761E-01  8160   0.118E+00    0.150E-01
DAV:   2    -0.192193205577E+03   -0.12969E-02   -0.11970E-02 12040   0.475E-01    0.263E-01
DAV:   3    -0.192192536160E+03    0.66942E-03   -0.20706E-03 12280   0.412E-01    0.132E-01
DAV:   4    -0.192192302727E+03    0.23343E-03   -0.33589E-04  8840   0.148E-01    0.449E-02
DAV:   5    -0.192192354801E+03   -0.52073E-04   -0.21023E-04  8080   0.114E-01
  43 F= -.19219235E+03 E0= -.19213195E+03  d E =-.114011E-02
       N       E                     dE             d eps       ncg     rms          rms(c)
DAV:   1    -0.192192173618E+03    0.12911E-03   -0.39441E-01  8160   0.133E+00    0.157E-01
DAV:   2    -0.192193577033E+03   -0.14034E-02   -0.17840E-02 10640   0.395E-01    0.157E-01
DAV:   3    -0.192193678844E+03   -0.10181E-03   -0.17519E-03 12720   0.356E-01    0.193E-01
DAV:   4    -0.192193222475E+03    0.45637E-03   -0.66025E-04  9840   0.234E-01    0.626E-02
DAV:   5    -0.192193231683E+03   -0.92083E-05   -0.25341E-04  8080   0.111E-01
  44 F= -.19219323E+03 E0= -.19213309E+03  d E =-.876882E-03
