<?xml version="1.0" encoding="ISO-8859-1"?>
<modeling>
 <generator>
  <i name="program" type="string">vasp </i>
  <i name="version" type="string">5.4.1  </i>
  <i name="subversion" type="string">05Feb16 (build Jul 05 2020 17:13:04) complex                          parallel </i>
  <i name="platform" type="string">IFC91_ompi </i>
  <i name="date" type="string">2024 04 28 </i>
  <i name="time" type="string">19:12:36 </i>
 </generator>
 <incar>
  <i type="int" name="ISTART">     0</i>
  <i type="string" name="PREC">normal</i>
  <i type="string" name="ALGO"> Normal</i>
  <i type="int" name="ISPIN">     1</i>
  <i type="int" name="ICHARG">     2</i>
  <i type="int" name="IBRION">     1</i>
  <i type="int" name="NSW">   100</i>
  <i type="int" name="ISIF">     3</i>
  <i type="int" name="ISYM">     0</i>
  <i name="SYMPREC">      0.00000001</i>
  <i name="POTIM">      0.50000000</i>
  <i type="logical" name="LREAL"> F  </i>
  <i type="logical" name="LPLANE"> F  </i>
  <i type="int" name="ISMEAR">     0</i>
  <i type="logical" name="LWAVE"> F  </i>
  <i type="logical" name="LCHARG"> F  </i>
  <v type="int" name="KPOINT_BSE">    -1     0     0     0</v>
 </incar>
 <kpoints>
  <generation param="Gamma">
   <v type="int" name="divisions">       8        8        1 </v>
   <v name="usershift">      0.00000000       0.00000000       0.00000000 </v>
   <v name="genvec1">      0.12500000       0.00000000       0.00000000 </v>
   <v name="genvec2">     -0.00000000       0.12500000       0.00000000 </v>
   <v name="genvec3">      0.00000000       0.00000000       1.00000000 </v>
   <v name="shift">      0.00000000       0.00000000       0.00000000 </v>
  </generation>
  <varray name="kpointlist" >
   <v>       0.00000000       0.00000000       0.00000000 </v>
   <v>       0.12500000       0.00000000       0.00000000 </v>
   <v>       0.25000000       0.00000000       0.00000000 </v>
   <v>       0.37500000       0.00000000       0.00000000 </v>
   <v>       0.50000000       0.00000000       0.00000000 </v>
   <v>       0.00000000       0.12500000       0.00000000 </v>
   <v>       0.12500000       0.12500000       0.00000000 </v>
   <v>       0.25000000       0.12500000       0.00000000 </v>
   <v>       0.37500000       0.12500000       0.00000000 </v>
   <v>       0.50000000       0.12500000       0.00000000 </v>
   <v>      -0.37500000       0.12500000       0.00000000 </v>
   <v>      -0.25000000       0.12500000       0.00000000 </v>
   <v>      -0.12500000       0.12500000       0.00000000 </v>
   <v>       0.00000000       0.25000000       0.00000000 </v>
   <v>       0.12500000       0.25000000       0.00000000 </v>
   <v>       0.25000000       0.25000000       0.00000000 </v>
   <v>       0.37500000       0.25000000       0.00000000 </v>
   <v>       0.50000000       0.25000000       0.00000000 </v>
   <v>      -0.37500000       0.25000000       0.00000000 </v>
   <v>      -0.25000000       0.25000000       0.00000000 </v>
   <v>      -0.12500000       0.25000000       0.00000000 </v>
   <v>      -0.00000000       0.37500000       0.00000000 </v>
   <v>       0.12500000       0.37500000       0.00000000 </v>
   <v>       0.25000000       0.37500000       0.00000000 </v>
   <v>       0.37500000       0.37500000       0.00000000 </v>
   <v>       0.50000000       0.37500000       0.00000000 </v>
   <v>      -0.37500000       0.37500000       0.00000000 </v>
   <v>      -0.25000000       0.37500000       0.00000000 </v>
   <v>      -0.12500000       0.37500000       0.00000000 </v>
   <v>       0.00000000       0.50000000       0.00000000 </v>
   <v>       0.12500000       0.50000000       0.00000000 </v>
   <v>       0.25000000       0.50000000       0.00000000 </v>
   <v>       0.37500000       0.50000000       0.00000000 </v>
   <v>       0.50000000       0.50000000       0.00000000 </v>
  </varray>
  <varray name="weights" >
   <v>       0.01562500 </v>
   <v>       0.03125000 </v>
   <v>       0.03125000 </v>
   <v>       0.03125000 </v>
   <v>       0.01562500 </v>
   <v>       0.03125000 </v>
   <v>       0.03125000 </v>
   <v>       0.03125000 </v>
   <v>       0.03125000 </v>
   <v>       0.03125000 </v>
   <v>       0.03125000 </v>
   <v>       0.03125000 </v>
   <v>       0.03125000 </v>
   <v>       0.03125000 </v>
   <v>       0.03125000 </v>
   <v>       0.03125000 </v>
   <v>       0.03125000 </v>
   <v>       0.03125000 </v>
   <v>       0.03125000 </v>
   <v>       0.03125000 </v>
   <v>       0.03125000 </v>
   <v>       0.03125000 </v>
   <v>       0.03125000 </v>
   <v>       0.03125000 </v>
   <v>       0.03125000 </v>
   <v>       0.03125000 </v>
   <v>       0.03125000 </v>
   <v>       0.03125000 </v>
   <v>       0.03125000 </v>
   <v>       0.01562500 </v>
   <v>       0.03125000 </v>
   <v>       0.03125000 </v>
   <v>       0.03125000 </v>
   <v>       0.01562500 </v>
  </varray>
 </kpoints>
 <parameters>
  <separator name="general" >
   <i type="string" name="SYSTEM">unknown system</i>
   <i type="logical" name="LCOMPAT"> F  </i>
  </separator>
  <separator name="electronic" >
   <i type="string" name="PREC">normal</i>
   <i name="ENMAX">    280.00000000</i>
   <i name="ENAUG">    373.43800000</i>
   <i name="EDIFF">      0.00010000</i>
   <i type="int" name="IALGO">    38</i>
   <i type="int" name="IWAVPR">    11</i>
   <i type="int" name="NBANDS">   120</i>
   <i name="NELECT">    159.00000000</i>
   <i type="int" name="TURBO">     0</i>
   <i type="int" name="IRESTART">     0</i>
   <i type="int" name="NREBOOT">     0</i>
   <i type="int" name="NMIN">     0</i>
   <i name="EREF">      0.00000000</i>
   <separator name="electronic smearing" >
    <i type="int" name="ISMEAR">     0</i>
    <i name="SIGMA">      0.20000000</i>
    <i name="KSPACING">      0.50000000</i>
    <i type="logical" name="KGAMMA"> T  </i>
   </separator>
   <separator name="electronic projectors" >
    <i type="logical" name="LREAL"> F  </i>
    <v name="ROPT">      0.00000000      0.00000000      0.00000000      0.00000000</v>
    <i type="int" name="LMAXPAW">  -100</i>
    <i type="int" name="LMAXMIX">     2</i>
    <i type="logical" name="NLSPLINE"> F  </i>
   </separator>
   <separator name="electronic startup" >
    <i type="int" name="ISTART">     0</i>
    <i type="int" name="ICHARG">     2</i>
    <i type="int" name="INIWAV">     1</i>
   </separator>
   <separator name="electronic spin" >
    <i type="int" name="ISPIN">     1</i>
    <i type="logical" name="LNONCOLLINEAR"> F  </i>
    <v name="MAGMOM">      1.00000000      1.00000000      1.00000000      1.00000000      1.00000000      1.00000000      1.00000000      1.00000000      1.00000000      1.00000000      1.00000000      1.00000000      1.00000000      1.00000000      1.00000000      1.00000000      1.00000000      1.00000000      1.00000000      1.00000000
      1.00000000      1.00000000      1.00000000      1.00000000      1.00000000      1.00000000      1.00000000</v>
    <i name="NUPDOWN">     -1.00000000</i>
    <i type="logical" name="LSORBIT"> F  </i>
    <v name="SAXIS">      0.00000000      0.00000000      1.00000000</v>
    <i type="logical" name="LSPIRAL"> F  </i>
    <v name="QSPIRAL">      0.00000000      0.00000000      0.00000000</v>
    <i type="logical" name="LZEROZ"> F  </i>
   </separator>
   <separator name="electronic exchange-correlation" >
    <i type="logical" name="LASPH"> F  </i>
    <i type="logical" name="LMETAGGA"> F  </i>
   </separator>
   <separator name="electronic convergence" >
    <i type="int" name="NELM">    60</i>
    <i type="int" name="NELMDL">    -5</i>
    <i type="int" name="NELMIN">     2</i>
    <i name="ENINI">    280.00000000</i>
    <separator name="electronic convergence detail" >
     <i type="logical" name="LDIAG"> T  </i>
     <i type="logical" name="LSUBROT"> F  </i>
     <i name="WEIMIN">      0.00100000</i>
     <i name="EBREAK">      0.00000021</i>
     <i name="DEPER">      0.30000000</i>
     <i type="int" name="NRMM">     4</i>
     <i name="TIME">      0.40000000</i>
    </separator>
   </separator>
   <separator name="electronic mixer" >
    <i name="AMIX">      0.40000000</i>
    <i name="BMIX">      1.00000000</i>
    <i name="AMIN">      0.10000000</i>
    <i name="AMIX_MAG">      1.60000000</i>
    <i name="BMIX_MAG">      1.00000000</i>
    <separator name="electronic mixer details" >
     <i type="int" name="IMIX">     4</i>
     <i type="logical" name="MIXFIRST"> F  </i>
     <i type="int" name="MAXMIX">   -45</i>
     <i name="WC">    100.00000000</i>
     <i type="int" name="INIMIX">     1</i>
     <i type="int" name="MIXPRE">     1</i>
     <i type="int" name="MREMOVE">     5</i>
    </separator>
   </separator>
   <separator name="electronic dipolcorrection" >
    <i type="logical" name="LDIPOL"> F  </i>
    <i type="logical" name="LMONO"> F  </i>
    <i type="int" name="IDIPOL">     0</i>
    <i name="EPSILON">      1.00000000</i>
    <v name="DIPOL">   -100.00000000   -100.00000000   -100.00000000</v>
    <i name="EFIELD">      0.00000000</i>
   </separator>
  </separator>
  <separator name="grids" >
   <i type="int" name="NGX">    42</i>
   <i type="int" name="NGY">    42</i>
   <i type="int" name="NGZ">   126</i>
   <i type="int" name="NGXF">    84</i>
   <i type="int" name="NGYF">    84</i>
   <i type="int" name="NGZF">   252</i>
   <i type="logical" name="ADDGRID"> F  </i>
  </separator>
  <separator name="ionic" >
   <i type="int" name="NSW">   100</i>
   <i type="int" name="IBRION">     1</i>
   <i type="int" name="ISIF">     3</i>
   <i name="PSTRESS">      0.00000000</i>
   <i name="EDIFFG">      0.00100000</i>
   <i type="int" name="NFREE">     0</i>
   <i name="POTIM">      0.50000000</i>
   <i name="SMASS">     -3.00000000</i>
   <i name="SCALEE">      1.00000000</i>
  </separator>
  <separator name="ionic md" >
   <i name="TEBEG">      0.00010000</i>
   <i name="TEEND">      0.00010000</i>
   <i type="int" name="NBLOCK">     1</i>
   <i type="int" name="KBLOCK">   100</i>
   <i type="int" name="NPACO">   256</i>
   <i name="APACO">     16.00000000</i>
  </separator>
  <separator name="symmetry" >
   <i type="int" name="ISYM">     0</i>
   <i name="SYMPREC">      0.00000001</i>
  </separator>
  <separator name="dos" >
   <i type="logical" name="LORBIT"> F  </i>
   <v name="RWIGS">     -1.00000000     -1.00000000     -1.00000000     -1.00000000</v>
   <i type="int" name="NEDOS">   301</i>
   <i name="EMIN">     10.00000000</i>
   <i name="EMAX">    -10.00000000</i>
   <i name="EFERMI">      0.00000000</i>
  </separator>
  <separator name="writing" >
   <i type="int" name="NWRITE">     2</i>
   <i type="logical" name="LWAVE"> F  </i>
   <i type="logical" name="LCHARG"> F  </i>
   <i type="logical" name="LPARD"> F  </i>
   <i type="logical" name="LVTOT"> F  </i>
   <i type="logical" name="LVHAR"> F  </i>
   <i type="logical" name="LELF"> F  </i>
   <i type="logical" name="LOPTICS"> F  </i>
   <v name="STM">      0.00000000      0.00000000      0.00000000      0.00000000      0.00000000      0.00000000      0.00000000</v>
  </separator>
  <separator name="performance" >
   <i type="int" name="NPAR">    40</i>
   <i type="int" name="NSIM">     4</i>
   <i type="int" name="NBLK">    -1</i>
   <i type="logical" name="LPLANE"> F  </i>
   <i type="logical" name="LSCALAPACK"> T  </i>
   <i type="logical" name="LSCAAWARE"> F  </i>
   <i type="logical" name="LSCALU"> F  </i>
   <i type="logical" name="LASYNC"> F  </i>
   <i type="logical" name="LORBITALREAL"> F  </i>
  </separator>
  <separator name="miscellaneous" >
   <i type="int" name="IDIOT">     3</i>
   <i type="logical" name="LMUSIC"> F  </i>
   <v name="POMASS">     50.94100000     95.94000000    183.85000000     32.06600000</v>
   <v name="DARWINR">      0.00000000      0.00000000      0.00000000      0.00000000</v>
   <v name="DARWINV">      1.00000000      1.00000000      1.00000000      1.00000000</v>
   <i type="logical" name="LCORR"> T  </i>
  </separator>
  <i type="logical" name="GGA_COMPAT"> T  </i>
  <i type="logical" name="LBERRY"> F  </i>
  <i type="int" name="ICORELEVEL">     0</i>
  <i type="logical" name="LDAU"> F  </i>
  <i type="int" name="I_CONSTRAINED_M">     0</i>
  <separator name="electronic exchange-correlation" >
   <i type="string" name="GGA">--</i>
   <i type="int" name="VOSKOWN">     0</i>
   <i type="logical" name="LHFCALC"> F  </i>
   <i type="string" name="PRECFOCK"></i>
   <i type="logical" name="LSYMGRAD"> F  </i>
   <i type="logical" name="LHFONE"> F  </i>
   <i type="logical" name="LRHFCALC"> F  </i>
   <i type="logical" name="LTHOMAS"> F  </i>
   <i type="logical" name="LMODELHF"> F  </i>
   <i name="ENCUT4O">     -1.00000000</i>
   <i type="int" name="EXXOEP">     0</i>
   <i type="int" name="FOURORBIT">     0</i>
   <i name="AEXX">      0.00000000</i>
   <i name="HFALPHA">      0.00000000</i>
   <i name="MCALPHA">      0.00000000</i>
   <i name="ALDAX">      1.00000000</i>
   <i name="AGGAX">      1.00000000</i>
   <i name="ALDAC">      1.00000000</i>
   <i name="AGGAC">      1.00000000</i>
   <i type="int" name="NKREDX">     1</i>
   <i type="int" name="NKREDY">     1</i>
   <i type="int" name="NKREDZ">     1</i>
   <i type="logical" name="SHIFTRED"> F  </i>
   <i type="logical" name="ODDONLY"> F  </i>
   <i type="logical" name="EVENONLY"> F  </i>
   <i type="int" name="LMAXFOCK">     0</i>
   <i type="int" name="NMAXFOCKAE">     0</i>
   <i type="logical" name="LFOCKAEDFT"> F  </i>
   <i name="HFSCREEN">      0.00000000</i>
   <i name="HFSCREENC">      0.00000000</i>
   <i type="int" name="NBANDSGWLOW">     0</i>
  </separator>
  <separator name="vdW DFT" >
   <i type="logical" name="LUSE_VDW"> F  </i>
   <i name="Zab_VDW">     -0.84910000</i>
   <i name="PARAM1">      0.12340000</i>
   <i name="PARAM2">      1.00000000</i>
   <i name="PARAM3">      0.00000000</i>
  </separator>
  <separator name="model GW" >
   <i type="int" name="MODEL_GW">     0</i>
   <i name="MODEL_EPS0">     58.26239943</i>
   <i name="MODEL_ALPHA">      1.00000000</i>
  </separator>
  <separator name="linear response parameters" >
   <i type="logical" name="LEPSILON"> F  </i>
   <i type="logical" name="LRPA"> F  </i>
   <i type="logical" name="LNABLA"> F  </i>
   <i type="logical" name="LVEL"> F  </i>
   <i type="int" name="KINTER">     0</i>
   <i name="CSHIFT">      0.10000000</i>
   <i name="OMEGAMAX">     -1.00000000</i>
   <i name="DEG_THRESHOLD">      0.00200000</i>
  </separator>
  <separator name="orbital magnetization" >
   <i type="logical" name="NUCIND"> F  </i>
   <v name="MAGPOS">      0.00000000      0.00000000      0.00000000</v>
   <i type="logical" name="LNICSALL"> T  </i>
   <i type="logical" name="ORBITALMAG"> F  </i>
   <i type="logical" name="LMAGBLOCH"> F  </i>
   <i type="logical" name="LCHIMAG"> F  </i>
   <i type="logical" name="LGAUGE"> T  </i>
   <i type="int" name="MAGATOM">     0</i>
   <v name="MAGDIPOL">      0.00000000      0.00000000      0.00000000</v>
   <v name="AVECCONST">      0.00000000      0.00000000      0.00000000</v>
  </separator>
  <separator name="response functions" >
   <i type="logical" name="LADDER"> F  </i>
   <i type="logical" name="LFXC"> F  </i>
   <i type="logical" name="LHARTREE"> T  </i>
   <i type="int" name="IBSE">     0</i>
   <v type="int" name="KPOINT">    -1     0     0     0</v>
   <i type="logical" name="LTCTE"> F  </i>
   <i type="logical" name="LTETE"> F  </i>
   <i type="logical" name="LTRIPLET"> F  </i>
   <i type="logical" name="LFXCEPS"> F  </i>
   <i type="logical" name="LFXHEG"> F  </i>
   <i type="int" name="NATURALO">     0</i>
   <i type="logical" name="L2ORDER"> F  </i>
   <i type="logical" name="LUSEW"> F  </i>
   <i name="ENCUTGW">     -2.00000000</i>
   <i name="ENCUTGWSOFT">     -2.00000000</i>
   <i name="ENCUTLF">     -1.00000000</i>
   <i type="int" name="LMAXMP2">    -1</i>
   <i name="SCISSOR">      0.00000000</i>
   <i type="int" name="NOMEGA">     0</i>
   <i type="int" name="NOMEGAR">     0</i>
   <i type="int" name="NBANDSGW">    -1</i>
   <i type="int" name="NBANDSO">    -1</i>
   <i type="int" name="NBANDSV">    -1</i>
   <i type="int" name="NELM">     1</i>
   <i type="int" name="NELMHF">     1</i>
   <i type="int" name="DIM">     3</i>
   <i type="int" name="ANTIRES">     0</i>
   <i name="OMEGAMAX">    -30.00000000</i>
   <i name="OMEGAMIN">    -30.00000000</i>
   <i name="OMEGATL">   -200.00000000</i>
   <i type="int" name="OMEGAGRID">     0</i>
   <i name="CSHIFT">     -0.10000000</i>
   <i type="logical" name="SELFENERGY"> F  </i>
   <i type="logical" name="LSPECTRAL"> F  </i>
   <i type="logical" name="LSPECTRALGW"> F  </i>
   <i type="logical" name="LSINGLES"> F  </i>
   <i type="logical" name="LFERMIGW"> F  </i>
   <i type="logical" name="ODDONLYGW"> F  </i>
   <i type="logical" name="EVENONLYGW"> F  </i>
   <i type="int" name="NKREDLFX">     1</i>
   <i type="int" name="NKREDLFY">     1</i>
   <i type="int" name="NKREDLFZ">     1</i>
   <i type="int" name="MAXMEM">  1800</i>
   <i type="int" name="TELESCOPE">     0</i>
   <i type="int" name="TAUPAR">     1</i>
   <i type="int" name="OMEGAPAR">    -1</i>
   <i name="LAMBDA">      1.00000000</i>
  </separator>
  <separator name="External order field" >
   <i name="OFIELD_KAPPA">      0.00000000</i>
   <v name="OFIELD_K">      0.00000000      0.00000000      0.00000000</v>
   <i name="OFIELD_Q6_NEAR">      0.00000000</i>
   <i name="OFIELD_Q6_FAR">      0.00000000</i>
   <i name="OFIELD_A">      0.00000000</i>
  </separator>
 </parameters>
 <atominfo>
  <atoms>      27 </atoms>
  <types>       4 </types>
  <array name="atoms" >
   <dimension dim="1">ion</dimension>
   <field type="string">element</field>
   <field type="int">atomtype</field>
   <set>
    <rc><c>V </c><c>   1</c></rc>
    <rc><c>V </c><c>   1</c></rc>
    <rc><c>V </c><c>   1</c></rc>
    <rc><c>Mo</c><c>   2</c></rc>
    <rc><c>Mo</c><c>   2</c></rc>
    <rc><c>Mo</c><c>   2</c></rc>
    <rc><c>W </c><c>   3</c></rc>
    <rc><c>W </c><c>   3</c></rc>
    <rc><c>W </c><c>   3</c></rc>
    <rc><c>S </c><c>   4</c></rc>
    <rc><c>S </c><c>   4</c></rc>
    <rc><c>S </c><c>   4</c></rc>
    <rc><c>S </c><c>   4</c></rc>
    <rc><c>S </c><c>   4</c></rc>
    <rc><c>S </c><c>   4</c></rc>
    <rc><c>S </c><c>   4</c></rc>
    <rc><c>S </c><c>   4</c></rc>
    <rc><c>S </c><c>   4</c></rc>
    <rc><c>S </c><c>   4</c></rc>
    <rc><c>S </c><c>   4</c></rc>
    <rc><c>S </c><c>   4</c></rc>
    <rc><c>S </c><c>   4</c></rc>
    <rc><c>S </c><c>   4</c></rc>
    <rc><c>S </c><c>   4</c></rc>
    <rc><c>S </c><c>   4</c></rc>
    <rc><c>S </c><c>   4</c></rc>
    <rc><c>S </c><c>   4</c></rc>
   </set>
  </array>
  <array name="atomtypes" >
   <dimension dim="1">type</dimension>
   <field type="int">atomspertype</field>
   <field type="string">element</field>
   <field>mass</field>
   <field>valence</field>
   <field type="string">pseudopotential</field>
   <set>
    <rc><c>   3</c><c>V </c><c>     50.94100000</c><c>      5.00000000</c><c> PAW_PBE V 08Apr2002                    </c></rc>
    <rc><c>   3</c><c>Mo</c><c>     95.94000000</c><c>      6.00000000</c><c> PAW_PBE Mo 08Apr2002                   </c></rc>
    <rc><c>   3</c><c>W </c><c>    183.85000000</c><c>      6.00000000</c><c> PAW_PBE W 08Apr2002                    </c></rc>
    <rc><c>  18</c><c>S </c><c>     32.06600000</c><c>      6.00000000</c><c>  PAW_PBE S 17Jan2003                   </c></rc>
   </set>
  </array>
 </atominfo>
 <structure name="initialpos" >
  <crystal>
   <varray name="basis" >
    <v>       8.66999996       5.03999989       0.00000000 </v>
    <v>      -8.66999982       5.04000013       0.00000000 </v>
    <v>       0.00000000       0.00000000      30.00000000 </v>
   </varray>
   <i name="volume">   2621.80797419 </i>
   <varray name="rec_basis" >
    <v>       0.05767013       0.09920635       0.00000000 </v>
    <v>      -0.05767013       0.09920635       0.00000000 </v>
    <v>       0.00000000       0.00000000       0.03333333 </v>
   </varray>
  </crystal>
  <varray name="positions" >
   <v>       0.33333334       0.66666669       0.00000000 </v>
   <v>       1.00000000       0.33333334       0.00000000 </v>
   <v>       0.00000000       0.00000000       0.00000000 </v>
   <v>       0.66666669       0.00000000       0.00000000 </v>
   <v>       0.00000000       0.66666669       0.00000000 </v>
   <v>       0.33333334       0.00000000       0.00000000 </v>
   <v>       0.33333334       0.33333334       0.00000000 </v>
   <v>       0.66666669       0.33333334       0.00000000 </v>
   <v>       0.66666669       0.66666669       0.00000000 </v>
   <v>       0.11068511       0.22244981       0.95539999 </v>
   <v>       0.22244981       0.11068511       0.04460000 </v>
   <v>       0.11068511       0.55578315       0.95539999 </v>
   <v>       0.22244981       0.44401845       0.04460000 </v>
   <v>       0.11068511       0.88911647       0.95539999 </v>
   <v>       0.22244981       0.77735180       0.04460000 </v>
   <v>       0.44401845       0.22244981       0.95539999 </v>
   <v>       0.55578315       0.11068511       0.04460000 </v>
   <v>       0.44401845       0.55578315       0.95539999 </v>
   <v>       0.55578315       0.44401845       0.04460000 </v>
   <v>       0.44401845       0.88911647       0.95539999 </v>
   <v>       0.55578315       0.77735180       0.04460000 </v>
   <v>       0.77735180       0.22244981       0.95539999 </v>
   <v>       0.88911647       0.11068511       0.04460000 </v>
   <v>       0.77735180       0.55578315       0.95539999 </v>
   <v>       0.88911647       0.44401845       0.04460000 </v>
   <v>       0.77735180       0.88911647       0.95539999 </v>
   <v>       0.88911647       0.77735180       0.04460000 </v>
  </varray>
 </structure>
 <calculation>
  <scstep>
   <time name="dav">   22.02   22.08</time>
   <time name="total">   22.07   22.13</time>
   <energy>
    <i name="alphaZ">     81.65567618 </i>
    <i name="ewald">  41890.23010355 </i>
    <i name="hartreedc"> -47722.87377280 </i>
    <i name="XCdc">   -242.92719659 </i>
    <i name="pawpsdc">   3467.42045192 </i>
    <i name="pawaedc">  -2871.19716117 </i>
    <i name="eentropy">     -0.53243784 </i>
    <i name="bandstr">   -237.06290260 </i>
    <i name="atom">   6761.44252427 </i>
    <i name="e_fr_energy">   1126.15528492 </i>
    <i name="e_wo_entrp">   1126.68772276 </i>
    <i name="e_0_energy">   1126.42150384 </i>
   </energy>
  </scstep>
  <scstep>
   <time name="dav">   28.34   28.40</time>
   <time name="total">   28.34   28.41</time>
   <energy>
    <i name="e_fr_energy">     -0.95617778 </i>
    <i name="e_wo_entrp">     -0.75789320 </i>
    <i name="e_0_energy">     -0.85703549 </i>
   </energy>
  </scstep>
  <scstep>
   <time name="dav">   27.93   27.99</time>
   <time name="total">   27.93   28.00</time>
   <energy>
    <i name="e_fr_energy">   -199.67044464 </i>
    <i name="e_wo_entrp">   -199.40634765 </i>
    <i name="e_0_energy">   -199.53839614 </i>
   </energy>
  </scstep>
  <scstep>
   <time name="dav">   30.56   30.63</time>
   <time name="total">   30.56   30.64</time>
   <energy>
    <i name="e_fr_energy">   -208.99431518 </i>
    <i name="e_wo_entrp">   -208.69488167 </i>
    <i name="e_0_energy">   -208.84459843 </i>
   </energy>
  </scstep>
  <scstep>
   <time name="dav">   28.99   29.06</time>
   <time name="total">   29.46   29.54</time>
   <energy>
    <i name="e_fr_energy">   -209.32437570 </i>
    <i name="e_wo_entrp">   -209.02820885 </i>
    <i name="e_0_energy">   -209.17629228 </i>
   </energy>
  </scstep>
  <scstep>
   <time name="dav">   31.19   31.27</time>
   <time name="total">   31.69   31.78</time>
   <energy>
    <i name="e_fr_energy">   -236.76335486 </i>
    <i name="e_wo_entrp">   -236.48528323 </i>
    <i name="e_0_energy">   -236.62431905 </i>
   </energy>
  </scstep>
  <scstep>
   <time name="dav">   32.40   32.47</time>
   <time name="total">   32.90   32.99</time>
   <energy>
    <i name="e_fr_energy">   -196.50961462 </i>
    <i name="e_wo_entrp">   -196.19033618 </i>
    <i name="e_0_energy">   -196.34997540 </i>
   </energy>
  </scstep>
  <scstep>
   <time name="dav">   30.33   30.40</time>
   <time name="total">   30.84   30.92</time>
   <energy>
    <i name="e_fr_energy">   -189.38906915 </i>
    <i name="e_wo_entrp">   -189.09338556 </i>
    <i name="e_0_energy">   -189.24122735 </i>
   </energy>
  </scstep>
  <scstep>
   <time name="dav">   32.61   32.69</time>
   <time name="total">   33.13   33.22</time>
   <energy>
    <i name="e_fr_energy">   -188.12975013 </i>
    <i name="e_wo_entrp">   -187.79677338 </i>
    <i name="e_0_energy">   -187.96326176 </i>
   </energy>
  </scstep>
  <scstep>
   <time name="dav">   33.45   33.54</time>
   <time name="total">   33.99   34.09</time>
   <energy>
    <i name="e_fr_energy">   -187.01114762 </i>
    <i name="e_wo_entrp">   -186.66608908 </i>
    <i name="e_0_energy">   -186.83861835 </i>
   </energy>
  </scstep>
  <scstep>
   <time name="dav">   32.97   33.05</time>
   <time name="total">   33.51   33.60</time>
   <energy>
    <i name="e_fr_energy">   -186.96892227 </i>
    <i name="e_wo_entrp">   -186.61759361 </i>
    <i name="e_0_energy">   -186.79325794 </i>
   </energy>
  </scstep>
  <scstep>
   <time name="dav">   31.41   31.49</time>
   <time name="total">   31.95   32.04</time>
   <energy>
    <i name="e_fr_energy">   -187.10491489 </i>
    <i name="e_wo_entrp">   -186.76523537 </i>
    <i name="e_0_energy">   -186.93507513 </i>
   </energy>
  </scstep>
  <scstep>
   <time name="dav">   32.22   32.30</time>
   <time name="total">   32.76   32.85</time>
   <energy>
    <i name="e_fr_energy">   -186.88781081 </i>
    <i name="e_wo_entrp">   -186.55237289 </i>
    <i name="e_0_energy">   -186.72009185 </i>
   </energy>
  </scstep>
  <scstep>
   <time name="dav">   33.07   33.15</time>
   <time name="total">   33.61   33.70</time>
   <energy>
    <i name="e_fr_energy">   -186.86233476 </i>
    <i name="e_wo_entrp">   -186.51916408 </i>
    <i name="e_0_energy">   -186.69074942 </i>
   </energy>
  </scstep>
  <scstep>
   <time name="dav">   31.28   31.36</time>
   <time name="total">   31.82   31.91</time>
   <energy>
    <i name="e_fr_energy">   -186.83920533 </i>
    <i name="e_wo_entrp">   -186.49294252 </i>
    <i name="e_0_energy">   -186.66607393 </i>
   </energy>
  </scstep>
  <scstep>
   <time name="dav">   30.66   30.73</time>
   <time name="total">   31.20   31.28</time>
   <energy>
    <i name="e_fr_energy">   -186.83223747 </i>
    <i name="e_wo_entrp">   -186.48591976 </i>
    <i name="e_0_energy">   -186.65907862 </i>
   </energy>
  </scstep>
  <scstep>
   <time name="dav">   32.11   32.19</time>
   <time name="total">   32.65   32.74</time>
   <energy>
    <i name="e_fr_energy">   -186.83047188 </i>
    <i name="e_wo_entrp">   -186.48618671 </i>
    <i name="e_0_energy">   -186.65832929 </i>
   </energy>
  </scstep>
  <scstep>
   <time name="dav">   30.76   30.83</time>
   <time name="total">   31.30   31.38</time>
   <energy>
    <i name="e_fr_energy">   -186.82970799 </i>
    <i name="e_wo_entrp">   -186.48557390 </i>
    <i name="e_0_energy">   -186.65764095 </i>
   </energy>
  </scstep>
  <scstep>
   <time name="dav">   28.77   28.84</time>
   <time name="total">   29.31   29.39</time>
   <energy>
    <i name="e_fr_energy">   -186.82931319 </i>
    <i name="e_wo_entrp">   -186.48463630 </i>
    <i name="e_0_energy">   -186.65697475 </i>
   </energy>
  </scstep>
  <scstep>
   <time name="dav">   24.06   24.12</time>
   <time name="total">   24.60   24.67</time>
   <energy>
    <i name="e_fr_energy">   -186.83004882 </i>
    <i name="e_wo_entrp">   -186.48561204 </i>
    <i name="e_0_energy">   -186.65783043 </i>
   </energy>
  </scstep>
  <scstep>
   <time name="dav">   22.05   22.10</time>
   <time name="total">   22.60   22.65</time>
   <energy>
    <i name="e_fr_energy">   -186.83062852 </i>
    <i name="e_wo_entrp">   -186.48630148 </i>
    <i name="e_0_energy">   -186.65846500 </i>
   </energy>
  </scstep>
  <scstep>
   <time name="dav">   20.71   20.76</time>
   <time name="total">   21.25   21.31</time>
   <energy>
    <i name="e_fr_energy">   -186.83180185 </i>
    <i name="e_wo_entrp">   -186.48733604 </i>
    <i name="e_0_energy">   -186.65956894 </i>
   </energy>
  </scstep>
  <scstep>
   <time name="dav">   20.70   20.75</time>
   <time name="total">   21.24   21.30</time>
   <energy>
    <i name="e_fr_energy">   -186.83303488 </i>
    <i name="e_wo_entrp">   -186.48866724 </i>
    <i name="e_0_energy">   -186.66085106 </i>
   </energy>
  </scstep>
  <scstep>
   <time name="dav">   19.06   19.11</time>
   <time name="total">   19.60   19.66</time>
   <energy>
    <i name="e_fr_energy">   -186.83363448 </i>
    <i name="e_wo_entrp">   -186.48925034 </i>
    <i name="e_0_energy">   -186.66144241 </i>
   </energy>
  </scstep>
  <scstep>
   <time name="dav">   16.78   16.82</time>
   <time name="total">   17.32   17.37</time>
   <energy>
    <i name="e_fr_energy">   -186.83399658 </i>
    <i name="e_wo_entrp">   -186.48957500 </i>
    <i name="e_0_energy">   -186.66178579 </i>
   </energy>
  </scstep>
  <scstep>
   <time name="dav">   19.30   19.34</time>
   <time name="total">   19.84   19.90</time>
   <energy>
    <i name="e_fr_energy">   -186.83423272 </i>
    <i name="e_wo_entrp">   -186.48982695 </i>
    <i name="e_0_energy">   -186.66202983 </i>
   </energy>
  </scstep>
  <scstep>
   <time name="dav">   20.21   20.26</time>
   <time name="total">   20.25   20.30</time>
   <energy>
    <i name="alphaZ">     81.65567618 </i>
    <i name="ewald">  41890.23010355 </i>
    <i name="hartreedc"> -47832.83591741 </i>
    <i name="XCdc">   -231.61154128 </i>
    <i name="pawpsdc">   4192.05280193 </i>
    <i name="pawaedc">  -3610.05399796 </i>
    <i name="eentropy">     -0.34440807 </i>
    <i name="bandstr">  -1437.36957387 </i>
    <i name="atom">   6761.44252427 </i>
    <i name="e_fr_energy">   -186.83433266 </i>
    <i name="e_wo_entrp">   -186.48992459 </i>
    <i name="e_0_energy">   -186.66212863 </i>
   </energy>
  </scstep>
  <structure>
   <crystal>
    <varray name="basis" >
     <v>       8.66999996       5.03999989       0.00000000 </v>
     <v>      -8.66999982       5.04000013       0.00000000 </v>
     <v>       0.00000000       0.00000000      30.00000000 </v>
    </varray>
    <i name="volume">   2621.80797419 </i>
    <varray name="rec_basis" >
     <v>       0.05767013       0.09920635       0.00000000 </v>
     <v>      -0.05767013       0.09920635       0.00000000 </v>
     <v>       0.00000000       0.00000000       0.03333333 </v>
    </varray>
   </crystal>
   <varray name="positions" >
    <v>       0.33333334       0.66666669       0.00000000 </v>
    <v>       1.00000000       0.33333334       0.00000000 </v>
    <v>       0.00000000       0.00000000       0.00000000 </v>
    <v>       0.66666669       0.00000000       0.00000000 </v>
    <v>       0.00000000       0.66666669       0.00000000 </v>
    <v>       0.33333334       0.00000000       0.00000000 </v>
    <v>       0.33333334       0.33333334       0.00000000 </v>
    <v>       0.66666669       0.33333334       0.00000000 </v>
    <v>       0.66666669       0.66666669       0.00000000 </v>
    <v>       0.11068511       0.22244981       0.95539999 </v>
    <v>       0.22244981       0.11068511       0.04460000 </v>
    <v>       0.11068511       0.55578315       0.95539999 </v>
    <v>       0.22244981       0.44401845       0.04460000 </v>
    <v>       0.11068511       0.88911647       0.95539999 </v>
    <v>       0.22244981       0.77735180       0.04460000 </v>
    <v>       0.44401845       0.22244981       0.95539999 </v>
    <v>       0.55578315       0.11068511       0.04460000 </v>
    <v>       0.44401845       0.55578315       0.95539999 </v>
    <v>       0.55578315       0.44401845       0.04460000 </v>
    <v>       0.44401845       0.88911647       0.95539999 </v>
    <v>       0.55578315       0.77735180       0.04460000 </v>
    <v>       0.77735180       0.22244981       0.95539999 </v>
    <v>       0.88911647       0.11068511       0.04460000 </v>
    <v>       0.77735180       0.55578315       0.95539999 </v>
    <v>       0.88911647       0.44401845       0.04460000 </v>
    <v>       0.77735180       0.88911647       0.95539999 </v>
    <v>       0.88911647       0.77735180       0.04460000 </v>
   </varray>
  </structure>
  <varray name="forces" >
   <v>      -0.44201865       0.15650284      -0.11198294 </v>
   <v>      -0.13062108      -0.07864811       0.02248088 </v>
   <v>       0.13627516      -0.08549287       0.12381597 </v>
   <v>      -0.21739397      -0.10395338       0.06435882 </v>
   <v>       0.05366067       0.29798636      -0.08445644 </v>
   <v>       0.26101089      -0.14547572      -0.14051659 </v>
   <v>       0.13679473      -0.22278390       0.02948801 </v>
   <v>       0.33653475      -0.15607204      -0.00531364 </v>
   <v>      -0.05898952       0.32918761       0.12364955 </v>
   <v>      -0.23814117      -0.51802993      -1.41417638 </v>
   <v>      -0.64633942      -0.56982811       2.14889000 </v>
   <v>       0.90064837       0.02137624      -1.47045535 </v>
   <v>      -0.73544422      -0.00049573       1.43557899 </v>
   <v>      -0.72972940       0.01136857      -2.10362612 </v>
   <v>       0.74012051      -0.01033922       2.13934946 </v>
   <v>       0.06336528       0.13170103      -2.91932983 </v>
   <v>      -0.21246204       0.17116179       2.89059536 </v>
   <v>      -0.62814419      -0.00745954      -2.11195342 </v>
   <v>      -0.13171178       0.02917765       2.92749135 </v>
   <v>       0.52182600      -0.72446791      -2.20008400 </v>
   <v>      -0.35025082      -0.69990572       2.13880714 </v>
   <v>       0.35318390       0.69883809      -2.18720462 </v>
   <v>       0.33855816       0.66449426       1.40266111 </v>
   <v>       0.07068743      -0.15078448      -2.85838786 </v>
   <v>       0.64606026      -0.15304981       2.11171889 </v>
   <v>       0.60168128       0.55390629      -2.15338938 </v>
   <v>      -0.63916114       0.56108572       2.20199103 </v>
  </varray>
  <varray name="stress" >
   <v>       7.36787340      -0.00084357      -1.55537003 </v>
   <v>      -0.00084349       4.37200441      -0.01977279 </v>
   <v>      -1.55537013      -0.01977274      30.32854060 </v>
  </varray>
  <energy>
   <i name="e_fr_energy">   -186.83433266 </i>
   <i name="e_wo_entrp">   -186.66212863 </i>
   <i name="e_0_energy">     -0.34440807 </i>
  </energy>
  <time name="totalsc">  798.43  800.63</time>
 </calculation>
 <calculation>
  <scstep>
   <time name="dav">   22.02   22.07</time>
   <time name="total">   22.56   22.62</time>
   <energy>
    <i name="alphaZ">     78.92478143 </i>
    <i name="ewald">  39381.12323040 </i>
    <i name="hartreedc"> -45338.55418179 </i>
    <i name="XCdc">   -239.06873835 </i>
    <i name="pawpsdc">   4192.02573941 </i>
    <i name="pawaedc">  -3610.02729632 </i>
    <i name="eentropy">     -0.28569924 </i>
    <i name="bandstr">  -1413.03187518 </i>
    <i name="atom">   6761.44252427 </i>
    <i name="e_fr_energy">   -187.45151536 </i>
    <i name="e_wo_entrp">   -187.16581612 </i>
    <i name="e_0_energy">   -187.30866574 </i>
   </energy>
  </scstep>
  <scstep>
   <time name="dav">   30.64   30.72</time>
   <time name="total">   31.18   31.27</time>
   <energy>
    <i name="e_fr_energy">   -189.26117153 </i>
    <i name="e_wo_entrp">   -188.94627339 </i>
    <i name="e_0_energy">   -189.10372246 </i>
   </energy>
  </scstep>
  <scstep>
   <time name="dav">   30.96   31.03</time>
   <time name="total">   31.51   31.59</time>
   <energy>
    <i name="e_fr_energy">   -189.36299293 </i>
    <i name="e_wo_entrp">   -189.08531611 </i>
    <i name="e_0_energy">   -189.22415452 </i>
   </energy>
  </scstep>
  <scstep>
   <time name="dav">   31.44   31.51</time>
   <time name="total">   31.98   32.07</time>
   <energy>
    <i name="e_fr_energy">   -188.71982437 </i>
    <i name="e_wo_entrp">   -188.43413308 </i>
    <i name="e_0_energy">   -188.57697873 </i>
   </energy>
  </scstep>
  <scstep>
   <time name="dav">   28.87   28.94</time>
   <time name="total">   29.42   29.50</time>
   <energy>
    <i name="e_fr_energy">   -188.73893839 </i>
    <i name="e_wo_entrp">   -188.45155269 </i>
    <i name="e_0_energy">   -188.59524554 </i>
   </energy>
  </scstep>
  <scstep>
   <time name="dav">   31.81   31.88</time>
   <time name="total">   32.35   32.44</time>
   <energy>
    <i name="e_fr_energy">   -188.69990956 </i>
    <i name="e_wo_entrp">   -188.40903961 </i>
    <i name="e_0_energy">   -188.55447459 </i>
   </energy>
  </scstep>
  <scstep>
   <time name="dav">   30.14   30.22</time>
   <time name="total">   30.69   30.78</time>
   <energy>
    <i name="e_fr_energy">   -188.66282585 </i>
    <i name="e_wo_entrp">   -188.37808718 </i>
    <i name="e_0_energy">   -188.52045652 </i>
   </energy>
  </scstep>
  <scstep>
   <time name="dav">   31.81   31.89</time>
   <time name="total">   32.36   32.45</time>
   <energy>
    <i name="e_fr_energy">   -188.63171929 </i>
    <i name="e_wo_entrp">   -188.34632562 </i>
    <i name="e_0_energy">   -188.48902245 </i>
   </energy>
  </scstep>
  <scstep>
   <time name="dav">   31.99   32.07</time>
   <time name="total">   32.54   32.63</time>
   <energy>
    <i name="e_fr_energy">   -188.62967836 </i>
    <i name="e_wo_entrp">   -188.34528419 </i>
    <i name="e_0_energy">   -188.48748127 </i>
   </energy>
  </scstep>
  <scstep>
   <time name="dav">   33.46   33.54</time>
   <time name="total">   34.01   34.10</time>
   <energy>
    <i name="e_fr_energy">   -188.62797538 </i>
    <i name="e_wo_entrp">   -188.34345485 </i>
    <i name="e_0_energy">   -188.48571511 </i>
   </energy>
  </scstep>
  <scstep>
   <time name="dav">   31.38   31.46</time>
   <time name="total">   31.93   32.02</time>
   <energy>
    <i name="e_fr_energy">   -188.62749599 </i>
    <i name="e_wo_entrp">   -188.34321735 </i>
    <i name="e_0_energy">   -188.48535667 </i>
   </energy>
  </scstep>
  <scstep>
   <time name="dav">   27.96   28.03</time>
   <time name="total">   28.00   28.07</time>
   <energy>
    <i name="alphaZ">     78.92478143 </i>
    <i name="ewald">  39381.12323040 </i>
    <i name="hartreedc"> -45349.59529932 </i>
    <i name="XCdc">   -237.97599664 </i>
    <i name="pawpsdc">   3952.54237341 </i>
    <i name="pawaedc">  -3367.06872090 </i>
    <i name="eentropy">     -0.28386771 </i>
    <i name="bandstr">  -1407.73653603 </i>
    <i name="atom">   6761.44252427 </i>
    <i name="e_fr_energy">   -188.62751108 </i>
    <i name="e_wo_entrp">   -188.34364337 </i>
    <i name="e_0_energy">   -188.48557723 </i>
   </energy>
  </scstep>
  <structure>
   <crystal>
    <varray name="basis" >
     <v>       8.85676263       5.10440565       0.00000000 </v>
     <v>      -8.85678734       5.10444866       0.00000000 </v>
     <v>       0.00000000       0.00000000      30.00000000 </v>
    </varray>
    <i name="volume">   2712.52576258 </i>
    <varray name="rec_basis" >
     <v>       0.05645420       0.09795432       0.00000000 </v>
     <v>      -0.05645372       0.09795405       0.00000000 </v>
     <v>       0.00000000       0.00000000       0.03333333 </v>
    </varray>
   </crystal>
   <varray name="positions" >
    <v>       0.33285260       0.66864547      -0.00018008 </v>
    <v>       0.99926018       0.33332034       0.00003615 </v>
    <v>      -0.00003003      -0.00078831       0.00019911 </v>
    <v>       0.66556434       0.00010731       0.00010349 </v>
    <v>       0.00157545       0.66794355      -0.00013581 </v>
    <v>       0.33336327      -0.00142242      -0.00022596 </v>
    <v>       0.33264769       0.33188652       0.00004742 </v>
    <v>       0.66685602       0.33165009      -0.00000854 </v>
    <v>       0.66807805       0.66840629       0.00019884 </v>
    <v>       0.10754328       0.22063308       0.95312587 </v>
    <v>       0.21792441       0.10975615       0.04805560 </v>
    <v>       0.11329316       0.55337971       0.95303537 </v>
    <v>       0.22040131       0.44606220       0.04690854 </v>
    <v>       0.10870930       0.89120110       0.95201717 </v>
    <v>       0.22445946       0.77524318       0.04804026 </v>
    <v>       0.44482506       0.22290384       0.95070545 </v>
    <v>       0.55601123       0.11209539       0.04924833 </v>
    <v>       0.44223515       0.55749505       0.95200378 </v>
    <v>       0.55555635       0.44452454       0.04930766 </v>
    <v>       0.44200297       0.88419738       0.95186206 </v>
    <v>       0.55145897       0.77497652       0.04803939 </v>
    <v>       0.78167903       0.22481182       0.95188277 </v>
    <v>       0.89323864       0.11292344       0.04685560 </v>
    <v>       0.77682681       0.55486484       0.95080345 </v>
    <v>       0.89018142       0.44148852       0.04799583 </v>
    <v>       0.78167675       0.89009348       0.95193715 </v>
    <v>       0.89002356       0.78181539       0.04814100 </v>
   </varray>
  </structure>
  <varray name="forces" >
   <v>      -0.39782214       0.18070318      -0.04219174 </v>
   <v>      -0.16303871      -0.09913880       0.08923646 </v>
   <v>       0.16540256      -0.14844559       0.04031921 </v>
   <v>      -0.34618008      -0.13358190       0.07642952 </v>
   <v>      -0.11257137       0.20465150      -0.08654828 </v>
   <v>       0.23395407       0.03997589      -0.04657510 </v>
   <v>       0.33558125      -0.02120620       0.01155412 </v>
   <v>       0.15457372      -0.24540922       0.00694717 </v>
   <v>       0.08435928       0.23854983      -0.05180088 </v>
   <v>       0.05972319       0.06497500       0.14168317 </v>
   <v>      -0.07364069       0.03344077      -0.01439500 </v>
   <v>       0.03904597       0.00922291       0.04499421 </v>
   <v>       0.10256465      -0.00266074      -0.24570041 </v>
   <v>      -0.06742231       0.00782106      -0.09188935 </v>
   <v>       0.06060605      -0.00787797       0.12860387 </v>
   <v>      -0.06016255       0.09313018      -0.04751475 </v>
   <v>      -0.06966577       0.08983940       0.14627172 </v>
   <v>       0.08641710      -0.00426440       0.20274365 </v>
   <v>       0.03375405       0.01654090      -0.10300848 </v>
   <v>       0.03203876      -0.08638730      -0.20754964 </v>
   <v>       0.10333324      -0.07313742      -0.02894417 </v>
   <v>      -0.08924570       0.05617509      -0.05632626 </v>
   <v>      -0.00045170       0.04368280      -0.11281335 </v>
   <v>      -0.08740731      -0.11492020       0.10980724 </v>
   <v>      -0.01100304      -0.08765239      -0.03611878 </v>
   <v>       0.07368288      -0.03659080       0.07003317 </v>
   <v>      -0.08642540      -0.01743555       0.10275268 </v>
  </varray>
  <varray name="stress" >
   <v>     -19.98075620      -0.01235002       0.07057686 </v>
   <v>      -0.01234990     -19.54521474       0.00392506 </v>
   <v>       0.07057683       0.00392507      -1.79009982 </v>
  </varray>
  <energy>
   <i name="e_fr_energy">   -188.62751108 </i>
   <i name="e_wo_entrp">   -188.48557723 </i>
   <i name="e_0_energy">     -0.28386771 </i>
  </energy>
  <time name="totalsc">  411.25  412.34</time>
 </calculation>
 <calculation>
  <scstep>
   <time name="dav">   24.41   24.47</time>
   <time name="total">   24.95   25.01</time>
   <energy>
    <i name="alphaZ">     82.36016363 </i>
    <i name="ewald">  41310.39725180 </i>
    <i name="hartreedc"> -47309.50163521 </i>
    <i name="XCdc">   -233.84408323 </i>
    <i name="pawpsdc">   3950.38324383 </i>
    <i name="pawaedc">  -3364.88529858 </i>
    <i name="eentropy">     -0.23588698 </i>
    <i name="bandstr">  -1386.66216520 </i>
    <i name="atom">   6761.44252427 </i>
    <i name="e_fr_energy">   -190.54588567 </i>
    <i name="e_wo_entrp">   -190.30999869 </i>
    <i name="e_0_energy">   -190.42794218 </i>
   </energy>
  </scstep>
  <scstep>
   <time name="dav">   28.75   28.82</time>
   <time name="total">   29.27   29.35</time>
   <energy>
    <i name="e_fr_energy">   -190.56661052 </i>
    <i name="e_wo_entrp">   -190.32879489 </i>
    <i name="e_0_energy">   -190.44770271 </i>
   </energy>
  </scstep>
  <scstep>
   <time name="dav">   30.69   30.76</time>
   <time name="total">   31.22   31.30</time>
   <energy>
    <i name="e_fr_energy">   -190.01022029 </i>
    <i name="e_wo_entrp">   -189.76280185 </i>
    <i name="e_0_energy">   -189.88651107 </i>
   </energy>
  </scstep>
  <scstep>
   <time name="dav">   31.49   31.56</time>
   <time name="total">   32.03   32.11</time>
   <energy>
    <i name="e_fr_energy">   -189.81032329 </i>
    <i name="e_wo_entrp">   -189.57415102 </i>
    <i name="e_0_energy">   -189.69223716 </i>
   </energy>
  </scstep>
  <scstep>
   <time name="dav">   28.96   29.02</time>
   <time name="total">   29.49   29.57</time>
   <energy>
    <i name="e_fr_energy">   -189.73455026 </i>
    <i name="e_wo_entrp">   -189.49227053 </i>
    <i name="e_0_energy">   -189.61341040 </i>
   </energy>
  </scstep>
  <scstep>
   <time name="dav">   29.90   29.97</time>
   <time name="total">   30.43   30.51</time>
   <energy>
    <i name="e_fr_energy">   -189.71356527 </i>
    <i name="e_wo_entrp">   -189.47522409 </i>
    <i name="e_0_energy">   -189.59439468 </i>
   </energy>
  </scstep>
  <scstep>
   <time name="dav">   31.33   31.40</time>
   <time name="total">   31.86   31.95</time>
   <energy>
    <i name="e_fr_energy">   -189.70564583 </i>
    <i name="e_wo_entrp">   -189.46676003 </i>
    <i name="e_0_energy">   -189.58620293 </i>
   </energy>
  </scstep>
  <scstep>
   <time name="dav">   28.03   28.10</time>
   <time name="total">   28.57   28.65</time>
   <energy>
    <i name="e_fr_energy">   -189.70570879 </i>
    <i name="e_wo_entrp">   -189.46714397 </i>
    <i name="e_0_energy">   -189.58642638 </i>
   </energy>
  </scstep>
  <scstep>
   <time name="dav">   27.73   27.80</time>
   <time name="total">   28.27   28.34</time>
   <energy>
    <i name="e_fr_energy">   -189.70591083 </i>
    <i name="e_wo_entrp">   -189.46701559 </i>
    <i name="e_0_energy">   -189.58646321 </i>
   </energy>
  </scstep>
  <scstep>
   <time name="dav">   26.79   26.85</time>
   <time name="total">   27.32   27.40</time>
   <energy>
    <i name="e_fr_energy">   -189.70627377 </i>
    <i name="e_wo_entrp">   -189.46751616 </i>
    <i name="e_0_energy">   -189.58689497 </i>
   </energy>
  </scstep>
  <scstep>
   <time name="dav">   25.89   25.95</time>
   <time name="total">   26.42   26.50</time>
   <energy>
    <i name="e_fr_energy">   -189.70571663 </i>
    <i name="e_wo_entrp">   -189.46689193 </i>
    <i name="e_0_energy">   -189.58630428 </i>
   </energy>
  </scstep>
  <scstep>
   <time name="dav">   18.25   18.29</time>
   <time name="total">   18.28   18.33</time>
   <energy>
    <i name="alphaZ">     82.36016363 </i>
    <i name="ewald">  41310.39725180 </i>
    <i name="hartreedc"> -47282.75242419 </i>
    <i name="XCdc">   -235.24326523 </i>
    <i name="pawpsdc">   4038.89052188 </i>
    <i name="pawaedc">  -3454.59052313 </i>
    <i name="eentropy">     -0.23873637 </i>
    <i name="bandstr">  -1409.97125784 </i>
    <i name="atom">   6761.44252427 </i>
    <i name="e_fr_energy">   -189.70574518 </i>
    <i name="e_wo_entrp">   -189.46700881 </i>
    <i name="e_0_energy">   -189.58637699 </i>
   </energy>
  </scstep>
  <structure>
   <crystal>
    <varray name="basis" >
     <v>       8.66795581       4.99788407       0.00000000 </v>
     <v>      -8.66811447       4.99815950       0.00000000 </v>
     <v>       0.00000000       0.00000000      30.00000000 </v>
    </varray>
    <i name="volume">   2599.38170945 </i>
    <varray name="rec_basis" >
     <v>       0.05768479       0.10004050       0.00000000 </v>
     <v>      -0.05768161       0.10003866       0.00000000 </v>
     <v>       0.00000000       0.00000000       0.03333333 </v>
    </varray>
   </crystal>
   <varray name="positions" >
    <v>       0.33277167       0.66932854      -0.00020400 </v>
    <v>       0.99893845       0.33331172       0.00008675 </v>
    <v>      -0.00011853      -0.00119445       0.00022197 </v>
    <v>       0.66500937       0.00021715       0.00014683 </v>
    <v>       0.00180832       0.66839261      -0.00018488 </v>
    <v>       0.33365453      -0.00158046      -0.00025237 </v>
    <v>       0.33293459       0.33152896       0.00005397 </v>
    <v>       0.66659557       0.33109279      -0.00000461 </v>
    <v>       0.66855650       0.66872273       0.00016947 </v>
    <v>       0.10770889       0.22068398       0.95320620 </v>
    <v>       0.21790941       0.10988257       0.04804744 </v>
    <v>       0.11334602       0.55335758       0.95306088 </v>
    <v>       0.22049537       0.44595929       0.04676923 </v>
    <v>       0.10865759       0.89127887       0.95196508 </v>
    <v>       0.22450453       0.77517186       0.04811318 </v>
    <v>       0.44492246       0.22311677       0.95067851 </v>
    <v>       0.55609401       0.11231196       0.04933126 </v>
    <v>       0.44231103       0.55740497       0.95211873 </v>
    <v>       0.55561632       0.44451969       0.04924926 </v>
    <v>       0.44188980       0.88402268       0.95174439 </v>
    <v>       0.55143633       0.77475544       0.04802298 </v>
    <v>       0.78168693       0.22499111       0.95185084 </v>
    <v>       0.89331099       0.11299666       0.04679164 </v>
    <v>       0.77655141       0.55475730       0.95086571 </v>
    <v>       0.89002481       0.44135305       0.04797535 </v>
    <v>       0.78168654       0.88996176       0.95197686 </v>
    <v>       0.88991152       0.78186933       0.04819925 </v>
   </varray>
  </structure>
  <varray name="forces" >
   <v>      -0.37388888       0.20992007      -0.01276527 </v>
   <v>      -0.18180963      -0.11837693       0.08456162 </v>
   <v>       0.18899881      -0.17818505       0.01297485 </v>
   <v>      -0.38489546      -0.14939062       0.05359757 </v>
   <v>      -0.16591591       0.16581679      -0.05814341 </v>
   <v>       0.22518488       0.12022817      -0.01057474 </v>
   <v>       0.40041303       0.04858711       0.00733679 </v>
   <v>       0.08092434      -0.28692694       0.00694588 </v>
   <v>       0.13403860       0.18855090      -0.07811811 </v>
   <v>      -0.01978756      -0.06892415      -0.30984154 </v>
   <v>      -0.04874917      -0.10108878       0.48781393 </v>
   <v>       0.12285184       0.00442247      -0.40767904 </v>
   <v>      -0.05091849       0.00708877       0.19455503 </v>
   <v>      -0.14802281       0.02230631      -0.58873190 </v>
   <v>       0.13154663      -0.00561458       0.61512370 </v>
   <v>      -0.01218464       0.02428929      -0.62161726 </v>
   <v>      -0.03608674       0.00769212       0.71178914 </v>
   <v>      -0.06098103      -0.00537388      -0.28643797 </v>
   <v>       0.03990918       0.02487220       0.46156006 </v>
   <v>       0.07582102      -0.14396635      -0.72153779 </v>
   <v>      -0.02001828      -0.14199050       0.46596741 </v>
   <v>       0.04379153       0.11462723      -0.56403787 </v>
   <v>       0.03259478       0.10238583       0.32718122 </v>
   <v>      -0.04275047      -0.05761206      -0.43276404 </v>
   <v>       0.09307047      -0.00852962       0.45218689 </v>
   <v>       0.04846479       0.10466566      -0.41863678 </v>
   <v>      -0.07160085       0.12052653       0.62929164 </v>
  </varray>
  <varray name="stress" >
   <v>     -10.14342840       0.00465654       0.06054856 </v>
   <v>       0.00465663      -9.77713979       0.00489161 </v>
   <v>       0.06054841       0.00489148       6.53123362 </v>
  </varray>
  <energy>
   <i name="e_fr_energy">   -189.70574518 </i>
   <i name="e_wo_entrp">   -189.58637699 </i>
   <i name="e_0_energy">     -0.23873637 </i>
  </energy>
  <time name="totalsc">  380.49  381.61</time>
 </calculation>
 <calculation>
  <scstep>
   <time name="dav">   21.97   22.02</time>
   <time name="total">   22.49   22.55</time>
   <energy>
    <i name="alphaZ">     85.80222450 </i>
    <i name="ewald">  42821.70473146 </i>
    <i name="hartreedc"> -48838.29715101 </i>
    <i name="XCdc">   -232.99504960 </i>
    <i name="pawpsdc">   4038.96532391 </i>
    <i name="pawaedc">  -3454.66293606 </i>
    <i name="eentropy">     -0.19412188 </i>
    <i name="bandstr">  -1372.97621738 </i>
    <i name="atom">   6761.44252427 </i>
    <i name="e_fr_energy">   -191.21067178 </i>
    <i name="e_wo_entrp">   -191.01654990 </i>
    <i name="e_0_energy">   -191.11361084 </i>
   </energy>
  </scstep>
  <scstep>
   <time name="dav">   33.30   33.38</time>
   <time name="total">   33.82   33.91</time>
   <energy>
    <i name="e_fr_energy">   -191.15815069 </i>
    <i name="e_wo_entrp">   -190.95713547 </i>
    <i name="e_0_energy">   -191.05764308 </i>
   </energy>
  </scstep>
  <scstep>
   <time name="dav">   30.08   30.16</time>
   <time name="total">   30.60   30.68</time>
   <energy>
    <i name="e_fr_energy">   -191.08000536 </i>
    <i name="e_wo_entrp">   -190.86843870 </i>
    <i name="e_0_energy">   -190.97422203 </i>
   </energy>
  </scstep>
  <scstep>
   <time name="dav">   32.34   32.42</time>
   <time name="total">   32.86   32.95</time>
   <energy>
    <i name="e_fr_energy">   -190.76040014 </i>
    <i name="e_wo_entrp">   -190.56082045 </i>
    <i name="e_0_energy">   -190.66061029 </i>
   </energy>
  </scstep>
  <scstep>
   <time name="dav">   30.36   30.43</time>
   <time name="total">   30.88   30.96</time>
   <energy>
    <i name="e_fr_energy">   -190.74527265 </i>
    <i name="e_wo_entrp">   -190.54779342 </i>
    <i name="e_0_energy">   -190.64653304 </i>
   </energy>
  </scstep>
  <scstep>
   <time name="dav">   30.44   30.51</time>
   <time name="total">   30.96   31.04</time>
   <energy>
    <i name="e_fr_energy">   -190.64189732 </i>
    <i name="e_wo_entrp">   -190.44038908 </i>
    <i name="e_0_energy">   -190.54114320 </i>
   </energy>
  </scstep>
  <scstep>
   <time name="dav">   31.05   31.12</time>
   <time name="total">   31.57   31.65</time>
   <energy>
    <i name="e_fr_energy">   -190.63547210 </i>
    <i name="e_wo_entrp">   -190.43593834 </i>
    <i name="e_0_energy">   -190.53570522 </i>
   </energy>
  </scstep>
  <scstep>
   <time name="dav">   28.39   28.46</time>
   <time name="total">   28.91   28.99</time>
   <energy>
    <i name="e_fr_energy">   -190.63377373 </i>
    <i name="e_wo_entrp">   -190.43405536 </i>
    <i name="e_0_energy">   -190.53391455 </i>
   </energy>
  </scstep>
  <scstep>
   <time name="dav">   29.01   29.08</time>
   <time name="total">   29.53   29.61</time>
   <energy>
    <i name="e_fr_energy">   -190.63142443 </i>
    <i name="e_wo_entrp">   -190.43168764 </i>
    <i name="e_0_energy">   -190.53155603 </i>
   </energy>
  </scstep>
  <scstep>
   <time name="dav">   26.41   26.47</time>
   <time name="total">   26.93   27.00</time>
   <energy>
    <i name="e_fr_energy">   -190.63176177 </i>
    <i name="e_wo_entrp">   -190.43182056 </i>
    <i name="e_0_energy">   -190.53179117 </i>
   </energy>
  </scstep>
  <scstep>
   <time name="dav">   27.54   27.60</time>
   <time name="total">   28.06   28.13</time>
   <energy>
    <i name="e_fr_energy">   -190.63156600 </i>
    <i name="e_wo_entrp">   -190.43178116 </i>
    <i name="e_0_energy">   -190.53167358 </i>
   </energy>
  </scstep>
  <scstep>
   <time name="dav">   19.90   19.94</time>
   <time name="total">   19.93   19.99</time>
   <energy>
    <i name="alphaZ">     85.80222450 </i>
    <i name="ewald">  42821.70473146 </i>
    <i name="hartreedc"> -48809.96614139 </i>
    <i name="XCdc">   -234.32191630 </i>
    <i name="pawpsdc">   4062.15766723 </i>
    <i name="pawaedc">  -3478.00913752 </i>
    <i name="eentropy">     -0.19974681 </i>
    <i name="bandstr">  -1399.24177375 </i>
    <i name="atom">   6761.44252427 </i>
    <i name="e_fr_energy">   -190.63156830 </i>
    <i name="e_wo_entrp">   -190.43182150 </i>
    <i name="e_0_energy">   -190.53169490 </i>
   </energy>
  </scstep>
  <structure>
   <crystal>
    <varray name="basis" >
     <v>       8.48733626       4.89999864       0.00000000 </v>
     <v>      -8.48704407       4.89949250       0.00000000 </v>
     <v>       0.00000000       0.00000000      30.00000000 </v>
    </varray>
    <i name="volume">   2495.10434224 </i>
    <varray name="rec_basis" >
     <v>       0.05890927       0.10204436       0.00000000 </v>
     <v>      -0.05891536       0.10204787       0.00000000 </v>
     <v>       0.00000000       0.00000000       0.03333333 </v>
    </varray>
   </crystal>
   <varray name="positions" >
    <v>       0.33284218       0.67202724      -0.00020564 </v>
    <v>       0.99746848       0.33320635       0.00025750 </v>
    <v>      -0.00059096      -0.00309703       0.00022579 </v>
    <v>       0.66259325       0.00068700       0.00023836 </v>
    <v>       0.00207495       0.67000761      -0.00028112 </v>
    <v>       0.33540398      -0.00143001      -0.00024396 </v>
    <v>       0.33494691       0.33046907       0.00006558 </v>
    <v>       0.66488601       0.32900935       0.00000974 </v>
    <v>       0.67016597       0.66922410      -0.00001402 </v>
    <v>       0.10676270       0.22010687       0.95218664 </v>
    <v>       0.21680474       0.10905861       0.04947725 </v>
    <v>       0.11392411       0.55281112       0.95183825 </v>
    <v>       0.22016168       0.44642976       0.04754116 </v>
    <v>       0.10818434       0.89210256       0.95033130 </v>
    <v>       0.22505035       0.77456705       0.04979279 </v>
    <v>       0.44492866       0.22307425       0.94891187 </v>
    <v>       0.55585689       0.11223949       0.05127696 </v>
    <v>       0.44184498       0.55779831       0.95111587 </v>
    <v>       0.55594508       0.44454311       0.05067724 </v>
    <v>       0.44118318       0.88264464       0.94982186 </v>
    <v>       0.55013072       0.77394538       0.04940152 </v>
    <v>       0.78289528       0.22550489       0.95025894 </v>
    <v>       0.89426071       0.11361722       0.04783733 </v>
    <v>       0.77624214       0.55462921       0.94951570 </v>
    <v>       0.89065065       0.44101141       0.04931988 </v>
    <v>       0.78282870       0.89082619       0.95070133 </v>
    <v>       0.89076876       0.78320070       0.04994177 </v>
   </varray>
  </structure>
  <varray name="forces" >
   <v>      -0.35473262       0.20509359       0.04549636 </v>
   <v>      -0.18451383      -0.12081328       0.04648208 </v>
   <v>       0.21853560      -0.20832417      -0.04342535 </v>
   <v>      -0.43573945      -0.14411169      -0.00806269 </v>
   <v>      -0.22763357       0.14885939      -0.00925420 </v>
   <v>       0.19937427       0.22814624       0.02823560 </v>
   <v>       0.43335948       0.05894749       0.01589066 </v>
   <v>       0.01662565      -0.36883474       0.00463419 </v>
   <v>       0.20490230       0.17159809      -0.05280820 </v>
   <v>       0.02325105      -0.01839094      -0.15706061 </v>
   <v>       0.03779397      -0.04957141       0.32082533 </v>
   <v>       0.01503426       0.00918723      -0.31686218 </v>
   <v>       0.00210397       0.02306492       0.07908175 </v>
   <v>      -0.02730553       0.04734132      -0.40221620 </v>
   <v>       0.01548758       0.00156772       0.39563610 </v>
   <v>       0.07354411      -0.03518075      -0.50187368 </v>
   <v>      -0.00916203      -0.03770305       0.54998364 </v>
   <v>      -0.03058777      -0.00305182      -0.13939657 </v>
   <v>       0.04965638       0.04626692       0.33769450 </v>
   <v>       0.01051813      -0.04369573      -0.56682247 </v>
   <v>      -0.02824285      -0.04138758       0.27038631 </v>
   <v>       0.03264386       0.01275913      -0.37942685 </v>
   <v>      -0.01652734      -0.01667602       0.24408235 </v>
   <v>       0.05092943      -0.01114113      -0.27677820 </v>
   <v>      -0.00430424       0.01247167       0.26433435 </v>
   <v>      -0.04863256       0.06536166      -0.22524589 </v>
   <v>      -0.01637826       0.06821692       0.47646985 </v>
  </varray>
  <varray name="stress" >
   <v>      -5.86673074      -0.01241806      -0.06807435 </v>
   <v>      -0.01241811      -5.92656175      -0.01710487 </v>
   <v>      -0.06807425      -0.01710498       4.44579330 </v>
  </varray>
  <energy>
   <i name="e_fr_energy">   -190.63156830 </i>
   <i name="e_wo_entrp">   -190.53169490 </i>
   <i name="e_0_energy">     -0.19974681 </i>
  </energy>
  <time name="totalsc">  389.30  390.33</time>
 </calculation>
 <calculation>
  <scstep>
   <time name="dav">   21.97   22.03</time>
   <time name="total">   22.49   22.54</time>
   <energy>
    <i name="alphaZ">     90.38538776 </i>
    <i name="ewald">  44761.76090611 </i>
    <i name="hartreedc"> -50807.94366986 </i>
    <i name="XCdc">   -231.68358760 </i>
    <i name="pawpsdc">   4062.10206851 </i>
    <i name="pawaedc">  -3477.94924135 </i>
    <i name="eentropy">     -0.17617709 </i>
    <i name="bandstr">  -1350.01949900 </i>
    <i name="atom">   6761.44252427 </i>
    <i name="e_fr_energy">   -192.08128826 </i>
    <i name="e_wo_entrp">   -191.90511117 </i>
    <i name="e_0_energy">   -191.99319971 </i>
   </energy>
  </scstep>
  <scstep>
   <time name="dav">   31.26   31.34</time>
   <time name="total">   31.77   31.85</time>
   <energy>
    <i name="e_fr_energy">   -191.88449044 </i>
    <i name="e_wo_entrp">   -191.69787240 </i>
    <i name="e_0_energy">   -191.79118142 </i>
   </energy>
  </scstep>
  <scstep>
   <time name="dav">   27.73   27.80</time>
   <time name="total">   28.24   28.32</time>
   <energy>
    <i name="e_fr_energy">   -192.16700743 </i>
    <i name="e_wo_entrp">   -191.96606293 </i>
    <i name="e_0_energy">   -192.06653518 </i>
   </energy>
  </scstep>
  <scstep>
   <time name="dav">   30.22   30.30</time>
   <time name="total">   30.73   30.82</time>
   <energy>
    <i name="e_fr_energy">   -191.53310535 </i>
    <i name="e_wo_entrp">   -191.34985617 </i>
    <i name="e_0_energy">   -191.44148076 </i>
   </energy>
  </scstep>
  <scstep>
   <time name="dav">   30.42   30.49</time>
   <time name="total">   30.93   31.01</time>
   <energy>
    <i name="e_fr_energy">   -191.45834062 </i>
    <i name="e_wo_entrp">   -191.27881464 </i>
    <i name="e_0_energy">   -191.36857763 </i>
   </energy>
  </scstep>
  <scstep>
   <time name="dav">   30.48   30.55</time>
   <time name="total">   30.99   31.07</time>
   <energy>
    <i name="e_fr_energy">   -191.26580091 </i>
    <i name="e_wo_entrp">   -191.08026530 </i>
    <i name="e_0_energy">   -191.17303310 </i>
   </energy>
  </scstep>
  <scstep>
   <time name="dav">   30.37   30.45</time>
   <time name="total">   30.89   30.97</time>
   <energy>
    <i name="e_fr_energy">   -191.25915242 </i>
    <i name="e_wo_entrp">   -191.07456310 </i>
    <i name="e_0_energy">   -191.16685776 </i>
   </energy>
  </scstep>
  <scstep>
   <time name="dav">   27.09   27.15</time>
   <time name="total">   27.60   27.67</time>
   <energy>
    <i name="e_fr_energy">   -191.25433604 </i>
    <i name="e_wo_entrp">   -191.06968833 </i>
    <i name="e_0_energy">   -191.16201219 </i>
   </energy>
  </scstep>
  <scstep>
   <time name="dav">   31.46   31.54</time>
   <time name="total">   31.97   32.06</time>
   <energy>
    <i name="e_fr_energy">   -191.25490729 </i>
    <i name="e_wo_entrp">   -191.07027355 </i>
    <i name="e_0_energy">   -191.16259042 </i>
   </energy>
  </scstep>
  <scstep>
   <time name="dav">   28.51   28.58</time>
   <time name="total">   29.02   29.10</time>
   <energy>
    <i name="e_fr_energy">   -191.25421365 </i>
    <i name="e_wo_entrp">   -191.06956731 </i>
    <i name="e_0_energy">   -191.16189048 </i>
   </energy>
  </scstep>
  <scstep>
   <time name="dav">   27.36   27.42</time>
   <time name="total">   27.39   27.47</time>
   <energy>
    <i name="alphaZ">     90.38538776 </i>
    <i name="ewald">  44761.76090611 </i>
    <i name="hartreedc"> -50771.65968443 </i>
    <i name="XCdc">   -233.32223540 </i>
    <i name="pawpsdc">   4083.80683048 </i>
    <i name="pawaedc">  -3499.73066067 </i>
    <i name="eentropy">     -0.18478370 </i>
    <i name="bandstr">  -1383.75240819 </i>
    <i name="atom">   6761.44252427 </i>
    <i name="e_fr_energy">   -191.25412376 </i>
    <i name="e_wo_entrp">   -191.06934006 </i>
    <i name="e_0_energy">   -191.16173191 </i>
   </energy>
  </scstep>
  <structure>
   <crystal>
    <varray name="basis" >
     <v>       8.27005766       4.77331160       0.00000000 </v>
     <v>      -8.27014797       4.77346744       0.00000000 </v>
     <v>       0.00000000       0.00000000      30.00000000 </v>
    </varray>
    <i name="volume">   2368.58532389 </i>
    <varray name="rec_basis" >
     <v>       0.06045973       0.10474794       0.00000000 </v>
     <v>      -0.06045775       0.10474680       0.00000000 </v>
     <v>       0.00000000       0.00000000       0.03333333 </v>
    </varray>
   </crystal>
   <varray name="positions" >
    <v>       0.33296472       0.67728700      -0.00002042 </v>
    <v>       0.99450895       0.33300169       0.00046557 </v>
    <v>      -0.00165637      -0.00737733       0.00005020 </v>
    <v>       0.65751473       0.00200576       0.00021611 </v>
    <v>       0.00217787       0.67349690      -0.00031745 </v>
    <v>       0.33981115       0.00004356      -0.00011234 </v>
    <v>       0.33912890       0.32816215       0.00012202 </v>
    <v>       0.66029519       0.32430195       0.00003013 </v>
    <v>       0.67372768       0.66976260      -0.00027277 </v>
    <v>       0.10602863       0.21939494       0.95099202 </v>
    <v>       0.21591610       0.10770504       0.05140681 </v>
    <v>       0.11438069       0.55254162       0.95001815 </v>
    <v>       0.22015136       0.44702685       0.04838197 </v>
    <v>       0.10832334       0.89316166       0.94806080 </v>
    <v>       0.22541684       0.77422891       0.05204398 </v>
    <v>       0.44491420       0.22199100       0.94618865 </v>
    <v>       0.55517600       0.11163001       0.05421318 </v>
    <v>       0.44128975       0.55826160       0.94995875 </v>
    <v>       0.55688191       0.44475280       0.05271613 </v>
    <v>       0.44050126       0.88152650       0.94687289 </v>
    <v>       0.54881365       0.77345186       0.05113160 </v>
    <v>       0.78388941       0.22553879       0.94807233 </v>
    <v>       0.89441871       0.11380367       0.04934010 </v>
    <v>       0.77654829       0.55422436       0.94773257 </v>
    <v>       0.89125633       0.44112418       0.05101393 </v>
    <v>       0.78384699       0.89244771       0.94916497 </v>
    <v>       0.89198818       0.78471866       0.05253002 </v>
   </varray>
  </structure>
  <varray name="forces" >
   <v>      -0.32318378       0.09707586      -0.00836885 </v>
   <v>      -0.15662501      -0.08014455       0.03100293 </v>
   <v>       0.20229975      -0.18571051      -0.02994908 </v>
   <v>      -0.30133703      -0.03554072      -0.02492858 </v>
   <v>      -0.20559264       0.09298213      -0.01623898 </v>
   <v>       0.03597362       0.24285631      -0.01289262 </v>
   <v>       0.37067924       0.01514676       0.00287968 </v>
   <v>      -0.05760835      -0.33441737       0.02589073 </v>
   <v>       0.29792929       0.10724727       0.01388135 </v>
   <v>       0.08370742       0.03585738       0.10818808 </v>
   <v>       0.10838394       0.02834911       0.03854014 </v>
   <v>      -0.10749332       0.03115497      -0.02375723 </v>
   <v>       0.10110666       0.05680852      -0.17568058 </v>
   <v>       0.09771464       0.09183822      -0.06503174 </v>
   <v>      -0.11328027       0.03814597       0.09528568 </v>
   <v>       0.12334507      -0.06392364      -0.26352111 </v>
   <v>       0.00923557      -0.02921539       0.25627937 </v>
   <v>       0.04319249       0.01278974       0.16147377 </v>
   <v>       0.08816787       0.07179492       0.12719102 </v>
   <v>      -0.07496253       0.04435348      -0.16624569 </v>
   <v>       0.00937332       0.08253019      -0.09396808 </v>
   <v>      -0.06134511      -0.08868236      -0.08339161 </v>
   <v>      -0.04619465      -0.15980748      -0.05965592 </v>
   <v>       0.15166903      -0.01574465      -0.02579585 </v>
   <v>      -0.14870646      -0.03122435      -0.05292892 </v>
   <v>      -0.14490875      -0.02034742       0.06294849 </v>
   <v>       0.01846000      -0.00417237       0.17879358 </v>
  </varray>
  <varray name="stress" >
   <v>      -0.01706318       0.11853997      -0.09588555 </v>
   <v>       0.11854012      -0.08057648       0.03089675 </v>
   <v>      -0.09588528       0.03089673      -0.38457158 </v>
  </varray>
  <energy>
   <i name="e_fr_energy">   -191.25412376 </i>
   <i name="e_wo_entrp">   -191.16173191 </i>
   <i name="e_0_energy">     -0.18478370 </i>
  </energy>
  <time name="totalsc">  364.62  365.59</time>
 </calculation>
 <calculation>
  <scstep>
   <time name="dav">   21.96   22.01</time>
   <time name="total">   22.47   22.52</time>
   <energy>
    <i name="alphaZ">     90.41882806 </i>
    <i name="ewald">  44759.92539246 </i>
    <i name="hartreedc"> -50770.95974675 </i>
    <i name="XCdc">   -233.37159155 </i>
    <i name="pawpsdc">   4084.26650207 </i>
    <i name="pawaedc">  -3500.18804661 </i>
    <i name="eentropy">     -0.19016149 </i>
    <i name="bandstr">  -1382.65713218 </i>
    <i name="atom">   6761.44252427 </i>
    <i name="e_fr_energy">   -191.31343171 </i>
    <i name="e_wo_entrp">   -191.12327022 </i>
    <i name="e_0_energy">   -191.21835097 </i>
   </energy>
  </scstep>
  <scstep>
   <time name="dav">   33.28   33.36</time>
   <time name="total">   33.79   33.88</time>
   <energy>
    <i name="e_fr_energy">   -191.37204547 </i>
    <i name="e_wo_entrp">   -191.17446411 </i>
    <i name="e_0_energy">   -191.27325479 </i>
   </energy>
  </scstep>
  <scstep>
   <time name="dav">   29.57   29.64</time>
   <time name="total">   30.08   30.16</time>
   <energy>
    <i name="e_fr_energy">   -191.32293492 </i>
    <i name="e_wo_entrp">   -191.13205403 </i>
    <i name="e_0_energy">   -191.22749448 </i>
   </energy>
  </scstep>
  <scstep>
   <time name="dav">   28.89   28.96</time>
   <time name="total">   29.40   29.48</time>
   <energy>
    <i name="e_fr_energy">   -191.32268799 </i>
    <i name="e_wo_entrp">   -191.13188618 </i>
    <i name="e_0_energy">   -191.22728709 </i>
   </energy>
  </scstep>
  <scstep>
   <time name="dav">   28.56   28.63</time>
   <time name="total">   29.08   29.16</time>
   <energy>
    <i name="e_fr_energy">   -191.31985193 </i>
    <i name="e_wo_entrp">   -191.12843543 </i>
    <i name="e_0_energy">   -191.22414368 </i>
   </energy>
  </scstep>
  <scstep>
   <time name="dav">   28.01   28.08</time>
   <time name="total">   28.52   28.60</time>
   <energy>
    <i name="e_fr_energy">   -191.31938288 </i>
    <i name="e_wo_entrp">   -191.12800130 </i>
    <i name="e_0_energy">   -191.22369209 </i>
   </energy>
  </scstep>
  <scstep>
   <time name="dav">   29.29   29.37</time>
   <time name="total">   29.80   29.88</time>
   <energy>
    <i name="e_fr_energy">   -191.31978067 </i>
    <i name="e_wo_entrp">   -191.12838439 </i>
    <i name="e_0_energy">   -191.22408253 </i>
   </energy>
  </scstep>
  <scstep>
   <time name="dav">   25.31   25.37</time>
   <time name="total">   25.82   25.89</time>
   <energy>
    <i name="e_fr_energy">   -191.31924661 </i>
    <i name="e_wo_entrp">   -191.12784269 </i>
    <i name="e_0_energy">   -191.22354465 </i>
   </energy>
  </scstep>
  <scstep>
   <time name="dav">   18.01   18.05</time>
   <time name="total">   18.05   18.10</time>
   <energy>
    <i name="alphaZ">     90.41882806 </i>
    <i name="ewald">  44759.92539246 </i>
    <i name="hartreedc"> -50771.68408215 </i>
    <i name="XCdc">   -233.36531660 </i>
    <i name="pawpsdc">   4082.49245665 </i>
    <i name="pawaedc">  -3498.37990172 </i>
    <i name="eentropy">     -0.19137417 </i>
    <i name="bandstr">  -1381.97774172 </i>
    <i name="atom">   6761.44252427 </i>
    <i name="e_fr_energy">   -191.31921492 </i>
    <i name="e_wo_entrp">   -191.12784074 </i>
    <i name="e_0_energy">   -191.22352783 </i>
   </energy>
  </scstep>
  <structure>
   <crystal>
    <varray name="basis" >
     <v>       8.27073070       4.77463005       0.00000000 </v>
     <v>      -8.26781462       4.76957716       0.00000000 </v>
     <v>       0.00000000       0.00000000      30.00000000 </v>
    </varray>
    <i name="volume">   2367.70933141 </i>
    <varray name="rec_basis" >
     <v>       0.06043280       0.10475713       0.00000000 </v>
     <v>      -0.06049683       0.10479408       0.00000000 </v>
     <v>       0.00000000       0.00000000       0.03333333 </v>
    </varray>
   </crystal>
   <varray name="positions" >
    <v>       0.33251071       0.67874726      -0.00003331 </v>
    <v>       0.99363146       0.33305304       0.00051649 </v>
    <v>      -0.00201062      -0.00892994       0.00000115 </v>
    <v>       0.65643193       0.00271368       0.00017574 </v>
    <v>       0.00204743       0.67458483      -0.00034384 </v>
    <v>       0.34116678       0.00117767      -0.00013269 </v>
    <v>       0.34030875       0.32714382       0.00012685 </v>
    <v>       0.65841012       0.32275477       0.00007209 </v>
    <v>       0.67515917       0.66943530      -0.00025132 </v>
    <v>       0.10645233       0.21932841       0.95116155 </v>
    <v>       0.21637379       0.10752537       0.05147734 </v>
    <v>       0.11422582       0.55301372       0.94997212 </v>
    <v>       0.22073595       0.44702182       0.04810196 </v>
    <v>       0.10907668       0.89334612       0.94794620 </v>
    <v>       0.22528022       0.77475335       0.05220746 </v>
    <v>       0.44495086       0.22130020       0.94575132 </v>
    <v>       0.55505189       0.11145182       0.05463958 </v>
    <v>       0.44147884       0.55820217       0.95021451 </v>
    <v>       0.55750876       0.44485977       0.05293052 </v>
    <v>       0.44050390       0.88196677       0.94659219 </v>
    <v>       0.54925463       0.77384168       0.05098712 </v>
    <v>       0.78326357       0.22526839       0.94792832 </v>
    <v>       0.89347262       0.11312824       0.04925004 </v>
    <v>       0.77691446       0.55369822       0.94768309 </v>
    <v>       0.89066461       0.44140195       0.05093568 </v>
    <v>       0.78332330       0.89277613       0.94925998 </v>
    <v>       0.89202652       0.78464988       0.05282976 </v>
   </varray>
  </structure>
  <varray name="forces" >
   <v>      -0.37294882       0.05584423       0.00950752 </v>
   <v>      -0.16721509      -0.07468561       0.05418831 </v>
   <v>       0.19177916      -0.18598952      -0.03202185 </v>
   <v>      -0.33209958      -0.00813126      -0.00362415 </v>
   <v>      -0.19370350       0.11950620       0.00105767 </v>
   <v>       0.03599397       0.22476665       0.02674864 </v>
   <v>       0.39836150       0.01226838      -0.00381819 </v>
   <v>      -0.05418348      -0.33643048       0.02427136 </v>
   <v>       0.34952582       0.12091770      -0.02425399 </v>
   <v>       0.07025947       0.02874674       0.13264718 </v>
   <v>       0.07130816       0.01508178       0.03834492 </v>
   <v>      -0.07364242       0.03052066      -0.00957622 </v>
   <v>       0.08397791       0.04846296      -0.21307755 </v>
   <v>       0.05588482       0.07570250      -0.06101091 </v>
   <v>      -0.08682252       0.03546109       0.05530249 </v>
   <v>       0.08486774      -0.03523290      -0.23776330 </v>
   <v>      -0.00247938      -0.02400954       0.20467458 </v>
   <v>       0.04307783       0.01970228       0.19825879 </v>
   <v>       0.06588429       0.04137602       0.10610457 </v>
   <v>      -0.05664395       0.02497718      -0.14144116 </v>
   <v>       0.02435047       0.04204671      -0.14266170 </v>
   <v>      -0.05470900      -0.05325204      -0.06872919 </v>
   <v>      -0.01998877      -0.10961925      -0.09974073 </v>
   <v>       0.12440765      -0.02233240      -0.00755843 </v>
   <v>      -0.11770373      -0.03049895      -0.07264439 </v>
   <v>      -0.08368248      -0.02393155       0.09712873 </v>
   <v>       0.01614395       0.00873242       0.16968701 </v>
  </varray>
  <varray name="stress" >
   <v>      -0.00304824       0.02078034      -0.08516519 </v>
   <v>       0.02078043      -0.04646571      -0.01808343 </v>
   <v>      -0.08516548      -0.01808328      -1.02649644 </v>
  </varray>
  <energy>
   <i name="e_fr_energy">   -191.31921492 </i>
   <i name="e_wo_entrp">   -191.22352783 </i>
   <i name="e_0_energy">     -0.19137417 </i>
  </energy>
  <time name="totalsc">  289.91  290.67</time>
 </calculation>
 <calculation>
  <scstep>
   <time name="dav">   21.98   22.03</time>
   <time name="total">   22.49   22.55</time>
   <energy>
    <i name="alphaZ">     90.42752931 </i>
    <i name="ewald">  44761.47744451 </i>
    <i name="hartreedc"> -50773.44927709 </i>
    <i name="XCdc">   -233.36965324 </i>
    <i name="pawpsdc">   4082.46577667 </i>
    <i name="pawaedc">  -3498.35314676 </i>
    <i name="eentropy">     -0.19435065 </i>
    <i name="bandstr">  -1381.80901471 </i>
    <i name="atom">   6761.44252427 </i>
    <i name="e_fr_energy">   -191.36216769 </i>
    <i name="e_wo_entrp">   -191.16781703 </i>
    <i name="e_0_energy">   -191.26499236 </i>
   </energy>
  </scstep>
  <scstep>
   <time name="dav">   33.50   33.58</time>
   <time name="total">   34.01   34.10</time>
   <energy>
    <i name="e_fr_energy">   -191.38618947 </i>
    <i name="e_wo_entrp">   -191.18546107 </i>
    <i name="e_0_energy">   -191.28582527 </i>
   </energy>
  </scstep>
  <scstep>
   <time name="dav">   29.98   30.05</time>
   <time name="total">   30.49   30.57</time>
   <energy>
    <i name="e_fr_energy">   -191.36576831 </i>
    <i name="e_wo_entrp">   -191.17088542 </i>
    <i name="e_0_energy">   -191.26832686 </i>
   </energy>
  </scstep>
  <scstep>
   <time name="dav">   28.40   28.47</time>
   <time name="total">   28.90   28.98</time>
   <energy>
    <i name="e_fr_energy">   -191.36583582 </i>
    <i name="e_wo_entrp">   -191.17100360 </i>
    <i name="e_0_energy">   -191.26841971 </i>
   </energy>
  </scstep>
  <scstep>
   <time name="dav">   28.05   28.12</time>
   <time name="total">   28.56   28.86</time>
   <energy>
    <i name="e_fr_energy">   -191.36444838 </i>
    <i name="e_wo_entrp">   -191.16902030 </i>
    <i name="e_0_energy">   -191.26673434 </i>
   </energy>
  </scstep>
  <scstep>
   <time name="dav">   26.87   26.94</time>
   <time name="total">   27.38   27.45</time>
   <energy>
    <i name="e_fr_energy">   -191.36424913 </i>
    <i name="e_wo_entrp">   -191.16885464 </i>
    <i name="e_0_energy">   -191.26655188 </i>
   </energy>
  </scstep>
  <scstep>
   <time name="dav">   26.75   26.81</time>
   <time name="total">   27.26   27.33</time>
   <energy>
    <i name="e_fr_energy">   -191.36439574 </i>
    <i name="e_wo_entrp">   -191.16900352 </i>
    <i name="e_0_energy">   -191.26669963 </i>
   </energy>
  </scstep>
  <scstep>
   <time name="dav">   23.53   23.59</time>
   <time name="total">   24.04   24.11</time>
   <energy>
    <i name="e_fr_energy">   -191.36418623 </i>
    <i name="e_wo_entrp">   -191.16876953 </i>
    <i name="e_0_energy">   -191.26647788 </i>
   </energy>
  </scstep>
  <scstep>
   <time name="dav">   18.26   18.30</time>
   <time name="total">   18.29   18.34</time>
   <energy>
    <i name="alphaZ">     90.42752931 </i>
    <i name="ewald">  44761.47744451 </i>
    <i name="hartreedc"> -50773.90818795 </i>
    <i name="XCdc">   -233.35832972 </i>
[...]
      <set comment="kpoint 31">
       <r>  -17.5931    1.0000 </r>
       <r>  -17.2799    1.0000 </r>
       <r>  -16.9165    1.0000 </r>
       <r>  -16.6987    1.0000 </r>
       <r>  -16.5336    1.0000 </r>
       <r>  -16.4681    1.0000 </r>
       <r>  -16.3340    1.0000 </r>
       <r>  -16.2285    1.0000 </r>
       <r>  -16.1859    1.0000 </r>
       <r>  -16.0749    1.0000 </r>
       <r>  -15.8942    1.0000 </r>
       <r>  -15.7968    1.0000 </r>
       <r>  -15.7561    1.0000 </r>
       <r>  -15.6593    1.0000 </r>
       <r>  -15.5364    1.0000 </r>
       <r>  -15.4508    1.0000 </r>
       <r>  -15.3326    1.0000 </r>
       <r>  -15.2256    1.0000 </r>
       <r>   -9.8309    1.0000 </r>
       <r>   -9.4923    1.0000 </r>
       <r>   -9.4248    1.0000 </r>
       <r>   -9.0707    1.0000 </r>
       <r>   -8.8158    1.0000 </r>
       <r>   -8.6907    1.0000 </r>
       <r>   -8.6038    1.0000 </r>
       <r>   -8.5807    1.0000 </r>
       <r>   -8.4324    1.0000 </r>
       <r>   -8.3291    1.0000 </r>
       <r>   -8.2560    1.0000 </r>
       <r>   -8.1837    1.0000 </r>
       <r>   -8.1243    1.0000 </r>
       <r>   -8.0503    1.0000 </r>
       <r>   -7.9559    1.0000 </r>
       <r>   -7.9139    1.0000 </r>
       <r>   -7.7931    1.0000 </r>
       <r>   -7.6993    1.0000 </r>
       <r>   -7.5969    1.0000 </r>
       <r>   -7.5190    1.0000 </r>
       <r>   -7.4194    1.0000 </r>
       <r>   -7.3022    1.0000 </r>
       <r>   -7.1275    1.0000 </r>
       <r>   -7.0696    1.0000 </r>
       <r>   -6.9551    1.0000 </r>
       <r>   -6.9193    1.0000 </r>
       <r>   -6.8397    1.0000 </r>
       <r>   -6.7889    1.0000 </r>
       <r>   -6.6605    1.0000 </r>
       <r>   -6.5584    1.0000 </r>
       <r>   -6.4970    1.0000 </r>
       <r>   -6.4482    1.0000 </r>
       <r>   -6.3862    1.0000 </r>
       <r>   -6.2834    1.0000 </r>
       <r>   -6.2518    1.0000 </r>
       <r>   -6.2382    1.0000 </r>
       <r>   -6.0948    1.0000 </r>
       <r>   -6.0526    1.0000 </r>
       <r>   -6.0123    1.0000 </r>
       <r>   -5.9469    1.0000 </r>
       <r>   -5.8574    1.0000 </r>
       <r>   -5.6929    1.0000 </r>
       <r>   -5.6375    1.0000 </r>
       <r>   -5.5730    1.0000 </r>
       <r>   -5.4733    1.0000 </r>
       <r>   -5.3980    1.0000 </r>
       <r>   -5.2422    1.0000 </r>
       <r>   -5.2163    1.0000 </r>
       <r>   -4.9402    1.0000 </r>
       <r>   -4.8579    1.0000 </r>
       <r>   -4.7689    1.0000 </r>
       <r>   -4.6836    1.0000 </r>
       <r>   -4.5050    1.0000 </r>
       <r>   -4.4397    1.0000 </r>
       <r>   -4.3218    1.0000 </r>
       <r>   -4.2114    1.0000 </r>
       <r>   -4.1241    1.0000 </r>
       <r>   -4.0350    1.0000 </r>
       <r>   -3.8711    1.0000 </r>
       <r>   -3.7153    0.9998 </r>
       <r>   -3.5369    0.9887 </r>
       <r>   -3.1855    0.4183 </r>
       <r>   -2.9421    0.0270 </r>
       <r>   -2.8102    0.0021 </r>
       <r>   -2.7013    0.0001 </r>
       <r>   -2.5928    0.0000 </r>
       <r>   -2.5198    0.0000 </r>
       <r>   -2.3691    0.0000 </r>
       <r>   -2.2295    0.0000 </r>
       <r>   -2.0472    0.0000 </r>
       <r>   -1.9519    0.0000 </r>
       <r>   -1.8698    0.0000 </r>
       <r>   -1.7590    0.0000 </r>
       <r>   -1.5484    0.0000 </r>
       <r>   -1.3088    0.0000 </r>
       <r>   -1.2626    0.0000 </r>
       <r>   -1.2013    0.0000 </r>
       <r>   -1.1758    0.0000 </r>
       <r>   -1.0577    0.0000 </r>
       <r>   -0.9234    0.0000 </r>
       <r>   -0.8819    0.0000 </r>
       <r>   -0.8452    0.0000 </r>
       <r>   -0.8099    0.0000 </r>
       <r>   -0.7495    0.0000 </r>
       <r>   -0.6424    0.0000 </r>
       <r>   -0.5674    0.0000 </r>
       <r>   -0.4813    0.0000 </r>
       <r>   -0.3165    0.0000 </r>
       <r>   -0.2589    0.0000 </r>
       <r>   -0.0568    0.0000 </r>
       <r>    0.1560    0.0000 </r>
       <r>    0.2553    0.0000 </r>
       <r>    0.4097    0.0000 </r>
       <r>    0.5774    0.0000 </r>
       <r>    0.7517    0.0000 </r>
       <r>    0.7895    0.0000 </r>
       <r>    1.1380    0.0000 </r>
       <r>    1.2395    0.0000 </r>
       <r>    1.4767    0.0000 </r>
       <r>    2.1392    0.0000 </r>
       <r>    2.3099    0.0000 </r>
       <r>    2.4085    0.0000 </r>
      </set>
      <set comment="kpoint 32">
       <r>  -17.6181    1.0000 </r>
       <r>  -17.1660    1.0000 </r>
       <r>  -17.0542    1.0000 </r>
       <r>  -16.7109    1.0000 </r>
       <r>  -16.4968    1.0000 </r>
       <r>  -16.3782    1.0000 </r>
       <r>  -16.3230    1.0000 </r>
       <r>  -16.2704    1.0000 </r>
       <r>  -16.1684    1.0000 </r>
       <r>  -16.0596    1.0000 </r>
       <r>  -15.9398    1.0000 </r>
       <r>  -15.8299    1.0000 </r>
       <r>  -15.7554    1.0000 </r>
       <r>  -15.6505    1.0000 </r>
       <r>  -15.5506    1.0000 </r>
       <r>  -15.4910    1.0000 </r>
       <r>  -15.3131    1.0000 </r>
       <r>  -15.1912    1.0000 </r>
       <r>   -9.7347    1.0000 </r>
       <r>   -9.5863    1.0000 </r>
       <r>   -9.4883    1.0000 </r>
       <r>   -9.1221    1.0000 </r>
       <r>   -8.7467    1.0000 </r>
       <r>   -8.6317    1.0000 </r>
       <r>   -8.4770    1.0000 </r>
       <r>   -8.4508    1.0000 </r>
       <r>   -8.4096    1.0000 </r>
       <r>   -8.3958    1.0000 </r>
       <r>   -8.3170    1.0000 </r>
       <r>   -8.2360    1.0000 </r>
       <r>   -8.1410    1.0000 </r>
       <r>   -8.0828    1.0000 </r>
       <r>   -8.0450    1.0000 </r>
       <r>   -7.9155    1.0000 </r>
       <r>   -7.7943    1.0000 </r>
       <r>   -7.7297    1.0000 </r>
       <r>   -7.6077    1.0000 </r>
       <r>   -7.4329    1.0000 </r>
       <r>   -7.3847    1.0000 </r>
       <r>   -7.2781    1.0000 </r>
       <r>   -7.1722    1.0000 </r>
       <r>   -7.1211    1.0000 </r>
       <r>   -7.0771    1.0000 </r>
       <r>   -6.9283    1.0000 </r>
       <r>   -6.8213    1.0000 </r>
       <r>   -6.7274    1.0000 </r>
       <r>   -6.6321    1.0000 </r>
       <r>   -6.5434    1.0000 </r>
       <r>   -6.4623    1.0000 </r>
       <r>   -6.4349    1.0000 </r>
       <r>   -6.3427    1.0000 </r>
       <r>   -6.3262    1.0000 </r>
       <r>   -6.2470    1.0000 </r>
       <r>   -6.1910    1.0000 </r>
       <r>   -6.1338    1.0000 </r>
       <r>   -6.0662    1.0000 </r>
       <r>   -5.9720    1.0000 </r>
       <r>   -5.8806    1.0000 </r>
       <r>   -5.8320    1.0000 </r>
       <r>   -5.6807    1.0000 </r>
       <r>   -5.6471    1.0000 </r>
       <r>   -5.6049    1.0000 </r>
       <r>   -5.5133    1.0000 </r>
       <r>   -5.3721    1.0000 </r>
       <r>   -5.3544    1.0000 </r>
       <r>   -5.2209    1.0000 </r>
       <r>   -5.1215    1.0000 </r>
       <r>   -4.8158    1.0000 </r>
       <r>   -4.7204    1.0000 </r>
       <r>   -4.6246    1.0000 </r>
       <r>   -4.4603    1.0000 </r>
       <r>   -4.4132    1.0000 </r>
       <r>   -4.3666    1.0000 </r>
       <r>   -4.2205    1.0000 </r>
       <r>   -4.1732    1.0000 </r>
       <r>   -4.0639    1.0000 </r>
       <r>   -3.9492    1.0000 </r>
       <r>   -3.6601    0.9992 </r>
       <r>   -3.5288    0.9868 </r>
       <r>   -3.1546    0.3354 </r>
       <r>   -2.8624    0.0064 </r>
       <r>   -2.7974    0.0016 </r>
       <r>   -2.7035    0.0002 </r>
       <r>   -2.5654    0.0000 </r>
       <r>   -2.4615    0.0000 </r>
       <r>   -2.3802    0.0000 </r>
       <r>   -2.1736    0.0000 </r>
       <r>   -1.9780    0.0000 </r>
       <r>   -1.9665    0.0000 </r>
       <r>   -1.8901    0.0000 </r>
       <r>   -1.7328    0.0000 </r>
       <r>   -1.5569    0.0000 </r>
       <r>   -1.3986    0.0000 </r>
       <r>   -1.3140    0.0000 </r>
       <r>   -1.2461    0.0000 </r>
       <r>   -1.1986    0.0000 </r>
       <r>   -1.0556    0.0000 </r>
       <r>   -0.9692    0.0000 </r>
       <r>   -0.9181    0.0000 </r>
       <r>   -0.8704    0.0000 </r>
       <r>   -0.8338    0.0000 </r>
       <r>   -0.7462    0.0000 </r>
       <r>   -0.6402    0.0000 </r>
       <r>   -0.5280    0.0000 </r>
       <r>   -0.3973    0.0000 </r>
       <r>   -0.2989    0.0000 </r>
       <r>   -0.1703    0.0000 </r>
       <r>   -0.0205    0.0000 </r>
       <r>    0.1765    0.0000 </r>
       <r>    0.2719    0.0000 </r>
       <r>    0.4073    0.0000 </r>
       <r>    0.5265    0.0000 </r>
       <r>    0.7326    0.0000 </r>
       <r>    0.8018    0.0000 </r>
       <r>    1.0754    0.0000 </r>
       <r>    1.2084    0.0000 </r>
       <r>    1.3786    0.0000 </r>
       <r>    2.0978    0.0000 </r>
       <r>    2.2807    0.0000 </r>
       <r>    2.5647    0.0000 </r>
      </set>
      <set comment="kpoint 33">
       <r>  -17.6247    1.0000 </r>
       <r>  -17.2204    1.0000 </r>
       <r>  -16.9343    1.0000 </r>
       <r>  -16.7210    1.0000 </r>
       <r>  -16.5362    1.0000 </r>
       <r>  -16.4310    1.0000 </r>
       <r>  -16.3405    1.0000 </r>
       <r>  -16.2892    1.0000 </r>
       <r>  -16.0991    1.0000 </r>
       <r>  -16.0006    1.0000 </r>
       <r>  -15.9378    1.0000 </r>
       <r>  -15.8379    1.0000 </r>
       <r>  -15.7634    1.0000 </r>
       <r>  -15.6486    1.0000 </r>
       <r>  -15.5713    1.0000 </r>
       <r>  -15.5510    1.0000 </r>
       <r>  -15.2722    1.0000 </r>
       <r>  -15.1913    1.0000 </r>
       <r>   -9.7639    1.0000 </r>
       <r>   -9.4941    1.0000 </r>
       <r>   -9.4170    1.0000 </r>
       <r>   -9.1521    1.0000 </r>
       <r>   -8.9341    1.0000 </r>
       <r>   -8.7362    1.0000 </r>
       <r>   -8.5006    1.0000 </r>
       <r>   -8.4376    1.0000 </r>
       <r>   -8.3796    1.0000 </r>
       <r>   -8.2979    1.0000 </r>
       <r>   -8.2785    1.0000 </r>
       <r>   -8.2154    1.0000 </r>
       <r>   -8.1782    1.0000 </r>
       <r>   -8.1021    1.0000 </r>
       <r>   -8.0426    1.0000 </r>
       <r>   -7.8488    1.0000 </r>
       <r>   -7.7761    1.0000 </r>
       <r>   -7.6960    1.0000 </r>
       <r>   -7.6497    1.0000 </r>
       <r>   -7.3940    1.0000 </r>
       <r>   -7.3374    1.0000 </r>
       <r>   -7.2728    1.0000 </r>
       <r>   -7.1650    1.0000 </r>
       <r>   -7.1096    1.0000 </r>
       <r>   -7.0875    1.0000 </r>
       <r>   -6.8893    1.0000 </r>
       <r>   -6.8385    1.0000 </r>
       <r>   -6.7324    1.0000 </r>
       <r>   -6.6031    1.0000 </r>
       <r>   -6.5379    1.0000 </r>
       <r>   -6.4989    1.0000 </r>
       <r>   -6.4489    1.0000 </r>
       <r>   -6.3900    1.0000 </r>
       <r>   -6.3310    1.0000 </r>
       <r>   -6.2319    1.0000 </r>
       <r>   -6.1794    1.0000 </r>
       <r>   -6.1423    1.0000 </r>
       <r>   -6.0610    1.0000 </r>
       <r>   -6.0265    1.0000 </r>
       <r>   -5.9200    1.0000 </r>
       <r>   -5.8515    1.0000 </r>
       <r>   -5.7707    1.0000 </r>
       <r>   -5.6905    1.0000 </r>
       <r>   -5.5878    1.0000 </r>
       <r>   -5.4717    1.0000 </r>
       <r>   -5.4057    1.0000 </r>
       <r>   -5.3365    1.0000 </r>
       <r>   -5.2139    1.0000 </r>
       <r>   -5.0803    1.0000 </r>
       <r>   -4.7996    1.0000 </r>
       <r>   -4.7498    1.0000 </r>
       <r>   -4.5567    1.0000 </r>
       <r>   -4.5066    1.0000 </r>
       <r>   -4.4007    1.0000 </r>
       <r>   -4.2886    1.0000 </r>
       <r>   -4.2502    1.0000 </r>
       <r>   -4.1467    1.0000 </r>
       <r>   -4.0802    1.0000 </r>
       <r>   -4.0089    1.0000 </r>
       <r>   -3.6738    0.9994 </r>
       <r>   -3.5746    0.9945 </r>
       <r>   -3.0750    0.1617 </r>
       <r>   -2.9338    0.0235 </r>
       <r>   -2.7138    0.0002 </r>
       <r>   -2.6817    0.0001 </r>
       <r>   -2.5549    0.0000 </r>
       <r>   -2.3944    0.0000 </r>
       <r>   -2.3739    0.0000 </r>
       <r>   -2.1262    0.0000 </r>
       <r>   -1.9746    0.0000 </r>
       <r>   -1.8819    0.0000 </r>
       <r>   -1.8737    0.0000 </r>
       <r>   -1.7027    0.0000 </r>
       <r>   -1.5636    0.0000 </r>
       <r>   -1.5168    0.0000 </r>
       <r>   -1.3559    0.0000 </r>
       <r>   -1.2813    0.0000 </r>
       <r>   -1.2316    0.0000 </r>
       <r>   -1.0716    0.0000 </r>
       <r>   -0.9889    0.0000 </r>
       <r>   -0.9613    0.0000 </r>
       <r>   -0.9045    0.0000 </r>
       <r>   -0.8549    0.0000 </r>
       <r>   -0.7414    0.0000 </r>
       <r>   -0.6379    0.0000 </r>
       <r>   -0.5220    0.0000 </r>
       <r>   -0.3474    0.0000 </r>
       <r>   -0.2647    0.0000 </r>
       <r>   -0.1040    0.0000 </r>
       <r>   -0.0084    0.0000 </r>
       <r>    0.1395    0.0000 </r>
       <r>    0.2751    0.0000 </r>
       <r>    0.4208    0.0000 </r>
       <r>    0.5587    0.0000 </r>
       <r>    0.7125    0.0000 </r>
       <r>    0.8516    0.0000 </r>
       <r>    1.0031    0.0000 </r>
       <r>    1.1875    0.0000 </r>
       <r>    1.3484    0.0000 </r>
       <r>    2.1150    0.0000 </r>
       <r>    2.3116    0.0000 </r>
       <r>    2.3759    0.0000 </r>
      </set>
      <set comment="kpoint 34">
       <r>  -17.6231    1.0000 </r>
       <r>  -17.2617    1.0000 </r>
       <r>  -16.7586    1.0000 </r>
       <r>  -16.7286    1.0000 </r>
       <r>  -16.6957    1.0000 </r>
       <r>  -16.4324    1.0000 </r>
       <r>  -16.3228    1.0000 </r>
       <r>  -16.3188    1.0000 </r>
       <r>  -16.0835    1.0000 </r>
       <r>  -15.9758    1.0000 </r>
       <r>  -15.9137    1.0000 </r>
       <r>  -15.8156    1.0000 </r>
       <r>  -15.7487    1.0000 </r>
       <r>  -15.6804    1.0000 </r>
       <r>  -15.5997    1.0000 </r>
       <r>  -15.5629    1.0000 </r>
       <r>  -15.2364    1.0000 </r>
       <r>  -15.2135    1.0000 </r>
       <r>   -9.7978    1.0000 </r>
       <r>   -9.3890    1.0000 </r>
       <r>   -9.3136    1.0000 </r>
       <r>   -9.1602    1.0000 </r>
       <r>   -9.0903    1.0000 </r>
       <r>   -8.8666    1.0000 </r>
       <r>   -8.5134    1.0000 </r>
       <r>   -8.4277    1.0000 </r>
       <r>   -8.3808    1.0000 </r>
       <r>   -8.2996    1.0000 </r>
       <r>   -8.2378    1.0000 </r>
       <r>   -8.2201    1.0000 </r>
       <r>   -8.1554    1.0000 </r>
       <r>   -8.0928    1.0000 </r>
       <r>   -7.9361    1.0000 </r>
       <r>   -7.8820    1.0000 </r>
       <r>   -7.8449    1.0000 </r>
       <r>   -7.7585    1.0000 </r>
       <r>   -7.4878    1.0000 </r>
       <r>   -7.3502    1.0000 </r>
       <r>   -7.3317    1.0000 </r>
       <r>   -7.2562    1.0000 </r>
       <r>   -7.1315    1.0000 </r>
       <r>   -7.1012    1.0000 </r>
       <r>   -7.0541    1.0000 </r>
       <r>   -7.0163    1.0000 </r>
       <r>   -6.8056    1.0000 </r>
       <r>   -6.6941    1.0000 </r>
       <r>   -6.5993    1.0000 </r>
       <r>   -6.5450    1.0000 </r>
       <r>   -6.5326    1.0000 </r>
       <r>   -6.4805    1.0000 </r>
       <r>   -6.4188    1.0000 </r>
       <r>   -6.3006    1.0000 </r>
       <r>   -6.2462    1.0000 </r>
       <r>   -6.2286    1.0000 </r>
       <r>   -6.1521    1.0000 </r>
       <r>   -6.0884    1.0000 </r>
       <r>   -6.0558    1.0000 </r>
       <r>   -5.8912    1.0000 </r>
       <r>   -5.8183    1.0000 </r>
       <r>   -5.7630    1.0000 </r>
       <r>   -5.7387    1.0000 </r>
       <r>   -5.6671    1.0000 </r>
       <r>   -5.4879    1.0000 </r>
       <r>   -5.3670    1.0000 </r>
       <r>   -5.2846    1.0000 </r>
       <r>   -5.2791    1.0000 </r>
       <r>   -4.9216    1.0000 </r>
       <r>   -4.8667    1.0000 </r>
       <r>   -4.7056    1.0000 </r>
       <r>   -4.6318    1.0000 </r>
       <r>   -4.5026    1.0000 </r>
       <r>   -4.3358    1.0000 </r>
       <r>   -4.3097    1.0000 </r>
       <r>   -4.2655    1.0000 </r>
       <r>   -4.1449    1.0000 </r>
       <r>   -4.0564    1.0000 </r>
       <r>   -3.9809    1.0000 </r>
       <r>   -3.7136    0.9998 </r>
       <r>   -3.6033    0.9970 </r>
       <r>   -3.0649    0.1447 </r>
       <r>   -2.9533    0.0323 </r>
       <r>   -2.6839    0.0001 </r>
       <r>   -2.6681    0.0001 </r>
       <r>   -2.5504    0.0000 </r>
       <r>   -2.4006    0.0000 </r>
       <r>   -2.3360    0.0000 </r>
       <r>   -2.1069    0.0000 </r>
       <r>   -1.9668    0.0000 </r>
       <r>   -1.8601    0.0000 </r>
       <r>   -1.8406    0.0000 </r>
       <r>   -1.6719    0.0000 </r>
       <r>   -1.5834    0.0000 </r>
       <r>   -1.5662    0.0000 </r>
       <r>   -1.3818    0.0000 </r>
       <r>   -1.2854    0.0000 </r>
       <r>   -1.2530    0.0000 </r>
       <r>   -1.0779    0.0000 </r>
       <r>   -1.0048    0.0000 </r>
       <r>   -0.9716    0.0000 </r>
       <r>   -0.9157    0.0000 </r>
       <r>   -0.8670    0.0000 </r>
       <r>   -0.7416    0.0000 </r>
       <r>   -0.6416    0.0000 </r>
       <r>   -0.5241    0.0000 </r>
       <r>   -0.3383    0.0000 </r>
       <r>   -0.2412    0.0000 </r>
       <r>   -0.0913    0.0000 </r>
       <r>   -0.0162    0.0000 </r>
       <r>    0.1216    0.0000 </r>
       <r>    0.2868    0.0000 </r>
       <r>    0.4181    0.0000 </r>
       <r>    0.6244    0.0000 </r>
       <r>    0.6631    0.0000 </r>
       <r>    0.8872    0.0000 </r>
       <r>    0.9772    0.0000 </r>
       <r>    1.1820    0.0000 </r>
       <r>    1.3563    0.0000 </r>
       <r>    2.1591    0.0000 </r>
       <r>    2.2604    0.0000 </r>
       <r>    2.4003    0.0000 </r>
      </set>
     </set>
    </set>
   </array>
  </eigenvalues>
  <separator name="orbital magnetization" >
   <v name="MAGDIPOLOUT">      0.00000000      0.00000000      0.00000000</v>
  </separator>
 </calculation>
 <structure name="finalpos" >
  <crystal>
   <varray name="basis" >
    <v>       8.33825312       4.78386712       0.00000000 </v>
    <v>      -8.34178758       4.79004730       0.00000000 </v>
    <v>       0.00000000       0.00000000      30.00000000 </v>
   </varray>
   <i name="volume">   2395.39890599 </i>
   <varray name="rec_basis" >
    <v>       0.05999060       0.10447263       0.00000000 </v>
    <v>      -0.05991320       0.10442837       0.00000000 </v>
    <v>       0.00000000       0.00000000       0.03333333 </v>
   </varray>
  </crystal>
  <varray name="positions" >
   <v>       0.32091787       0.68926632      -0.00212914 </v>
   <v>       0.97832644       0.34776657      -0.00201982 </v>
   <v>       0.01691353      -0.01645064       0.00221200 </v>
   <v>       0.64556179       0.01711993      -0.00191259 </v>
   <v>       0.01477992       0.68724223      -0.00033766 </v>
   <v>       0.33645014       0.00116972      -0.00021820 </v>
   <v>       0.34797060       0.31381275       0.00129965 </v>
   <v>       0.64686577       0.31555322      -0.00002992 </v>
   <v>       0.68921487       0.64803554       0.00303274 </v>
   <v>       0.10641938       0.21948941       0.95637201 </v>
   <v>       0.21786243       0.10690582       0.05517198 </v>
   <v>       0.11464887       0.55778755       0.94684440 </v>
   <v>       0.21994183       0.44511107       0.04189622 </v>
   <v>       0.11128876       0.89465740       0.94567777 </v>
   <v>       0.22661324       0.77775977       0.05369102 </v>
   <v>       0.44369869       0.21736700       0.94336644 </v>
   <v>       0.55013454       0.11104166       0.05609071 </v>
   <v>       0.44658852       0.55868063       0.95684120 </v>
   <v>       0.55578334       0.43891334       0.05688427 </v>
   <v>       0.43798708       0.88518544       0.94400220 </v>
   <v>       0.55351884       0.77432074       0.04434205 </v>
   <v>       0.77676175       0.22611636       0.94462873 </v>
   <v>       0.89146620       0.11309526       0.04281640 </v>
   <v>       0.78416639       0.55017627       0.94770502 </v>
   <v>       0.88642071       0.44576049       0.05014082 </v>
   <v>       0.77986432       0.88902916       0.95732120 </v>
   <v>       0.89804863       0.78330143       0.05631039 </v>
  </varray>
 </structure>
</modeling>
