unknown system                          
           1
     8.856763    5.104406    0.000000
    -8.856787    5.104449    0.000000
     0.000000    0.000000   30.000000
   V    Mo   W    S 
   3   3   3  18
Direct configuration=     1
   0.33333334  0.66666669  0.00000000
   1.00000000  0.33333334  0.00000000
   0.00000000  0.00000000  0.00000000
   0.66666669  0.00000000  0.00000000
   0.00000000  0.66666669  0.00000000
   0.33333334  0.00000000  0.00000000
   0.33333334  0.33333334  0.00000000
   0.66666669  0.33333334  0.00000000
   0.66666669  0.66666669  0.00000000
   0.11068511  0.22244981  0.95539999
   0.22244981  0.11068511  0.04460000
   0.11068511  0.55578315  0.95539999
   0.22244981  0.44401845  0.04460000
   0.11068511  0.88911647  0.95539999
   0.22244981  0.77735180  0.04460000
   0.44401845  0.22244981  0.95539999
   0.55578315  0.11068511  0.04460000
   0.44401845  0.55578315  0.95539999
   0.55578315  0.44401845  0.04460000
   0.44401845  0.88911647  0.95539999
   0.55578315  0.77735180  0.04460000
   0.77735180  0.22244981  0.95539999
   0.88911647  0.11068511  0.04460000
   0.77735180  0.55578315  0.95539999
   0.88911647  0.44401845  0.04460000
   0.77735180  0.88911647  0.95539999
   0.88911647  0.77735180  0.04460000
unknown system                          
           1
     8.667956    4.997884    0.000000
    -8.668114    4.998160    0.000000
     0.000000    0.000000   30.000000
   V    Mo   W    S 
   3   3   3  18
Direct configuration=     2
   0.33285260  0.66864547 -0.00018008
   0.99926018  0.33332034  0.00003615
  -0.00003003 -0.00078831  0.00019911
   0.66556434  0.00010731  0.00010349
   0.00157545  0.66794355 -0.00013581
   0.33336327 -0.00142242 -0.00022596
   0.33264769  0.33188652  0.00004742
   0.66685602  0.33165009 -0.00000854
   0.66807805  0.66840629  0.00019884
   0.10754328  0.22063308  0.95312587
   0.21792441  0.10975615  0.04805560
   0.11329316  0.55337971  0.95303537
   0.22040131  0.44606220  0.04690854
   0.10870930  0.89120110  0.95201717
   0.22445946  0.77524318  0.04804026
   0.44482506  0.22290384  0.95070545
   0.55601123  0.11209539  0.04924833
   0.44223515  0.55749505  0.95200378
   0.55555635  0.44452454  0.04930766
   0.44200297  0.88419738  0.95186206
   0.55145897  0.77497652  0.04803939
   0.78167903  0.22481182  0.95188277
   0.89323864  0.11292344  0.04685560
   0.77682681  0.55486484  0.95080345
   0.89018142  0.44148852  0.04799583
   0.78167675  0.89009348  0.95193715
   0.89002356  0.78181539  0.04814100
unknown system                          
           1
     8.487336    4.899999    0.000000
    -8.487044    4.899492    0.000000
     0.000000    0.000000   30.000000
   V    Mo   W    S 
   3   3   3  18
Direct configuration=     3
   0.33277167  0.66932854 -0.00020400
   0.99893845  0.33331172  0.00008675
  -0.00011853 -0.00119445  0.00022197
   0.66500937  0.00021715  0.00014683
   0.00180832  0.66839261 -0.00018488
   0.33365453 -0.00158046 -0.00025237
   0.33293459  0.33152896  0.00005397
   0.66659557  0.33109279 -0.00000461
   0.66855650  0.66872273  0.00016947
   0.10770889  0.22068398  0.95320620
   0.21790941  0.10988257  0.04804744
   0.11334602  0.55335758  0.95306088
   0.22049537  0.44595929  0.04676923
   0.10865759  0.89127887  0.95196508
   0.22450453  0.77517186  0.04811318
   0.44492246  0.22311677  0.95067851
   0.55609401  0.11231196  0.04933126
   0.44231103  0.55740497  0.95211873
   0.55561632  0.44451969  0.04924926
   0.44188980  0.88402268  0.95174439
   0.55143633  0.77475544  0.04802298
   0.78168693  0.22499111  0.95185084
   0.89331099  0.11299666  0.04679164
   0.77655141  0.55475730  0.95086571
   0.89002481  0.44135305  0.04797535
   0.78168654  0.88996176  0.95197686
   0.88991152  0.78186933  0.04819925
unknown system                          
           1
     8.270058    4.773312    0.000000
    -8.270148    4.773467    0.000000
     0.000000    0.000000   30.000000
   V    Mo   W    S 
   3   3   3  18
Direct configuration=     4
   0.33284218  0.67202724 -0.00020564
   0.99746848  0.33320635  0.00025750
  -0.00059096 -0.00309703  0.00022579
   0.66259325  0.00068700  0.00023836
   0.00207495  0.67000761 -0.00028112
   0.33540398 -0.00143001 -0.00024396
   0.33494691  0.33046907  0.00006558
   0.66488601  0.32900935  0.00000974
   0.67016597  0.66922410 -0.00001402
   0.10676270  0.22010687  0.95218664
   0.21680474  0.10905861  0.04947725
   0.11392411  0.55281112  0.95183825
   0.22016168  0.44642976  0.04754116
   0.10818434  0.89210256  0.95033130
   0.22505035  0.77456705  0.04979279
   0.44492866  0.22307425  0.94891187
   0.55585689  0.11223949  0.05127696
   0.44184498  0.55779831  0.95111587
   0.55594508  0.44454311  0.05067724
   0.44118318  0.88264464  0.94982186
   0.55013072  0.77394538  0.04940152
   0.78289528  0.22550489  0.95025894
   0.89426071  0.11361722  0.04783733
   0.77624214  0.55462921  0.94951570
   0.89065065  0.44101141  0.04931988
   0.78282870  0.89082619  0.95070133
   0.89076876  0.78320070  0.04994177
unknown system                          
           1
     8.270731    4.774630    0.000000
    -8.267815    4.769577    0.000000
     0.000000    0.000000   30.000000
   V    Mo   W    S 
   3   3   3  18
Direct configuration=     5
   0.33296472  0.67728700 -0.00002042
   0.99450895  0.33300169  0.00046557
  -0.00165637 -0.00737733  0.00005020
   0.65751473  0.00200576  0.00021611
   0.00217787  0.67349690 -0.00031745
   0.33981115  0.00004356 -0.00011234
   0.33912890  0.32816215  0.00012202
   0.66029519  0.32430195  0.00003013
   0.67372768  0.66976260 -0.00027277
   0.10602863  0.21939494  0.95099202
   0.21591610  0.10770504  0.05140681
   0.11438069  0.55254162  0.95001815
   0.22015136  0.44702685  0.04838197
   0.10832334  0.89316166  0.94806080
   0.22541684  0.77422891  0.05204398
   0.44491420  0.22199100  0.94618865
   0.55517600  0.11163001  0.05421318
   0.44128975  0.55826160  0.94995875
   0.55688191  0.44475280  0.05271613
   0.44050126  0.88152650  0.94687289
   0.54881365  0.77345186  0.05113160
   0.78388941  0.22553879  0.94807233
   0.89441871  0.11380367  0.04934010
   0.77654829  0.55422436  0.94773257
   0.89125633  0.44112418  0.05101393
   0.78384699  0.89244771  0.94916497
   0.89198818  0.78471866  0.05253002
unknown system                          
           1
     8.270848    4.774527    0.000000
    -8.267565    4.768839    0.000000
     0.000000    0.000000   30.000000
   V    Mo   W    S 
   3   3   3  18
Direct configuration=     6
   0.33251071  0.67874726 -0.00003331
   0.99363146  0.33305304  0.00051649
  -0.00201062 -0.00892994  0.00000115
   0.65643193  0.00271368  0.00017574
   0.00204743  0.67458483 -0.00034384
   0.34116678  0.00117767 -0.00013269
   0.34030875  0.32714382  0.00012685
   0.65841012  0.32275477  0.00007209
   0.67515917  0.66943530 -0.00025132
   0.10645233  0.21932841  0.95116155
   0.21637379  0.10752537  0.05147734
   0.11422582  0.55301372  0.94997212
   0.22073595  0.44702182  0.04810196
   0.10907668  0.89334612  0.94794620
   0.22528022  0.77475335  0.05220746
   0.44495086  0.22130020  0.94575132
   0.55505189  0.11145182  0.05463958
   0.44147884  0.55820217  0.95021451
   0.55750876  0.44485977  0.05293052
   0.44050390  0.88196677  0.94659219
   0.54925463  0.77384168  0.05098712
   0.78326357  0.22526839  0.94792832
   0.89347262  0.11312824  0.04925004
   0.77691446  0.55369822  0.94768309
   0.89066461  0.44140195  0.05093568
   0.78332330  0.89277613  0.94925998
   0.89202652  0.78464988  0.05282976
unknown system                          
           1
     8.269349    4.773840    0.000000
    -8.266276    4.768515    0.000000
     0.000000    0.000000   30.000000
   V    Mo   W    S 
   3   3   3  18
Direct configuration=     7
   0.33194783  0.67970669 -0.00002259
   0.99302614  0.33313023  0.00057745
  -0.00227710 -0.00997956 -0.00003489
   0.65572532  0.00336288  0.00017165
   0.00207482  0.67540318 -0.00034266
   0.34203522  0.00189910 -0.00010261
   0.34116493  0.32637384  0.00012257
   0.65710995  0.32167523  0.00009938
   0.67629960  0.66914952 -0.00027863
   0.10669701  0.21928651  0.95131047
   0.21657233  0.10743289  0.05152081
   0.11418362  0.55327188  0.94996102
   0.22107843  0.44702188  0.04786254
   0.10945821  0.89349987  0.94787718
   0.22522859  0.77505587  0.05227007
   0.44499935  0.22100219  0.94548346
   0.55496186  0.11137187  0.05487028
   0.44163617  0.55818399  0.95043722
   0.55778951  0.44487164  0.05305022
   0.44047657  0.88217050  0.94643261
   0.54945265  0.77394060  0.05082703
   0.78296399  0.22519176  0.94785063
   0.89304445  0.11278150  0.04913817
   0.77708926  0.55336529  0.94767425
   0.89031696  0.44153438  0.05085431
   0.78306828  0.89286265  0.94936890
   0.89209052  0.78464807  0.05302105
unknown system                          
           1
     8.270572    4.775840    0.000000
    -8.266887    4.769454    0.000000
     0.000000    0.000000   30.000000
   V    Mo   W    S 
   3   3   3  18
Direct configuration=     8
   0.33217234  0.67947156 -0.00001769
   0.99321519  0.33309636  0.00055980
  -0.00221217 -0.00970720 -0.00002600
   0.65586959  0.00314409  0.00017712
   0.00202874  0.67516354 -0.00033618
   0.34187374  0.00175370 -0.00010025
   0.34095363  0.32659326  0.00012261
   0.65739888  0.32192664  0.00009412
   0.67594820  0.66925666 -0.00027586
   0.10665409  0.21929778  0.95126707
   0.21655271  0.10744315  0.05150320
   0.11418524  0.55322811  0.94996480
   0.22100195  0.44702352  0.04793136
   0.10939002  0.89345680  0.94789446
   0.22523814  0.77498500  0.05224256
   0.44498873  0.22106476  0.94555143
   0.55497742  0.11137282  0.05480797
   0.44160091  0.55818530  0.95036968
   0.55774417  0.44487811  0.05302063
   0.44048329  0.88213198  0.94646173
   0.54941837  0.77394923  0.05088631
   0.78301153  0.22519272  0.94786884
   0.89310563  0.11284231  0.04917244
   0.77703597  0.55346003  0.94768119
   0.89039520  0.44150933  0.05087330
   0.78311990  0.89285914  0.94933487
   0.89206302  0.78463577  0.05297038
unknown system                          
           1
     8.268977    4.774239    0.000000
    -8.265180    4.767659    0.000000
     0.000000    0.000000   30.000000
   V    Mo   W    S 
   3   3   3  18
Direct configuration=     9
   0.33335567  0.67929450 -0.00001834
   0.99411637  0.33287427  0.00047961
  -0.00229664 -0.00953849 -0.00001077
   0.65574410  0.00192442  0.00013419
   0.00181057  0.67510075 -0.00033560
   0.34177003  0.00156877 -0.00014032
   0.34050074  0.32698646  0.00013654
   0.65752834  0.32227582  0.00007103
   0.67530097  0.67014324 -0.00028809
   0.10656746  0.21907656  0.95113315
   0.21643711  0.10729679  0.05145549
   0.11421955  0.55333078  0.94999665
   0.22104729  0.44720395  0.04814292
   0.10934680  0.89347191  0.94794816
   0.22528709  0.77486567  0.05219463
   0.44497608  0.22105610  0.94557074
   0.55508067  0.11136143  0.05483625
   0.44143249  0.55820965  0.95014804
   0.55783592  0.44495304  0.05301826
   0.44042507  0.88200861  0.94645542
   0.54933177  0.77414672  0.05116710
   0.78287134  0.22508468  0.94788608
   0.89302211  0.11263316  0.04926496
   0.77679659  0.55351701  0.94770055
   0.89035185  0.44143400  0.05091716
   0.78334755  0.89313898  0.94922534
   0.89200756  0.78479569  0.05291074
unknown system                          
           1
     8.270606    4.774944    0.000000
    -8.266688    4.768156    0.000000
     0.000000    0.000000   30.000000
   V    Mo   W    S 
   3   3   3  18
Direct configuration=    10
   0.33275522  0.68041199 -0.00001297
   0.99351467  0.33295559  0.00059608
  -0.00270190 -0.01080312 -0.00002545
   0.65483580  0.00270419  0.00017757
   0.00181509  0.67608591 -0.00032780
   0.34303324  0.00263015 -0.00006396
   0.34146373  0.32595129  0.00014761
   0.65585567  0.32061105  0.00013791
   0.67668470  0.67008482 -0.00030649
   0.10687261  0.21903280  0.95132379
   0.21669339  0.10722837  0.05147733
   0.11416855  0.55361097  0.95006668
   0.22145529  0.44717198  0.04780355
   0.10979968  0.89368877  0.94785797
   0.22521734  0.77524107  0.05222872
   0.44497089  0.22074905  0.94527487
   0.55500991  0.11126917  0.05502214
   0.44165460  0.55814054  0.95045467
   0.55811043  0.44506450  0.05306174
   0.44033702  0.88219041  0.94625346
   0.54954110  0.77417411  0.05099511
   0.78255915  0.22502422  0.94789085
   0.89259295  0.11229680  0.04905590
   0.77690948  0.55313866  0.94776989
   0.88998080  0.44151401  0.05068539
   0.78308935  0.89323500  0.94930890
   0.89199571  0.78481219  0.05314643
unknown system                          
           1
     8.260181    4.773657    0.000000
    -8.254154    4.763209    0.000000
     0.000000    0.000000   30.000000
   V    Mo   W    S 
   3   3   3  18
Direct configuration=    11
   0.33236948  0.68058856 -0.00001664
   0.99321272  0.33302407  0.00061307
  -0.00271084 -0.01099608 -0.00004124
   0.65479421  0.00305991  0.00016817
   0.00189979  0.67625239 -0.00033606
   0.34308953  0.00270258 -0.00007249
   0.34167615  0.32576073  0.00014096
   0.65569096  0.32046777  0.00013518
   0.67702906  0.66981312 -0.00030869
   0.10690798  0.21906742  0.95137287
   0.21671691  0.10724600  0.05150529
   0.11416482  0.55361765  0.95004340
   0.22149337  0.44714403  0.04773156
   0.10984167  0.89370584  0.94784125
   0.22520583  0.77530124  0.05226393
   0.44499038  0.22070870  0.94522795
   0.55497648  0.11127311  0.05507573
   0.44169955  0.55814428  0.95053218
   0.55812511  0.44502693  0.05309674
   0.44035602  0.88224717  0.94624529
   0.54957625  0.77413893  0.05090024
   0.78255472  0.22504015  0.94786040
   0.89256852  0.11229086  0.04903230
   0.77700143  0.55306390  0.94774938
   0.88993575  0.44155727  0.05069204
   0.78300921  0.89318124  0.94935966
   0.89203939  0.78478670  0.05318743
unknown system                          
           1
     8.275543    4.779957    0.000000
    -8.270226    4.770744    0.000000
     0.000000    0.000000   30.000000
   V    Mo   W    S 
   3   3   3  18
Direct configuration=    12
   0.33489121  0.68071895 -0.00001957
   0.99524013  0.33261462  0.00052685
  -0.00326315 -0.01103598 -0.00004525
   0.65395544  0.00053119  0.00006513
   0.00135585  0.67644716 -0.00035651
   0.34386970  0.00296776 -0.00018235
   0.34096966  0.32613495  0.00014963
   0.65508291  0.31982129  0.00005683
   0.67612687  0.67223700 -0.00036071
   0.10691790  0.21875406  0.95110831
   0.21670528  0.10707081  0.05145353
   0.11430007  0.55384201  0.95020700
   0.22176167  0.44746514  0.04802779
   0.10986862  0.89380099  0.94790900
   0.22531442  0.77516262  0.05214890
   0.44479381  0.22074139  0.94524535
   0.55514385  0.11108184  0.05518559
   0.44151936  0.55807092  0.95023100
   0.55826058  0.44544914  0.05295558
   0.44019713  0.88203744  0.94618403
   0.54936667  0.77434528  0.05148033
   0.78224870  0.22472497  0.94801634
   0.89235993  0.11189587  0.04914598
   0.77628877  0.55322847  0.94797914
   0.88991895  0.44146035  0.05060128
   0.78333231  0.89366529  0.94906464
   0.89168783  0.78498092  0.05322204
unknown system                          
           1
     8.273615    4.778957    0.000000
    -8.268039    4.769294    0.000000
     0.000000    0.000000   30.000000
   V    Mo   W    S 
   3   3   3  18
Direct configuration=    13
   0.33304280  0.68173512 -0.00000432
   0.99398109  0.33295152  0.00069505
  -0.00350661 -0.01226480 -0.00005267
   0.65353330  0.00223051  0.00015348
   0.00173403  0.67754042 -0.00033096
   0.34463040  0.00384596 -0.00005244
   0.34196635  0.32474988  0.00019313
   0.65371176  0.31832847  0.00018016
   0.67812264  0.67157427 -0.00031419
   0.10715176  0.21884440  0.95135972
   0.21692135  0.10707140  0.05152621
   0.11424245  0.55399307  0.95017392
   0.22209412  0.44735762  0.04758583
   0.11028521  0.89401432  0.94775937
   0.22522393  0.77559553  0.05225136
   0.44488030  0.22043451  0.94486282
   0.55502355  0.11105463  0.05538842
   0.44178202  0.55807767  0.95065482
   0.55846816  0.44531099  0.05303712
   0.44018876  0.88227248  0.94597760
   0.54955588  0.77420449  0.05107718
   0.78214305  0.22479611  0.94791667
   0.89208840  0.11175975  0.04892245
   0.77664356  0.55263346  0.94794201
   0.88950286  0.44156933  0.05043060
   0.78295369  0.89360432  0.94920117
   0.89184964  0.78492904  0.05346540
unknown system                          
           1
     8.276547    4.779872    0.000000
    -8.271030    4.770314    0.000000
     0.000000    0.000000   30.000000
   V    Mo   W    S 
   3   3   3  18
Direct configuration=    14
   0.33252538  0.68238458 -0.00003245
   0.99372875  0.33303548  0.00075310
  -0.00378752 -0.01300650 -0.00009312
   0.65312100  0.00254318  0.00012520
   0.00190360  0.67834430 -0.00036542
   0.34515776  0.00431913 -0.00008185
   0.34228770  0.32397052  0.00017338
   0.65280801  0.31731594  0.00017205
   0.67919706  0.67191090 -0.00035191
   0.10728717  0.21881468  0.95147058
   0.21700209  0.10702832  0.05155420
   0.11424402  0.55414574  0.95021241
   0.22236703  0.44737446  0.04739464
   0.11047476  0.89413695  0.94774743
   0.22519155  0.77580042  0.05229017
   0.44489726  0.22028774  0.94472764
   0.55498623  0.11097895  0.05554939
   0.44189718  0.55805125  0.95088433
   0.55860359  0.44530657  0.05302666
   0.44016664  0.88238732  0.94593216
   0.54959104  0.77414992  0.05095301
   0.78198831  0.22475000  0.94792873
   0.89191347  0.11157928  0.04881623
   0.77667828  0.55236363  0.94803767
   0.88925738  0.44163908  0.05031503
   0.78283467  0.89363714  0.94926695
   0.89189205  0.78496547  0.05359369
unknown system                          
           1
     8.272527    4.779082    0.000000
    -8.266606    4.768822    0.000000
     0.000000    0.000000   30.000000
   V    Mo   W    S 
   3   3   3  18
Direct configuration=    15
   0.33136262  0.68316744 -0.00006631
   0.99296353  0.33322158  0.00083925
  -0.00397871 -0.01390268 -0.00014107
   0.65279188  0.00341814  0.00011092
   0.00223905  0.67930550 -0.00039794
   0.34555935  0.00476253 -0.00009399
   0.34283170  0.32295678  0.00015155
   0.65187674  0.31629061  0.00018123
   0.68070944  0.67177383 -0.00038087
   0.10744016  0.21883351  0.95165037
   0.21708366  0.10700088  0.05162022
   0.11421540  0.55429296  0.95020247
   0.22265322  0.44733116  0.04710564
   0.11071156  0.89428778  0.94769442
   0.22512774  0.77607760  0.05238464
   0.44495997  0.22008298  0.94453388
   0.55489311  0.11091553  0.05574378
   0.44206737  0.55804779  0.95122421
   0.55874262  0.44521372  0.05305974
   0.44018515  0.88258485  0.94587753
   0.54967375  0.77403618  0.05067790
   0.78185928  0.22475033  0.94788419
   0.89172974  0.11142107  0.04867624
   0.77689768  0.55199538  0.94808335
   0.88895896  0.44176718  0.05021608
   0.78262461  0.89359936  0.94940047
   0.89203489  0.78498247  0.05376202
unknown system                          
           1
     8.289014    4.784813    0.000000
    -8.284148    4.776386    0.000000
     0.000000    0.000000   30.000000
   V    Mo   W    S 
   3   3   3  18
Direct configuration=    16
   0.33205140  0.68288028 -0.00004528
   0.99358777  0.33313799  0.00080162
  -0.00402781 -0.01354922 -0.00012697
   0.65282501  0.00280000  0.00010643
   0.00196976  0.67887057 -0.00038771
   0.34557656  0.00470913 -0.00010705
   0.34263066  0.32341320  0.00015806
   0.65207228  0.31659650  0.00016914
   0.68000776  0.67206415 -0.00037977
   0.10740911  0.21882077  0.95154343
   0.21710794  0.10701980  0.05159397
   0.11423120  0.55425934  0.95022607
   0.22258630  0.44737827  0.04725373
   0.11063744  0.89420926  0.94771937
   0.22516964  0.77596159  0.05232861
   0.44490812  0.22018107  0.94460484
   0.55497763  0.11092853  0.05569073
   0.44199775  0.55801555  0.95105126
   0.55871416  0.44528854  0.05303116
   0.44015963  0.88249854  0.94588282
   0.54964482  0.77411558  0.05086078
   0.78186110  0.22471557  0.94792989
   0.89174429  0.11145212  0.04874807
   0.77670842  0.55214323  0.94810377
   0.88905306  0.44169671  0.05023019
   0.78269884  0.89365745  0.94930355
   0.89191160  0.78494993  0.05370918
unknown system                          
           1
     8.289684    4.783579    0.000000
    -8.285465    4.776277    0.000000
     0.000000    0.000000   30.000000
   V    Mo   W    S 
   3   3   3  18
Direct configuration=    17
   0.32980670  0.68416886 -0.00010747
   0.99185236  0.33344937  0.00097061
  -0.00413415 -0.01505890 -0.00017004
   0.65240983  0.00455104  0.00014251
   0.00282642  0.68070950 -0.00040783
   0.34591117  0.00520721 -0.00003714
   0.34333960  0.32151076  0.00016153
   0.65080786  0.31491417  0.00024691
   0.68278548  0.67174623 -0.00037453
   0.10758549  0.21881853  0.95187083
   0.21711151  0.10691307  0.05171009
   0.11418749  0.55449357  0.95016484
   0.22302495  0.44728724  0.04671809
   0.11103985  0.89457232  0.94757048
   0.22502934  0.77644970  0.05252782
   0.44504806  0.21977434  0.94422148
   0.55472408  0.11078962  0.05596890
   0.44226836  0.55810101  0.95168236
   0.55891567  0.44508667  0.05308486
   0.44021191  0.88281824  0.94576038
   0.54972503  0.77384129  0.05030292
   0.78173446  0.22474945  0.94778040
   0.89152141  0.11119889  0.04848544
   0.77723154  0.55147250  0.94810543
   0.88856653  0.44194946  0.05009146
   0.78240797  0.89361772  0.94953598
   0.89227553  0.78508257  0.05399358
unknown system                          
           1
     8.291357    4.782984    0.000000
    -8.287723    4.776698    0.000000
     0.000000    0.000000   30.000000
   V    Mo   W    S 
   3   3   3  18
Direct configuration=    18
   0.32897197  0.68471881 -0.00016303
   0.99113111  0.33356165  0.00103093
  -0.00413598 -0.01566978 -0.00020214
   0.65220997  0.00518740  0.00013286
   0.00320057  0.68155947 -0.00044012
   0.34603832  0.00540467 -0.00003874
   0.34353615  0.32063980  0.00014361
   0.65027247  0.31410764  0.00024506
   0.68397193  0.67178447 -0.00039525
   0.10768321  0.21882847  0.95201685
   0.21711797  0.10686367  0.05175787
   0.11415577  0.55461931  0.95016701
   0.22322370  0.44723083  0.04648599
   0.11121468  0.89472215  0.94752586
   0.22494591  0.77664916  0.05261130
   0.44512586  0.21960774  0.94411492
   0.55460329  0.11070201  0.05608568
   0.44239656  0.55814298  0.95198219
   0.55900262  0.44500914  0.05306939
   0.44024787  0.88297742  0.94573943
   0.54974263  0.77370555  0.05007729
   0.78165083  0.22473500  0.94775092
   0.89141065  0.11109254  0.04836966
   0.77743370  0.55122261  0.94816064
   0.88835243  0.44207036  0.05001811
   0.78228543  0.89359016  0.94963904
   0.89242484  0.78515125  0.05411457
unknown system                          
           1
     8.287660    4.782170    0.000000
    -8.283806    4.775502    0.000000
     0.000000    0.000000   30.000000
   V    Mo   W    S 
   3   3   3  18
Direct configuration=    19
   0.32818286  0.68517695 -0.00020365
   0.99037993  0.33367333  0.00108266
  -0.00407171 -0.01615178 -0.00022584
   0.65207636  0.00583567  0.00013219
   0.00354328  0.68221552 -0.00046217
   0.34605642  0.00548489 -0.00003261
   0.34376029  0.31996542  0.00013184
   0.64991705  0.31356489  0.00025041
   0.68494062  0.67159207 -0.00040745
   0.10775791  0.21885074  0.95215104
   0.21711317  0.10683890  0.05180379
   0.11413783  0.55471539  0.95015166
   0.22336082  0.44717029  0.04627984
   0.11135198  0.89484269  0.94747903
   0.22487917  0.77680069  0.05268796
   0.44519873  0.21947442  0.94402597
   0.55448890  0.11064628  0.05617468
   0.44250317  0.55818781  0.95223708
   0.55905995  0.44492319  0.05307491
   0.44028508  0.88311108  0.94572502
   0.54976663  0.77358654  0.04985438
   0.78160338  0.22473779  0.94770285
   0.89133125  0.11102122  0.04827001
   0.77765515  0.55103212  0.94817857
   0.88819566  0.44218675  0.04997926
   0.78217139  0.89353788  0.94974843
   0.89256921  0.78519370  0.05421001
unknown system                          
           1
     8.248728    4.774728    0.000000
    -8.243618    4.765859    0.000000
     0.000000    0.000000   30.000000
   V    Mo   W    S 
   3   3   3  18
Direct configuration=    20
   0.32858672  0.68482234 -0.00016997
   0.99097739  0.33358201  0.00107148
  -0.00425305 -0.01602298 -0.00022017
   0.65221387  0.00543807  0.00013829
   0.00322931  0.68197852 -0.00044746
   0.34611470  0.00562617 -0.00003945
   0.34359321  0.32021908  0.00013294
   0.64995226  0.31366795  0.00025119
   0.68461229  0.67203848 -0.00041825
   0.10773325  0.21882398  0.95207151
   0.21714539  0.10684141  0.05177892
   0.11408823  0.55465636  0.95016538
   0.22332091  0.44718231  0.04639497
   0.11128220  0.89479611  0.94750681
   0.22488652  0.77676381  0.05265552
   0.44513396  0.21954732  0.94404914
   0.55458214  0.11063802  0.05614761
   0.44249161  0.55810998  0.95210509
   0.55902979  0.44498079  0.05303856
   0.44028806  0.88309620  0.94571074
   0.54978658  0.77366274  0.05000815
   0.78160595  0.22471130  0.94774683
   0.89134787  0.11103876  0.04831430
   0.77748334  0.55112623  0.94821786
   0.88826002  0.44210731  0.04994919
   0.78225039  0.89360251  0.94966157
   0.89247155  0.78517967  0.05417913
unknown system                          
           1
     8.307174    4.787184    0.000000
    -8.305387    4.784106    0.000000
     0.000000    0.000000   30.000000
   V    Mo   W    S 
   3   3   3  18
Direct configuration=    21
   0.33136884  0.68128492  0.00008288
   0.99657866  0.33262258  0.00093136
  -0.00620271 -0.01457586 -0.00019029
   0.65373733  0.00212983  0.00010084
   0.00053364  0.67993662 -0.00030622
   0.34743826  0.00768644 -0.00014419
   0.34153672  0.32158074  0.00005996
   0.65004939  0.31316760  0.00021211
   0.68238971  0.67747499 -0.00042356
   0.10726489  0.21857839  0.95127485
   0.21731775  0.10670205  0.05171883
   0.11327388  0.55385545  0.95039543
   0.22277470  0.44711975  0.04744200
   0.11088882  0.89462889  0.94759855
   0.22484628  0.77662190  0.05243314
   0.44450063  0.22017627  0.94402548
   0.55537275  0.11024435  0.05611622
   0.44263472  0.55750357  0.95098508
   0.55890051  0.44571918  0.05263784
   0.44029868  0.88294370  0.94575235
   0.54994572  0.77418385  0.05141973
   0.78204062  0.22471867  0.94820522
   0.89181235  0.11148411  0.04881697
   0.77570905  0.55141263  0.94854705
   0.88880611  0.44126435  0.04952314
   0.78289557  0.89455203  0.94850670
   0.89150161  0.78519746  0.05427841
unknown system                          
           1
     8.304356    4.783571    0.000000
    -8.303426    4.781980    0.000000
     0.000000    0.000000   30.000000
   V    Mo   W    S 
   3   3   3  18
Direct configuration=    22
   0.32658723  0.68620555 -0.00029410
   0.98822395  0.33398324  0.00119663
  -0.00356478 -0.01705802 -0.00025031
   0.65183086  0.00740364  0.00015095
   0.00443371  0.68356630 -0.00047944
   0.34567961  0.00529683  0.00002466
   0.34420486  0.31858505  0.00013663
   0.64959859  0.31275148  0.00029783
   0.68683074  0.67070607 -0.00039125
   0.10789033  0.21894376  0.95247220
   0.21704072  0.10674392  0.05193900
   0.11408848  0.55489780  0.95007370
   0.22358730  0.44701459  0.04578433
   0.11171198  0.89517917  0.94729640
   0.22471562  0.77708870  0.05289366
   0.44537682  0.21912125  0.94380448
   0.55414952  0.11053755  0.05636015
   0.44268184  0.55835671  0.95279905
   0.55918751  0.44470702  0.05314188
   0.44039581  0.88342790  0.94562228
   0.54979211  0.77328966  0.04933551
   0.78154460  0.22474774  0.94753344
   0.89114631  0.11088121  0.04802551
   0.77830354  0.55061430  0.94812714
   0.88790646  0.44250343  0.04995665
   0.78191162  0.89341074  0.95002743
   0.89295910  0.78530884  0.05441551
unknown system                          
           1
     8.310689    4.783393    0.000000
    -8.310841    4.783683    0.000000
     0.000000    0.000000   30.000000
   V    Mo   W    S 
   3   3   3  18
Direct configuration=    23
   0.32617530  0.68628514 -0.00036083
   0.98812623  0.33399099  0.00117903
  -0.00348407 -0.01737876 -0.00026489
   0.65178255  0.00757964  0.00013644
   0.00465255  0.68442055 -0.00050174
   0.34578283  0.00563934  0.00002406
   0.34380302  0.31763279  0.00012542
   0.64906638  0.31176756  0.00029072
   0.68781113  0.67147354 -0.00035668
   0.10789761  0.21893250  0.95252948
   0.21697441  0.10664300  0.05200948
   0.11386998  0.55493914  0.95010391
   0.22366968  0.44684691  0.04566376
   0.11183748  0.89529975  0.94724908
   0.22454967  0.77725785  0.05294460
   0.44550977  0.21902081  0.94371697
   0.55401673  0.11034720  0.05646040
   0.44287945  0.55840730  0.95304002
   0.55928868  0.44472612  0.05301392
   0.44045643  0.88358319  0.94565094
   0.54984409  0.77319261  0.04921122
   0.78158861  0.22474412  0.94749603
   0.89113938  0.11089147  0.04797771
   0.77834947  0.55039760  0.94821977
   0.88771422  0.44263875  0.04989155
   0.78186017  0.89346422  0.95000045
   0.89305273  0.78547114  0.05454909
unknown system                          
           1
     8.319832    4.781483    0.000000
    -8.321592    4.784571    0.000000
     0.000000    0.000000   30.000000
   V    Mo   W    S 
   3   3   3  18
Direct configuration=    24
   0.32525325  0.68705620 -0.00043032
   0.98638154  0.33425640  0.00123338
  -0.00286952 -0.01783254 -0.00027673
   0.65156107  0.00875836  0.00013951
   0.00531131  0.68514825 -0.00052544
   0.34534042  0.00525611  0.00005317
   0.34421428  0.31691874  0.00012607
   0.64907897  0.31159833  0.00030480
   0.68877556  0.67026087 -0.00035891
   0.10800291  0.21904093  0.95277924
   0.21691890  0.10661686  0.05208882
   0.11388720  0.55507784  0.95004052
   0.22375489  0.44673271  0.04531244
   0.11204455  0.89545885  0.94714750
   0.22445625  0.77736791  0.05306610
   0.44566931  0.21880595  0.94365996
   0.55374153  0.11034269  0.05653031
   0.44295326  0.55853726  0.95341832
   0.55934218  0.44453422  0.05309341
   0.44052988  0.88378165  0.94560393