   27   27  100    1
  0.9710400E+02  0.1002848E-08  0.1002848E-08  0.3000000E-08  0.5000000E-15
  1.000000000000000E-004
  CAR 
 unknown system                          
    159     34    120
 
  0.0000000E+00  0.0000000E+00  0.0000000E+00  0.1562500E-01
    1      -17.804015   1.000000
    2      -16.729455   1.000000
    3      -16.679140   1.000000
    4      -16.578704   1.000000
    5      -16.536624   1.000000
    6      -16.462606   1.000000
    7      -16.427731   1.000000
    8      -16.314828   1.000000
    9      -16.158055   1.000000
   10      -16.098601   1.000000
   11      -16.076916   1.000000
   12      -15.946745   1.000000
   13      -15.916989   1.000000
   14      -15.674994   1.000000
   15      -15.589692   1.000000
   16      -15.531079   1.000000
   17      -15.320931   1.000000
   18      -15.261770   1.000000
   19       -9.285664   1.000000
   20       -9.002554   1.000000
   21       -8.926962   1.000000
   22       -8.823229   1.000000
   23       -8.769461   1.000000
   24       -8.706433   1.000000
   25       -8.653164   1.000000
   26       -8.607004   1.000000
   27       -8.558326   1.000000
   28       -8.422228   1.000000
   29       -8.404423   1.000000
   30       -8.349343   1.000000
   31       -8.290821   1.000000
   32       -8.197734   1.000000
   33       -8.117622   1.000000
   34       -8.031386   1.000000
   35       -7.874698   1.000000
   36       -7.770939   1.000000
   37       -7.692459   1.000000
   38       -7.517769   1.000000
   39       -7.502750   1.000000
   40       -7.428550   1.000000
   41       -7.315036   1.000000
   42       -7.211131   1.000000
   43       -7.133151   1.000000
   44       -6.901972   1.000000
   45       -6.812033   1.000000
   46       -6.806413   1.000000
   47       -6.689759   1.000000
   48       -6.645593   1.000000
   49       -6.546766   1.000000
   50       -6.537596   1.000000
   51       -6.486295   1.000000
   52       -6.425221   1.000000
   53       -6.320190   1.000000
   54       -6.225181   1.000000
   55       -6.171403   1.000000
   56       -6.064960   1.000000
   57       -6.036067   1.000000
   58       -5.853719   1.000000
   59       -5.822937   1.000000
   60       -5.575682   1.000000
   61       -5.506727   1.000000
   62       -5.462617   1.000000
   63       -5.257292   1.000000
   64       -5.114269   1.000000
   65       -5.057584   1.000000
   66       -4.994549   1.000000
   67       -4.959267   1.000000
   68       -4.820503   1.000000
   69       -4.789363   1.000000
   70       -4.695446   1.000000
   71       -4.591208   1.000000
   72       -4.565827   1.000000
   73       -4.536493   1.000000
   74       -4.372404   1.000000
   75       -4.158811   1.000000
   76       -4.024941   1.000000
   77       -3.763394   0.999015
   78       -3.628831   0.983952
   79       -3.544067   0.938686
   80       -3.358444   0.591452
   81       -3.261630   0.325168
   82       -2.840863   0.000303
   83       -2.758257   0.000030
   84       -2.545585   0.000000
   85       -2.477345   0.000000
   86       -2.362605   0.000000
   87       -2.313052   0.000000
   88       -2.198674   0.000000
   89       -2.134399   0.000000
   90       -2.036018   0.000000
   91       -1.780075   0.000000
   92       -1.547715   0.000000
   93       -1.491601   0.000000
   94       -1.369162   0.000000
   95       -1.260511   0.000000
   96       -1.011875   0.000000
   97       -0.963675   0.000000
   98       -0.846288   0.000000
   99       -0.821529   0.000000
  100       -0.638806   0.000000
  101       -0.517887   0.000000
  102       -0.470786   0.000000
  103       -0.467565   0.000000
  104       -0.312107   0.000000
  105       -0.283899   0.000000
  106       -0.163561   0.000000
  107       -0.080444   0.000000
  108       -0.044951   0.000000
  109        0.075370   0.000000
  110        0.185322   0.000000
  111        0.368367   0.000000
  112        0.486762   0.000000
  113        0.680417   0.000000
  114        0.819330   0.000000
  115        0.834230   0.000000
  116        1.091063   0.000000
  117        1.305908   0.000000
  118        1.643880   0.000000
  119        1.834754   0.000000
  120        2.148717   0.000000
 
  0.1250000E+00  0.2775558E-16  0.0000000E+00  0.3125000E-01
    1      -17.778703   1.000000
    2      -16.811815   1.000000
    3      -16.707446   1.000000
    4      -16.592963   1.000000
    5      -16.565449   1.000000
    6      -16.452222   1.000000
    7      -16.402925   1.000000
    8      -16.271503   1.000000
    9      -16.174736   1.000000
   10      -16.087531   1.000000
   11      -16.023201   1.000000
   12      -15.947967   1.000000
   13      -15.879288   1.000000
   14      -15.668638   1.000000
   15      -15.599938   1.000000
   16      -15.532797   1.000000
   17      -15.332754   1.000000
   18      -15.267717   1.000000
   19       -9.258873   1.000000
   20       -9.157989   1.000000
   21       -9.018554   1.000000
   22       -8.972315   1.000000
   23       -8.824121   1.000000
   24       -8.706669   1.000000
   25       -8.633554   1.000000
   26       -8.575970   1.000000
   27       -8.494572   1.000000
   28       -8.421916   1.000000
   29       -8.379972   1.000000
   30       -8.318842   1.000000
   31       -8.250553   1.000000
   32       -8.107199   1.000000
   33       -8.042194   1.000000
   34       -7.902529   1.000000
   35       -7.870666   1.000000
   36       -7.727591   1.000000
   37       -7.664067   1.000000
   38       -7.559226   1.000000
   39       -7.448911   1.000000
   40       -7.408184   1.000000
   41       -7.318599   1.000000
   42       -7.255811   1.000000
   43       -7.139906   1.000000
   44       -6.915092   1.000000
   45       -6.881390   1.000000
   46       -6.848103   1.000000
   47       -6.707925   1.000000
   48       -6.649766   1.000000
   49       -6.564231   1.000000
   50       -6.497403   1.000000
   51       -6.473062   1.000000
   52       -6.368099   1.000000
   53       -6.294003   1.000000
   54       -6.235564   1.000000
   55       -6.165407   1.000000
   56       -6.058729   1.000000
   57       -6.000516   1.000000
   58       -5.877749   1.000000
   59       -5.779565   1.000000
   60       -5.585319   1.000000
   61       -5.547180   1.000000
   62       -5.451450   1.000000
   63       -5.382693   1.000000
   64       -5.143419   1.000000
   65       -5.109423   1.000000
   66       -5.021107   1.000000
   67       -4.953573   1.000000
   68       -4.853121   1.000000
   69       -4.747433   1.000000
   70       -4.703462   1.000000
   71       -4.658407   1.000000
   72       -4.510941   1.000000
   73       -4.424535   1.000000
   74       -4.346299   1.000000
   75       -4.121224   1.000000
   76       -4.010447   0.999999
   77       -3.786805   0.999443
   78       -3.702946   0.996177
   79       -3.581313   0.964635
   80       -3.464083   0.836029
   81       -3.096988   0.052886
   82       -2.841076   0.000305
   83       -2.739795   0.000017
   84       -2.551852   0.000000
   85       -2.462444   0.000000
   86       -2.349082   0.000000
   87       -2.300485   0.000000
   88       -2.173397   0.000000
   89       -2.130724   0.000000
   90       -2.022092   0.000000
   91       -1.805291   0.000000
   92       -1.553197   0.000000
   93       -1.480039   0.000000
   94       -1.343617   0.000000
   95       -1.259194   0.000000
   96       -1.013132   0.000000
   97       -0.975194   0.000000
   98       -0.864523   0.000000
   99       -0.810131   0.000000
  100       -0.688826   0.000000
  101       -0.653836   0.000000
  102       -0.541417   0.000000
  103       -0.486778   0.000000
  104       -0.356274   0.000000
  105       -0.311995   0.000000
  106       -0.186562   0.000000
  107       -0.137410   0.000000
  108        0.025652   0.000000
  109        0.113913   0.000000
  110        0.172129   0.000000
  111        0.399159   0.000000
  112        0.459201   0.000000
  113        0.667589   0.000000
  114        0.806008   0.000000
  115        0.878791   0.000000
  116        1.124746   0.000000
  117        1.330402   0.000000
  118        1.687502   0.000000
  119        1.873655   0.000000
  120        2.183894   0.000000
 
  0.2500000E+00  0.5551115E-16  0.0000000E+00  0.3125000E-01
    1      -17.703754   1.000000
    2      -17.007440   1.000000
    3      -16.722689   1.000000
    4      -16.658399   1.000000
    5      -16.590269   1.000000
    6      -16.450974   1.000000
    7      -16.328538   1.000000
    8      -16.218282   1.000000
    9      -16.188295   1.000000
   10      -16.061745   1.000000
   11      -15.981258   1.000000
   12      -15.895307   1.000000
   13      -15.805395   1.000000
   14      -15.658377   1.000000
   15      -15.618765   1.000000
   16      -15.537466   1.000000
   17      -15.361995   1.000000
   18      -15.281133   1.000000
   19       -9.457895   1.000000
   20       -9.211965   1.000000
   21       -9.163438   1.000000
   22       -9.082633   1.000000
   23       -8.860443   1.000000
   24       -8.789600   1.000000
   25       -8.689327   1.000000
   26       -8.514720   1.000000
   27       -8.442690   1.000000
   28       -8.367823   1.000000
   29       -8.334473   1.000000
   30       -8.186107   1.000000
   31       -8.157621   1.000000
   32       -8.089069   1.000000
   33       -7.985456   1.000000
   34       -7.871676   1.000000
   35       -7.766697   1.000000
   36       -7.666943   1.000000
   37       -7.550105   1.000000
   38       -7.475919   1.000000
   39       -7.418500   1.000000
   40       -7.374706   1.000000
   41       -7.314879   1.000000
   42       -7.245936   1.000000
   43       -7.139210   1.000000
   44       -6.949201   1.000000
   45       -6.925168   1.000000
   46       -6.827697   1.000000
   47       -6.730588   1.000000
   48       -6.687075   1.000000
   49       -6.585381   1.000000
   50       -6.502273   1.000000
   51       -6.449486   1.000000
   52       -6.307188   1.000000
   53       -6.241791   1.000000
   54       -6.187721   1.000000
   55       -6.126334   1.000000
   56       -6.046094   1.000000
   57       -5.954522   1.000000
   58       -5.880990   1.000000
   59       -5.792697   1.000000
   60       -5.708752   1.000000
   61       -5.605787   1.000000
   62       -5.590065   1.000000
   63       -5.468465   1.000000
   64       -5.299093   1.000000
   65       -5.166639   1.000000
   66       -5.035334   1.000000
   67       -4.923746   1.000000
   68       -4.856924   1.000000
   69       -4.770878   1.000000
   70       -4.660035   1.000000
   71       -4.626667   1.000000
   72       -4.438557   1.000000
   73       -4.332046   1.000000
   74       -4.270119   1.000000
   75       -4.167306   1.000000
   76       -4.049153   1.000000
   77       -3.937421   0.999992
   78       -3.754764   0.998792
   79       -3.562050   0.952639
   80       -3.410686   0.725978
   81       -2.976696   0.006792
   82       -2.839058   0.000289
   83       -2.696673   0.000004
   84       -2.575871   0.000000
   85       -2.416259   0.000000
   86       -2.334977   0.000000
   87       -2.291779   0.000000
   88       -2.146427   0.000000
   89       -2.054405   0.000000
   90       -1.987365   0.000000
   91       -1.838930   0.000000
   92       -1.574923   0.000000
   93       -1.450905   0.000000
   94       -1.294229   0.000000
   95       -1.260666   0.000000
   96       -1.070193   0.000000
   97       -0.996059   0.000000
   98       -0.909453   0.000000
   99       -0.849436   0.000000
  100       -0.817094   0.000000
  101       -0.740628   0.000000
  102       -0.705044   0.000000
  103       -0.577507   0.000000
  104       -0.406772   0.000000
  105       -0.369990   0.000000
  106       -0.257165   0.000000
  107       -0.177428   0.000000
  108        0.002171   0.000000
  109        0.089409   0.000000
  110        0.190211   0.000000
  111        0.336245   0.000000
  112        0.490854   0.000000
  113        0.711731   0.000000
  114        0.805586   0.000000
  115        0.947823   0.000000
  116        1.198535   0.000000
  117        1.414021   0.000000
  118        1.809328   0.000000
  119        1.984968   0.000000
  120        2.288328   0.000000
 
  0.3750000E+00  0.0000000E+00  0.0000000E+00  0.3125000E-01
    1      -17.582557   1.000000
    2      -17.219150   1.000000
    3      -16.752661   1.000000
    4      -16.681002   1.000000
    5      -16.609831   1.000000
    6      -16.460952   1.000000
    7      -16.266477   1.000000
    8      -16.215870   1.000000
    9      -16.156902   1.000000
   10      -16.063803   1.000000
   11      -15.922637   1.000000
   12      -15.832790   1.000000
   13      -15.772196   1.000000
   14      -15.662702   1.000000
   15      -15.627760   1.000000
   16      -15.530087   1.000000
   17      -15.394949   1.000000
   18      -15.289522   1.000000
   19       -9.674677   1.000000
   20       -9.289030   1.000000
   21       -9.258486   1.000000
   22       -9.015056   1.000000
   23       -8.890578   1.000000
   24       -8.849858   1.000000
   25       -8.674038   1.000000
   26       -8.552556   1.000000
   27       -8.396719   1.000000
   28       -8.309465   1.000000
   29       -8.281413   1.000000
   30       -8.186049   1.000000
   31       -8.094502   1.000000
   32       -8.053078   1.000000
   33       -7.957992   1.000000
   34       -7.891961   1.000000
   35       -7.764767   1.000000
   36       -7.686517   1.000000
   37       -7.536998   1.000000
   38       -7.457911   1.000000
   39       -7.412933   1.000000
   40       -7.303119   1.000000
   41       -7.176624   1.000000
   42       -7.138064   1.000000
   43       -7.029216   1.000000
   44       -6.976903   1.000000
   45       -6.878159   1.000000
   46       -6.803406   1.000000
   47       -6.705200   1.000000
   48       -6.638200   1.000000
   49       -6.552295   1.000000
   50       -6.505846   1.000000
   51       -6.361494   1.000000
   52       -6.344029   1.000000
   53       -6.250841   1.000000
   54       -6.160424   1.000000
   55       -6.078471   1.000000
   56       -6.043590   1.000000
   57       -6.009555   1.000000
   58       -5.929317   1.000000
   59       -5.842460   1.000000
   60       -5.814156   1.000000
   61       -5.717893   1.000000
   62       -5.689902   1.000000
   63       -5.540072   1.000000
   64       -5.325138   1.000000
   65       -5.196541   1.000000
   66       -5.058898   1.000000
   67       -4.965276   1.000000
   68       -4.831647   1.000000
   69       -4.745886   1.000000
   70       -4.711122   1.000000
   71       -4.595184   1.000000
   72       -4.465792   1.000000
   73       -4.371604   1.000000
   74       -4.252623   1.000000
   75       -4.186047   1.000000
   76       -4.055704   1.000000
   77       -3.911282   0.999983
   78       -3.733446   0.998030
   79       -3.577250   0.962337
   80       -3.283160   0.381686
   81       -2.949862   0.003932
   82       -2.800669   0.000102
   83       -2.675087   0.000002
   84       -2.604998   0.000000
   85       -2.378104   0.000000
   86       -2.340925   0.000000
   87       -2.286577   0.000000
   88       -2.096045   0.000000
   89       -2.015568   0.000000
   90       -1.906755   0.000000
   91       -1.824751   0.000000
   92       -1.610963   0.000000
   93       -1.435660   0.000000
   94       -1.268927   0.000000
   95       -1.260462   0.000000
   96       -1.159274   0.000000
   97       -1.090707   0.000000
   98       -1.000179   0.000000
   99       -0.916111   0.000000
  100       -0.852629   0.000000
  101       -0.783409   0.000000
  102       -0.731693   0.000000
  103       -0.630569   0.000000
  104       -0.537500   0.000000
  105       -0.436403   0.000000
  106       -0.275964   0.000000
  107       -0.210620   0.000000
  108       -0.051051   0.000000
  109        0.022033   0.000000
  110        0.121875   0.000000
  111        0.325686   0.000000
  112        0.489077   0.000000
  113        0.793822   0.000000
  114        0.826090   0.000000
  115        1.006454   0.000000
  116        1.263591   0.000000
  117        1.512831   0.000000
  118        1.992620   0.000000
  119        2.158437   0.000000
  120        2.458912   0.000000
 
  0.5000000E+00  0.1110223E-15  0.0000000E+00  0.1562500E-01
    1      -17.443119   1.000000
    2      -17.391056   1.000000
    3      -16.766487   1.000000
    4      -16.686691   1.000000
    5      -16.614745   1.000000
    6      -16.465123   1.000000
    7      -16.259942   1.000000
    8      -16.198867   1.000000
    9      -16.140885   1.000000
   10      -16.074084   1.000000
   11      -15.878327   1.000000
   12      -15.813274   1.000000
   13      -15.771134   1.000000
   14      -15.669995   1.000000
   15      -15.639525   1.000000
   16      -15.513435   1.000000
   17      -15.413590   1.000000
   18      -15.289679   1.000000
   19       -9.752482   1.000000
   20       -9.328356   1.000000
   21       -9.294295   1.000000
   22       -8.980968   1.000000
   23       -8.898481   1.000000
   24       -8.777833   1.000000
   25       -8.714272   1.000000
   26       -8.640717   1.000000
   27       -8.367275   1.000000
   28       -8.263328   1.000000
   29       -8.241615   1.000000
   30       -8.193645   1.000000
   31       -8.069925   1.000000
   32       -8.044464   1.000000
   33       -7.952114   1.000000
   34       -7.903910   1.000000
   35       -7.768229   1.000000
   36       -7.755579   1.000000
   37       -7.568580   1.000000
   38       -7.446753   1.000000
   39       -7.404646   1.000000
   40       -7.316879   1.000000
   41       -7.081731   1.000000
   42       -7.048941   1.000000
   43       -7.003952   1.000000
   44       -6.859989   1.000000
   45       -6.854987   1.000000
   46       -6.724220   1.000000
   47       -6.683757   1.000000
   48       -6.648938   1.000000
   49       -6.589633   1.000000
   50       -6.510606   1.000000
   51       -6.386152   1.000000
   52       -6.354337   1.000000
   53       -6.285147   1.000000
   54       -6.190107   1.000000
   55       -6.107261   1.000000
   56       -6.021788   1.000000
   57       -6.007247   1.000000
   58       -5.957729   1.000000
   59       -5.834908   1.000000
   60       -5.796220   1.000000
   61       -5.723362   1.000000
   62       -5.707906   1.000000
   63       -5.540064   1.000000
   64       -5.329963   1.000000
   65       -5.261765   1.000000
   66       -5.141130   1.000000
   67       -5.045740   1.000000
   68       -4.880729   1.000000
   69       -4.727014   1.000000
   70       -4.615113   1.000000
   71       -4.568743   1.000000
   72       -4.528102   1.000000
   73       -4.405839   1.000000
   74       -4.258680   1.000000
   75       -4.165606   1.000000
   76       -4.012319   0.999999
   77       -3.895373   0.999972
   78       -3.724400   0.997591
   79       -3.587937   0.968134
   80       -3.217630   0.222308
   81       -2.960114   0.004864
   82       -2.756713   0.000029
   83       -2.694232   0.000004
   84       -2.617143   0.000000
   85       -2.371161   0.000000
   86       -2.331352   0.000000
   87       -2.290805   0.000000
   88       -2.070436   0.000000
   89       -1.998797   0.000000
   90       -1.882871   0.000000
   91       -1.780172   0.000000
   92       -1.645327   0.000000
   93       -1.438120   0.000000
   94       -1.277438   0.000000
   95       -1.248914   0.000000
   96       -1.191546   0.000000
   97       -1.145866   0.000000
   98       -1.049022   0.000000
   99       -0.925639   0.000000
  100       -0.869257   0.000000
  101       -0.793952   0.000000
  102       -0.699502   0.000000
  103       -0.665158   0.000000
  104       -0.600932   0.000000
  105       -0.468193   0.000000
  106       -0.280059   0.000000
  107       -0.220527   0.000000
  108       -0.092592   0.000000
  109        0.011139   0.000000
  110        0.076524   0.000000
  111        0.328058   0.000000
  112        0.483946   0.000000
  113        0.825567   0.000000
  114        0.839154   0.000000
  115        1.028600   0.000000
  116        1.289093   0.000000
  117        1.554086   0.000000
  118        2.202021   0.000000
  119        2.255955   0.000000
  120        2.382150   0.000000
 
  0.0000000E+00  0.1250000E+00  0.0000000E+00  0.3125000E-01
    1      -17.779199   1.000000
    2      -16.783633   1.000000
    3      -16.724919   1.000000
    4      -16.625652   1.000000
    5      -16.543759   1.000000
    6      -16.472737   1.000000
    7      -16.387898   1.000000
    8      -16.268873   1.000000
    9      -16.183644   1.000000
   10      -16.070310   1.000000
   11      -16.015370   1.000000
   12      -15.940325   1.000000
   13      -15.894259   1.000000
   14      -15.676618   1.000000
   15      -15.605039   1.000000
   16      -15.527104   1.000000
   17      -15.332442   1.000000
   18      -15.265785   1.000000
   19       -9.278662   1.000000
   20       -9.156009   1.000000
   21       -9.026467   1.000000
   22       -8.944954   1.000000
   23       -8.802773   1.000000
   24       -8.721888   1.000000
   25       -8.647578   1.000000
   26       -8.578530   1.000000
   27       -8.519081   1.000000
   28       -8.408805   1.000000
   29       -8.373861   1.000000
   30       -8.329238   1.000000
   31       -8.227408   1.000000
   32       -8.107200   1.000000
   33       -8.006199   1.000000
   34       -7.941589   1.000000
   35       -7.826754   1.000000
   36       -7.757700   1.000000
   37       -7.619196   1.000000
   38       -7.588771   1.000000
   39       -7.494812   1.000000
   40       -7.431485   1.000000
   41       -7.274707   1.000000
   42       -7.218432   1.000000
   43       -7.149622   1.000000
   44       -6.957608   1.000000
   45       -6.888298   1.000000
   46       -6.783824   1.000000
   47       -6.696261   1.000000
   48       -6.636228   1.000000
   49       -6.583426   1.000000
   50       -6.539611   1.000000
   51       -6.468080   1.000000
   52       -6.393838   1.000000
   53       -6.282661   1.000000
   54       -6.233207   1.000000
   55       -6.190468   1.000000
   56       -6.091186   1.000000
   57       -5.986804   1.000000
   58       -5.853650   1.000000
   59       -5.771805   1.000000
   60       -5.560953   1.000000
   61       -5.539043   1.000000
   62       -5.464769   1.000000
   63       -5.323036   1.000000
   64       -5.197563   1.000000
   65       -5.145243   1.000000
   66       -5.064667   1.000000
   67       -4.926694   1.000000
   68       -4.868081   1.000000
   69       -4.787823   1.000000
   70       -4.671560   1.000000
   71       -4.609118   1.000000
   72       -4.520888   1.000000
   73       -4.413205   1.000000
   74       -4.301864   1.000000
   75       -4.136175   1.000000
   76       -4.011854   0.999999
   77       -3.788619   0.999468
   78       -3.741812   0.998370
   79       -3.524674   0.920243
   80       -3.458251   0.825627
   81       -3.120354   0.073214
   82       -2.841988   0.000312
   83       -2.737765   0.000016
   84       -2.569916   0.000000
   85       -2.448709   0.000000
   86       -2.379135   0.000000
   87       -2.294189   0.000000
   88       -2.164395   0.000000
   89       -2.133832   0.000000
   90       -2.007628   0.000000
   91       -1.796775   0.000000
   92       -1.540400   0.000000
   93       -1.494115   0.000000
   94       -1.363490   0.000000
   95       -1.260497   0.000000
   96       -1.014383   0.000000
   97       -0.964908   0.000000
   98       -0.880234   0.000000
   99       -0.825176   0.000000
  100       -0.718481   0.000000
  101       -0.612936   0.000000
  102       -0.529803   0.000000
  103       -0.459934   0.000000
  104       -0.340519   0.000000
  105       -0.309929   0.000000
  106       -0.211489   0.000000
  107       -0.126289   0.000000
  108       -0.051997   0.000000
  109        0.082903   0.000000
  110        0.138658   0.000000
  111        0.416545   0.000000
  112        0.553958   0.000000
  113        0.718125   0.000000
  114        0.822856   0.000000
  115        0.886046   0.000000
  116        1.108165   0.000000
  117        1.276844   0.000000
  118        1.688711   0.000000
  119        1.873320   0.000000
  120        2.183921   0.000000
 
  0.1250000E+00  0.1250000E+00  0.0000000E+00  0.3125000E-01
    1      -17.729222   1.000000
    2      -16.922355   1.000000
    3      -16.763012   1.000000
    4      -16.675197   1.000000
    5      -16.528759   1.000000
    6      -16.434052   1.000000
    7      -16.377403   1.000000
    8      -16.214409   1.000000
    9      -16.203692   1.000000
   10      -16.070076   1.000000
   11      -15.984480   1.000000
   12      -15.906551   1.000000
   13      -15.824420   1.000000
   14      -15.669521   1.000000
   15      -15.611327   1.000000
   16      -15.525312   1.000000
   17      -15.363971   1.000000
   18      -15.274109   1.000000
   19       -9.364139   1.000000
   20       -9.260037   1.000000
   21       -9.158223   1.000000
   22       -9.020443   1.000000
   23       -8.877655   1.000000
   24       -8.730303   1.000000
   25       -8.622279   1.000000
   26       -8.539251   1.000000
   27       -8.498836   1.000000
   28       -8.373877   1.000000
   29       -8.342730   1.000000
   30       -8.285510   1.000000
   31       -8.178961   1.000000
   32       -8.083989   1.000000
   33       -8.003667   1.000000
   34       -7.839499   1.000000
   35       -7.727195   1.000000
   36       -7.651324   1.000000
   37       -7.626927   1.000000
   38       -7.502647   1.000000
   39       -7.446127   1.000000
   40       -7.341329   1.000000
   41       -7.282046   1.000000
   42       -7.240050   1.000000
   43       -7.180492   1.000000
   44       -7.004014   1.000000
   45       -6.940015   1.000000
   46       -6.828200   1.000000
   47       -6.716263   1.000000
   48       -6.660317   1.000000
   49       -6.592995   1.000000
   50       -6.537293   1.000000
   51       -6.454280   1.000000
   52       -6.321370   1.000000
   53       -6.232447   1.000000
   54       -6.204796   1.000000
   55       -6.193105   1.000000
   56       -6.045938   1.000000
   57       -5.954334   1.000000
   58       -5.867204   1.000000
   59       -5.731470   1.000000
   60       -5.684751   1.000000
   61       -5.543014   1.000000
   62       -5.475517   1.000000
   63       -5.436375   1.000000
   64       -5.367305   1.000000
   65       -5.164869   1.000000
   66       -5.089417   1.000000
   67       -4.953595   1.000000
   68       -4.880466   1.000000
   69       -4.791360   1.000000
   70       -4.642121   1.000000
   71       -4.606685   1.000000
   72       -4.427689   1.000000
   73       -4.306657   1.000000
   74       -4.259286   1.000000
   75       -4.102959   1.000000
   76       -4.086657   1.000000
   77       -3.931517   0.999991
   78       -3.735032   0.998099
   79       -3.552034   0.945220
   80       -3.425960   0.760743
   81       -2.993532   0.009411
   82       -2.857288   0.000462
   83       -2.716116   0.000008
   84       -2.588829   0.000000
   85       -2.425195   0.000000
   86       -2.380988   0.000000
   87       -2.288279   0.000000
   88       -2.165247   0.000000
   89       -2.058960   0.000000
   90       -1.991712   0.000000
   91       -1.840128   0.000000
   92       -1.546858   0.000000
   93       -1.477713   0.000000
   94       -1.310103   0.000000
   95       -1.262302   0.000000
   96       -1.042066   0.000000
   97       -0.994081   0.000000
   98       -0.884170   0.000000
   99       -0.831890   0.000000
  100       -0.779134   0.000000
  101       -0.770180   0.000000
  102       -0.634783   0.000000
  103       -0.518573   0.000000
  104       -0.413040   0.000000
  105       -0.321943   0.000000
  106       -0.234452   0.000000
  107       -0.168884   0.000000
  108       -0.027219   0.000000
  109        0.028397   0.000000
  110        0.120267   0.000000
  111        0.474629   0.000000
  112        0.491865   0.000000
  113        0.720430   0.000000
  114        0.816518   0.000000
  115        0.957042   0.000000
  116        1.185495   0.000000
  117        1.344935   0.000000
  118        1.773808   0.000000
  119        1.946072   0.000000
  120        2.254058   0.000000
 
  0.2500000E+00  0.1250000E+00  0.0000000E+00  0.3125000E-01
    1      -17.631392   1.000000
    2      -17.107874   1.000000
    3      -16.866488   1.000000
    4      -16.665567   1.000000
    5      -16.505272   1.000000
    6      -16.439406   1.000000
    7      -16.303519   1.000000
    8      -16.224980   1.000000
    9      -16.173407   1.000000
   10      -16.058524   1.000000
   11      -15.974055   1.000000
   12      -15.867656   1.000000
   13      -15.739168   1.000000
   14      -15.679402   1.000000
   15      -15.595284   1.000000
   16      -15.531508   1.000000
   17      -15.406777   1.000000
   18      -15.279414   1.000000
   19       -9.570818   1.000000
   20       -9.409844   1.000000
   21       -9.212835   1.000000
   22       -9.046306   1.000000
   23       -8.839177   1.000000
   24       -8.758589   1.000000
   25       -8.636172   1.000000
   26       -8.515488   1.000000
   27       -8.427476   1.000000
   28       -8.335555   1.000000
   29       -8.299139   1.000000
   30       -8.195827   1.000000
   31       -8.160216   1.000000
   32       -8.084692   1.000000
   33       -7.997417   1.000000
   34       -7.902439   1.000000
   35       -7.790013   1.000000
   36       -7.620311   1.000000
   37       -7.504094   1.000000
   38       -7.435971   1.000000
   39       -7.378365   1.000000
   40       -7.305690   1.000000
   41       -7.221526   1.000000
   42       -7.182127   1.000000
   43       -7.122941   1.000000
   44       -7.007340   1.000000
   45       -6.876894   1.000000
   46       -6.746024   1.000000
   47       -6.722657   1.000000