       N       E                     dE             d eps       ncg     rms          rms(c)
DAV:   1     0.112584495329E+04    0.11258E+04   -0.35983E+04  8160   0.577E+02
DAV:   2    -0.258480723074E+01   -0.11284E+04   -0.10862E+04 11320   0.173E+02
DAV:   3    -0.199861281428E+03   -0.19728E+03   -0.18955E+03 10880   0.821E+01
DAV:   4    -0.209018189191E+03   -0.91569E+01   -0.88914E+01 12320   0.262E+01
DAV:   5    -0.209323364687E+03   -0.30518E+00   -0.30431E+00 11400   0.336E+00    0.275E+01
DAV:   6    -0.237946222531E+03   -0.28623E+02   -0.10736E+02 12600   0.601E+01    0.595E+01
DAV:   7    -0.196566890259E+03    0.41379E+02   -0.17604E+02 13560   0.153E+02    0.200E+01
DAV:   8    -0.189474242867E+03    0.70926E+01   -0.17873E+01 11840   0.127E+01    0.125E+01
DAV:   9    -0.188156539610E+03    0.13177E+01   -0.30965E+00 13480   0.626E+00    0.921E+00
DAV:  10    -0.186953622165E+03    0.12029E+01   -0.17218E+00 13360   0.767E+00    0.214E+00
DAV:  11    -0.187050723872E+03   -0.97102E-01   -0.57725E-01 13560   0.289E+00    0.374E+00
DAV:  12    -0.186985768050E+03    0.64956E-01   -0.74502E-01 12920   0.427E+00    0.351E+00
DAV:  13    -0.186884064038E+03    0.10170E+00   -0.28642E-01 13240   0.293E+00    0.184E+00
DAV:  14    -0.186847357806E+03    0.36706E-01   -0.10155E-01 13120   0.169E+00    0.792E-01
DAV:  15    -0.186846355394E+03    0.10024E-02   -0.25048E-02 12800   0.816E-01    0.833E-01
DAV:  16    -0.186840878005E+03    0.54774E-02   -0.12088E-02 13480   0.580E-01    0.296E-01
DAV:  17    -0.186839546584E+03    0.13314E-02   -0.45956E-03 12960   0.301E-01    0.186E-01
DAV:  18    -0.186839277789E+03    0.26879E-03   -0.17916E-03 12320   0.153E-01    0.122E-01
DAV:  19    -0.186839129282E+03    0.14851E-03   -0.76482E-04 10640   0.838E-02    0.613E-02
DAV:  20    -0.186839867419E+03   -0.73814E-03   -0.68987E-04  9160   0.781E-02    0.575E-02
DAV:  21    -0.186840701338E+03   -0.83392E-03   -0.24569E-04  8200   0.504E-02    0.322E-02
DAV:  22    -0.186841655098E+03   -0.95376E-03   -0.16008E-04  7400   0.393E-02    0.316E-02
DAV:  23    -0.186842796875E+03   -0.11418E-02   -0.10604E-04  7520   0.367E-02    0.127E-02
DAV:  24    -0.186843353186E+03   -0.55631E-03   -0.24332E-05  6800   0.152E-02    0.506E-03
DAV:  25    -0.186843748497E+03   -0.39531E-03   -0.15760E-05  5480   0.973E-03    0.326E-03
DAV:  26    -0.186843993534E+03   -0.24504E-03   -0.93365E-06  6800   0.713E-03    0.166E-03
DAV:  27    -0.186844079277E+03   -0.85743E-04   -0.32259E-06  7600   0.411E-03
   1 F= -.18684408E+03 E0= -.18667308E+03  d E =-.186844E+03
       N       E                     dE             d eps       ncg     rms          rms(c)
DAV:   1    -0.187500155264E+03   -0.65616E+00   -0.27239E+02  8160   0.350E+01    0.461E+00
DAV:   2    -0.189391883012E+03   -0.18917E+01   -0.19974E+01 12240   0.151E+01    0.921E+00
DAV:   3    -0.189367636893E+03    0.24246E-01   -0.46648E+00 12440   0.125E+01    0.649E+00
DAV:   4    -0.188777298579E+03    0.59034E+00   -0.62784E-01 12520   0.491E+00    0.244E+00
DAV:   5    -0.188855385269E+03   -0.78087E-01   -0.42578E-01 11120   0.390E+00    0.507E+00
DAV:   6    -0.188721311043E+03    0.13407E+00   -0.69836E-01 12160   0.391E+00    0.202E+00
DAV:   7    -0.188684636290E+03    0.36675E-01   -0.17317E-01 10840   0.146E+00    0.143E+00
DAV:   8    -0.188675596500E+03    0.90398E-02   -0.82752E-02 13320   0.148E+00    0.160E+00
DAV:   9    -0.188659513679E+03    0.16083E-01   -0.47408E-02 11720   0.115E+00    0.682E-01
DAV:  10    -0.188656462404E+03    0.30513E-02   -0.60314E-03 11640   0.315E-01    0.314E-01
DAV:  11    -0.188655706813E+03    0.75559E-03   -0.30696E-03 13160   0.250E-01    0.135E-01
DAV:  12    -0.188655622006E+03    0.84807E-04   -0.10532E-03 12080   0.106E-01    0.104E-01
DAV:  13    -0.188655624081E+03   -0.20748E-05   -0.31136E-04  8280   0.749E-02
   2 F= -.18865562E+03 E0= -.18851667E+03  d E =-.181154E+01
       N       E                     dE             d eps       ncg     rms          rms(c)
DAV:   1    -0.190584429840E+03   -0.19288E+01   -0.31272E+01  9200   0.142E+01    0.446E+00
DAV:   2    -0.190529906057E+03    0.54524E-01   -0.27796E+00 11560   0.945E+00    0.719E+00
DAV:   3    -0.190065838973E+03    0.46407E+00   -0.12953E+00 12320   0.862E+00    0.426E+00
DAV:   4    -0.189852418148E+03    0.21342E+00   -0.68064E-01 12960   0.432E+00    0.252E+00
DAV:   5    -0.189816720725E+03    0.35697E-01   -0.36051E-01 12240   0.301E+00    0.271E+00
DAV:   6    -0.189751100108E+03    0.65621E-01   -0.14661E-01 12720   0.241E+00    0.712E-01
DAV:   7    -0.189745948461E+03    0.51516E-02   -0.14374E-02 11640   0.586E-01    0.378E-01
DAV:   8    -0.189745906519E+03    0.41943E-04   -0.57517E-03 12640   0.463E-01    0.347E-01
DAV:   9    -0.189744990511E+03    0.91601E-03   -0.21521E-03 11480   0.251E-01    0.117E-01
DAV:  10    -0.189745422334E+03   -0.43182E-03   -0.95341E-04 10760   0.103E-01    0.129E-01
DAV:  11    -0.189745126253E+03    0.29608E-03   -0.51833E-04  9320   0.793E-02    0.203E-02
DAV:  12    -0.189745146180E+03   -0.19927E-04   -0.61796E-05  7320   0.258E-02
   3 F= -.18974515E+03 E0= -.18962886E+03  d E =-.108952E+01
       N       E                     dE             d eps       ncg     rms          rms(c)
DAV:   1    -0.191315268408E+03   -0.15701E+01   -0.75253E+01  8160   0.198E+01    0.460E+00
DAV:   2    -0.191116292318E+03    0.19898E+00   -0.53318E+00 13440   0.755E+00    0.441E+00
DAV:   3    -0.191317443180E+03   -0.20115E+00   -0.15039E+00 12240   0.909E+00    0.734E+00
DAV:   4    -0.190903590893E+03    0.41385E+00   -0.16799E+00 12000   0.855E+00    0.348E+00
DAV:   5    -0.190908709373E+03   -0.51185E-02   -0.68045E-01 10960   0.542E+00    0.356E+00
DAV:   6    -0.190734223041E+03    0.17449E+00   -0.20667E-01 11760   0.317E+00    0.620E-01
DAV:   7    -0.190735891269E+03   -0.16682E-02   -0.32828E-02 12280   0.827E-01    0.658E-01
DAV:   8    -0.190733242185E+03    0.26491E-02   -0.15577E-02 11640   0.834E-01    0.536E-01
DAV:   9    -0.190730389218E+03    0.28530E-02   -0.47289E-03 11520   0.460E-01    0.155E-01
DAV:  10    -0.190730699991E+03   -0.31077E-03   -0.14298E-03 10280   0.142E-01    0.109E-01
DAV:  11    -0.190730531521E+03    0.16847E-03   -0.61528E-04 10040   0.934E-02    0.434E-02
DAV:  12    -0.190730533463E+03   -0.19428E-05   -0.10536E-04  7120   0.363E-02
   4 F= -.19073053E+03 E0= -.19063307E+03  d E =-.985387E+00
       N       E                     dE             d eps       ncg     rms          rms(c)
DAV:   1    -0.192165062746E+03   -0.14345E+01   -0.16682E+02  8160   0.288E+01    0.574E+00
DAV:   2    -0.191871632439E+03    0.29343E+00   -0.93939E+00 10960   0.791E+00    0.396E+00
DAV:   3    -0.192334240297E+03   -0.46261E+00   -0.27032E+00 12240   0.107E+01    0.850E+00
DAV:   4    -0.191668127838E+03    0.66611E+00   -0.22191E+00 11640   0.107E+01    0.342E+00
DAV:   5    -0.191617026715E+03    0.51101E-01   -0.55493E-01 12200   0.550E+00    0.429E+00
DAV:   6    -0.191467476896E+03    0.14955E+00   -0.59469E-01 12320   0.511E+00    0.160E+00
DAV:   7    -0.191457351884E+03    0.10125E-01   -0.97735E-02 12520   0.186E+00    0.120E+00
DAV:   8    -0.191441480520E+03    0.15871E-01   -0.32654E-02 12240   0.137E+00    0.458E-01
DAV:   9    -0.191438816868E+03    0.26637E-02   -0.69993E-03 11320   0.476E-01    0.191E-01
DAV:  10    -0.191438963258E+03   -0.14639E-03   -0.26999E-03 11560   0.204E-01    0.995E-02
DAV:  11    -0.191438892060E+03    0.71199E-04   -0.55975E-04 10120   0.899E-02
   5 F= -.19143889E+03 E0= -.19134586E+03  d E =-.708359E+00
       N       E                     dE             d eps       ncg     rms          rms(c)
DAV:   1    -0.191513763838E+03   -0.74801E-01   -0.64171E+00  8160   0.533E+00    0.738E-01
DAV:   2    -0.191590616354E+03   -0.76853E-01   -0.31647E-01 13440   0.349E+00    0.245E+00
DAV:   3    -0.191523067900E+03    0.67548E-01   -0.11668E-01 12600   0.262E+00    0.342E-01
DAV:   4    -0.191526064911E+03   -0.29970E-02   -0.12904E-02 11480   0.766E-01    0.704E-01
DAV:   5    -0.191521463674E+03    0.46012E-02   -0.98489E-03 11400   0.707E-01    0.224E-01
DAV:   6    -0.191521990202E+03   -0.52653E-03   -0.36938E-03 11360   0.334E-01    0.297E-01
DAV:   7    -0.191521478179E+03    0.51202E-03   -0.35272E-03 11320   0.410E-01    0.221E-01
DAV:   8    -0.191520953008E+03    0.52517E-03   -0.10134E-03  9800   0.206E-01    0.386E-02
DAV:   9    -0.191520957772E+03   -0.47637E-05   -0.10122E-04  6640   0.412E-02
   6 F= -.19152096E+03 E0= -.19142609E+03  d E =-.820657E-01
       N       E                     dE             d eps       ncg     rms          rms(c)
DAV:   1    -0.191627441471E+03   -0.10649E+00   -0.19075E+01  8160   0.911E+00    0.104E+00
DAV:   2    -0.191740427156E+03   -0.11299E+00   -0.52505E-01 12920   0.384E+00    0.294E+00
DAV:   3    -0.191645385908E+03    0.95041E-01   -0.20796E-01 12480   0.345E+00    0.717E-01
DAV:   4    -0.191653276519E+03   -0.78906E-02   -0.39146E-02 12320   0.135E+00    0.119E+00
DAV:   5    -0.191639684840E+03    0.13592E-01   -0.28730E-02 11840   0.119E+00    0.340E-01
DAV:   6    -0.191641318544E+03   -0.16337E-02   -0.91906E-03 11400   0.578E-01    0.515E-01
DAV:   7    -0.191639519154E+03    0.17994E-02   -0.88705E-03 11720   0.662E-01    0.306E-01
DAV:   8    -0.191638474627E+03    0.10445E-02   -0.21967E-03 10480   0.289E-01    0.619E-02
DAV:   9    -0.191638437634E+03    0.36993E-04   -0.26712E-04  8080   0.623E-02
   7 F= -.19163844E+03 E0= -.19154285E+03  d E =-.117480E+00
       N       E                     dE             d eps       ncg     rms          rms(c)
DAV:   1    -0.191659566639E+03   -0.21092E-01   -0.47967E-01  8160   0.157E+00    0.331E-01
DAV:   2    -0.191661755267E+03   -0.21886E-02   -0.28619E-02 11520   0.866E-01    0.611E-01
DAV:   3    -0.191658002382E+03    0.37529E-02   -0.11282E-02 11560   0.816E-01    0.241E-01
DAV:   4    -0.191657680706E+03    0.32168E-03   -0.38753E-03 10960   0.368E-01    0.282E-01
DAV:   5    -0.191657344542E+03    0.33616E-03   -0.34923E-03 11720   0.410E-01    0.237E-01
DAV:   6    -0.191656745291E+03    0.59925E-03   -0.13802E-03  9960   0.235E-01    0.607E-02
DAV:   7    -0.191656763937E+03   -0.18646E-04   -0.30193E-04  6560   0.110E-01
   8 F= -.19165676E+03 E0= -.19156069E+03  d E =-.183263E-01
       N       E                     dE             d eps       ncg     rms          rms(c)
DAV:   1    -0.191713011633E+03   -0.56266E-01   -0.58113E+00  8160   0.507E+00    0.546E-01
DAV:   2    -0.191741207827E+03   -0.28196E-01   -0.16939E-01 12760   0.207E+00    0.138E+00
DAV:   3    -0.191720181344E+03    0.21026E-01   -0.48939E-02 12480   0.165E+00    0.379E-01
DAV:   4    -0.191721631669E+03   -0.14503E-02   -0.10085E-02 12280   0.666E-01    0.567E-01
DAV:   5    -0.191718584147E+03    0.30475E-02   -0.70892E-03 11240   0.622E-01    0.214E-01
DAV:   6    -0.191718575300E+03    0.88469E-05   -0.24454E-03 11600   0.265E-01    0.166E-01
DAV:   7    -0.191718641540E+03   -0.66240E-04   -0.20810E-03 10680   0.295E-01    0.237E-01
DAV:   8    -0.191718106788E+03    0.53475E-03   -0.99532E-04  8800   0.211E-01    0.352E-02
DAV:   9    -0.191718114056E+03   -0.72678E-05   -0.64079E-05  5920   0.361E-02
   9 F= -.19171811E+03 E0= -.19162244E+03  d E =-.613501E-01
       N       E                     dE             d eps       ncg     rms          rms(c)
DAV:   1    -0.191745801770E+03   -0.27695E-01   -0.11331E+00  8160   0.229E+00    0.317E-01
DAV:   2    -0.191752824120E+03   -0.70224E-02   -0.46478E-02 13440   0.112E+00    0.760E-01
DAV:   3    -0.191746591890E+03    0.62322E-02   -0.14249E-02 11720   0.892E-01    0.211E-01
DAV:   4    -0.191747332325E+03   -0.74044E-03   -0.42568E-03 11640   0.435E-01    0.382E-01
DAV:   5    -0.191745947946E+03    0.13844E-02   -0.31752E-03 11040   0.409E-01    0.130E-01
DAV:   6    -0.191745889482E+03    0.58464E-04   -0.94610E-04 10080   0.166E-01
  10 F= -.19174589E+03 E0= -.19165032E+03  d E =-.277754E-01
       N       E                     dE             d eps       ncg     rms          rms(c)
DAV:   1    -0.191810791325E+03   -0.64843E-01   -0.87004E+00  8160   0.628E+00    0.687E-01
DAV:   2    -0.191848138723E+03   -0.37347E-01   -0.28305E-01 12240   0.236E+00    0.162E+00
DAV:   3    -0.191825375670E+03    0.22763E-01   -0.81586E-02 12360   0.191E+00    0.655E-01
DAV:   4    -0.191827515159E+03   -0.21395E-02   -0.24611E-02 12200   0.109E+00    0.821E-01
DAV:   5    -0.191819918336E+03    0.75968E-02   -0.12829E-02 11720   0.873E-01    0.220E-01
DAV:   6    -0.191820216145E+03   -0.29781E-03   -0.45225E-03 10680   0.308E-01    0.209E-01
DAV:   7    -0.191819812021E+03    0.40412E-03   -0.24197E-03 11920   0.317E-01    0.212E-01
DAV:   8    -0.191819383945E+03    0.42808E-03   -0.83531E-04  8560   0.208E-01    0.482E-02
DAV:   9    -0.191819362814E+03    0.21131E-04   -0.89577E-05  6000   0.439E-02
  11 F= -.19181936E+03 E0= -.19172471E+03  d E =-.734733E-01
       N       E                     dE             d eps       ncg     rms          rms(c)
DAV:   1    -0.191844079181E+03   -0.24695E-01   -0.89936E-01  8160   0.207E+00    0.299E-01
DAV:   2    -0.191848860731E+03   -0.47816E-02   -0.39519E-02 11960   0.879E-01    0.690E-01
DAV:   3    -0.191845097945E+03    0.37628E-02   -0.14617E-02 11760   0.799E-01    0.308E-01
DAV:   4    -0.191844668667E+03    0.42928E-03   -0.37247E-03 11480   0.410E-01    0.256E-01
DAV:   5    -0.191844061813E+03    0.60685E-03   -0.20797E-03 10560   0.368E-01    0.157E-01
DAV:   6    -0.191843813566E+03    0.24825E-03   -0.10670E-03  9720   0.198E-01    0.713E-02
DAV:   7    -0.191843756706E+03    0.56860E-04   -0.29223E-04  7400   0.971E-02
  12 F= -.19184376E+03 E0= -.19174923E+03  d E =-.243939E-01
       N       E                     dE             d eps       ncg     rms          rms(c)
DAV:   1    -0.191896181210E+03   -0.52368E-01   -0.53606E+00  8160   0.495E+00    0.540E-01
DAV:   2    -0.191918561186E+03   -0.22380E-01   -0.17704E-01 11440   0.165E+00    0.130E+00
DAV:   3    -0.191906260254E+03    0.12301E-01   -0.52543E-02 12520   0.148E+00    0.554E-01
DAV:   4    -0.191903315030E+03    0.29452E-02   -0.79751E-03 11520   0.493E-01    0.252E-01
DAV:   5    -0.191902544477E+03    0.77055E-03   -0.31594E-03 11920   0.328E-01    0.201E-01
DAV:   6    -0.191903011653E+03   -0.46718E-03   -0.32565E-03 12560   0.452E-01    0.263E-01
DAV:   7    -0.191902069465E+03    0.94219E-03   -0.14911E-03  9960   0.283E-01    0.590E-02
DAV:   8    -0.191902090448E+03   -0.20983E-04   -0.22202E-04  7400   0.103E-01
  13 F= -.19190209E+03 E0= -.19180869E+03  d E =-.583337E-01
       N       E                     dE             d eps       ncg     rms          rms(c)
DAV:   1    -0.191914157210E+03   -0.12088E-01   -0.22644E-01  8160   0.104E+00    0.147E-01
DAV:   2    -0.191915589484E+03   -0.14323E-02   -0.10400E-02 11240   0.436E-01    0.362E-01
DAV:   3    -0.191914527877E+03    0.10616E-02   -0.37984E-03 11600   0.413E-01    0.147E-01
DAV:   4    -0.191914311658E+03    0.21622E-03   -0.58593E-04  9080   0.131E-01    0.573E-02
DAV:   5    -0.191914275861E+03    0.35797E-04   -0.20792E-04  6840   0.751E-02
  14 F= -.19191428E+03 E0= -.19182113E+03  d E =-.121854E-01
       N       E                     dE             d eps       ncg     rms          rms(c)
DAV:   1    -0.191965542815E+03   -0.51231E-01   -0.49338E+00  8160   0.479E+00    0.591E-01
DAV:   2    -0.191995186932E+03   -0.29644E-01   -0.19042E-01 11080   0.190E+00    0.160E+00
DAV:   3    -0.191974029040E+03    0.21158E-01   -0.65672E-02 12480   0.172E+00    0.529E-01
DAV:   4    -0.191972472702E+03    0.15563E-02   -0.10529E-02 11400   0.627E-01    0.428E-01
DAV:   5    -0.191970353241E+03    0.21195E-02   -0.63068E-03 13040   0.621E-01    0.229E-01
DAV:   6    -0.191970216926E+03    0.13631E-03   -0.27027E-03 11800   0.331E-01    0.164E-01
DAV:   7    -0.191969793109E+03    0.42382E-03   -0.12062E-03 10880   0.191E-01    0.103E-01
DAV:   8    -0.191969723217E+03    0.69893E-04   -0.32802E-04  8680   0.136E-01
  15 F= -.19196972E+03 E0= -.19187759E+03  d E =-.554474E-01
       N       E                     dE             d eps       ncg     rms          rms(c)
DAV:   1    -0.192039672221E+03   -0.69879E-01   -0.18672E+01  8160   0.928E+00    0.111E+00
DAV:   2    -0.192158498332E+03   -0.11883E+00   -0.71982E-01 11200   0.376E+00    0.306E+00
DAV:   3    -0.192078553391E+03    0.79945E-01   -0.23846E-01 12240   0.338E+00    0.104E+00
DAV:   4    -0.192075209472E+03    0.33439E-02   -0.42757E-02 12120   0.152E+00    0.975E-01
DAV:   5    -0.192064206861E+03    0.11003E-01   -0.25442E-02 12440   0.129E+00    0.416E-01
DAV:   6    -0.192064832089E+03   -0.62523E-03   -0.10451E-02 12600   0.687E-01    0.502E-01
DAV:   7    -0.192064185518E+03    0.64657E-03   -0.96735E-03 12120   0.788E-01    0.439E-01
DAV:   8    -0.192061809293E+03    0.23762E-02   -0.34154E-03 10880   0.420E-01    0.586E-02
DAV:   9    -0.192061800212E+03    0.90801E-05   -0.34187E-04  9240   0.653E-02
  16 F= -.19206180E+03 E0= -.19197174E+03  d E =-.920770E-01
       N       E                     dE             d eps       ncg     rms          rms(c)
DAV:   1    -0.192070159245E+03   -0.83500E-02   -0.30389E-01  8160   0.124E+00    0.246E-01
DAV:   2    -0.192072382767E+03   -0.22235E-02   -0.19197E-02 10840   0.700E-01    0.539E-01
DAV:   3    -0.192070037658E+03    0.23451E-02   -0.75100E-03 12040   0.667E-01    0.252E-01
DAV:   4    -0.192069538953E+03    0.49870E-03   -0.20644E-03 11280   0.331E-01    0.183E-01
DAV:   5    -0.192069380241E+03    0.15871E-03   -0.14639E-03 10160   0.312E-01    0.161E-01
DAV:   6    -0.192069143620E+03    0.23662E-03   -0.89463E-04 10600   0.206E-01    0.107E-01
DAV:   7    -0.192069054501E+03    0.89119E-04   -0.35281E-04  8800   0.147E-01
  17 F= -.19206905E+03 E0= -.19197922E+03  d E =-.725429E-02
       N       E                     dE             d eps       ncg     rms          rms(c)
DAV:   1    -0.192087564124E+03   -0.18421E-01   -0.12467E+00  8160   0.237E+00    0.310E-01
DAV:   2    -0.192097638602E+03   -0.10074E-01   -0.54489E-02 10320   0.120E+00    0.866E-01
DAV:   3    -0.192090018491E+03    0.76201E-02   -0.16988E-02 12440   0.100E+00    0.284E-01
DAV:   4    -0.192089930244E+03    0.88247E-04   -0.33084E-03 10680   0.427E-01    0.270E-01
DAV:   5    -0.192089146919E+03    0.78332E-03   -0.17696E-03 10200   0.331E-01    0.109E-01
DAV:   6    -0.192089086953E+03    0.59966E-04   -0.64224E-04 11280   0.124E-01
  18 F= -.19208909E+03 E0= -.19199991E+03  d E =-.200325E-01
       N       E                     dE             d eps       ncg     rms          rms(c)
DAV:   1    -0.192103460744E+03   -0.14314E-01   -0.80002E-01  8160   0.192E+00    0.248E-01
DAV:   2    -0.192108735435E+03   -0.52747E-02   -0.32630E-02 11080   0.804E-01    0.634E-01
DAV:   3    -0.192105053024E+03    0.36824E-02   -0.10127E-02 12360   0.753E-01    0.236E-01
DAV:   4    -0.192104923957E+03    0.12907E-03   -0.20301E-03 10400   0.309E-01    0.207E-01
DAV:   5    -0.192104423252E+03    0.50070E-03   -0.10833E-03 10920   0.268E-01    0.825E-02
DAV:   6    -0.192104410778E+03    0.12474E-04   -0.39911E-04  9640   0.113E-01
  19 F= -.19210441E+03 E0= -.19201585E+03  d E =-.153238E-01
       N       E                     dE             d eps       ncg     rms          rms(c)
DAV:   1    -0.192143662347E+03   -0.39239E-01   -0.15759E+01  8160   0.854E+00    0.104E+00
DAV:   2    -0.192232023167E+03   -0.88361E-01   -0.58749E-01 11680   0.328E+00    0.248E+00
DAV:   3    -0.192177596858E+03    0.54426E-01   -0.15941E-01 12240   0.306E+00    0.994E-01
DAV:   4    -0.192173248877E+03    0.43480E-02   -0.31261E-02 12080   0.134E+00    0.858E-01
DAV:   5    -0.192164728041E+03    0.85208E-02   -0.20066E-02 12480   0.117E+00    0.365E-01
DAV:   6    -0.192165290399E+03   -0.56236E-03   -0.93452E-03 12600   0.596E-01    0.420E-01
DAV:   7    -0.192164518163E+03    0.77224E-03   -0.69223E-03 11560   0.684E-01    0.366E-01
DAV:   8    -0.192162916265E+03    0.16019E-02   -0.21331E-03 11040   0.368E-01    0.564E-02
DAV:   9    -0.192162893967E+03    0.22298E-04   -0.26383E-04  8480   0.597E-02
  20 F= -.19216289E+03 E0= -.19207658E+03  d E =-.584832E-01
       N       E                     dE             d eps       ncg     rms          rms(c)
DAV:   1    -0.192160302003E+03    0.26143E-02   -0.33177E-01  8160   0.128E+00    0.221E-01
DAV:   2    -0.192161520569E+03   -0.12186E-02   -0.13950E-02 10920   0.538E-01    0.417E-01
DAV:   3    -0.192160125400E+03    0.13952E-02   -0.47301E-03 12360   0.554E-01    0.226E-01
DAV:   4    -0.192159539883E+03    0.58552E-03   -0.14476E-03 10880   0.247E-01    0.962E-02
DAV:   5    -0.192159490119E+03    0.49764E-04   -0.65014E-04 10320   0.178E-01
  21 F= -.19215949E+03 E0= -.19207375E+03  d E =0.340385E-02
       N       E                     dE             d eps       ncg     rms          rms(c)
DAV:   1    -0.192172623895E+03   -0.13084E-01   -0.94383E-01  8160   0.210E+00    0.251E-01
DAV:   2    -0.192176748442E+03   -0.41245E-02   -0.32018E-02 11720   0.733E-01    0.482E-01
DAV:   3    -0.192174285304E+03    0.24631E-02   -0.72760E-03 12320   0.696E-01    0.228E-01
DAV:   4    -0.192174282060E+03    0.32447E-05   -0.18236E-03 10640   0.340E-01    0.240E-01
DAV:   5    -0.192173713252E+03    0.56881E-03   -0.11897E-03 10080   0.287E-01    0.930E-02
DAV:   6    -0.192173677824E+03    0.35428E-04   -0.47360E-04 10440   0.113E-01
  22 F= -.19217368E+03 E0= -.19208786E+03  d E =-.141877E-01
       N       E                     dE             d eps       ncg     rms          rms(c)
DAV:   1    -0.192172098312E+03    0.16149E-02   -0.19016E-02  8160   0.309E-01    0.714E-02
DAV:   2    -0.192173179743E+03   -0.10814E-02   -0.22706E-03 11560   0.360E-01    0.314E-01
DAV:   3    -0.192172071078E+03    0.11087E-02   -0.12773E-03 10120   0.312E-01    0.253E-02
DAV:   4    -0.192172083977E+03   -0.12899E-04   -0.38388E-05  5960   0.384E-02
  23 F= -.19217208E+03 E0= -.19208649E+03  d E =0.159385E-02
       N       E                     dE             d eps       ncg     rms          rms(c)
DAV:   1    -0.192179628513E+03   -0.75574E-02   -0.34544E-01  8160   0.128E+00    0.195E-01
DAV:   2    -0.192181334194E+03   -0.17057E-02   -0.14115E-02 11440   0.633E-01    0.378E-01
DAV:   3    -0.192179632591E+03    0.17016E-02   -0.38616E-03 12360   0.512E-01    0.120E-01
DAV:   4    -0.192179598098E+03    0.34493E-04   -0.82268E-04  9320   0.188E-01
  24 F= -.19217960E+03 E0= -.19209467E+03  d E =-.751412E-02
       N       E                     dE             d eps       ncg     rms          rms(c)
DAV:   1    -0.192168719538E+03    0.10913E-01   -0.17537E+00  8160   0.296E+00    0.506E-01
DAV:   2    -0.192182096140E+03   -0.13377E-01   -0.88552E-02 12360   0.169E+00    0.116E+00
DAV:   3    -0.192167907919E+03    0.14188E-01   -0.28778E-02 12080   0.145E+00    0.363E-01
DAV:   4    -0.192169373511E+03   -0.14656E-02   -0.91620E-03 12160   0.780E-01    0.561E-01
DAV:   5    -0.192165819733E+03    0.35538E-02   -0.66877E-03 11520   0.655E-01    0.169E-01
DAV:   6    -0.192165596630E+03    0.22310E-03   -0.20293E-03 11160   0.236E-01    0.134E-01
DAV:   7    -0.192165568233E+03    0.28397E-04   -0.92262E-04 10920   0.238E-01
  25 F= -.19216557E+03 E0= -.19207887E+03  d E =0.140299E-01
       N       E                     dE             d eps       ncg     rms          rms(c)
DAV:   1    -0.192166527399E+03   -0.93077E-03   -0.11624E-02  9760   0.268E-01    0.462E-02
DAV:   2    -0.192166641928E+03   -0.11453E-03   -0.68144E-04 10360   0.147E-01    0.105E-01
DAV:   3    -0.192166524008E+03    0.11792E-03   -0.25169E-04  7760   0.138E-01    0.457E-02
DAV:   4    -0.192166513465E+03    0.10543E-04   -0.66827E-05  5920   0.666E-02
  26 F= -.19216651E+03 E0= -.19207997E+03  d E =-.945232E-03
       N       E                     dE             d eps       ncg     rms          rms(c)
DAV:   1    -0.192179805983E+03   -0.13282E-01   -0.96623E-01  8160   0.212E+00    0.278E-01
DAV:   2    -0.192184707244E+03   -0.49013E-02   -0.35496E-02 10920   0.963E-01    0.582E-01
DAV:   3    -0.192181016756E+03    0.36905E-02   -0.83985E-03 12400   0.771E-01    0.221E-01
DAV:   4    -0.192181289799E+03   -0.27304E-03   -0.23089E-03 10800   0.394E-01    0.291E-01
DAV:   5    -0.192180439426E+03    0.85037E-03   -0.17291E-03 10040   0.338E-01    0.101E-01
DAV:   6    -0.192180375691E+03    0.63735E-04   -0.57953E-04 10160   0.118E-01
  27 F= -.19218038E+03 E0= -.19209423E+03  d E =-.138622E-01
       N       E                     dE             d eps       ncg     rms          rms(c)
DAV:   1    -0.192188717963E+03   -0.82785E-02   -0.35143E-01  8160   0.128E+00    0.155E-01
DAV:   2    -0.192189548953E+03   -0.83099E-03   -0.10538E-02 10760   0.344E-01    0.200E-01
DAV:   3    -0.192189360432E+03    0.18852E-03   -0.21959E-03 12520   0.366E-01    0.171E-01
DAV:   4    -0.192189140009E+03    0.22042E-03   -0.67657E-04  8640   0.208E-01    0.113E-01
DAV:   5    -0.192189053432E+03    0.86577E-04   -0.38735E-04  8480   0.176E-01
  28 F= -.19218905E+03 E0= -.19210314E+03  d E =-.867774E-02
       N       E                     dE             d eps       ncg     rms          rms(c)
DAV:   1    -0.192191844189E+03   -0.27042E-02   -0.41957E-02  8160   0.457E-01    0.712E-02
DAV:   2    -0.192192099011E+03   -0.25482E-03   -0.17005E-03 12680   0.184E-01    0.140E-01
DAV:   3    -0.192191898406E+03    0.20060E-03   -0.49820E-04  9560   0.195E-01    0.741E-02
DAV:   4    -0.192191871598E+03    0.26809E-04   -0.18003E-04  6600   0.100E-01
  29 F= -.19219187E+03 E0= -.19210571E+03  d E =-.281817E-02
       N       E                     dE             d eps       ncg     rms          rms(c)
DAV:   1    -0.192205384442E+03   -0.13486E-01   -0.92915E-01  8160   0.207E+00    0.252E-01
DAV:   2    -0.192207633757E+03   -0.22493E-02   -0.25451E-02 11160   0.628E-01    0.371E-01
DAV:   3    -0.192206639686E+03    0.99407E-03   -0.56597E-03 11920   0.598E-01    0.261E-01
DAV:   4    -0.192206324608E+03    0.31508E-03   -0.17140E-03 10680   0.350E-01    0.217E-01
DAV:   5    -0.192205876880E+03    0.44773E-03   -0.10802E-03 10080   0.308E-01    0.104E-01
DAV:   6    -0.192205816650E+03    0.60230E-04   -0.40229E-04  9320   0.123E-01
  30 F= -.19220582E+03 E0= -.19211938E+03  d E =-.139451E-01
       N       E                     dE             d eps       ncg     rms          rms(c)
DAV:   1    -0.192227865196E+03   -0.21988E-01   -0.28251E+00  8160   0.362E+00    0.439E-01
DAV:   2    -0.192236528774E+03   -0.86636E-02   -0.85137E-02 11360   0.113E+00    0.689E-01
DAV:   3    -0.192231875308E+03    0.46535E-02   -0.19386E-02 12520   0.108E+00    0.386E-01
DAV:   4    -0.192231279282E+03    0.59603E-03   -0.50714E-03 11880   0.543E-01    0.358E-01
DAV:   5    -0.192230190746E+03    0.10885E-02   -0.32085E-03 10760   0.507E-01    0.194E-01
DAV:   6    -0.192229982665E+03    0.20808E-03   -0.13354E-03 10360   0.218E-01    0.943E-02
DAV:   7    -0.192229765880E+03    0.21679E-03   -0.40087E-04 10040   0.805E-02    0.197E-02
DAV:   8    -0.192229768566E+03   -0.26858E-05   -0.46199E-05  7280   0.257E-02
  31 F= -.19222977E+03 E0= -.19214243E+03  d E =-.239519E-01
       N       E                     dE             d eps       ncg     rms          rms(c)
DAV:   1    -0.192258136241E+03   -0.28370E-01   -0.60383E+00  8160   0.529E+00    0.636E-01
DAV:   2    -0.192278157943E+03   -0.20022E-01   -0.18459E-01 11200   0.173E+00    0.108E+00
DAV:   3    -0.192266186187E+03    0.11972E-01   -0.47127E-02 12440   0.161E+00    0.563E-01
DAV:   4    -0.192265852139E+03    0.33405E-03   -0.12028E-02 12480   0.863E-01    0.580E-01
DAV:   5    -0.192262477200E+03    0.33749E-02   -0.72104E-03 10280   0.777E-01    0.251E-01
DAV:   6    -0.192262102890E+03    0.37431E-03   -0.29150E-03 11200   0.301E-01    0.140E-01
DAV:   7    -0.192261665489E+03    0.43740E-03   -0.96108E-04 10720   0.126E-01    0.433E-02
DAV:   8    -0.192261672094E+03   -0.66049E-05   -0.13245E-04  7680   0.817E-02
  32 F= -.19226167E+03 E0= -.19217234E+03  d E =-.319035E-01
       N       E                     dE             d eps       ncg     rms          rms(c)
DAV:   1    -0.192260767018E+03    0.89847E-03   -0.50895E-01  8160   0.152E+00    0.200E-01
DAV:   2    -0.192264545461E+03   -0.37784E-02   -0.23636E-02 11960   0.791E-01    0.484E-01
DAV:   3    -0.192261877043E+03    0.26684E-02   -0.49623E-03 12120   0.614E-01    0.150E-01
DAV:   4    -0.192261872061E+03    0.49827E-05   -0.10269E-03 10240   0.252E-01    0.166E-01
DAV:   5    -0.192261585683E+03    0.28638E-03   -0.75195E-04 10040   0.215E-01    0.787E-02
DAV:   6    -0.192261543405E+03    0.42277E-04   -0.36453E-04  8400   0.969E-02
  33 F= -.19226154E+03 E0= -.19217198E+03  d E =0.128688E-03
       N       E                     dE             d eps       ncg     rms          rms(c)
DAV:   1    -0.192289029602E+03   -0.27444E-01   -0.10433E+01  8160   0.694E+00    0.839E-01
DAV:   2    -0.192324879528E+03   -0.35850E-01   -0.33232E-01 10960   0.238E+00    0.143E+00
DAV:   3    -0.192302834819E+03    0.22045E-01   -0.84472E-02 12320   0.210E+00    0.696E-01
DAV:   4    -0.192302511510E+03    0.32331E-03   -0.21191E-02 12400   0.111E+00    0.751E-01
DAV:   5    -0.192296965008E+03    0.55465E-02   -0.13116E-02 10520   0.102E+00    0.340E-01
DAV:   6    -0.192296209265E+03    0.75574E-03   -0.54957E-03 11600   0.416E-01    0.189E-01
DAV:   7    -0.192295430308E+03    0.77896E-03   -0.17937E-03 10640   0.184E-01    0.708E-02
DAV:   8    -0.192295435818E+03   -0.55095E-05   -0.28275E-04 10040   0.133E-01
  34 F= -.19229544E+03 E0= -.19220481E+03  d E =-.338924E-01
       N       E                     dE             d eps       ncg     rms          rms(c)
DAV:   1    -0.192300549333E+03   -0.51190E-02   -0.50674E-01  8160   0.151E+00    0.173E-01
DAV:   2    -0.192302565784E+03   -0.20165E-02   -0.18144E-02 12160   0.509E-01    0.320E-01
DAV:   3    -0.192301689425E+03    0.87636E-03   -0.41902E-03 12240   0.477E-01    0.188E-01
DAV:   4    -0.192301375826E+03    0.31360E-03   -0.73059E-04 10120   0.206E-01    0.878E-02
DAV:   5    -0.192301329363E+03    0.46463E-04   -0.31309E-04  9120   0.153E-01
  35 F= -.19230133E+03 E0= -.19221091E+03  d E =-.589354E-02
       N       E                     dE             d eps       ncg     rms          rms(c)
DAV:   1    -0.192303344596E+03   -0.19688E-02   -0.62983E-02  8160   0.540E-01    0.944E-02
DAV:   2    -0.192304066225E+03   -0.72163E-03   -0.31818E-03 12440   0.339E-01    0.237E-01
DAV:   3    -0.192303365954E+03    0.70027E-03   -0.98279E-04 10960   0.286E-01    0.568E-02
DAV:   4    -0.192303414493E+03   -0.48539E-04   -0.18969E-04  8040   0.120E-01
  36 F= -.19230341E+03 E0= -.19221305E+03  d E =-.208513E-02
       N       E                     dE             d eps       ncg     rms          rms(c)
DAV:   1    -0.192307883858E+03   -0.45179E-02   -0.40900E-01  8160   0.136E+00    0.159E-01
DAV:   2    -0.192308943123E+03   -0.10593E-02   -0.13215E-02 11560   0.378E-01    0.201E-01
DAV:   3    -0.192308822990E+03    0.12013E-03   -0.27704E-03 12480   0.376E-01    0.192E-01
DAV:   4    -0.192308515646E+03    0.30734E-03   -0.84984E-04  9720   0.229E-01    0.106E-01
DAV:   5    -0.192308433884E+03    0.81762E-04   -0.36446E-04  8960   0.172E-01
  37 F= -.19230843E+03 E0= -.19221876E+03  d E =-.501939E-02
       N       E                     dE             d eps       ncg     rms          rms(c)
DAV:   1    -0.192310269442E+03   -0.17538E-02   -0.68215E-02  8160   0.560E-01    0.855E-02
DAV:   2    -0.192310688026E+03   -0.41858E-03   -0.28684E-03 12120   0.278E-01    0.176E-01
DAV:   3    -0.192310326583E+03    0.36144E-03   -0.83898E-04 11120   0.233E-01    0.623E-02
DAV:   4    -0.192310350835E+03   -0.24252E-04   -0.23460E-04  7280   0.113E-01
  38 F= -.19231035E+03 E0= -.19222074E+03  d E =-.191695E-02
       N       E                     dE             d eps       ncg     rms          rms(c)
DAV:   1    -0.192313688760E+03   -0.33622E-02   -0.27263E-01  8160   0.111E+00    0.127E-01
DAV:   2    -0.192314247714E+03   -0.55895E-03   -0.85099E-03 12160   0.256E-01    0.115E-01
DAV:   3    -0.192314500386E+03   -0.25267E-03   -0.14249E-03 11360   0.287E-01    0.198E-01
DAV:   4    -0.192314074532E+03    0.42585E-03   -0.57535E-04  8840   0.204E-01    0.481E-02
DAV:   5    -0.192314075799E+03   -0.12674E-05   -0.13990E-04  6240   0.754E-02
  39 F= -.19231408E+03 E0= -.19222506E+03  d E =-.372496E-02
       N       E                     dE             d eps       ncg     rms          rms(c)
DAV:   1    -0.192316801803E+03   -0.27273E-02   -0.18081E-01  8160   0.907E-01    0.121E-01
DAV:   2    -0.192317931516E+03   -0.11297E-02   -0.69677E-03 11960   0.401E-01    0.270E-01
DAV:   3    -0.192317073214E+03    0.85830E-03   -0.16278E-03 12400   0.353E-01    0.877E-02
DAV:   4    -0.192317098007E+03   -0.24793E-04   -0.28427E-04  8640   0.149E-01
  40 F= -.19231710E+03 E0= -.19222859E+03  d E =-.302221E-02
       N       E                     dE             d eps       ncg     rms          rms(c)
DAV:   1    -0.192319126803E+03   -0.20536E-02   -0.11339E-01  8160   0.724E-01    0.977E-02
DAV:   2    -0.192319441671E+03   -0.31487E-03   -0.36252E-03 12360   0.200E-01    0.137E-01
DAV:   3    -0.192319336811E+03    0.10486E-03   -0.99298E-04 11200   0.237E-01    0.120E-01
DAV:   4    -0.192319221005E+03    0.11581E-03   -0.29076E-04  8640   0.134E-01    0.528E-02
DAV:   5    -0.192319183080E+03    0.37925E-04   -0.10738E-04  6600   0.631E-02
  41 F= -.19231918E+03 E0= -.19223112E+03  d E =-.208507E-02
       N       E                     dE             d eps       ncg     rms          rms(c)
DAV:   1    -0.192322783083E+03   -0.35621E-02   -0.49414E-01  8160   0.149E+00    0.169E-01
DAV:   2    -0.192324478090E+03   -0.16950E-02   -0.16285E-02 12320   0.481E-01    0.280E-01
DAV:   3    -0.192323893319E+03    0.58477E-03   -0.27342E-03 12240   0.445E-01    0.179E-01
DAV:   4    -0.192323555902E+03    0.33742E-03   -0.52368E-04  9520   0.184E-01    0.645E-02
DAV:   5    -0.192323557526E+03   -0.16238E-05   -0.27808E-04  8760   0.107E-01
  42 F= -.19232356E+03 E0= -.19223659E+03  d E =-.437445E-02
       N       E                     dE             d eps       ncg     rms          rms(c)
DAV:   1    -0.192327727944E+03   -0.41720E-02   -0.10249E+00  8160   0.216E+00    0.246E-01
DAV:   2    -0.192330325465E+03   -0.25975E-02   -0.31360E-02 12360   0.602E-01    0.312E-01
DAV:   3    -0.192329882836E+03    0.44263E-03   -0.44499E-03 12360   0.585E-01    0.268E-01
DAV:   4    -0.192329214725E+03    0.66811E-03   -0.14613E-03 10760   0.331E-01    0.148E-01
DAV:   5    -0.192329098469E+03    0.11626E-03   -0.10343E-03 10400   0.257E-01    0.118E-01
DAV:   6    -0.192329027397E+03    0.71072E-04   -0.51082E-04  8720   0.161E-01
  43 F= -.19232903E+03 E0= -.19224396E+03  d E =-.546987E-02
       N       E                     dE             d eps       ncg     rms          rms(c)
DAV:   1    -0.192330133229E+03   -0.10348E-02   -0.59092E-02  8160   0.538E-01    0.955E-02
DAV:   2    -0.192330872720E+03   -0.73949E-03   -0.36772E-03 12640   0.344E-01    0.256E-01
DAV:   3    -0.192330145668E+03    0.72705E-03   -0.13885E-03 10240   0.305E-01    0.647E-02
DAV:   4    -0.192330099512E+03    0.46156E-04   -0.12189E-04  6360   0.690E-02
  44 F= -.19233010E+03 E0= -.19224547E+03  d E =-.107212E-02
       N       E                     dE             d eps       ncg     rms          rms(c)
DAV:   1    -0.192333517166E+03   -0.33715E-02   -0.17359E+00  8160   0.280E+00    0.304E-01
DAV:   2    -0.192337117405E+03   -0.36002E-02   -0.51120E-02 12240   0.662E-01    0.287E-01
DAV:   3    -0.192337636892E+03   -0.51949E-03   -0.64544E-03 12440   0.656E-01    0.387E-01
DAV:   4    -0.192336079729E+03    0.15572E-02   -0.24907E-03 12480   0.470E-01    0.155E-01
DAV:   5    -0.192335897862E+03    0.18187E-03   -0.11962E-03 10440   0.240E-01    0.125E-01
DAV:   6    -0.192335925165E+03   -0.27303E-04   -0.84919E-04 10560   0.242E-01
  45 F= -.19233593E+03 E0= -.19225385E+03  d E =-.582565E-02
       N       E                     dE             d eps       ncg     rms          rms(c)
DAV:   1    -0.192336983997E+03   -0.10861E-02   -0.21263E-01  8160   0.990E-01    0.119E-01
DAV:   2    -0.192337768794E+03   -0.78480E-03   -0.79370E-03 13160   0.369E-01    0.182E-01
DAV:   3    -0.192337435649E+03    0.33315E-03   -0.12677E-03 11320   0.295E-01    0.917E-02
DAV:   4    -0.192337353038E+03    0.82611E-04   -0.23604E-04  8480   0.124E-01
  46 F= -.19233735E+03 E0= -.19225662E+03  d E =-.142787E-02
       N       E                     dE             d eps       ncg     rms          rms(c)
DAV:   1    -0.192338470599E+03   -0.10349E-02   -0.14411E-01  8160   0.818E-01    0.109E-01
DAV:   2    -0.192339119413E+03   -0.64881E-03   -0.47925E-03 13120   0.301E-01    0.213E-01
DAV:   3    -0.192338673918E+03    0.44550E-03   -0.11279E-03 10680   0.288E-01    0.928E-02
DAV:   4    -0.192338614952E+03    0.58967E-04   -0.27250E-04  8600   0.109E-01
  47 F= -.19233861E+03 E0= -.19225881E+03  d E =-.126191E-02
       N       E                     dE             d eps       ncg     rms          rms(c)
DAV:   1    -0.192339524254E+03   -0.85034E-03   -0.99896E-02  8160   0.678E-01    0.101E-01
DAV:   2    -0.192340468787E+03   -0.94453E-03   -0.40148E-03 13440   0.362E-01    0.274E-01
DAV:   3    -0.192339601957E+03    0.86683E-03   -0.14839E-03 10480   0.332E-01    0.643E-02
DAV:   4    -0.192339597606E+03    0.43512E-05   -0.14990E-04  6040   0.786E-02
  48 F= -.19233960E+03 E0= -.19226046E+03  d E =-.982654E-03
