<?xml version="1.0" encoding="ISO-8859-1"?>
<modeling>
 <generator>
  <i name="program" type="string">vasp </i>
  <i name="version" type="string">5.4.1  </i>
  <i name="subversion" type="string">05Feb16 (build Jul 05 2020 17:13:04) complex                          parallel </i>
  <i name="platform" type="string">IFC91_ompi </i>
  <i name="date" type="string">2024 04 27 </i>
  <i name="time" type="string">01:43:29 </i>
 </generator>
 <incar>
  <i type="int" name="ISTART">     0</i>
  <i type="string" name="PREC">normal</i>
  <i type="string" name="ALGO"> Normal</i>
  <i type="int" name="ISPIN">     1</i>
  <i type="int" name="ICHARG">     2</i>
  <i type="int" name="IBRION">     1</i>
  <i type="int" name="NSW">   100</i>
  <i type="int" name="ISIF">     3</i>
  <i type="int" name="ISYM">     0</i>
  <i name="SYMPREC">      0.00000001</i>
  <i name="POTIM">      0.50000000</i>
  <i type="logical" name="LREAL"> F  </i>
  <i type="logical" name="LPLANE"> F  </i>
  <i type="int" name="ISMEAR">     0</i>
  <i type="logical" name="LWAVE"> F  </i>
  <i type="logical" name="LCHARG"> F  </i>
  <v type="int" name="KPOINT_BSE">    -1     0     0     0</v>
 </incar>
 <kpoints>
  <generation param="Gamma">
   <v type="int" name="divisions">       8        8        1 </v>
   <v name="usershift">      0.00000000       0.00000000       0.00000000 </v>
   <v name="genvec1">      0.12500000       0.00000000       0.00000000 </v>
   <v name="genvec2">     -0.00000000       0.12500000       0.00000000 </v>
   <v name="genvec3">      0.00000000       0.00000000       1.00000000 </v>
   <v name="shift">      0.00000000       0.00000000       0.00000000 </v>
  </generation>
  <varray name="kpointlist" >
   <v>       0.00000000       0.00000000       0.00000000 </v>
   <v>       0.12500000       0.00000000       0.00000000 </v>
   <v>       0.25000000       0.00000000       0.00000000 </v>
   <v>       0.37500000       0.00000000       0.00000000 </v>
   <v>       0.50000000       0.00000000       0.00000000 </v>
   <v>       0.00000000       0.12500000       0.00000000 </v>
   <v>       0.12500000       0.12500000       0.00000000 </v>
   <v>       0.25000000       0.12500000       0.00000000 </v>
   <v>       0.37500000       0.12500000       0.00000000 </v>
   <v>       0.50000000       0.12500000       0.00000000 </v>
   <v>      -0.37500000       0.12500000       0.00000000 </v>
   <v>      -0.25000000       0.12500000       0.00000000 </v>
   <v>      -0.12500000       0.12500000       0.00000000 </v>
   <v>       0.00000000       0.25000000       0.00000000 </v>
   <v>       0.12500000       0.25000000       0.00000000 </v>
   <v>       0.25000000       0.25000000       0.00000000 </v>
   <v>       0.37500000       0.25000000       0.00000000 </v>
   <v>       0.50000000       0.25000000       0.00000000 </v>
   <v>      -0.37500000       0.25000000       0.00000000 </v>
   <v>      -0.25000000       0.25000000       0.00000000 </v>
   <v>      -0.12500000       0.25000000       0.00000000 </v>
   <v>      -0.00000000       0.37500000       0.00000000 </v>
   <v>       0.12500000       0.37500000       0.00000000 </v>
   <v>       0.25000000       0.37500000       0.00000000 </v>
   <v>       0.37500000       0.37500000       0.00000000 </v>
   <v>       0.50000000       0.37500000       0.00000000 </v>
   <v>      -0.37500000       0.37500000       0.00000000 </v>
   <v>      -0.25000000       0.37500000       0.00000000 </v>
   <v>      -0.12500000       0.37500000       0.00000000 </v>
   <v>       0.00000000       0.50000000       0.00000000 </v>
   <v>       0.12500000       0.50000000       0.00000000 </v>
   <v>       0.25000000       0.50000000       0.00000000 </v>
   <v>       0.37500000       0.50000000       0.00000000 </v>
   <v>       0.50000000       0.50000000       0.00000000 </v>
  </varray>
  <varray name="weights" >
   <v>       0.01562500 </v>
   <v>       0.03125000 </v>
   <v>       0.03125000 </v>
   <v>       0.03125000 </v>
   <v>       0.01562500 </v>
   <v>       0.03125000 </v>
   <v>       0.03125000 </v>
   <v>       0.03125000 </v>
   <v>       0.03125000 </v>
   <v>       0.03125000 </v>
   <v>       0.03125000 </v>
   <v>       0.03125000 </v>
   <v>       0.03125000 </v>
   <v>       0.03125000 </v>
   <v>       0.03125000 </v>
   <v>       0.03125000 </v>
   <v>       0.03125000 </v>
   <v>       0.03125000 </v>
   <v>       0.03125000 </v>
   <v>       0.03125000 </v>
   <v>       0.03125000 </v>
   <v>       0.03125000 </v>
   <v>       0.03125000 </v>
   <v>       0.03125000 </v>
   <v>       0.03125000 </v>
   <v>       0.03125000 </v>
   <v>       0.03125000 </v>
   <v>       0.03125000 </v>
   <v>       0.03125000 </v>
   <v>       0.01562500 </v>
   <v>       0.03125000 </v>
   <v>       0.03125000 </v>
   <v>       0.03125000 </v>
   <v>       0.01562500 </v>
  </varray>
 </kpoints>
 <parameters>
  <separator name="general" >
   <i type="string" name="SYSTEM">unknown system</i>
   <i type="logical" name="LCOMPAT"> F  </i>
  </separator>
  <separator name="electronic" >
   <i type="string" name="PREC">normal</i>
   <i name="ENMAX">    280.00000000</i>
   <i name="ENAUG">    373.43800000</i>
   <i name="EDIFF">      0.00010000</i>
   <i type="int" name="IALGO">    38</i>
   <i type="int" name="IWAVPR">    11</i>
   <i type="int" name="NBANDS">   120</i>
   <i name="NELECT">    159.00000000</i>
   <i type="int" name="TURBO">     0</i>
   <i type="int" name="IRESTART">     0</i>
   <i type="int" name="NREBOOT">     0</i>
   <i type="int" name="NMIN">     0</i>
   <i name="EREF">      0.00000000</i>
   <separator name="electronic smearing" >
    <i type="int" name="ISMEAR">     0</i>
    <i name="SIGMA">      0.20000000</i>
    <i name="KSPACING">      0.50000000</i>
    <i type="logical" name="KGAMMA"> T  </i>
   </separator>
   <separator name="electronic projectors" >
    <i type="logical" name="LREAL"> F  </i>
    <v name="ROPT">      0.00000000      0.00000000      0.00000000      0.00000000</v>
    <i type="int" name="LMAXPAW">  -100</i>
    <i type="int" name="LMAXMIX">     2</i>
    <i type="logical" name="NLSPLINE"> F  </i>
   </separator>
   <separator name="electronic startup" >
    <i type="int" name="ISTART">     0</i>
    <i type="int" name="ICHARG">     2</i>
    <i type="int" name="INIWAV">     1</i>
   </separator>
   <separator name="electronic spin" >
    <i type="int" name="ISPIN">     1</i>
    <i type="logical" name="LNONCOLLINEAR"> F  </i>
    <v name="MAGMOM">      1.00000000      1.00000000      1.00000000      1.00000000      1.00000000      1.00000000      1.00000000      1.00000000      1.00000000      1.00000000      1.00000000      1.00000000      1.00000000      1.00000000      1.00000000      1.00000000      1.00000000      1.00000000      1.00000000      1.00000000
      1.00000000      1.00000000      1.00000000      1.00000000      1.00000000      1.00000000      1.00000000</v>
    <i name="NUPDOWN">     -1.00000000</i>
    <i type="logical" name="LSORBIT"> F  </i>
    <v name="SAXIS">      0.00000000      0.00000000      1.00000000</v>
    <i type="logical" name="LSPIRAL"> F  </i>
    <v name="QSPIRAL">      0.00000000      0.00000000      0.00000000</v>
    <i type="logical" name="LZEROZ"> F  </i>
   </separator>
   <separator name="electronic exchange-correlation" >
    <i type="logical" name="LASPH"> F  </i>
    <i type="logical" name="LMETAGGA"> F  </i>
   </separator>
   <separator name="electronic convergence" >
    <i type="int" name="NELM">    60</i>
    <i type="int" name="NELMDL">    -5</i>
    <i type="int" name="NELMIN">     2</i>
    <i name="ENINI">    280.00000000</i>
    <separator name="electronic convergence detail" >
     <i type="logical" name="LDIAG"> T  </i>
     <i type="logical" name="LSUBROT"> F  </i>
     <i name="WEIMIN">      0.00100000</i>
     <i name="EBREAK">      0.00000021</i>
     <i name="DEPER">      0.30000000</i>
     <i type="int" name="NRMM">     4</i>
     <i name="TIME">      0.40000000</i>
    </separator>
   </separator>
   <separator name="electronic mixer" >
    <i name="AMIX">      0.40000000</i>
    <i name="BMIX">      1.00000000</i>
    <i name="AMIN">      0.10000000</i>
    <i name="AMIX_MAG">      1.60000000</i>
    <i name="BMIX_MAG">      1.00000000</i>
    <separator name="electronic mixer details" >
     <i type="int" name="IMIX">     4</i>
     <i type="logical" name="MIXFIRST"> F  </i>
     <i type="int" name="MAXMIX">   -45</i>
     <i name="WC">    100.00000000</i>
     <i type="int" name="INIMIX">     1</i>
     <i type="int" name="MIXPRE">     1</i>
     <i type="int" name="MREMOVE">     5</i>
    </separator>
   </separator>
   <separator name="electronic dipolcorrection" >
    <i type="logical" name="LDIPOL"> F  </i>
    <i type="logical" name="LMONO"> F  </i>
    <i type="int" name="IDIPOL">     0</i>
    <i name="EPSILON">      1.00000000</i>
    <v name="DIPOL">   -100.00000000   -100.00000000   -100.00000000</v>
    <i name="EFIELD">      0.00000000</i>
   </separator>
  </separator>
  <separator name="grids" >
   <i type="int" name="NGX">    42</i>
   <i type="int" name="NGY">    42</i>
   <i type="int" name="NGZ">   126</i>
   <i type="int" name="NGXF">    84</i>
   <i type="int" name="NGYF">    84</i>
   <i type="int" name="NGZF">   252</i>
   <i type="logical" name="ADDGRID"> F  </i>
  </separator>
  <separator name="ionic" >
   <i type="int" name="NSW">   100</i>
   <i type="int" name="IBRION">     1</i>
   <i type="int" name="ISIF">     3</i>
   <i name="PSTRESS">      0.00000000</i>
   <i name="EDIFFG">      0.00100000</i>
   <i type="int" name="NFREE">     0</i>
   <i name="POTIM">      0.50000000</i>
   <i name="SMASS">     -3.00000000</i>
   <i name="SCALEE">      1.00000000</i>
  </separator>
  <separator name="ionic md" >
   <i name="TEBEG">      0.00010000</i>
   <i name="TEEND">      0.00010000</i>
   <i type="int" name="NBLOCK">     1</i>
   <i type="int" name="KBLOCK">   100</i>
   <i type="int" name="NPACO">   256</i>
   <i name="APACO">     16.00000000</i>
  </separator>
  <separator name="symmetry" >
   <i type="int" name="ISYM">     0</i>
   <i name="SYMPREC">      0.00000001</i>
  </separator>
  <separator name="dos" >
   <i type="logical" name="LORBIT"> F  </i>
   <v name="RWIGS">     -1.00000000     -1.00000000     -1.00000000     -1.00000000</v>
   <i type="int" name="NEDOS">   301</i>
   <i name="EMIN">     10.00000000</i>
   <i name="EMAX">    -10.00000000</i>
   <i name="EFERMI">      0.00000000</i>
  </separator>
  <separator name="writing" >
   <i type="int" name="NWRITE">     2</i>
   <i type="logical" name="LWAVE"> F  </i>
   <i type="logical" name="LCHARG"> F  </i>
   <i type="logical" name="LPARD"> F  </i>
   <i type="logical" name="LVTOT"> F  </i>
   <i type="logical" name="LVHAR"> F  </i>
   <i type="logical" name="LELF"> F  </i>
   <i type="logical" name="LOPTICS"> F  </i>
   <v name="STM">      0.00000000      0.00000000      0.00000000      0.00000000      0.00000000      0.00000000      0.00000000</v>
  </separator>
  <separator name="performance" >
   <i type="int" name="NPAR">    40</i>
   <i type="int" name="NSIM">     4</i>
   <i type="int" name="NBLK">    -1</i>
   <i type="logical" name="LPLANE"> F  </i>
   <i type="logical" name="LSCALAPACK"> T  </i>
   <i type="logical" name="LSCAAWARE"> F  </i>
   <i type="logical" name="LSCALU"> F  </i>
   <i type="logical" name="LASYNC"> F  </i>
   <i type="logical" name="LORBITALREAL"> F  </i>
  </separator>
  <separator name="miscellaneous" >
   <i type="int" name="IDIOT">     3</i>
   <i type="logical" name="LMUSIC"> F  </i>
   <v name="POMASS">     50.94100000     95.94000000    183.85000000     32.06600000</v>
   <v name="DARWINR">      0.00000000      0.00000000      0.00000000      0.00000000</v>
   <v name="DARWINV">      1.00000000      1.00000000      1.00000000      1.00000000</v>
   <i type="logical" name="LCORR"> T  </i>
  </separator>
  <i type="logical" name="GGA_COMPAT"> T  </i>
  <i type="logical" name="LBERRY"> F  </i>
  <i type="int" name="ICORELEVEL">     0</i>
  <i type="logical" name="LDAU"> F  </i>
  <i type="int" name="I_CONSTRAINED_M">     0</i>
  <separator name="electronic exchange-correlation" >
   <i type="string" name="GGA">--</i>
   <i type="int" name="VOSKOWN">     0</i>
   <i type="logical" name="LHFCALC"> F  </i>
   <i type="string" name="PRECFOCK"></i>
   <i type="logical" name="LSYMGRAD"> F  </i>
   <i type="logical" name="LHFONE"> F  </i>
   <i type="logical" name="LRHFCALC"> F  </i>
   <i type="logical" name="LTHOMAS"> F  </i>
   <i type="logical" name="LMODELHF"> F  </i>
   <i name="ENCUT4O">     -1.00000000</i>
   <i type="int" name="EXXOEP">     0</i>
   <i type="int" name="FOURORBIT">     0</i>
   <i name="AEXX">      0.00000000</i>
   <i name="HFALPHA">      0.00000000</i>
   <i name="MCALPHA">      0.00000000</i>
   <i name="ALDAX">      1.00000000</i>
   <i name="AGGAX">      1.00000000</i>
   <i name="ALDAC">      1.00000000</i>
   <i name="AGGAC">      1.00000000</i>
   <i type="int" name="NKREDX">     1</i>
   <i type="int" name="NKREDY">     1</i>
   <i type="int" name="NKREDZ">     1</i>
   <i type="logical" name="SHIFTRED"> F  </i>
   <i type="logical" name="ODDONLY"> F  </i>
   <i type="logical" name="EVENONLY"> F  </i>
   <i type="int" name="LMAXFOCK">     0</i>
   <i type="int" name="NMAXFOCKAE">     0</i>
   <i type="logical" name="LFOCKAEDFT"> F  </i>
   <i name="HFSCREEN">      0.00000000</i>
   <i name="HFSCREENC">      0.00000000</i>
   <i type="int" name="NBANDSGWLOW">     0</i>
  </separator>
  <separator name="vdW DFT" >
   <i type="logical" name="LUSE_VDW"> F  </i>
   <i name="Zab_VDW">     -0.84910000</i>
   <i name="PARAM1">      0.12340000</i>
   <i name="PARAM2">      1.00000000</i>
   <i name="PARAM3">      0.00000000</i>
  </separator>
  <separator name="model GW" >
   <i type="int" name="MODEL_GW">     0</i>
   <i name="MODEL_EPS0">     58.26239943</i>
   <i name="MODEL_ALPHA">      1.00000000</i>
  </separator>
  <separator name="linear response parameters" >
   <i type="logical" name="LEPSILON"> F  </i>
   <i type="logical" name="LRPA"> F  </i>
   <i type="logical" name="LNABLA"> F  </i>
   <i type="logical" name="LVEL"> F  </i>
   <i type="int" name="KINTER">     0</i>
   <i name="CSHIFT">      0.10000000</i>
   <i name="OMEGAMAX">     -1.00000000</i>
   <i name="DEG_THRESHOLD">      0.00200000</i>
  </separator>
  <separator name="orbital magnetization" >
   <i type="logical" name="NUCIND"> F  </i>
   <v name="MAGPOS">      0.00000000      0.00000000      0.00000000</v>
   <i type="logical" name="LNICSALL"> T  </i>
   <i type="logical" name="ORBITALMAG"> F  </i>
   <i type="logical" name="LMAGBLOCH"> F  </i>
   <i type="logical" name="LCHIMAG"> F  </i>
   <i type="logical" name="LGAUGE"> T  </i>
   <i type="int" name="MAGATOM">     0</i>
   <v name="MAGDIPOL">      0.00000000      0.00000000      0.00000000</v>
   <v name="AVECCONST">      0.00000000      0.00000000      0.00000000</v>
  </separator>
  <separator name="response functions" >
   <i type="logical" name="LADDER"> F  </i>
   <i type="logical" name="LFXC"> F  </i>
   <i type="logical" name="LHARTREE"> T  </i>
   <i type="int" name="IBSE">     0</i>
   <v type="int" name="KPOINT">    -1     0     0     0</v>
   <i type="logical" name="LTCTE"> F  </i>
   <i type="logical" name="LTETE"> F  </i>
   <i type="logical" name="LTRIPLET"> F  </i>
   <i type="logical" name="LFXCEPS"> F  </i>
   <i type="logical" name="LFXHEG"> F  </i>
   <i type="int" name="NATURALO">     0</i>
   <i type="logical" name="L2ORDER"> F  </i>
   <i type="logical" name="LUSEW"> F  </i>
   <i name="ENCUTGW">     -2.00000000</i>
   <i name="ENCUTGWSOFT">     -2.00000000</i>
   <i name="ENCUTLF">     -1.00000000</i>
   <i type="int" name="LMAXMP2">    -1</i>
   <i name="SCISSOR">      0.00000000</i>
   <i type="int" name="NOMEGA">     0</i>
   <i type="int" name="NOMEGAR">     0</i>
   <i type="int" name="NBANDSGW">    -1</i>
   <i type="int" name="NBANDSO">    -1</i>
   <i type="int" name="NBANDSV">    -1</i>
   <i type="int" name="NELM">     1</i>
   <i type="int" name="NELMHF">     1</i>
   <i type="int" name="DIM">     3</i>
   <i type="int" name="ANTIRES">     0</i>
   <i name="OMEGAMAX">    -30.00000000</i>
   <i name="OMEGAMIN">    -30.00000000</i>
   <i name="OMEGATL">   -200.00000000</i>
   <i type="int" name="OMEGAGRID">     0</i>
   <i name="CSHIFT">     -0.10000000</i>
   <i type="logical" name="SELFENERGY"> F  </i>
   <i type="logical" name="LSPECTRAL"> F  </i>
   <i type="logical" name="LSPECTRALGW"> F  </i>
   <i type="logical" name="LSINGLES"> F  </i>
   <i type="logical" name="LFERMIGW"> F  </i>
   <i type="logical" name="ODDONLYGW"> F  </i>
   <i type="logical" name="EVENONLYGW"> F  </i>
   <i type="int" name="NKREDLFX">     1</i>
   <i type="int" name="NKREDLFY">     1</i>
   <i type="int" name="NKREDLFZ">     1</i>
   <i type="int" name="MAXMEM">  1800</i>
   <i type="int" name="TELESCOPE">     0</i>
   <i type="int" name="TAUPAR">     1</i>
   <i type="int" name="OMEGAPAR">    -1</i>
   <i name="LAMBDA">      1.00000000</i>
  </separator>
  <separator name="External order field" >
   <i name="OFIELD_KAPPA">      0.00000000</i>
   <v name="OFIELD_K">      0.00000000      0.00000000      0.00000000</v>
   <i name="OFIELD_Q6_NEAR">      0.00000000</i>
   <i name="OFIELD_Q6_FAR">      0.00000000</i>
   <i name="OFIELD_A">      0.00000000</i>
  </separator>
 </parameters>
 <atominfo>
  <atoms>      27 </atoms>
  <types>       4 </types>
  <array name="atoms" >
   <dimension dim="1">ion</dimension>
   <field type="string">element</field>
   <field type="int">atomtype</field>
   <set>
    <rc><c>V </c><c>   1</c></rc>
    <rc><c>V </c><c>   1</c></rc>
    <rc><c>V </c><c>   1</c></rc>
    <rc><c>Mo</c><c>   2</c></rc>
    <rc><c>Mo</c><c>   2</c></rc>
    <rc><c>Mo</c><c>   2</c></rc>
    <rc><c>W </c><c>   3</c></rc>
    <rc><c>W </c><c>   3</c></rc>
    <rc><c>W </c><c>   3</c></rc>
    <rc><c>S </c><c>   4</c></rc>
    <rc><c>S </c><c>   4</c></rc>
    <rc><c>S </c><c>   4</c></rc>
    <rc><c>S </c><c>   4</c></rc>
    <rc><c>S </c><c>   4</c></rc>
    <rc><c>S </c><c>   4</c></rc>
    <rc><c>S </c><c>   4</c></rc>
    <rc><c>S </c><c>   4</c></rc>
    <rc><c>S </c><c>   4</c></rc>
    <rc><c>S </c><c>   4</c></rc>
    <rc><c>S </c><c>   4</c></rc>
    <rc><c>S </c><c>   4</c></rc>
    <rc><c>S </c><c>   4</c></rc>
    <rc><c>S </c><c>   4</c></rc>
    <rc><c>S </c><c>   4</c></rc>
    <rc><c>S </c><c>   4</c></rc>
    <rc><c>S </c><c>   4</c></rc>
    <rc><c>S </c><c>   4</c></rc>
   </set>
  </array>
  <array name="atomtypes" >
   <dimension dim="1">type</dimension>
   <field type="int">atomspertype</field>
   <field type="string">element</field>
   <field>mass</field>
   <field>valence</field>
   <field type="string">pseudopotential</field>
   <set>
    <rc><c>   3</c><c>V </c><c>     50.94100000</c><c>      5.00000000</c><c> PAW_PBE V 08Apr2002                    </c></rc>
    <rc><c>   3</c><c>Mo</c><c>     95.94000000</c><c>      6.00000000</c><c> PAW_PBE Mo 08Apr2002                   </c></rc>
    <rc><c>   3</c><c>W </c><c>    183.85000000</c><c>      6.00000000</c><c> PAW_PBE W 08Apr2002                    </c></rc>
    <rc><c>  18</c><c>S </c><c>     32.06600000</c><c>      6.00000000</c><c>  PAW_PBE S 17Jan2003                   </c></rc>
   </set>
  </array>
 </atominfo>
 <structure name="initialpos" >
  <crystal>
   <varray name="basis" >
    <v>       8.66999996       5.03999989       0.00000000 </v>
    <v>      -8.66999982       5.04000013       0.00000000 </v>
    <v>       0.00000000       0.00000000      30.00000000 </v>
   </varray>
   <i name="volume">   2621.80797419 </i>
   <varray name="rec_basis" >
    <v>       0.05767013       0.09920635       0.00000000 </v>
    <v>      -0.05767013       0.09920635       0.00000000 </v>
    <v>       0.00000000       0.00000000       0.03333333 </v>
   </varray>
  </crystal>
  <varray name="positions" >
   <v>       0.00000000       0.00000000       0.00000000 </v>
   <v>       0.66666669       0.66666669       0.00000000 </v>
   <v>       0.66666669       0.00000000       0.00000000 </v>
   <v>       0.66666669       0.33333334       0.00000000 </v>
   <v>       0.33333334       0.00000000       0.00000000 </v>
   <v>       1.00000000       0.33333334       0.00000000 </v>
   <v>       0.00000000       0.66666669       0.00000000 </v>
   <v>       0.33333334       0.33333334       0.00000000 </v>
   <v>       0.33333334       0.66666669       0.00000000 </v>
   <v>       0.11068511       0.22244981       0.95539999 </v>
   <v>       0.22244981       0.11068511       0.04460000 </v>
   <v>       0.11068511       0.55578315       0.95539999 </v>
   <v>       0.22244981       0.44401845       0.04460000 </v>
   <v>       0.11068511       0.88911647       0.95539999 </v>
   <v>       0.22244981       0.77735180       0.04460000 </v>
   <v>       0.44401845       0.22244981       0.95539999 </v>
   <v>       0.55578315       0.11068511       0.04460000 </v>
   <v>       0.44401845       0.55578315       0.95539999 </v>
   <v>       0.55578315       0.44401845       0.04460000 </v>
   <v>       0.44401845       0.88911647       0.95539999 </v>
   <v>       0.55578315       0.77735180       0.04460000 </v>
   <v>       0.77735180       0.22244981       0.95539999 </v>
   <v>       0.88911647       0.11068511       0.04460000 </v>
   <v>       0.77735180       0.55578315       0.95539999 </v>
   <v>       0.88911647       0.44401845       0.04460000 </v>
   <v>       0.77735180       0.88911647       0.95539999 </v>
   <v>       0.88911647       0.77735180       0.04460000 </v>
  </varray>
 </structure>
 <calculation>
  <scstep>
   <time name="dav">   22.07   22.13</time>
   <time name="total">   22.12   22.18</time>
   <energy>
    <i name="alphaZ">     81.65567618 </i>
    <i name="ewald">  41891.17176702 </i>
    <i name="hartreedc"> -47723.81645247 </i>
    <i name="XCdc">   -242.92503257 </i>
    <i name="pawpsdc">   3467.42045192 </i>
    <i name="pawaedc">  -2871.19716117 </i>
    <i name="eentropy">     -0.55330262 </i>
    <i name="bandstr">   -237.35351728 </i>
    <i name="atom">   6761.44252427 </i>
    <i name="e_fr_energy">   1125.84495329 </i>
    <i name="e_wo_entrp">   1126.39825590 </i>
    <i name="e_0_energy">   1126.12160459 </i>
   </energy>
  </scstep>
  <scstep>
   <time name="dav">   28.84   28.91</time>
   <time name="total">   28.84   28.92</time>
   <energy>
    <i name="e_fr_energy">     -2.58480723 </i>
    <i name="e_wo_entrp">     -2.37919672 </i>
    <i name="e_0_energy">     -2.48200198 </i>
   </energy>
  </scstep>
  <scstep>
   <time name="dav">   27.93   28.00</time>
   <time name="total">   27.93   28.01</time>
   <energy>
    <i name="e_fr_energy">   -199.86128143 </i>
    <i name="e_wo_entrp">   -199.61029515 </i>
    <i name="e_0_energy">   -199.73578829 </i>
   </energy>
  </scstep>
  <scstep>
   <time name="dav">   30.94   31.01</time>
   <time name="total">   30.94   31.02</time>
   <energy>
    <i name="e_fr_energy">   -209.01818919 </i>
    <i name="e_wo_entrp">   -208.73281519 </i>
    <i name="e_0_energy">   -208.87550219 </i>
   </energy>
  </scstep>
  <scstep>
   <time name="dav">   28.97   29.04</time>
   <time name="total">   29.43   29.51</time>
   <energy>
    <i name="e_fr_energy">   -209.32336469 </i>
    <i name="e_wo_entrp">   -209.04106485 </i>
    <i name="e_0_energy">   -209.18221477 </i>
   </energy>
  </scstep>
  <scstep>
   <time name="dav">   31.44   31.52</time>
   <time name="total">   31.94   32.02</time>
   <energy>
    <i name="e_fr_energy">   -237.94622253 </i>
    <i name="e_wo_entrp">   -237.68676052 </i>
    <i name="e_0_energy">   -237.81649153 </i>
   </energy>
  </scstep>
  <scstep>
   <time name="dav">   33.55   33.63</time>
   <time name="total">   34.05   34.14</time>
   <energy>
    <i name="e_fr_energy">   -196.56689026 </i>
    <i name="e_wo_entrp">   -196.22514447 </i>
    <i name="e_0_energy">   -196.39601736 </i>
   </energy>
  </scstep>
  <scstep>
   <time name="dav">   29.88   29.95</time>
   <time name="total">   30.39   30.47</time>
   <energy>
    <i name="e_fr_energy">   -189.47424287 </i>
    <i name="e_wo_entrp">   -189.16250465 </i>
    <i name="e_0_energy">   -189.31837376 </i>
   </energy>
  </scstep>
  <scstep>
   <time name="dav">   33.39   33.47</time>
   <time name="total">   33.91   34.00</time>
   <energy>
    <i name="e_fr_energy">   -188.15653961 </i>
    <i name="e_wo_entrp">   -187.83957159 </i>
    <i name="e_0_energy">   -187.99805560 </i>
   </energy>
  </scstep>
  <scstep>
   <time name="dav">   33.12   33.20</time>
   <time name="total">   33.65   33.74</time>
   <energy>
    <i name="e_fr_energy">   -186.95362217 </i>
    <i name="e_wo_entrp">   -186.60132002 </i>
    <i name="e_0_energy">   -186.77747109 </i>
   </energy>
  </scstep>
  <scstep>
   <time name="dav">   33.57   33.65</time>
   <time name="total">   34.11   34.20</time>
   <energy>
    <i name="e_fr_energy">   -187.05072387 </i>
    <i name="e_wo_entrp">   -186.70883763 </i>
    <i name="e_0_energy">   -186.87978075 </i>
   </energy>
  </scstep>
  <scstep>
   <time name="dav">   32.23   32.31</time>
   <time name="total">   32.76   32.84</time>
   <energy>
    <i name="e_fr_energy">   -186.98576805 </i>
    <i name="e_wo_entrp">   -186.65517236 </i>
    <i name="e_0_energy">   -186.82047021 </i>
   </energy>
  </scstep>
  <scstep>
   <time name="dav">   32.87   32.94</time>
   <time name="total">   33.40   33.49</time>
   <energy>
    <i name="e_fr_energy">   -186.88406404 </i>
    <i name="e_wo_entrp">   -186.54911725 </i>
    <i name="e_0_energy">   -186.71659064 </i>
   </energy>
  </scstep>
  <scstep>
   <time name="dav">   32.52   32.60</time>
   <time name="total">   33.05   33.14</time>
   <energy>
    <i name="e_fr_energy">   -186.84735781 </i>
    <i name="e_wo_entrp">   -186.50274229 </i>
    <i name="e_0_energy">   -186.67505005 </i>
   </energy>
  </scstep>
  <scstep>
   <time name="dav">   31.89   31.97</time>
   <time name="total">   32.42   32.51</time>
   <energy>
    <i name="e_fr_energy">   -186.84635539 </i>
    <i name="e_wo_entrp">   -186.50257872 </i>
    <i name="e_0_energy">   -186.67446706 </i>
   </energy>
  </scstep>
  <scstep>
   <time name="dav">   33.33   33.41</time>
   <time name="total">   33.85   33.94</time>
   <energy>
    <i name="e_fr_energy">   -186.84087801 </i>
    <i name="e_wo_entrp">   -186.49766828 </i>
    <i name="e_0_energy">   -186.66927314 </i>
   </energy>
  </scstep>
  <scstep>
   <time name="dav">   32.19   32.27</time>
   <time name="total">   32.72   32.81</time>
   <energy>
    <i name="e_fr_energy">   -186.83954658 </i>
    <i name="e_wo_entrp">   -186.49779178 </i>
    <i name="e_0_energy">   -186.66866918 </i>
   </energy>
  </scstep>
  <scstep>
   <time name="dav">   30.85   30.92</time>
   <time name="total">   31.38   31.47</time>
   <energy>
    <i name="e_fr_energy">   -186.83927779 </i>
    <i name="e_wo_entrp">   -186.49697954 </i>
    <i name="e_0_energy">   -186.66812867 </i>
   </energy>
  </scstep>
  <scstep>
   <time name="dav">   27.40   27.47</time>
   <time name="total">   27.93   28.01</time>
   <energy>
    <i name="e_fr_energy">   -186.83912928 </i>
    <i name="e_wo_entrp">   -186.49677698 </i>
    <i name="e_0_energy">   -186.66795313 </i>
   </energy>
  </scstep>
  <scstep>
   <time name="dav">   24.12   24.18</time>
   <time name="total">   24.65   24.72</time>
   <energy>
    <i name="e_fr_energy">   -186.83986742 </i>
    <i name="e_wo_entrp">   -186.49796385 </i>
    <i name="e_0_energy">   -186.66891563 </i>
   </energy>
  </scstep>
  <scstep>
   <time name="dav">   22.26   22.32</time>
   <time name="total">   22.79   22.86</time>
   <energy>
    <i name="e_fr_energy">   -186.84070134 </i>
    <i name="e_wo_entrp">   -186.49872767 </i>
    <i name="e_0_energy">   -186.66971451 </i>
   </energy>
  </scstep>
  <scstep>
   <time name="dav">   20.55   20.59</time>
   <time name="total">   21.08   21.13</time>
   <energy>
    <i name="e_fr_energy">   -186.84165510 </i>
    <i name="e_wo_entrp">   -186.49959471 </i>
    <i name="e_0_energy">   -186.67062491 </i>
   </energy>
  </scstep>
  <scstep>
   <time name="dav">   20.83   20.88</time>
   <time name="total">   21.36   21.42</time>
   <energy>
    <i name="e_fr_energy">   -186.84279688 </i>
    <i name="e_wo_entrp">   -186.50086644 </i>
    <i name="e_0_energy">   -186.67183166 </i>
   </energy>
  </scstep>
  <scstep>
   <time name="dav">   19.38   19.43</time>
   <time name="total">   19.91   19.96</time>
   <energy>
    <i name="e_fr_energy">   -186.84335319 </i>
    <i name="e_wo_entrp">   -186.50135165 </i>
    <i name="e_0_energy">   -186.67235242 </i>
   </energy>
  </scstep>
  <scstep>
   <time name="dav">   16.66   16.70</time>
   <time name="total">   17.19   17.24</time>
   <energy>
    <i name="e_fr_energy">   -186.84374850 </i>
    <i name="e_wo_entrp">   -186.50173704 </i>
    <i name="e_0_energy">   -186.67274277 </i>
   </energy>
  </scstep>
  <scstep>
   <time name="dav">   19.36   19.41</time>
   <time name="total">   19.89   19.94</time>
   <energy>
    <i name="e_fr_energy">   -186.84399353 </i>
    <i name="e_wo_entrp">   -186.50199841 </i>
    <i name="e_0_energy">   -186.67299597 </i>
   </energy>
  </scstep>
  <scstep>
   <time name="dav">   21.18   21.23</time>
   <time name="total">   21.22   21.28</time>
   <energy>
    <i name="alphaZ">     81.65567618 </i>
    <i name="ewald">  41891.17176702 </i>
    <i name="hartreedc"> -47833.64767268 </i>
    <i name="XCdc">   -231.60517323 </i>
    <i name="pawpsdc">   4192.07629362 </i>
    <i name="pawaedc">  -3610.07664911 </i>
    <i name="eentropy">     -0.34200086 </i>
    <i name="bandstr">  -1437.51884449 </i>
    <i name="atom">   6761.44252427 </i>
    <i name="e_fr_energy">   -186.84407928 </i>
    <i name="e_wo_entrp">   -186.50207841 </i>
    <i name="e_0_energy">   -186.67307885 </i>
   </energy>
  </scstep>
  <structure>
   <crystal>
    <varray name="basis" >
     <v>       8.66999996       5.03999989       0.00000000 </v>
     <v>      -8.66999982       5.04000013       0.00000000 </v>
     <v>       0.00000000       0.00000000      30.00000000 </v>
    </varray>
    <i name="volume">   2621.80797419 </i>
    <varray name="rec_basis" >
     <v>       0.05767013       0.09920635       0.00000000 </v>
     <v>      -0.05767013       0.09920635       0.00000000 </v>
     <v>       0.00000000       0.00000000       0.03333333 </v>
    </varray>
   </crystal>
   <varray name="positions" >
    <v>       0.00000000       0.00000000       0.00000000 </v>
    <v>       0.66666669       0.66666669       0.00000000 </v>
    <v>       0.66666669       0.00000000       0.00000000 </v>
    <v>       0.66666669       0.33333334       0.00000000 </v>
    <v>       0.33333334       0.00000000       0.00000000 </v>
    <v>       1.00000000       0.33333334       0.00000000 </v>
    <v>       0.00000000       0.66666669       0.00000000 </v>
    <v>       0.33333334       0.33333334       0.00000000 </v>
    <v>       0.33333334       0.66666669       0.00000000 </v>
    <v>       0.11068511       0.22244981       0.95539999 </v>
    <v>       0.22244981       0.11068511       0.04460000 </v>
    <v>       0.11068511       0.55578315       0.95539999 </v>
    <v>       0.22244981       0.44401845       0.04460000 </v>
    <v>       0.11068511       0.88911647       0.95539999 </v>
    <v>       0.22244981       0.77735180       0.04460000 </v>
    <v>       0.44401845       0.22244981       0.95539999 </v>
    <v>       0.55578315       0.11068511       0.04460000 </v>
    <v>       0.44401845       0.55578315       0.95539999 </v>
    <v>       0.55578315       0.44401845       0.04460000 </v>
    <v>       0.44401845       0.88911647       0.95539999 </v>
    <v>       0.55578315       0.77735180       0.04460000 </v>
    <v>       0.77735180       0.22244981       0.95539999 </v>
    <v>       0.88911647       0.11068511       0.04460000 </v>
    <v>       0.77735180       0.55578315       0.95539999 </v>
    <v>       0.88911647       0.44401845       0.04460000 </v>
    <v>       0.77735180       0.88911647       0.95539999 </v>
    <v>       0.88911647       0.77735180       0.04460000 </v>
   </varray>
  </structure>
  <varray name="forces" >
   <v>      -0.11194334       0.09247410      -0.03929100 </v>
   <v>       0.10859419       0.01994962      -0.03140332 </v>
   <v>      -0.23836537       0.24661387      -0.02118744 </v>
   <v>       0.27925345      -0.15512542       0.11624203 </v>
   <v>       0.01666901       0.26797687       0.09381735 </v>
   <v>      -0.24961377      -0.16708248      -0.06322551 </v>
   <v>       0.16525161      -0.16576791      -0.12340166 </v>
   <v>       0.31521683      -0.18680576       0.14506291 </v>
   <v>      -0.23949288      -0.03487154      -0.07575326 </v>
   <v>       0.58804156      -0.54854816      -2.14353055 </v>
   <v>      -0.61581438      -0.51949577       2.18573886 </v>
   <v>       0.04797867       0.13918169      -2.98749437 </v>
   <v>      -0.02403223       0.13566273       2.84951071 </v>
   <v>      -0.65348707      -0.16371414      -2.06692241 </v>
   <v>      -0.07971605      -0.09387708       2.90645390 </v>
   <v>      -0.04322766       0.01433708      -2.89086144 </v>
   <v>       0.72946245       0.00748120       2.14983180 </v>
   <v>       0.43741809       0.57337894      -2.15005781 </v>
   <v>      -0.61040719       0.52756388       2.15035546 </v>
   <v>       0.63126800       0.53646835      -2.14435695 </v>
   <v>       0.24265141       0.52260666       1.39804903 </v>
   <v>       0.54531351      -0.68561672      -2.17151771 </v>
   <v>       0.32459493      -0.67361665       1.41488972 </v>
   <v>      -0.65524895       0.18027597      -2.08742231 </v>
   <v>      -0.22837004       0.12467816       2.89103023 </v>
   <v>       0.07658302       0.00262434      -0.76203110 </v>
   <v>      -0.75857781       0.00324817       1.45747486 </v>
  </varray>
  <varray name="stress" >
   <v>       7.42307866      -0.04166809      -1.62808434 </v>
   <v>      -0.04166799       4.32774639      -0.01157067 </v>
   <v>      -1.62808432      -0.01157066      30.32057521 </v>
  </varray>
  <energy>
   <i name="e_fr_energy">   -186.84407928 </i>
   <i name="e_wo_entrp">   -186.67307885 </i>
   <i name="e_0_energy">     -0.34200086 </i>
  </energy>
  <time name="totalsc">  804.99  807.14</time>
 </calculation>
 <calculation>
  <scstep>
   <time name="dav">   22.07   22.12</time>
   <time name="total">   22.61   22.67</time>
   <energy>
    <i name="alphaZ">     78.92239770 </i>
    <i name="ewald">  39379.58034253 </i>
    <i name="hartreedc"> -45336.88419357 </i>
    <i name="XCdc">   -239.06866467 </i>
    <i name="pawpsdc">   4192.06240414 </i>
    <i name="pawaedc">  -3610.06286857 </i>
    <i name="eentropy">     -0.27854534 </i>
    <i name="bandstr">  -1413.21355177 </i>
    <i name="atom">   6761.44252427 </i>
    <i name="e_fr_energy">   -187.50015526 </i>
    <i name="e_wo_entrp">   -187.22160992 </i>
    <i name="e_0_energy">   -187.36088259 </i>
   </energy>
  </scstep>
  <scstep>
   <time name="dav">   30.78   30.85</time>
   <time name="total">   31.31   31.40</time>
   <energy>
    <i name="e_fr_energy">   -189.39188301 </i>
    <i name="e_wo_entrp">   -189.06387673 </i>
    <i name="e_0_energy">   -189.22787987 </i>
   </energy>
  </scstep>
  <scstep>
   <time name="dav">   31.01   31.09</time>
   <time name="total">   31.55   31.64</time>
   <energy>
    <i name="e_fr_energy">   -189.36763689 </i>
    <i name="e_wo_entrp">   -189.10990703 </i>
    <i name="e_0_energy">   -189.23877196 </i>
   </energy>
  </scstep>
  <scstep>
   <time name="dav">   31.21   31.28</time>
   <time name="total">   31.75   31.83</time>
   <energy>
    <i name="e_fr_energy">   -188.77729858 </i>
    <i name="e_wo_entrp">   -188.49746360 </i>
    <i name="e_0_energy">   -188.63738109 </i>
   </energy>
  </scstep>
  <scstep>
   <time name="dav">   28.26   28.33</time>
   <time name="total">   28.80   28.87</time>
   <energy>
    <i name="e_fr_energy">   -188.85538527 </i>
    <i name="e_wo_entrp">   -188.56725656 </i>
    <i name="e_0_energy">   -188.71132091 </i>
   </energy>
  </scstep>
  <scstep>
   <time name="dav">   30.50   30.57</time>
   <time name="total">   31.04   31.12</time>
   <energy>
    <i name="e_fr_energy">   -188.72131104 </i>
    <i name="e_wo_entrp">   -188.44079629 </i>
    <i name="e_0_energy">   -188.58105367 </i>
   </energy>
  </scstep>
  <scstep>
   <time name="dav">   27.71   27.78</time>
   <time name="total">   28.25   28.33</time>
   <energy>
    <i name="e_fr_energy">   -188.68463629 </i>
    <i name="e_wo_entrp">   -188.40341917 </i>
    <i name="e_0_energy">   -188.54402773 </i>
   </energy>
  </scstep>
  <scstep>
   <time name="dav">   32.97   33.05</time>
   <time name="total">   33.51   33.60</time>
   <energy>
    <i name="e_fr_energy">   -188.67559650 </i>
    <i name="e_wo_entrp">   -188.39472190 </i>
    <i name="e_0_energy">   -188.53515920 </i>
   </energy>
  </scstep>
  <scstep>
   <time name="dav">   29.57   29.64</time>
   <time name="total">   30.12   30.20</time>
   <energy>
    <i name="e_fr_energy">   -188.65951368 </i>
    <i name="e_wo_entrp">   -188.37949790 </i>
    <i name="e_0_energy">   -188.51950579 </i>
   </energy>
  </scstep>
  <scstep>
   <time name="dav">   29.31   29.38</time>
   <time name="total">   29.85   29.93</time>
   <energy>
    <i name="e_fr_energy">   -188.65646240 </i>
    <i name="e_wo_entrp">   -188.37770515 </i>
    <i name="e_0_energy">   -188.51708378 </i>
   </energy>
  </scstep>
  <scstep>
   <time name="dav">   32.63   32.71</time>
   <time name="total">   33.17   33.26</time>
   <energy>
    <i name="e_fr_energy">   -188.65570681 </i>
    <i name="e_wo_entrp">   -188.37799766 </i>
    <i name="e_0_energy">   -188.51685224 </i>
   </energy>
  </scstep>
  <scstep>
   <time name="dav">   30.39   30.46</time>
   <time name="total">   30.93   31.01</time>
   <energy>
    <i name="e_fr_energy">   -188.65562201 </i>
    <i name="e_wo_entrp">   -188.37806267 </i>
    <i name="e_0_energy">   -188.51684234 </i>
   </energy>
  </scstep>
  <scstep>
   <time name="dav">   22.45   22.50</time>
   <time name="total">   22.49   22.55</time>
   <energy>
    <i name="alphaZ">     78.92239770 </i>
    <i name="ewald">  39379.58034253 </i>
    <i name="hartreedc"> -45347.73527484 </i>
    <i name="XCdc">   -237.98003982 </i>
    <i name="pawpsdc">   3950.32443497 </i>
    <i name="pawaedc">  -3364.82588151 </i>
    <i name="eentropy">     -0.27790874 </i>
    <i name="bandstr">  -1408.10621864 </i>
    <i name="atom">   6761.44252427 </i>
    <i name="e_fr_energy">   -188.65562408 </i>
    <i name="e_wo_entrp">   -188.37771534 </i>
    <i name="e_0_energy">   -188.51666971 </i>
   </energy>
  </scstep>
  <structure>
   <crystal>
    <varray name="basis" >
     <v>       8.85756048       5.10271855       0.00000000 </v>
     <v>      -8.85878840       5.10483136       0.00000000 </v>
     <v>       0.00000000       0.00000000      30.00000000 </v>
    </varray>
    <i name="volume">   2712.60769028 </i>
    <varray name="rec_basis" >
     <v>       0.05645672       0.09797349       0.00000000 </v>
     <v>      -0.05643336       0.09795991       0.00000000 </v>
     <v>       0.00000000       0.00000000       0.03333333 </v>
    </varray>
   </crystal>
   <varray name="positions" >
    <v>       0.00013113       0.00075402      -0.00006318 </v>
    <v>       0.66706429       0.66646004      -0.00005050 </v>
    <v>       0.66718380       0.00184346      -0.00003407 </v>
    <v>       0.66670119       0.33181399       0.00018693 </v>
    <v>       0.33466225       0.00123616       0.00015087 </v>
    <v>       0.99850588       0.33322816      -0.00010167 </v>
    <v>      -0.00033361       0.66541357      -0.00019844 </v>
    <v>       0.33331628       0.33156231       0.00023327 </v>
    <v>       0.33250014       0.66716610      -0.00012182 </v>
    <v>       0.10969580       0.21818844       0.95195300 </v>
    <v>       0.21825022       0.10991211       0.04811486 </v>
    <v>       0.11148471       0.55631579       0.95059583 </v>
    <v>       0.22303223       0.44473459       0.04918226 </v>
    <v>       0.10808347       0.89015104       0.95207620 </v>
    <v>       0.22177873       0.77712429       0.04927383 </v>
    <v>       0.44396680       0.22263869       0.95075123 </v>
    <v>       0.55784844       0.10869143       0.04805712 </v>
    <v>       0.44797960       0.55731036       0.95194251 </v>
    <v>       0.55660981       0.44824161       0.04805796 </v>
    <v>       0.44834227       0.88992770       0.95195167 </v>
    <v>       0.55895943       0.77917789       0.04684819 </v>
    <v>       0.77558760       0.21765131       0.95190800 </v>
    <v>       0.88679563       0.10655812       0.04687527 </v>
    <v>       0.77639159       0.55846896       0.95204323 </v>
    <v>       0.88907781       0.44525052       0.04924903 </v>
    <v>       0.77757742       0.88891596       0.95417458 </v>
    <v>       0.88702153       0.77947783       0.04694375 </v>
   </varray>
  </structure>
  <varray name="forces" >
   <v>      -0.04906019       0.14492740      -0.07872002 </v>
   <v>       0.09673790      -0.02862683      -0.00384001 </v>
   <v>      -0.25124171       0.20235289       0.00621696 </v>
   <v>       0.20231385      -0.18931228       0.02842297 </v>
   <v>      -0.05538634       0.33143405      -0.04117298 </v>
   <v>      -0.42323800       0.13791761       0.03544303 </v>
   <v>       0.47819017      -0.13365315      -0.05909754 </v>
   <v>       0.36404873      -0.15386170       0.03455059 </v>
   <v>      -0.36689138      -0.27823953       0.04754939 </v>
   <v>       0.07092708       0.04984034       0.05892295 </v>
   <v>      -0.07945558       0.04750375       0.09727758 </v>
   <v>      -0.08502773       0.09562254      -0.17738389 </v>
   <v>       0.07026973       0.10830321      -0.11172320 </v>
   <v>       0.02119000      -0.10724806       0.12068669 </v>
   <v>       0.05992154      -0.09524766      -0.01231311 </v>
   <v>      -0.13445480       0.01174048      -0.08291053 </v>
   <v>       0.08106633       0.00791503       0.20453861 </v>
   <v>      -0.06332258      -0.07045165       0.17331868 </v>
   <v>      -0.06715236      -0.05619632      -0.00648048 </v>
   <v>       0.08722252      -0.04325803       0.03164759 </v>
   <v>      -0.05911553      -0.05359330      -0.22812161 </v>
   <v>       0.03704323      -0.08005260      -0.14587356 </v>
   <v>       0.00516447      -0.06642080      -0.07562421 </v>
   <v>       0.03166126       0.10165094       0.03060547 </v>
   <v>      -0.06785322       0.10464749       0.13763871 </v>
   <v>       0.01005244       0.00842254       0.20228878 </v>
   <v>       0.08639014       0.00388365      -0.18584685 </v>
  </varray>
  <varray name="stress" >
   <v>     -19.93322087       0.00664118       0.05020892 </v>
   <v>       0.00664113     -19.48263549       0.03234308 </v>
   <v>       0.05020879       0.03234284      -1.75229378 </v>
  </varray>
  <energy>
   <i name="e_fr_energy">   -188.65562408 </i>
   <i name="e_wo_entrp">   -188.51666971 </i>
   <i name="e_0_energy">     -0.27790874 </i>
  </energy>
  <time name="totalsc">  427.52  428.65</time>
 </calculation>
 <calculation>
  <scstep>
   <time name="dav">   24.19   24.25</time>
   <time name="total">   24.72   24.78</time>
   <energy>
    <i name="alphaZ">     82.36133220 </i>
    <i name="ewald">  41311.29887023 </i>
    <i name="hartreedc"> -47310.09412128 </i>
    <i name="XCdc">   -233.83994986 </i>
    <i name="pawpsdc">   3949.49643707 </i>
    <i name="pawaedc">  -3363.98990136 </i>
    <i name="eentropy">     -0.23206094 </i>
    <i name="bandstr">  -1387.02756018 </i>
    <i name="atom">   6761.44252427 </i>
    <i name="e_fr_energy">   -190.58442984 </i>
    <i name="e_wo_entrp">   -190.35236890 </i>
    <i name="e_0_energy">   -190.46839937 </i>
   </energy>
  </scstep>
  <scstep>
   <time name="dav">   29.15   29.22</time>
   <time name="total">   29.67   29.75</time>
   <energy>
    <i name="e_fr_energy">   -190.52990606 </i>
    <i name="e_wo_entrp">   -190.31313143 </i>
    <i name="e_0_energy">   -190.42151874 </i>
   </energy>
  </scstep>
  <scstep>
   <time name="dav">   30.78   30.86</time>
   <time name="total">   31.31   31.39</time>
   <energy>
    <i name="e_fr_energy">   -190.06583897 </i>
    <i name="e_wo_entrp">   -189.81591225 </i>
    <i name="e_0_energy">   -189.94087561 </i>
   </energy>
  </scstep>
  <scstep>
   <time name="dav">   32.14   32.22</time>
   <time name="total">   32.67   32.76</time>
   <energy>
    <i name="e_fr_energy">   -189.85241815 </i>
    <i name="e_wo_entrp">   -189.63000510 </i>
    <i name="e_0_energy">   -189.74121162 </i>
   </energy>
  </scstep>
  <scstep>
   <time name="dav">   30.53   30.60</time>
   <time name="total">   31.05   31.14</time>
   <energy>
    <i name="e_fr_energy">   -189.81672072 </i>
    <i name="e_wo_entrp">   -189.57585500 </i>
    <i name="e_0_energy">   -189.69628786 </i>
   </energy>
  </scstep>
  <scstep>
   <time name="dav">   31.68   31.75</time>
   <time name="total">   32.20   32.29</time>
   <energy>
    <i name="e_fr_energy">   -189.75110011 </i>
    <i name="e_wo_entrp">   -189.52028427 </i>
    <i name="e_0_energy">   -189.63569219 </i>
   </energy>
  </scstep>
  <scstep>
   <time name="dav">   29.33   29.40</time>
   <time name="total">   29.85   29.93</time>
   <energy>
    <i name="e_fr_energy">   -189.74594846 </i>
    <i name="e_wo_entrp">   -189.51327466 </i>
    <i name="e_0_energy">   -189.62961156 </i>
   </energy>
  </scstep>
  <scstep>
   <time name="dav">   31.48   31.56</time>
   <time name="total">   32.00   32.09</time>
   <energy>
    <i name="e_fr_energy">   -189.74590652 </i>
    <i name="e_wo_entrp">   -189.51358612 </i>
    <i name="e_0_energy">   -189.62974632 </i>
   </energy>
  </scstep>
  <scstep>
   <time name="dav">   29.02   29.09</time>
   <time name="total">   29.55   29.63</time>
   <energy>
    <i name="e_fr_energy">   -189.74499051 </i>
    <i name="e_wo_entrp">   -189.51269338 </i>
    <i name="e_0_energy">   -189.62884195 </i>
   </energy>
  </scstep>
  <scstep>
   <time name="dav">   27.48   27.55</time>
   <time name="total">   28.01   28.09</time>
   <energy>
    <i name="e_fr_energy">   -189.74542233 </i>
    <i name="e_wo_entrp">   -189.51279116 </i>
    <i name="e_0_energy">   -189.62910674 </i>
   </energy>
  </scstep>
  <scstep>
   <time name="dav">   24.54   24.60</time>
   <time name="total">   25.07   25.14</time>
   <energy>
    <i name="e_fr_energy">   -189.74512625 </i>
    <i name="e_wo_entrp">   -189.51255352 </i>
    <i name="e_0_energy">   -189.62883989 </i>
   </energy>
  </scstep>
  <scstep>
   <time name="dav">   20.48   20.53</time>
   <time name="total">   20.52   20.58</time>
   <energy>
    <i name="alphaZ">     82.36133220 </i>
    <i name="ewald">  41311.29887023 </i>
    <i name="hartreedc"> -47283.49890844 </i>
    <i name="XCdc">   -235.23878412 </i>
    <i name="pawpsdc">   4039.06267825 </i>
    <i name="pawaedc">  -3454.76349273 </i>
    <i name="eentropy">     -0.23256483 </i>
    <i name="bandstr">  -1410.17680102 </i>
    <i name="atom">   6761.44252427 </i>
    <i name="e_fr_energy">   -189.74514618 </i>
    <i name="e_wo_entrp">   -189.51258135 </i>
    <i name="e_0_energy">   -189.62886377 </i>
   </energy>
  </scstep>
  <structure>
   <crystal>
    <varray name="basis" >
     <v>       8.66856853       4.99634655       0.00000000 </v>
     <v>      -8.66969767       4.99828932       0.00000000 </v>
     <v>       0.00000000       0.00000000      30.00000000 </v>
    </varray>
    <i name="volume">   2599.34482868 </i>
    <varray name="rec_basis" >
     <v>       0.05768711       0.10006019       0.00000000 </v>
     <v>      -0.05766468       0.10004716       0.00000000 </v>
     <v>       0.00000000       0.00000000       0.03333333 </v>
    </varray>
   </crystal>
   <varray name="positions" >
    <v>       0.00032627       0.00104369      -0.00010798 </v>
    <v>       0.66710965       0.66631895      -0.00005268 </v>
    <v>       0.66728011       0.00242397      -0.00003053 </v>
    <v>       0.66657953       0.33130243       0.00020310 </v>
    <v>       0.33516327       0.00184385       0.00012743 </v>
    <v>       0.99832862       0.33386662      -0.00008150 </v>
    <v>      -0.00009624       0.66472929      -0.00023207 </v>
    <v>       0.33340982       0.33095421       0.00025294 </v>
    <v>       0.33168106       0.66705424      -0.00009476 </v>
    <v>       0.10984753       0.21820346       0.95198654 </v>
    <v>       0.21825309       0.11006812       0.04817022 </v>
    <v>       0.11156271       0.55655764       0.95049488 </v>
    <v>       0.22328112       0.44484803       0.04911868 </v>
    <v>       0.10792450       0.88995125       0.95214488 </v>
    <v>       0.22167717       0.77690725       0.04926683 </v>
    <v>       0.44385684       0.22278788       0.95070404 </v>
    <v>       0.55793982       0.10862656       0.04817352 </v>
    <v>       0.44780071       0.55725354       0.95204115 </v>
    <v>       0.55645108       0.44821233       0.04805427 </v>
    <v>       0.44835398       0.88977131       0.95196969 </v>
    <v>       0.55881280       0.77914521       0.04671836 </v>
    <v>       0.77548940       0.21748173       0.95182498 </v>
    <v>       0.88668950       0.10644205       0.04683223 </v>
    <v>       0.77659214       0.55860846       0.95206065 </v>
    <v>       0.88918746       0.44549092       0.04932736 </v>
    <v>       0.77760120       0.88892036       0.95428970 </v>
    <v>       0.88711130       0.77940108       0.04683798 </v>
   </varray>
  </structure>
  <varray name="forces" >
   <v>      -0.00862310       0.19412343      -0.06834753 </v>
   <v>       0.11009479      -0.07514614       0.00571671 </v>
   <v>      -0.28959548       0.18007219       0.01266967 </v>
   <v>       0.16889105      -0.19870845       0.00100875 </v>
   <v>      -0.08506378       0.34258408      -0.05565816 </v>
   <v>      -0.48032287       0.25095287       0.04092920 </v>
   <v>       0.59165599      -0.13034565      -0.02653902 </v>
   <v>       0.38034945      -0.14209342      -0.00381137 </v>
   <v>      -0.40476875      -0.37902534       0.06176749 </v>
   <v>       0.05578118      -0.07143965      -0.42314496 </v>
   <v>      -0.07218282      -0.10433911       0.62359676 </v>
   <v>      -0.03698909       0.02503769      -0.78989454 </v>
   <v>       0.03900882       0.04234145       0.42858181 </v>
   <v>      -0.08611937      -0.04066364      -0.36014137 </v>
   <v>       0.00002295      -0.02922539       0.54420665 </v>
   <v>      -0.05205471       0.02489269      -0.64341754 </v>
   <v>       0.16737268       0.00807953       0.72010513 </v>
   <v>       0.00940648       0.04115312      -0.31553996 </v>
   <v>      -0.05665344       0.08049100       0.49935666 </v>
   <v>       0.08993394       0.09346568      -0.46730274 </v>
   <v>       0.01212802       0.07988507       0.21360644 </v>
   <v>       0.07568807      -0.14199789      -0.64563986 </v>
   <v>       0.03915948      -0.12346941       0.36481635 </v>
   <v>      -0.07153200       0.02000706      -0.46431321 </v>
   <v>      -0.04247814       0.03528020       0.69998729 </v>
   <v>       0.00207393       0.00784715      -0.21074094 </v>
   <v>      -0.05518330       0.01024090       0.25814227 </v>
  </varray>
  <varray name="stress" >
   <v>     -10.16938898       0.00904358       0.04465694 </v>
   <v>       0.00904359      -9.79504333       0.03696309 </v>
   <v>       0.04465701       0.03696307       6.51250282 </v>
  </varray>
  <energy>
   <i name="e_fr_energy">   -189.74514618 </i>
   <i name="e_wo_entrp">   -189.62886377 </i>
   <i name="e_0_energy">     -0.23256483 </i>
  </energy>
  <time name="totalsc">  388.86  389.89</time>
 </calculation>
 <calculation>
  <scstep>
   <time name="dav">   22.00   22.05</time>
   <time name="total">   22.52   22.58</time>
   <energy>
    <i name="alphaZ">     85.84212541 </i>
    <i name="ewald">  42842.86759432 </i>
    <i name="hartreedc"> -48859.65574523 </i>
    <i name="XCdc">   -232.95540235 </i>
    <i name="pawpsdc">   4038.97094674 </i>
    <i name="pawaedc">  -3454.66702300 </i>
    <i name="eentropy">     -0.19022799 </i>
    <i name="bandstr">  -1372.97006058 </i>
    <i name="atom">   6761.44252427 </i>
    <i name="e_fr_energy">   -191.31526841 </i>
    <i name="e_wo_entrp">   -191.12504042 </i>
    <i name="e_0_energy">   -191.22015441 </i>
   </energy>
  </scstep>
  <scstep>
   <time name="dav">   33.25   33.33</time>
   <time name="total">   33.76   33.85</time>
   <energy>
    <i name="e_fr_energy">   -191.11629232 </i>
    <i name="e_wo_entrp">   -190.92757123 </i>
    <i name="e_0_energy">   -191.02193178 </i>
   </energy>
  </scstep>
  <scstep>
   <time name="dav">   30.66   30.73</time>
   <time name="total">   31.16   31.25</time>
   <energy>
    <i name="e_fr_energy">   -191.31744318 </i>
    <i name="e_wo_entrp">   -191.10260383 </i>
    <i name="e_0_energy">   -191.21002350 </i>
   </energy>
  </scstep>
  <scstep>
   <time name="dav">   30.04   30.11</time>
   <time name="total">   30.55   30.63</time>
   <energy>
    <i name="e_fr_energy">   -190.90359089 </i>
    <i name="e_wo_entrp">   -190.70581022 </i>
    <i name="e_0_energy">   -190.80470056 </i>
   </energy>
  </scstep>
  <scstep>
   <time name="dav">   27.88   27.95</time>
   <time name="total">   28.39   28.47</time>
   <energy>
    <i name="e_fr_energy">   -190.90870937 </i>
    <i name="e_wo_entrp">   -190.72532410 </i>
    <i name="e_0_energy">   -190.81701674 </i>
   </energy>
  </scstep>
  <scstep>
   <time name="dav">   29.55   29.62</time>
   <time name="total">   30.06   30.14</time>
   <energy>
    <i name="e_fr_energy">   -190.73422304 </i>
    <i name="e_wo_entrp">   -190.53908203 </i>
    <i name="e_0_energy">   -190.63665253 </i>
   </energy>
  </scstep>
  <scstep>
   <time name="dav">   30.66   30.74</time>
   <time name="total">   31.18   31.26</time>
   <energy>
    <i name="e_fr_energy">   -190.73589127 </i>
    <i name="e_wo_entrp">   -190.54113723 </i>
    <i name="e_0_energy">   -190.63851425 </i>
   </energy>
  </scstep>
  <scstep>
   <time name="dav">   29.34   29.41</time>
   <time name="total">   29.86   29.94</time>
   <energy>
    <i name="e_fr_energy">   -190.73324219 </i>
    <i name="e_wo_entrp">   -190.53867929 </i>
    <i name="e_0_energy">   -190.63596074 </i>
   </energy>
  </scstep>
  <scstep>
   <time name="dav">   29.11   29.18</time>
   <time name="total">   29.63   29.71</time>
   <energy>
    <i name="e_fr_energy">   -190.73038922 </i>
    <i name="e_wo_entrp">   -190.53566754 </i>
    <i name="e_0_energy">   -190.63302838 </i>
   </energy>
  </scstep>
  <scstep>
   <time name="dav">   26.50   26.56</time>
   <time name="total">   27.01   27.08</time>
   <energy>
    <i name="e_fr_energy">   -190.73069999 </i>
    <i name="e_wo_entrp">   -190.53586158 </i>
    <i name="e_0_energy">   -190.63328079 </i>
   </energy>
  </scstep>
  <scstep>
   <time name="dav">   26.04   26.11</time>
   <time name="total">   26.56   26.63</time>
   <energy>
    <i name="e_fr_energy">   -190.73053152 </i>
    <i name="e_wo_entrp">   -190.53566376 </i>
    <i name="e_0_energy">   -190.63309764 </i>
   </energy>
  </scstep>
  <scstep>
   <time name="dav">   20.03   20.07</time>
   <time name="total">   20.06   20.12</time>
   <energy>
    <i name="alphaZ">     85.84212541 </i>
    <i name="ewald">  42842.86759432 </i>
    <i name="hartreedc"> -48830.95798463 </i>
    <i name="XCdc">   -234.29201167 </i>
    <i name="pawpsdc">   4063.60826179 </i>
    <i name="pawaedc">  -3479.47695046 </i>
    <i name="eentropy">     -0.19491892 </i>
    <i name="bandstr">  -1399.56917357 </i>
    <i name="atom">   6761.44252427 </i>
    <i name="e_fr_energy">   -190.73053346 </i>
    <i name="e_wo_entrp">   -190.53561455 </i>
    <i name="e_0_energy">   -190.63307401 </i>
   </energy>
  </scstep>
  <structure>
   <crystal>
    <varray name="basis" >
     <v>       8.48589613       4.89736557       0.00000000 </v>
     <v>      -8.48663665       4.89863688       0.00000000 </v>
     <v>       0.00000000       0.00000000      30.00000000 </v>
    </varray>
    <i name="volume">   2493.94457468 </i>
    <varray name="rec_basis" >
     <v>       0.05892637       0.10208691       0.00000000 </v>
     <v>      -0.05891108       0.10207800       0.00000000 </v>
     <v>       0.00000000       0.00000000       0.03333333 </v>
    </varray>
   </crystal>
   <varray name="positions" >
    <v>       0.00169133       0.00235539      -0.00024072 </v>
    <v>       0.66694034       0.66531604      -0.00003279 </v>
    <v>       0.66725208       0.00459791       0.00000114 </v>
    <v>       0.66587355       0.32947170       0.00018207 </v>
    <v>       0.33698800       0.00436773       0.00000000 </v>
    <v>       0.99836423       0.33753577       0.00000785 </v>
    <v>       0.00139520       0.66162155      -0.00025955 </v>
    <v>       0.33394625       0.32869585       0.00021269 </v>
    <v>       0.32753922       0.66594571       0.00004510 </v>
    <v>       0.10927915       0.21727537       0.95070404 </v>
    <v>       0.21697239       0.10928835       0.04990498 </v>
    <v>       0.11147960       0.55660461       0.94834319 </v>
    <v>       0.22347927       0.44485358       0.05046154 </v>
    <v>       0.10737024       0.89032578       0.95099385 </v>
    <v>       0.22157220       0.77697320       0.05086271 </v>
    <v>       0.44397503       0.22304683       0.94889942 </v>
    <v>       0.55871896       0.10794978       0.05009899 </v>
    <v>       0.44847313       0.55765019       0.95097567 </v>
    <v>       0.55710459       0.44924511       0.04951457 </v>
    <v>       0.44960748       0.89036709       0.95058155 </v>
    <v>       0.55978988       0.77983105       0.04753307 </v>
    <v>       0.77477470       0.21610988       0.95006698 </v>
    <v>       0.88596441       0.10533702       0.04795887 </v>
    <v>       0.77610925       0.55893720       0.95068210 </v>
    <v>       0.88911934       0.44565727       0.05125064 </v>
    <v>       0.77764505       0.88897200       0.95350512 </v>
    <v>       0.88678960       0.77988249       0.04774679 </v>
   </varray>
  </structure>
  <varray name="forces" >
   <v>       0.01670018       0.18153043      -0.01985622 </v>
   <v>       0.10310556      -0.05677618       0.02150810 </v>
   <v>      -0.24887720       0.14186795       0.02263463 </v>
   <v>       0.08271721      -0.22983396      -0.02858193 </v>
   <v>      -0.15436731       0.40684519      -0.02480274 </v>
   <v>      -0.55614562       0.37848155       0.01907945 </v>
   <v>       0.67357976      -0.16603889       0.02871442 </v>
   <v>       0.49168697      -0.10855745      -0.03104907 </v>
   <v>      -0.42952911      -0.48248996       0.03199491 </v>
   <v>      -0.03627070      -0.01240561      -0.22768058 </v>
   <v>      -0.00082717      -0.05478658       0.46107402 </v>
   <v>       0.01213931      -0.02448268      -0.72318657 </v>
   <v>       0.03044003      -0.02267871       0.25362885 </v>
   <v>       0.02057564      -0.02241196      -0.18796408 </v>
   <v>      -0.08574640       0.03265344       0.35846886 </v>
   <v>       0.03394061       0.03795211      -0.50089255 </v>
   <v>       0.06401686       0.00979706       0.53387380 </v>
   <v>      -0.01645861      -0.02055654      -0.14131456 </v>
   <v>       0.02503007       0.00945396       0.36976763 </v>
   <v>       0.03116995       0.03560210      -0.27044723 </v>
   <v>      -0.05029156       0.00533181       0.09557761 </v>
   <v>       0.03593606      -0.02922795      -0.43646370 </v>
   <v>      -0.04203227       0.00776001       0.23896373 </v>
   <v>       0.03955468      -0.00556193      -0.28527378 </v>
   <v>      -0.05506408      -0.04093314       0.52267304 </v>
   <v>      -0.01987293       0.01551613      -0.21832503 </v>
   <v>       0.03489006       0.01394980       0.13787899 </v>
  </varray>
  <varray name="stress" >
   <v>      -5.67845046      -0.05464749      -0.17910195 </v>
   <v>      -0.05464769      -5.90427096      -0.01720665 </v>
   <v>      -0.17910198      -0.01720674       4.55034430 </v>
  </varray>
  <energy>
   <i name="e_fr_energy">   -190.73053346 </i>
   <i name="e_wo_entrp">   -190.63307401 </i>
   <i name="e_0_energy">     -0.19491892 </i>
  </energy>
  <time name="totalsc">  382.90  383.91</time>
 </calculation>
 <calculation>
  <scstep>
   <time name="dav">   22.03   22.08</time>
   <time name="total">   22.53   22.59</time>
   <energy>
    <i name="alphaZ">     90.21462862 </i>
    <i name="ewald">  44694.43636795 </i>
    <i name="hartreedc"> -50737.48019284 </i>
    <i name="XCdc">   -231.78177484 </i>
    <i name="pawpsdc">   4063.55520040 </i>
    <i name="pawaedc">  -3479.42050264 </i>
    <i name="eentropy">     -0.17707836 </i>
    <i name="bandstr">  -1352.95423530 </i>
    <i name="atom">   6761.44252427 </i>
    <i name="e_fr_energy">   -192.16506275 </i>
    <i name="e_wo_entrp">   -191.98798439 </i>
    <i name="e_0_energy">   -192.07652357 </i>
   </energy>
  </scstep>
  <scstep>
   <time name="dav">   27.87   27.94</time>
   <time name="total">   28.37   28.44</time>
   <energy>
    <i name="e_fr_energy">   -191.87163244 </i>
    <i name="e_wo_entrp">   -191.67914755 </i>
    <i name="e_0_energy">   -191.77538999 </i>
   </energy>
  </scstep>
  <scstep>
   <time name="dav">   30.58   30.65</time>
   <time name="total">   31.08   31.16</time>
   <energy>
    <i name="e_fr_energy">   -192.33424030 </i>
    <i name="e_wo_entrp">   -192.15013045 </i>
    <i name="e_0_energy">   -192.24218537 </i>
   </energy>
  </scstep>
  <scstep>
   <time name="dav">   29.32   29.39</time>
   <time name="total">   29.82   29.90</time>
   <energy>
    <i name="e_fr_energy">   -191.66812784 </i>
    <i name="e_wo_entrp">   -191.48736847 </i>
    <i name="e_0_energy">   -191.57774815 </i>
   </energy>
  </scstep>
  <scstep>
   <time name="dav">   30.50   30.58</time>
   <time name="total">   31.01   31.09</time>
   <energy>
    <i name="e_fr_energy">   -191.61702671 </i>
    <i name="e_wo_entrp">   -191.42100709 </i>
    <i name="e_0_energy">   -191.51901690 </i>
   </energy>
  </scstep>
  <scstep>
   <time name="dav">   30.74   30.82</time>
   <time name="total">   31.25   31.33</time>
   <energy>
    <i name="e_fr_energy">   -191.46747690 </i>
    <i name="e_wo_entrp">   -191.28240690 </i>
    <i name="e_0_energy">   -191.37494190 </i>
   </energy>
  </scstep>
  <scstep>
   <time name="dav">   31.20   31.27</time>
   <time name="total">   31.70   31.79</time>
   <energy>
    <i name="e_fr_energy">   -191.45735188 </i>
    <i name="e_wo_entrp">   -191.27472321 </i>
    <i name="e_0_energy">   -191.36603755 </i>
   </energy>
  </scstep>
  <scstep>
   <time name="dav">   30.59   30.67</time>
   <time name="total">   31.10   31.18</time>
   <energy>
    <i name="e_fr_energy">   -191.44148052 </i>
    <i name="e_wo_entrp">   -191.25495522 </i>
    <i name="e_0_energy">   -191.34821787 </i>
   </energy>
  </scstep>
  <scstep>
   <time name="dav">   28.64   28.71</time>
   <time name="total">   29.14   29.22</time>
   <energy>
    <i name="e_fr_energy">   -191.43881687 </i>
    <i name="e_wo_entrp">   -191.25326179 </i>
    <i name="e_0_energy">   -191.34603933 </i>
   </energy>
  </scstep>
  <scstep>
   <time name="dav">   29.16   29.23</time>
   <time name="total">   29.67   29.75</time>
   <energy>
    <i name="e_fr_energy">   -191.43896326 </i>
    <i name="e_wo_entrp">   -191.25290937 </i>
    <i name="e_0_energy">   -191.34593631 </i>
   </energy>
  </scstep>
  <scstep>
   <time name="dav">   26.20   26.26</time>
   <time name="total">   26.23   26.31</time>
   <energy>
    <i name="alphaZ">     90.21462862 </i>
    <i name="ewald">  44694.43636795 </i>
    <i name="hartreedc"> -50703.40592266 </i>
    <i name="XCdc">   -233.29726658 </i>
    <i name="pawpsdc">   4088.10030247 </i>
    <i name="pawaedc">  -3504.09195673 </i>
    <i name="eentropy">     -0.18606385 </i>
    <i name="bandstr">  -1384.65150555 </i>
    <i name="atom">   6761.44252427 </i>
    <i name="e_fr_energy">   -191.43889206 </i>
    <i name="e_wo_entrp">   -191.25282821 </i>
    <i name="e_0_energy">   -191.34586014 </i>
   </energy>
  </scstep>
  <structure>
   <crystal>
    <varray name="basis" >
     <v>       8.28123187       4.77164367       0.00000000 </v>
     <v>      -8.28500913       4.77817505       0.00000000 </v>
     <v>       0.00000000       0.00000000      30.00000000 </v>
    </varray>
    <i name="volume">   2373.06860552 </i>
    <varray name="rec_basis" >
     <v>       0.06040502       0.10473792       0.00000000 </v>
     <v>      -0.06032245       0.10469017       0.00000000 </v>
     <v>       0.00000000       0.00000000       0.03333333 </v>
    </varray>
   </crystal>
   <varray name="positions" >
    <v>       0.00420322       0.00455111      -0.00033436 </v>
    <v>       0.66684172       0.66372176       0.00005283 </v>
    <v>       0.66713041       0.00815084       0.00009128 </v>
    <v>       0.66372185       0.32611155       0.00005878 </v>
    <v>       0.34077588       0.01027640      -0.00012757 </v>
    <v>       0.99914754       0.34612594       0.00009963 </v>
    <v>       0.00426292       0.65487236      -0.00014421 </v>
    <v>       0.33596666       0.32400689       0.00006805 </v>
    <v>       0.31855172       0.66303185       0.00020020 </v>
    <v>       0.10850304       0.21688223       0.94924684 </v>
    <v>       0.21574420       0.10818199       0.05230688 </v>
    <v>       0.11118269       0.55607557       0.94487629 </v>
    <v>       0.22329638       0.44433027       0.05206568 </v>
    <v>       0.10712656       0.89033993       0.94970648 </v>
    <v>       0.22143641       0.77806690       0.05290104 </v>
    <v>       0.44473884       0.22323242       0.94631852 </v>
    <v>       0.55951782       0.10738350       0.05278991 </v>
    <v>       0.44866270       0.55778702       0.94986344 </v>
    <v>       0.55783124       0.44974129       0.05152002 </v>
    <v>       0.45079099       0.89099655       0.94893904 </v>
    <v>       0.56017015       0.78056732       0.04839101 </v>
    <v>       0.77441547       0.21505015       0.94776302 </v>
    <v>       0.88552326       0.10522142       0.04938473 </v>
    <v>       0.77586146       0.55867724       0.94899426 </v>
    <v>       0.88822217       0.44542378       0.05393724 </v>
    <v>       0.77768764       0.88927667       0.95225612 </v>
    <v>       0.88690150       0.78013150       0.04877475 </v>
   </varray>
  </structure>
  <varray name="forces" >
   <v>       0.00299575       0.05393322      -0.03522208 </v>
   <v>       0.08215331       0.06606467      -0.01971249 </v>
   <v>      -0.08790497       0.11471108      -0.00105274 </v>
   <v>      -0.10652463      -0.19893507      -0.00327675 </v>
   <v>      -0.17747275       0.34585010       0.03969185 </v>
   <v>      -0.33568952       0.24403236      -0.01792043 </v>
   <v>       0.32521710      -0.16535471       0.04433750 </v>
   <v>       0.52551788       0.02441488      -0.02824177 </v>
   <v>      -0.26241572      -0.37539031      -0.04668129 </v>
   <v>      -0.12971711       0.10181902       0.12448733 </v>
   <v>       0.07582676       0.03888972       0.16029831 </v>
   <v>       0.02008058      -0.04442006      -0.46436868 </v>
   <v>       0.07410776      -0.08160683      -0.06393623 </v>
   <v>       0.17571871      -0.04658603       0.14423291 </v>
   <v>      -0.15160744       0.08523770       0.08243020 </v>
   <v>       0.09671290       0.05186695      -0.33201960 </v>
   <v>      -0.04666962       0.00611102       0.16651131 </v>
   <v>      -0.06657980      -0.11831703       0.14381648 </v>
   <v>       0.08730181      -0.09049816       0.11320163 </v>
   <v>      -0.04820399      -0.07501791       0.06393500 </v>
   <v>      -0.14843698      -0.16563173      -0.12585242 </v>
   <v>      -0.01680644       0.10342116      -0.07057382 </v>
   <v>      -0.13268048       0.19316818      -0.02573562 </v>
   <v>       0.14945299       0.02009784       0.00489102 </v>
   <v>      -0.08481397      -0.13268259       0.22978559 </v>
   <v>      -0.02999465       0.02660301      -0.02140867 </v>
   <v>       0.21043250       0.01821954      -0.06161653 </v>
  </varray>
  <varray name="stress" >
   <v>       0.39365994      -0.17503175      -0.29261076 </v>
   <v>      -0.17503179       0.11749387      -0.16590676 </v>
   <v>      -0.29261077      -0.16590669      -0.05688548 </v>
  </varray>
  <energy>
   <i name="e_fr_energy">   -191.43889206 </i>
   <i name="e_wo_entrp">   -191.34586014 </i>
   <i name="e_0_energy">     -0.18606385 </i>
  </energy>
  <time name="totalsc">  363.89  364.85</time>
 </calculation>
 <calculation>
  <scstep>
   <time name="dav">   22.03   22.08</time>
   <time name="total">   22.53   22.58</time>
   <energy>
    <i name="alphaZ">     90.03531828 </i>
    <i name="ewald">  44588.03773112 </i>
    <i name="hartreedc"> -50595.99662464 </i>
    <i name="XCdc">   -233.52715542 </i>
    <i name="pawpsdc">   4088.55387313 </i>
    <i name="pawaedc">  -3504.54398585 </i>
    <i name="eentropy">     -0.18769734 </i>
    <i name="bandstr">  -1385.32774740 </i>
    <i name="atom">   6761.44252427 </i>
    <i name="e_fr_energy">   -191.51376384 </i>
    <i name="e_wo_entrp">   -191.32606650 </i>
    <i name="e_0_energy">   -191.41991517 </i>
   </energy>
  </scstep>
  <scstep>
   <time name="dav">   33.26   33.34</time>
   <time name="total">   33.77   33.85</time>
   <energy>
    <i name="e_fr_energy">   -191.59061635 </i>
    <i name="e_wo_entrp">   -191.39120170 </i>
    <i name="e_0_energy">   -191.49090903 </i>
   </energy>
  </scstep>
  <scstep>
   <time name="dav">   31.35   31.43</time>
   <time name="total">   31.86   31.94</time>
   <energy>
    <i name="e_fr_energy">   -191.52306790 </i>
    <i name="e_wo_entrp">   -191.33429103 </i>
    <i name="e_0_energy">   -191.42867947 </i>
   </energy>
  </scstep>
  <scstep>
   <time name="dav">   29.01   29.08</time>
   <time name="total">   29.51   29.59</time>
   <energy>
    <i name="e_fr_energy">   -191.52606491 </i>
    <i name="e_wo_entrp">   -191.33511045 </i>
    <i name="e_0_energy">   -191.43058768 </i>
   </energy>
  </scstep>
  <scstep>
   <time name="dav">   28.85   28.92</time>
   <time name="total">   29.35   29.43</time>
   <energy>
    <i name="e_fr_energy">   -191.52146367 </i>
    <i name="e_wo_entrp">   -191.33156705 </i>
    <i name="e_0_energy">   -191.42651536 </i>
   </energy>
  </scstep>
  <scstep>
   <time name="dav">   28.79   28.86</time>
   <time name="total">   29.30   29.38</time>
   <energy>
    <i name="e_fr_energy">   -191.52199020 </i>
    <i name="e_wo_entrp">   -191.33205159 </i>
    <i name="e_0_energy">   -191.42702090 </i>
   </energy>
  </scstep>
  <scstep>
   <time name="dav">   28.68   28.75</time>
   <time name="total">   29.18   29.26</time>
   <energy>
    <i name="e_fr_energy">   -191.52147818 </i>
    <i name="e_wo_entrp">   -191.33172002 </i>
    <i name="e_0_energy">   -191.42659910 </i>
   </energy>
  </scstep>
  <scstep>
   <time name="dav">   25.49   25.55</time>
   <time name="total">   25.99   26.07</time>
   <energy>
    <i name="e_fr_energy">   -191.52095301 </i>
    <i name="e_wo_entrp">   -191.33124994 </i>
    <i name="e_0_energy">   -191.42610147 </i>
   </energy>
  </scstep>
  <scstep>
   <time name="dav">   19.15   19.19</time>
   <time name="total">   19.18   19.24</time>
   <energy>
    <i name="alphaZ">     90.03531828 </i>
    <i name="ewald">  44588.03773112 </i>
    <i name="hartreedc"> -50598.64726226 </i>
    <i name="XCdc">   -233.43101084 </i>
    <i name="pawpsdc">   4084.43837138 </i>
    <i name="pawaedc">  -3500.36852703 </i>
    <i name="eentropy">     -0.18974269 </i>
    <i name="bandstr">  -1382.83836001 </i>
    <i name="atom">   6761.44252427 </i>
    <i name="e_fr_energy">   -191.52095777 </i>
    <i name="e_wo_entrp">   -191.33121508 </i>
    <i name="e_0_energy">   -191.42608643 </i>
   </energy>
  </scstep>
  <structure>
   <crystal>
    <varray name="basis" >
     <v>       8.29019258       4.77114901       0.00000000 </v>
     <v>      -8.29815753       4.78494039       0.00000000 </v>
     <v>       0.00000000       0.00000000      30.00000000 </v>
    </varray>
    <i name="volume">   2377.79470348 </i>
    <varray name="rec_basis" >
     <v>       0.06037031       0.10469563       0.00000000 </v>
     <v>      -0.06019631       0.10459514       0.00000000 </v>
     <v>       0.00000000       0.00000000       0.03333333 </v>
    </varray>
   </crystal>
   <varray name="positions" >
    <v>       0.00441028       0.00475016      -0.00038626 </v>
    <v>       0.66739646       0.66385349       0.00002036 </v>
    <v>       0.66744543       0.00886652       0.00008750 </v>
    <v>       0.66250924       0.32552452       0.00005682 </v>
    <v>       0.34186787       0.01231003      -0.00006279 </v>
    <v>       0.99937211       0.34804063       0.00006952 </v>
    <v>       0.00429969       0.65332315      -0.00007854 </v>
    <v>       0.33750877       0.32276768       0.00002825 </v>
    <v>       0.31621284       0.66201542       0.00012399 </v>
    <v>       0.10865855       0.21775567       0.94948273 </v>
    <v>       0.21618325       0.10819233       0.05248779 </v>
    <v>       0.11103185       0.55581910       0.94425178 </v>
    <v>       0.22311418       0.44374063       0.05191905 </v>
    <v>       0.10739983       0.88961587       0.94996859 </v>
    <v>       0.22142787       0.77887605       0.05296971 </v>
    <v>       0.44524171       0.22320990       0.94587714 </v>
    <v>       0.55939413       0.10756083       0.05297353 </v>
    <v>       0.44788904       0.55739173       0.95012090 </v>
    <v>       0.55761211       0.44903779       0.05163824 </v>
    <v>       0.45025543       0.89074577       0.94908611 </v>
    <v>       0.55893163       0.78015624       0.04816852 </v>
    <v>       0.77488281       0.21563111       0.94771827 </v>
    <v>       0.88610347       0.10653952       0.04930327 </v>
    <v>       0.77639035       0.55836199       0.94905106 </v>
    <v>       0.88736295       0.44502499       0.05421798 </v>
    <v>       0.77773186       0.88948255       0.95225905 </v>
    <v>       0.88758077       0.77962079       0.04864733 </v>
   </varray>
  </structure>
  <varray name="forces" >
   <v>      -0.01482821       0.02979739      -0.04448550 </v>
   <v>       0.09636603       0.10625334       0.00243889 </v>
   <v>      -0.06325166       0.14461924       0.01359208 </v>
   <v>      -0.10873314      -0.21566182      -0.00549599 </v>
   <v>      -0.17143798       0.36989894       0.01235303 </v>
   <v>      -0.38572201       0.20120335      -0.00276185 </v>
   <v>       0.36429559      -0.18039426       0.02685722 </v>
   <v>       0.54504234       0.03478248      -0.03024144 </v>
   <v>      -0.30429850      -0.36221083       0.00447302 </v>
   <v>      -0.07410375       0.08886366       0.15693577 </v>
   <v>       0.05089914       0.03238151       0.12085213 </v>
   <v>      -0.02215370      -0.04742812      -0.32614419 </v>
   <v>       0.08340693      -0.05516834      -0.12099828 </v>
   <v>       0.12581014      -0.03195350       0.17175128 </v>
   <v>      -0.09440433       0.05093090      -0.00123941 </v>
   <v>       0.08023851       0.03293937      -0.29149422 </v>
   <v>      -0.02025529       0.01146100       0.12600497 </v>
   <v>      -0.03781069      -0.09304897       0.15130316 </v>
   <v>       0.05547342      -0.05083844       0.09995919 </v>
   <v>      -0.03523449      -0.05778545       0.09115197 </v>
   <v>      -0.10386266      -0.13104856      -0.17386511 </v>
   <v>      -0.02205439       0.05878364      -0.03955981 </v>
   <v>      -0.08764614       0.13750048      -0.05205772 </v>
   <v>       0.09028852       0.00295308      -0.00120530 </v>
   <v>      -0.06356478      -0.10510168       0.15389801 </v>
   <v>      -0.01820667       0.01891131       0.01538183 </v>
   <v>       0.13574778       0.00936029      -0.05740373 </v>
  </varray>
  <varray name="stress" >
   <v>      -0.07845162      -0.07456868      -0.13696512 </v>
   <v>      -0.07456861      -0.13368355      -0.07734257 </v>
   <v>      -0.13696507      -0.07734276      -1.04846976 </v>
  </varray>
  <energy>
   <i name="e_fr_energy">   -191.52095777 </i>
   <i name="e_wo_entrp">   -191.42608643 </i>
   <i name="e_0_energy">     -0.18974269 </i>
  </energy>
  <time name="totalsc">  293.03  293.81</time>
 </calculation>
 <calculation>
  <scstep>
   <time name="dav">   21.99   22.05</time>
   <time name="total">   22.50   22.56</time>
   <energy>
    <i name="alphaZ">     90.14488768 </i>
    <i name="ewald">  44630.58025298 </i>
    <i name="hartreedc"> -50642.31506162 </i>
    <i name="XCdc">   -233.39182094 </i>
    <i name="pawpsdc">   4084.22893068 </i>
    <i name="pawaedc">  -3500.15647960 </i>
    <i name="eentropy">     -0.18679631 </i>
    <i name="bandstr">  -1381.97387862 </i>
    <i name="atom">   6761.44252427 </i>
    <i name="e_fr_energy">   -191.62744147 </i>
    <i name="e_wo_entrp">   -191.44064516 </i>
    <i name="e_0_energy">   -191.53404332 </i>
   </energy>
  </scstep>
  <scstep>
   <time name="dav">   32.10   32.18</time>
   <time name="total">   32.60   32.69</time>
   <energy>
    <i name="e_fr_energy">   -191.74042716 </i>
    <i name="e_wo_entrp">   -191.53180346 </i>
    <i name="e_0_energy">   -191.63611531 </i>
   </energy>
  </scstep>
  <scstep>
   <time name="dav">   31.09   31.16</time>
   <time name="total">   31.59   31.67</time>
   <energy>
    <i name="e_fr_energy">   -191.64538591 </i>
    <i name="e_wo_entrp">   -191.45703175 </i>
    <i name="e_0_energy">   -191.55120883 </i>
   </energy>
  </scstep>
  <scstep>
   <time name="dav">   30.81   30.88</time>
   <time name="total">   31.31   31.39</time>
   <energy>
    <i name="e_fr_energy">   -191.65327652 </i>
    <i name="e_wo_entrp">   -191.46146957 </i>
    <i name="e_0_energy">   -191.55737304 </i>
   </energy>
  </scstep>
  <scstep>
   <time name="dav">   29.81   29.88</time>
   <time name="total">   30.31   30.39</time>
   <energy>
    <i name="e_fr_energy">   -191.63968484 </i>
    <i name="e_wo_entrp">   -191.44907592 </i>
    <i name="e_0_energy">   -191.54438038 </i>
   </energy>
  </scstep>
  <scstep>
   <time name="dav">   28.89   28.95</time>
   <time name="total">   29.39   29.47</time>
   <energy>
    <i name="e_fr_energy">   -191.64131854 </i>
    <i name="e_wo_entrp">   -191.44987236 </i>
    <i name="e_0_energy">   -191.54559545 </i>
   </energy>
  </scstep>
  <scstep>
   <time name="dav">   29.59   29.66</time>
   <time name="total">   30.09   30.17</time>
   <energy>
    <i name="e_fr_energy">   -191.63951915 </i>
    <i name="e_wo_entrp">   -191.44805933 </i>
    <i name="e_0_energy">   -191.54378924 </i>
   </energy>
  </scstep>
  <scstep>
   <time name="dav">   26.94   27.00</time>
   <time name="total">   27.44   27.52</time>
   <energy>
    <i name="e_fr_energy">   -191.63847463 </i>
    <i name="e_wo_entrp">   -191.44721487 </i>
    <i name="e_0_energy">   -191.54284475 </i>
   </energy>
  </scstep>
  <scstep>
[...]
      <set comment="kpoint 31">
       <r>  -17.5150    1.0000 </r>
       <r>  -17.2558    1.0000 </r>
       <r>  -16.9460    1.0000 </r>
       <r>  -16.6466    1.0000 </r>
       <r>  -16.5258    1.0000 </r>
       <r>  -16.4195    1.0000 </r>
       <r>  -16.3519    1.0000 </r>
       <r>  -16.1987    1.0000 </r>
       <r>  -16.0787    1.0000 </r>
       <r>  -15.9896    1.0000 </r>
       <r>  -15.9478    1.0000 </r>
       <r>  -15.8658    1.0000 </r>
       <r>  -15.7712    1.0000 </r>
       <r>  -15.6805    1.0000 </r>
       <r>  -15.6064    1.0000 </r>
       <r>  -15.5668    1.0000 </r>
       <r>  -15.4150    1.0000 </r>
       <r>  -15.2487    1.0000 </r>
       <r>   -9.7422    1.0000 </r>
       <r>   -9.4631    1.0000 </r>
       <r>   -9.3028    1.0000 </r>
       <r>   -9.0348    1.0000 </r>
       <r>   -8.8218    1.0000 </r>
       <r>   -8.7015    1.0000 </r>
       <r>   -8.6218    1.0000 </r>
       <r>   -8.4839    1.0000 </r>
       <r>   -8.3952    1.0000 </r>
       <r>   -8.2973    1.0000 </r>
       <r>   -8.2663    1.0000 </r>
       <r>   -8.1885    1.0000 </r>
       <r>   -8.1299    1.0000 </r>
       <r>   -8.0724    1.0000 </r>
       <r>   -8.0067    1.0000 </r>
       <r>   -7.9262    1.0000 </r>
       <r>   -7.7666    1.0000 </r>
       <r>   -7.6703    1.0000 </r>
       <r>   -7.5937    1.0000 </r>
       <r>   -7.4010    1.0000 </r>
       <r>   -7.3732    1.0000 </r>
       <r>   -7.2570    1.0000 </r>
       <r>   -7.1457    1.0000 </r>
       <r>   -7.0631    1.0000 </r>
       <r>   -7.0009    1.0000 </r>
       <r>   -6.9566    1.0000 </r>
       <r>   -6.8646    1.0000 </r>
       <r>   -6.7926    1.0000 </r>
       <r>   -6.7140    1.0000 </r>
       <r>   -6.6249    1.0000 </r>
       <r>   -6.5328    1.0000 </r>
       <r>   -6.5068    1.0000 </r>
       <r>   -6.4095    1.0000 </r>
       <r>   -6.3327    1.0000 </r>
       <r>   -6.2249    1.0000 </r>
       <r>   -6.1695    1.0000 </r>
       <r>   -6.1293    1.0000 </r>
       <r>   -6.0643    1.0000 </r>
       <r>   -6.0035    1.0000 </r>
       <r>   -5.9560    1.0000 </r>
       <r>   -5.8478    1.0000 </r>
       <r>   -5.8027    1.0000 </r>
       <r>   -5.7139    1.0000 </r>
       <r>   -5.6506    1.0000 </r>
       <r>   -5.5601    1.0000 </r>
       <r>   -5.3453    1.0000 </r>
       <r>   -5.2858    1.0000 </r>
       <r>   -5.1856    1.0000 </r>
       <r>   -5.0824    1.0000 </r>
       <r>   -4.9651    1.0000 </r>
       <r>   -4.7915    1.0000 </r>
       <r>   -4.6389    1.0000 </r>
       <r>   -4.5036    1.0000 </r>
       <r>   -4.3825    1.0000 </r>
       <r>   -4.3176    1.0000 </r>
       <r>   -4.2648    1.0000 </r>
       <r>   -4.1270    1.0000 </r>
       <r>   -4.0397    1.0000 </r>
       <r>   -3.9259    1.0000 </r>
       <r>   -3.6155    0.9798 </r>
       <r>   -3.5394    0.9346 </r>
       <r>   -3.3430    0.5485 </r>
       <r>   -2.9068    0.0015 </r>
       <r>   -2.7979    0.0001 </r>
       <r>   -2.6848    0.0000 </r>
       <r>   -2.5200    0.0000 </r>
       <r>   -2.4701    0.0000 </r>
       <r>   -2.4105    0.0000 </r>
       <r>   -2.1830    0.0000 </r>
       <r>   -2.1687    0.0000 </r>
       <r>   -1.9766    0.0000 </r>
       <r>   -1.8613    0.0000 </r>
       <r>   -1.7507    0.0000 </r>
       <r>   -1.5583    0.0000 </r>
       <r>   -1.5193    0.0000 </r>
       <r>   -1.3634    0.0000 </r>
       <r>   -1.2423    0.0000 </r>
       <r>   -1.2169    0.0000 </r>
       <r>   -1.1232    0.0000 </r>
       <r>   -1.0891    0.0000 </r>
       <r>   -0.9437    0.0000 </r>
       <r>   -0.8501    0.0000 </r>
       <r>   -0.7844    0.0000 </r>
       <r>   -0.7444    0.0000 </r>
       <r>   -0.6915    0.0000 </r>
       <r>   -0.5141    0.0000 </r>
       <r>   -0.4378    0.0000 </r>
       <r>   -0.3939    0.0000 </r>
       <r>   -0.2552    0.0000 </r>
       <r>   -0.1282    0.0000 </r>
       <r>   -0.0715    0.0000 </r>
       <r>    0.1785    0.0000 </r>
       <r>    0.4621    0.0000 </r>
       <r>    0.5980    0.0000 </r>
       <r>    0.7594    0.0000 </r>
       <r>    0.9971    0.0000 </r>
       <r>    1.1097    0.0000 </r>
       <r>    1.2270    0.0000 </r>
       <r>    1.3366    0.0000 </r>
       <r>    2.1291    0.0000 </r>
       <r>    2.2903    0.0000 </r>
       <r>    2.3893    0.0000 </r>
      </set>
      <set comment="kpoint 32">
       <r>  -17.5267    1.0000 </r>
       <r>  -17.1677    1.0000 </r>
       <r>  -17.0767    1.0000 </r>
       <r>  -16.6487    1.0000 </r>
       <r>  -16.4633    1.0000 </r>
       <r>  -16.3702    1.0000 </r>
       <r>  -16.2913    1.0000 </r>
       <r>  -16.2222    1.0000 </r>
       <r>  -16.1481    1.0000 </r>
       <r>  -16.0266    1.0000 </r>
       <r>  -15.9481    1.0000 </r>
       <r>  -15.8662    1.0000 </r>
       <r>  -15.7668    1.0000 </r>
       <r>  -15.6841    1.0000 </r>
       <r>  -15.6158    1.0000 </r>
       <r>  -15.5790    1.0000 </r>
       <r>  -15.3692    1.0000 </r>
       <r>  -15.2600    1.0000 </r>
       <r>   -9.6743    1.0000 </r>
       <r>   -9.5544    1.0000 </r>
       <r>   -9.3818    1.0000 </r>
       <r>   -9.0164    1.0000 </r>
       <r>   -8.7120    1.0000 </r>
       <r>   -8.6078    1.0000 </r>
       <r>   -8.5418    1.0000 </r>
       <r>   -8.4725    1.0000 </r>
       <r>   -8.4211    1.0000 </r>
       <r>   -8.3006    1.0000 </r>
       <r>   -8.2816    1.0000 </r>
       <r>   -8.2045    1.0000 </r>
       <r>   -8.1796    1.0000 </r>
       <r>   -8.1311    1.0000 </r>
       <r>   -8.0561    1.0000 </r>
       <r>   -7.9466    1.0000 </r>
       <r>   -7.8032    1.0000 </r>
       <r>   -7.6474    1.0000 </r>
       <r>   -7.5202    1.0000 </r>
       <r>   -7.4428    1.0000 </r>
       <r>   -7.3754    1.0000 </r>
       <r>   -7.2740    1.0000 </r>
       <r>   -7.1669    1.0000 </r>
       <r>   -7.0721    1.0000 </r>
       <r>   -7.0182    1.0000 </r>
       <r>   -6.9301    1.0000 </r>
       <r>   -6.8592    1.0000 </r>
       <r>   -6.7997    1.0000 </r>
       <r>   -6.7167    1.0000 </r>
       <r>   -6.5857    1.0000 </r>
       <r>   -6.5240    1.0000 </r>
       <r>   -6.4894    1.0000 </r>
       <r>   -6.3940    1.0000 </r>
       <r>   -6.3507    1.0000 </r>
       <r>   -6.3061    1.0000 </r>
       <r>   -6.1826    1.0000 </r>
       <r>   -6.1434    1.0000 </r>
       <r>   -6.0675    1.0000 </r>
       <r>   -6.0190    1.0000 </r>
       <r>   -5.8939    1.0000 </r>
       <r>   -5.8406    1.0000 </r>
       <r>   -5.7408    1.0000 </r>
       <r>   -5.6874    1.0000 </r>
       <r>   -5.6383    1.0000 </r>
       <r>   -5.4863    1.0000 </r>
       <r>   -5.4279    1.0000 </r>
       <r>   -5.3100    1.0000 </r>
       <r>   -5.1183    1.0000 </r>
       <r>   -5.0924    1.0000 </r>
       <r>   -4.9990    1.0000 </r>
       <r>   -4.8007    1.0000 </r>
       <r>   -4.6584    1.0000 </r>
       <r>   -4.4936    1.0000 </r>
       <r>   -4.3674    1.0000 </r>
       <r>   -4.3230    1.0000 </r>
       <r>   -4.2986    1.0000 </r>
       <r>   -4.1587    1.0000 </r>
       <r>   -4.0516    1.0000 </r>
       <r>   -3.9287    1.0000 </r>
       <r>   -3.6759    0.9934 </r>
       <r>   -3.4956    0.8852 </r>
       <r>   -3.3316    0.5167 </r>
       <r>   -3.0223    0.0159 </r>
       <r>   -2.7531    0.0000 </r>
       <r>   -2.6119    0.0000 </r>
       <r>   -2.4868    0.0000 </r>
       <r>   -2.4317    0.0000 </r>
       <r>   -2.3791    0.0000 </r>
       <r>   -2.1776    0.0000 </r>
       <r>   -2.1309    0.0000 </r>
       <r>   -1.9486    0.0000 </r>
       <r>   -1.8683    0.0000 </r>
       <r>   -1.7782    0.0000 </r>
       <r>   -1.5815    0.0000 </r>
       <r>   -1.5296    0.0000 </r>
       <r>   -1.4074    0.0000 </r>
       <r>   -1.2561    0.0000 </r>
       <r>   -1.2056    0.0000 </r>
       <r>   -1.1072    0.0000 </r>
       <r>   -1.0767    0.0000 </r>
       <r>   -0.9597    0.0000 </r>
       <r>   -0.8533    0.0000 </r>
       <r>   -0.7904    0.0000 </r>
       <r>   -0.7639    0.0000 </r>
       <r>   -0.6714    0.0000 </r>
       <r>   -0.5713    0.0000 </r>
       <r>   -0.4647    0.0000 </r>
       <r>   -0.3188    0.0000 </r>
       <r>   -0.2666    0.0000 </r>
       <r>   -0.0742    0.0000 </r>
       <r>   -0.0124    0.0000 </r>
       <r>    0.2366    0.0000 </r>
       <r>    0.4015    0.0000 </r>
       <r>    0.5936    0.0000 </r>
       <r>    0.7659    0.0000 </r>
       <r>    0.9353    0.0000 </r>
       <r>    1.0518    0.0000 </r>
       <r>    1.2271    0.0000 </r>
       <r>    1.3123    0.0000 </r>
       <r>    2.0941    0.0000 </r>
       <r>    2.2623    0.0000 </r>
       <r>    2.5574    0.0000 </r>
      </set>
      <set comment="kpoint 33">
       <r>  -17.5063    1.0000 </r>
       <r>  -17.2831    1.0000 </r>
       <r>  -16.9315    1.0000 </r>
       <r>  -16.6557    1.0000 </r>
       <r>  -16.5187    1.0000 </r>
       <r>  -16.4150    1.0000 </r>
       <r>  -16.2842    1.0000 </r>
       <r>  -16.1777    1.0000 </r>
       <r>  -16.1202    1.0000 </r>
       <r>  -16.0492    1.0000 </r>
       <r>  -15.9343    1.0000 </r>
       <r>  -15.8559    1.0000 </r>
       <r>  -15.7901    1.0000 </r>
       <r>  -15.7129    1.0000 </r>
       <r>  -15.6046    1.0000 </r>
       <r>  -15.5530    1.0000 </r>
       <r>  -15.3628    1.0000 </r>
       <r>  -15.2771    1.0000 </r>
       <r>   -9.7403    1.0000 </r>
       <r>   -9.4436    1.0000 </r>
       <r>   -9.3203    1.0000 </r>
       <r>   -9.0327    1.0000 </r>
       <r>   -8.8171    1.0000 </r>
       <r>   -8.7189    1.0000 </r>
       <r>   -8.5128    1.0000 </r>
       <r>   -8.4680    1.0000 </r>
       <r>   -8.4426    1.0000 </r>
       <r>   -8.3523    1.0000 </r>
       <r>   -8.2722    1.0000 </r>
       <r>   -8.1866    1.0000 </r>
       <r>   -8.1507    1.0000 </r>
       <r>   -8.0773    1.0000 </r>
       <r>   -8.0105    1.0000 </r>
       <r>   -7.8860    1.0000 </r>
       <r>   -7.7475    1.0000 </r>
       <r>   -7.7137    1.0000 </r>
       <r>   -7.5761    1.0000 </r>
       <r>   -7.4053    1.0000 </r>
       <r>   -7.3412    1.0000 </r>
       <r>   -7.2680    1.0000 </r>
       <r>   -7.1465    1.0000 </r>
       <r>   -7.0687    1.0000 </r>
       <r>   -7.0279    1.0000 </r>
       <r>   -6.9785    1.0000 </r>
       <r>   -6.8642    1.0000 </r>
       <r>   -6.7398    1.0000 </r>
       <r>   -6.6987    1.0000 </r>
       <r>   -6.6142    1.0000 </r>
       <r>   -6.5607    1.0000 </r>
       <r>   -6.4587    1.0000 </r>
       <r>   -6.4056    1.0000 </r>
       <r>   -6.3579    1.0000 </r>
       <r>   -6.2580    1.0000 </r>
       <r>   -6.2159    1.0000 </r>
       <r>   -6.1508    1.0000 </r>
       <r>   -6.0966    1.0000 </r>
       <r>   -6.0528    1.0000 </r>
       <r>   -5.8917    1.0000 </r>
       <r>   -5.8521    1.0000 </r>
       <r>   -5.7859    1.0000 </r>
       <r>   -5.7185    1.0000 </r>
       <r>   -5.6712    1.0000 </r>
       <r>   -5.5910    1.0000 </r>
       <r>   -5.4510    1.0000 </r>
       <r>   -5.2305    1.0000 </r>
       <r>   -5.1026    1.0000 </r>
       <r>   -5.0040    1.0000 </r>
       <r>   -4.8519    1.0000 </r>
       <r>   -4.7545    1.0000 </r>
       <r>   -4.6280    1.0000 </r>
       <r>   -4.5393    1.0000 </r>
       <r>   -4.4032    1.0000 </r>
       <r>   -4.3349    1.0000 </r>
       <r>   -4.2487    1.0000 </r>
       <r>   -4.2146    1.0000 </r>
       <r>   -4.0768    1.0000 </r>
       <r>   -3.9167    1.0000 </r>
       <r>   -3.7576    0.9989 </r>
       <r>   -3.5342    0.9297 </r>
       <r>   -3.3088    0.4524 </r>
       <r>   -3.1056    0.0598 </r>
       <r>   -2.7180    0.0000 </r>
       <r>   -2.5614    0.0000 </r>
       <r>   -2.4565    0.0000 </r>
       <r>   -2.4045    0.0000 </r>
       <r>   -2.3318    0.0000 </r>
       <r>   -2.1830    0.0000 </r>
       <r>   -2.1048    0.0000 </r>
       <r>   -1.8967    0.0000 </r>
       <r>   -1.8866    0.0000 </r>
       <r>   -1.7628    0.0000 </r>
       <r>   -1.6028    0.0000 </r>
       <r>   -1.5299    0.0000 </r>
       <r>   -1.4131    0.0000 </r>
       <r>   -1.2968    0.0000 </r>
       <r>   -1.2359    0.0000 </r>
       <r>   -1.0880    0.0000 </r>
       <r>   -1.0695    0.0000 </r>
       <r>   -0.9727    0.0000 </r>
       <r>   -0.8578    0.0000 </r>
       <r>   -0.7861    0.0000 </r>
       <r>   -0.7488    0.0000 </r>
       <r>   -0.6720    0.0000 </r>
       <r>   -0.6051    0.0000 </r>
       <r>   -0.4951    0.0000 </r>
       <r>   -0.3555    0.0000 </r>
       <r>   -0.2578    0.0000 </r>
       <r>   -0.0274    0.0000 </r>
       <r>    0.0795    0.0000 </r>
       <r>    0.2800    0.0000 </r>
       <r>    0.3308    0.0000 </r>
       <r>    0.5406    0.0000 </r>
       <r>    0.7995    0.0000 </r>
       <r>    0.8885    0.0000 </r>
       <r>    1.0800    0.0000 </r>
       <r>    1.2033    0.0000 </r>
       <r>    1.3329    0.0000 </r>
       <r>    2.1195    0.0000 </r>
       <r>    2.2961    0.0000 </r>
       <r>    2.3699    0.0000 </r>
      </set>
      <set comment="kpoint 34">
       <r>  -17.4778    1.0000 </r>
       <r>  -17.3525    1.0000 </r>
       <r>  -16.7819    1.0000 </r>
       <r>  -16.7060    1.0000 </r>
       <r>  -16.6012    1.0000 </r>
       <r>  -16.4322    1.0000 </r>
       <r>  -16.2806    1.0000 </r>
       <r>  -16.1845    1.0000 </r>
       <r>  -16.0703    1.0000 </r>
       <r>  -16.0559    1.0000 </r>
       <r>  -15.8928    1.0000 </r>
       <r>  -15.8645    1.0000 </r>
       <r>  -15.8207    1.0000 </r>
       <r>  -15.7221    1.0000 </r>
       <r>  -15.6050    1.0000 </r>
       <r>  -15.5266    1.0000 </r>
       <r>  -15.3743    1.0000 </r>
       <r>  -15.2844    1.0000 </r>
       <r>   -9.7753    1.0000 </r>
       <r>   -9.3613    1.0000 </r>
       <r>   -9.2191    1.0000 </r>
       <r>   -9.0669    1.0000 </r>
       <r>   -8.8898    1.0000 </r>
       <r>   -8.8636    1.0000 </r>
       <r>   -8.5019    1.0000 </r>
       <r>   -8.4726    1.0000 </r>
       <r>   -8.4417    1.0000 </r>
       <r>   -8.3838    1.0000 </r>
       <r>   -8.2746    1.0000 </r>
       <r>   -8.1760    1.0000 </r>
       <r>   -8.0967    1.0000 </r>
       <r>   -8.0276    1.0000 </r>
       <r>   -8.0195    1.0000 </r>
       <r>   -7.8230    1.0000 </r>
       <r>   -7.8047    1.0000 </r>
       <r>   -7.6940    1.0000 </r>
       <r>   -7.4772    1.0000 </r>
       <r>   -7.4266    1.0000 </r>
       <r>   -7.3506    1.0000 </r>
       <r>   -7.2318    1.0000 </r>
       <r>   -7.2041    1.0000 </r>
       <r>   -7.0680    1.0000 </r>
       <r>   -7.0406    1.0000 </r>
       <r>   -6.9828    1.0000 </r>
       <r>   -6.8832    1.0000 </r>
       <r>   -6.6979    1.0000 </r>
       <r>   -6.6918    1.0000 </r>
       <r>   -6.6040    1.0000 </r>
       <r>   -6.5716    1.0000 </r>
       <r>   -6.4606    1.0000 </r>
       <r>   -6.4063    1.0000 </r>
       <r>   -6.3226    1.0000 </r>
       <r>   -6.2885    1.0000 </r>
       <r>   -6.2337    1.0000 </r>
       <r>   -6.1686    1.0000 </r>
       <r>   -6.1061    1.0000 </r>
       <r>   -6.0323    1.0000 </r>
       <r>   -5.9255    1.0000 </r>
       <r>   -5.8919    1.0000 </r>
       <r>   -5.8313    1.0000 </r>
       <r>   -5.7142    1.0000 </r>
       <r>   -5.6466    1.0000 </r>
       <r>   -5.6092    1.0000 </r>
       <r>   -5.5498    1.0000 </r>
       <r>   -5.1763    1.0000 </r>
       <r>   -5.1420    1.0000 </r>
       <r>   -4.8454    1.0000 </r>
       <r>   -4.7575    1.0000 </r>
       <r>   -4.7218    1.0000 </r>
       <r>   -4.6359    1.0000 </r>
       <r>   -4.5786    1.0000 </r>
       <r>   -4.4564    1.0000 </r>
       <r>   -4.3339    1.0000 </r>
       <r>   -4.2660    1.0000 </r>
       <r>   -4.1732    1.0000 </r>
       <r>   -4.0907    1.0000 </r>
       <r>   -3.9068    1.0000 </r>
       <r>   -3.7889    0.9995 </r>
       <r>   -3.5863    0.9673 </r>
       <r>   -3.3259    0.5006 </r>
       <r>   -3.1125    0.0658 </r>
       <r>   -2.7073    0.0000 </r>
       <r>   -2.5379    0.0000 </r>
       <r>   -2.4502    0.0000 </r>
       <r>   -2.3974    0.0000 </r>
       <r>   -2.3080    0.0000 </r>
       <r>   -2.1880    0.0000 </r>
       <r>   -2.0910    0.0000 </r>
       <r>   -1.8963    0.0000 </r>
       <r>   -1.8661    0.0000 </r>
       <r>   -1.7587    0.0000 </r>
       <r>   -1.5958    0.0000 </r>
       <r>   -1.5278    0.0000 </r>
       <r>   -1.4171    0.0000 </r>
       <r>   -1.3237    0.0000 </r>
       <r>   -1.2492    0.0000 </r>
       <r>   -1.0886    0.0000 </r>
       <r>   -1.0646    0.0000 </r>
       <r>   -0.9395    0.0000 </r>
       <r>   -0.8983    0.0000 </r>
       <r>   -0.7852    0.0000 </r>
       <r>   -0.7187    0.0000 </r>
       <r>   -0.6963    0.0000 </r>
       <r>   -0.5999    0.0000 </r>
       <r>   -0.5210    0.0000 </r>
       <r>   -0.3687    0.0000 </r>
       <r>   -0.2727    0.0000 </r>
       <r>   -0.0020    0.0000 </r>
       <r>    0.1433    0.0000 </r>
       <r>    0.2279    0.0000 </r>
       <r>    0.3432    0.0000 </r>
       <r>    0.5051    0.0000 </r>
       <r>    0.8042    0.0000 </r>
       <r>    0.9010    0.0000 </r>
       <r>    1.0984    0.0000 </r>
       <r>    1.1955    0.0000 </r>
       <r>    1.3521    0.0000 </r>
       <r>    2.1851    0.0000 </r>
       <r>    2.2364    0.0000 </r>
       <r>    2.3749    0.0000 </r>
      </set>
     </set>
    </set>
   </array>
  </eigenvalues>
  <separator name="orbital magnetization" >
   <v name="MAGDIPOLOUT">      0.00000000      0.00000000      0.00000000</v>
  </separator>
 </calculation>
 <structure name="finalpos" >
  <crystal>
   <varray name="basis" >
    <v>       8.37961941       4.81709995       0.00000000 </v>
    <v>      -8.38010759       4.81768206       0.00000000 </v>
    <v>       0.00000000       0.00000000      30.00000000 </v>
   </varray>
   <i name="volume">   2422.14473789 </i>
   <varray name="rec_basis" >
    <v>       0.05967045       0.10379364       0.00000000 </v>
    <v>      -0.05966324       0.10378760       0.00000000 </v>
    <v>       0.00000000       0.00000000       0.03333333 </v>
   </varray>
  </crystal>
  <varray name="positions" >
   <v>      -0.01973977       0.01935695      -0.00264484 </v>
   <v>       0.68324421       0.64929851       0.00179076 </v>
   <v>       0.66903105       0.02256316      -0.00006874 </v>
   <v>       0.66708213       0.32913272       0.00048721 </v>
   <v>       0.36534212       0.01434777       0.00069567 </v>
   <v>       0.98132015       0.34346642      -0.00088519 </v>
   <v>      -0.01015715       0.63857992       0.00035009 </v>
   <v>       0.35981525       0.31602092       0.00182346 </v>
   <v>       0.30457722       0.67568901      -0.00270639 </v>
   <v>       0.11758441       0.22889854       0.95201269 </v>
   <v>       0.21669724       0.10364707       0.05006299 </v>
   <v>       0.10180496       0.55329666       0.94223444 </v>
   <v>       0.22653659       0.44192600       0.04395499 </v>
   <v>       0.10744375       0.89296637       0.95963526 </v>
   <v>       0.21689368       0.77970811       0.05290893 </v>
   <v>       0.45190609       0.21856932       0.94464462 </v>
   <v>       0.56486316       0.11118626       0.05573900 </v>
   <v>       0.44538538       0.55436132       0.95579061 </v>
   <v>       0.56277610       0.44588272       0.05488891 </v>
   <v>       0.45198763       0.89079489       0.94668639 </v>
   <v>       0.55456158       0.77481959       0.04090685 </v>
   <v>       0.77417440       0.21650942       0.94522961 </v>
   <v>       0.88264129       0.11272863       0.05121856 </v>
   <v>       0.77726162       0.55428995       0.94680487 </v>
   <v>       0.88528628       0.44253071       0.05681256 </v>
   <v>       0.77000430       0.88529108       0.95324435 </v>
   <v>       0.88989076       0.78235245       0.04838226 </v>
  </varray>
 </structure>
</modeling>
