unknown system                          
           1
     8.857560    5.102719    0.000000
    -8.858788    5.104831    0.000000
     0.000000    0.000000   30.000000
   V    Mo   W    S 
   3   3   3  18
Direct configuration=     1
   0.00000000  0.00000000  0.00000000
   0.66666669  0.66666669  0.00000000
   0.66666669  0.00000000  0.00000000
   0.66666669  0.33333334  0.00000000
   0.33333334  0.00000000  0.00000000
   1.00000000  0.33333334  0.00000000
   0.00000000  0.66666669  0.00000000
   0.33333334  0.33333334  0.00000000
   0.33333334  0.66666669  0.00000000
   0.11068511  0.22244981  0.95539999
   0.22244981  0.11068511  0.04460000
   0.11068511  0.55578315  0.95539999
   0.22244981  0.44401845  0.04460000
   0.11068511  0.88911647  0.95539999
   0.22244981  0.77735180  0.04460000
   0.44401845  0.22244981  0.95539999
   0.55578315  0.11068511  0.04460000
   0.44401845  0.55578315  0.95539999
   0.55578315  0.44401845  0.04460000
   0.44401845  0.88911647  0.95539999
   0.55578315  0.77735180  0.04460000
   0.77735180  0.22244981  0.95539999
   0.88911647  0.11068511  0.04460000
   0.77735180  0.55578315  0.95539999
   0.88911647  0.44401845  0.04460000
   0.77735180  0.88911647  0.95539999
   0.88911647  0.77735180  0.04460000
unknown system                          
           1
     8.668569    4.996347    0.000000
    -8.669698    4.998289    0.000000
     0.000000    0.000000   30.000000
   V    Mo   W    S 
   3   3   3  18
Direct configuration=     2
   0.00013113  0.00075402 -0.00006318
   0.66706429  0.66646004 -0.00005050
   0.66718380  0.00184346 -0.00003407
   0.66670119  0.33181399  0.00018693
   0.33466225  0.00123616  0.00015087
   0.99850588  0.33322816 -0.00010167
  -0.00033361  0.66541357 -0.00019844
   0.33331628  0.33156231  0.00023327
   0.33250014  0.66716610 -0.00012182
   0.10969580  0.21818844  0.95195300
   0.21825022  0.10991211  0.04811486
   0.11148471  0.55631579  0.95059583
   0.22303223  0.44473459  0.04918226
   0.10808347  0.89015104  0.95207620
   0.22177873  0.77712429  0.04927383
   0.44396680  0.22263869  0.95075123
   0.55784844  0.10869143  0.04805712
   0.44797960  0.55731036  0.95194251
   0.55660981  0.44824161  0.04805796
   0.44834227  0.88992770  0.95195167
   0.55895943  0.77917789  0.04684819
   0.77558760  0.21765131  0.95190800
   0.88679563  0.10655812  0.04687527
   0.77639159  0.55846896  0.95204323
   0.88907781  0.44525052  0.04924903
   0.77757742  0.88891596  0.95417458
   0.88702153  0.77947783  0.04694375
unknown system                          
           1
     8.485896    4.897366    0.000000
    -8.486637    4.898637    0.000000
     0.000000    0.000000   30.000000
   V    Mo   W    S 
   3   3   3  18
Direct configuration=     3
   0.00032627  0.00104369 -0.00010798
   0.66710965  0.66631895 -0.00005268
   0.66728011  0.00242397 -0.00003053
   0.66657953  0.33130243  0.00020310
   0.33516327  0.00184385  0.00012743
   0.99832862  0.33386662 -0.00008150
  -0.00009624  0.66472929 -0.00023207
   0.33340982  0.33095421  0.00025294
   0.33168106  0.66705424 -0.00009476
   0.10984753  0.21820346  0.95198654
   0.21825309  0.11006812  0.04817022
   0.11156271  0.55655764  0.95049488
   0.22328112  0.44484803  0.04911868
   0.10792450  0.88995125  0.95214488
   0.22167717  0.77690725  0.04926683
   0.44385684  0.22278788  0.95070404
   0.55793982  0.10862656  0.04817352
   0.44780071  0.55725354  0.95204115
   0.55645108  0.44821233  0.04805427
   0.44835398  0.88977131  0.95196969
   0.55881280  0.77914521  0.04671836
   0.77548940  0.21748173  0.95182498
   0.88668950  0.10644205  0.04683223
   0.77659214  0.55860846  0.95206065
   0.88918746  0.44549092  0.04932736
   0.77760120  0.88892036  0.95428970
   0.88711130  0.77940108  0.04683798
unknown system                          
           1
     8.281232    4.771644    0.000000
    -8.285009    4.778175    0.000000
     0.000000    0.000000   30.000000
   V    Mo   W    S 
   3   3   3  18
Direct configuration=     4
   0.00169133  0.00235539 -0.00024072
   0.66694034  0.66531604 -0.00003279
   0.66725208  0.00459791  0.00000114
   0.66587355  0.32947170  0.00018207
   0.33698800  0.00436773  0.00000000
   0.99836423  0.33753577  0.00000785
   0.00139520  0.66162155 -0.00025955
   0.33394625  0.32869585  0.00021269
   0.32753922  0.66594571  0.00004510
   0.10927915  0.21727537  0.95070404
   0.21697239  0.10928835  0.04990498
   0.11147960  0.55660461  0.94834319
   0.22347927  0.44485358  0.05046154
   0.10737024  0.89032578  0.95099385
   0.22157220  0.77697320  0.05086271
   0.44397503  0.22304683  0.94889942
   0.55871896  0.10794978  0.05009899
   0.44847313  0.55765019  0.95097567
   0.55710459  0.44924511  0.04951457
   0.44960748  0.89036709  0.95058155
   0.55978988  0.77983105  0.04753307
   0.77477470  0.21610988  0.95006698
   0.88596441  0.10533702  0.04795887
   0.77610925  0.55893720  0.95068210
   0.88911934  0.44565727  0.05125064
   0.77764505  0.88897200  0.95350512
   0.88678960  0.77988249  0.04774679
unknown system                          
           1
     8.290193    4.771149    0.000000
    -8.298158    4.784940    0.000000
     0.000000    0.000000   30.000000
   V    Mo   W    S 
   3   3   3  18
Direct configuration=     5
   0.00420322  0.00455111 -0.00033436
   0.66684172  0.66372176  0.00005283
   0.66713041  0.00815084  0.00009128
   0.66372185  0.32611155  0.00005878
   0.34077588  0.01027640 -0.00012757
   0.99914754  0.34612594  0.00009963
   0.00426292  0.65487236 -0.00014421
   0.33596666  0.32400689  0.00006805
   0.31855172  0.66303185  0.00020020
   0.10850304  0.21688223  0.94924684
   0.21574420  0.10818199  0.05230688
   0.11118269  0.55607557  0.94487629
   0.22329638  0.44433027  0.05206568
   0.10712656  0.89033993  0.94970648
   0.22143641  0.77806690  0.05290104
   0.44473884  0.22323242  0.94631852
   0.55951782  0.10738350  0.05278991
   0.44866270  0.55778702  0.94986344
   0.55783124  0.44974129  0.05152002
   0.45079099  0.89099655  0.94893904
   0.56017015  0.78056732  0.04839101
   0.77441547  0.21505015  0.94776302
   0.88552326  0.10522142  0.04938473
   0.77586146  0.55867724  0.94899426
   0.88822217  0.44542378  0.05393724
   0.77768764  0.88927667  0.95225612
   0.88690150  0.78013150  0.04877475
unknown system                          
           1
     8.284710    4.765084    0.000000
    -8.295632    4.784005    0.000000
     0.000000    0.000000   30.000000
   V    Mo   W    S 
   3   3   3  18
Direct configuration=     6
   0.00441028  0.00475016 -0.00038626
   0.66739646  0.66385349  0.00002036
   0.66744543  0.00886652  0.00008750
   0.66250924  0.32552452  0.00005682
   0.34186787  0.01231003 -0.00006279
   0.99937211  0.34804063  0.00006952
   0.00429969  0.65332315 -0.00007854
   0.33750877  0.32276768  0.00002825
   0.31621284  0.66201542  0.00012399
   0.10865855  0.21775567  0.94948273
   0.21618325  0.10819233  0.05248779
   0.11103185  0.55581910  0.94425178
   0.22311418  0.44374063  0.05191905
   0.10739983  0.88961587  0.94996859
   0.22142787  0.77887605  0.05296971
   0.44524171  0.22320990  0.94587714
   0.55939413  0.10756083  0.05297353
   0.44788904  0.55739173  0.95012090
   0.55761211  0.44903779  0.05163824
   0.45025543  0.89074577  0.94908611
   0.55893163  0.78015624  0.04816852
   0.77488281  0.21563111  0.94771827
   0.88610347  0.10653952  0.04930327
   0.77639035  0.55836199  0.94905106
   0.88736295  0.44502499  0.05421798
   0.77773186  0.88948255  0.95225905
   0.88758077  0.77962079  0.04864733
unknown system                          
           1
     8.297284    4.769587    0.000000
    -8.309691    4.791078    0.000000
     0.000000    0.000000   30.000000
   V    Mo   W    S 
   3   3   3  18
Direct configuration=     7
   0.00461417  0.00507679 -0.00049573
   0.66862613  0.66421371  0.00002666
   0.66826492  0.01029921  0.00012133
   0.66035188  0.32430900  0.00004169
   0.34399103  0.01597135 -0.00003373
   0.99923022  0.35139907  0.00006366
   0.00456774  0.65025093 -0.00001081
   0.34020438  0.32057056 -0.00004758
   0.31197259  0.66053929  0.00013539
   0.10899474  0.21875601  0.94983794
   0.21663542  0.10819512  0.05282302
   0.11056951  0.55554262  0.94339745
   0.22305251  0.44294178  0.05165481
   0.10770756  0.88881729  0.95036259
   0.22139995  0.77970504  0.05300451
   0.44586252  0.22311207  0.94512346
   0.55940346  0.10772848  0.05332542
   0.44701328  0.55685030  0.95046822
   0.55747975  0.44841055  0.05191567
   0.44967668  0.89047076  0.94927852
   0.55747528  0.77962381  0.04776350
   0.77523345  0.21616317  0.94758277
   0.88676385  0.10797943  0.04920214
   0.77680954  0.55798249  0.94901924
   0.88626082  0.44449495  0.05463950
   0.77779688  0.88971301  0.95227384
   0.88825618  0.77909768  0.04852644
unknown system                          
           1
     8.301564    4.768492    0.000000
    -8.316496    4.794361    0.000000
     0.000000    0.000000   30.000000
   V    Mo   W    S 
   3   3   3  18
Direct configuration=     8
   0.00452687  0.00505317 -0.00052788
   0.66910519  0.66434987  0.00002846
   0.66859948  0.01060946  0.00013321
   0.66001011  0.32421326  0.00003567
   0.34431097  0.01637817 -0.00002810
   0.99888814  0.35137441  0.00005327
   0.00425715  0.65004412  0.00000249
   0.34072977  0.32042675 -0.00004293
   0.31164048  0.66051003  0.00010774
   0.10914236  0.21894630  0.94996376
   0.21671537  0.10820269  0.05282212
   0.11044317  0.55548267  0.94333018
   0.22306666  0.44272299  0.05153367
   0.10776095  0.88871352  0.95048804
   0.22133804  0.77984684  0.05297092
   0.44599261  0.22306525  0.94499474
   0.55940408  0.10772988  0.05333899
   0.44692572  0.55676897  0.95058617
   0.55748482  0.44839286  0.05194342
   0.44960488  0.89040866  0.94936228
   0.55723477  0.77950039  0.04763136
   0.77523570  0.21620917  0.94759171
   0.88685276  0.10814591  0.04916226
   0.77680930  0.55797192  0.94902798
   0.88600666  0.44438159  0.05468066
   0.77781889  0.88973086  0.95231081
   0.88830956  0.77903475  0.04849892
unknown system                          
           1
     8.310300    4.771796    0.000000
    -8.326063    4.799103    0.000000
     0.000000    0.000000   30.000000
   V    Mo   W    S 
   3   3   3  18
Direct configuration=     9
   0.00436016  0.00509232 -0.00062616
   0.67049324  0.66463771  0.00004369
   0.66955939  0.01167521  0.00017595
   0.65874885  0.32372556  0.00003024
   0.34560642  0.01830788 -0.00000783
   0.99820078  0.35257507  0.00004141
   0.00380723  0.64848392  0.00003614
   0.34261837  0.31944924 -0.00006201
   0.30948756  0.65998457  0.00008601
   0.10952599  0.21958243  0.95031818
   0.21703669  0.10823842  0.05288180
   0.10999768  0.55529674  0.94303093
   0.22305944  0.44213986  0.05118288
   0.10795121  0.88831391  0.95085045
   0.22119837  0.78024953  0.05287077
   0.44634920  0.22294448  0.94459551
   0.55941459  0.10780942  0.05344104
   0.44653696  0.55649016  0.95093591
   0.55747970  0.44817909  0.05205293
   0.44931663  0.89021343  0.94958056
   0.55641159  0.77910834  0.04722854
   0.77528354  0.21643367  0.94756764
   0.88718640  0.10881095  0.04906606
   0.77686652  0.55782469  0.94903520
   0.88528414  0.44403984  0.05483293
   0.77787452  0.88980895  0.95239290
   0.88855928  0.77879905  0.04841821
unknown system                          
           1
     8.322287    4.774781    0.000000
    -8.339558    4.804689    0.000000
     0.000000    0.000000   30.000000
   V    Mo   W    S 
   3   3   3  18
Direct configuration=    10
   0.00426406  0.00512935 -0.00068085
   0.67129713  0.66475385  0.00005702
   0.67010549  0.01228933  0.00020156
   0.65825132  0.32351019  0.00002397
   0.34619704  0.01906013 -0.00000213
   0.99772339  0.35286919  0.00003106
   0.00344451  0.64787620  0.00005578
   0.34342154  0.31907740 -0.00006389
   0.30861556  0.65985607  0.00006552
   0.10972031  0.21989257  0.95047652
   0.21716573  0.10823210  0.05291746
   0.10974296  0.55518751  0.94288159
   0.22305870  0.44183413  0.05101477
   0.10803221  0.88814069  0.95101457
   0.22109234  0.78044368  0.05284495
   0.44653131  0.22287403  0.94438638
   0.55944890  0.10783419  0.05350294
   0.44636807  0.55637737  0.95109796
   0.55751694  0.44811609  0.05213459
   0.44922993  0.89013050  0.94967184
   0.55604068  0.77893912  0.04702907
   0.77526248  0.21650142  0.94753157
   0.88732563  0.10907927  0.04904746
   0.77685368  0.55774891  0.94899594
   0.88491239  0.44386372  0.05493183
   0.77790598  0.88986393  0.95241305
   0.88868617  0.77873352  0.04841938
unknown system                          
           1
     8.330792    4.778607    0.000000
    -8.348749    4.809706    0.000000
     0.000000    0.000000   30.000000
   V    Mo   W    S 
   3   3   3  18
Direct configuration=    11
   0.00397303  0.00531499 -0.00085855
   0.67389699  0.66510194  0.00010948
   0.67185900  0.01428416  0.00029030
   0.65703093  0.32284093  0.00001567
   0.34782033  0.02095816  0.00001041
   0.99622649  0.35353264  0.00001076
   0.00235728  0.64615062  0.00009576
   0.34552709  0.31801316 -0.00005499
   0.30610678  0.65960560  0.00000840
   0.11031384  0.22076663  0.95098081
   0.21760791  0.10824898  0.05290376
   0.10891640  0.55488798  0.94263596
   0.22301553  0.44102986  0.05042259
   0.10827263  0.88772258  0.95155287
   0.22069689  0.78083957  0.05268535
   0.44693751  0.22264333  0.94394376
   0.55952998  0.10790509  0.05359051
   0.44587537  0.55607773  0.95163672
   0.55757697  0.44787388  0.05229207
   0.44903712  0.88990314  0.94999002
   0.55499865  0.77848363  0.04636460
   0.77513121  0.21663900  0.94746522
   0.88765756  0.10973229  0.04896288
   0.77677897  0.55752626  0.94889954
   0.88396674  0.44339948  0.05510745
   0.77805508  0.89008510  0.95252088
   0.88904817  0.77864772  0.04841766
unknown system                          
           1
     8.337661    4.780416    0.000000
    -8.356313    4.812712    0.000000
     0.000000    0.000000   30.000000
   V    Mo   W    S 
   3   3   3  18
Direct configuration=    12
   0.00378201  0.00532305 -0.00092281
   0.67494160  0.66500798  0.00014037
   0.67252756  0.01499058  0.00032831
   0.65683062  0.32289715  0.00000920
   0.34829621  0.02132774  0.00000915
   0.99558238  0.35341641  0.00000216
   0.00167259  0.64572609  0.00011290
   0.34623517  0.31795008 -0.00004398
   0.30551917  0.65970116 -0.00002177
   0.11051724  0.22107674  0.95110259
   0.21769127  0.10819039  0.05291666
   0.10857771  0.55476108  0.94254413
   0.22298677  0.44074737  0.05024288
   0.10832908  0.88759720  0.95170019
   0.22049110  0.78093607  0.05267449
   0.44708717  0.22257638  0.94380278
   0.55958826  0.10791286  0.05364861
   0.44582301  0.55607220  0.95182400
   0.55767577  0.44787484  0.05234836
   0.44904269  0.88983644  0.95005141
   0.55474056  0.77829963  0.04611926
   0.77504358  0.21667317  0.94738555
   0.88776433  0.10987768  0.04899839
   0.77665935  0.55745527  0.94882658
   0.88362573  0.44322664  0.05519348
   0.77807260  0.89009838  0.95254258
   0.88911091  0.77866187  0.04846442
unknown system                          
           1
     8.341536    4.782599    0.000000
    -8.359709    4.814059    0.000000
     0.000000    0.000000   30.000000
   V    Mo   W    S 
   3   3   3  18
Direct configuration=    13
   0.00337571  0.00545566 -0.00109813
   0.67749331  0.66481506  0.00021516
   0.67417948  0.01679150  0.00041717
   0.65629785  0.32284680  0.00000436
   0.34949689  0.02235889  0.00001716
   0.99412521  0.35343931 -0.00002678
   0.00026870  0.64448359  0.00014009
   0.34784788  0.31749714 -0.00001699
   0.30374910  0.65984165 -0.00007953
   0.11102913  0.22179928  0.95147492
   0.21802640  0.10815960  0.05285408
   0.10773654  0.55449432  0.94243676
   0.22289868  0.44014011  0.04972851
   0.10848635  0.88731313  0.95212758
   0.21996676  0.78106996  0.05255742
   0.44737968  0.22239457  0.94354774
   0.55970040  0.10798488  0.05370808
   0.44562458  0.55602621  0.95232192
   0.55784986  0.44779198  0.05246351
   0.44901664  0.88966430  0.95025989
   0.55405855  0.77785821  0.04547349
   0.77483611  0.21675687  0.94726359
   0.88800739  0.11024814  0.04902311
   0.77641698  0.55727370  0.94866469
   0.88288566  0.44283833  0.05533014
   0.77816886  0.89016745  0.95264537
   0.88929177  0.77870381  0.04854659
unknown system                          
           1
     8.352236    4.788245    0.000000
    -8.368960    4.817174    0.000000
     0.000000    0.000000   30.000000
   V    Mo   W    S 
   3   3   3  18
Direct configuration=    14
   0.00327630  0.00553549 -0.00114017
   0.67797915  0.66462776  0.00023945
   0.67454570  0.01726374  0.00043733
   0.65634815  0.32285021  0.00000249
   0.34972899  0.02239687  0.00001527
   0.99375248  0.35325645 -0.00003498
  -0.00011090  0.64430623  0.00014643
   0.34806528  0.31749371 -0.00000473
   0.30352242  0.65996349 -0.00009712
   0.11112947  0.22194867  0.95152512
   0.21807299  0.10813564  0.05283514
   0.10752375  0.55443684  0.94242273
   0.22287583  0.44004571  0.04962682
   0.10850902  0.88727597  0.95220461
   0.21978972  0.78106135  0.05255451
   0.44742334  0.22235352  0.94351777
   0.55975242  0.10799766  0.05372084
   0.44562078  0.55606815  0.95242168
   0.55791842  0.44780723  0.05250414
   0.44907107  0.88965124  0.95028203
   0.55398294  0.77778954  0.04532540
   0.77477046  0.21674635  0.94722168
   0.88803270  0.11028253  0.04905119
   0.77635810  0.55722933  0.94858963
   0.88275353  0.44275752  0.05536728
   0.77817105  0.89017207  0.95266569
   0.88935127  0.77876120  0.04859965
unknown system                          
           1
     8.363460    4.791358    0.000000
    -8.379038    4.818269    0.000000
     0.000000    0.000000   30.000000
   V    Mo   W    S 
   3   3   3  18
Direct configuration=    15
   0.00283153  0.00582689 -0.00133177
   0.68038504  0.66382192  0.00035432
   0.67614245  0.01918301  0.00052836
   0.65632220  0.32305040 -0.00000807
   0.35076915  0.02288742  0.00001289
   0.99222638  0.35287921 -0.00006209
  -0.00179977  0.64322515  0.00016298
   0.34937068  0.31725037  0.00004959
   0.30211008  0.66040730 -0.00017276
   0.11163908  0.22268403  0.95180346
   0.21836628  0.10806677  0.05272926
   0.10655414  0.55417753  0.94237644
   0.22274368  0.43956293  0.04912589
   0.10862621  0.88706453  0.95260849
   0.21904273  0.78103834  0.05249134
   0.44763170  0.22217497  0.94339275
   0.55992299  0.10809240  0.05378352
   0.44559261  0.55622019  0.95292102
   0.55817212  0.44778889  0.05263671
   0.44921972  0.88957211  0.95040500
   0.55356532  0.77738266  0.04463130
   0.77454511  0.21683026  0.94703607
   0.88822819  0.11053002  0.04915601
   0.77610742  0.55704301  0.94832732
   0.88214914  0.44238527  0.05549664
   0.77822191  0.89015307  0.95278973
   0.88952832  0.77891582  0.04875551
unknown system                          
           1
     8.372633    4.798002    0.000000
    -8.386318    4.821616    0.000000
     0.000000    0.000000   30.000000
   V    Mo   W    S 
   3   3   3  18
Direct configuration=    16
   0.00183515  0.00664729 -0.00172845
   0.68445070  0.66172482  0.00060553
   0.67919139  0.02310328  0.00069978
   0.65663183  0.32350058 -0.00003185
   0.35291270  0.02352279  0.00002974
   0.98916283  0.35178209 -0.00014184
  -0.00522298  0.64120496  0.00020953
   0.35182843  0.31704670  0.00018296
   0.29965523  0.66153291 -0.00032536
   0.11267671  0.22411436  0.95230763
   0.21884405  0.10785363  0.05251090
   0.10468063  0.55370962  0.94228825
   0.22253314  0.43879130  0.04813326
   0.10882935  0.88673659  0.95340391
   0.21743324  0.78086474  0.05238400
   0.44805976  0.22184592  0.94316952
   0.56027163  0.10823201  0.05388588
   0.44561161  0.55659877  0.95389833
   0.55869613  0.44775919  0.05293256
   0.44958694  0.88946688  0.95060687
   0.55295365  0.77665980  0.04323093
   0.77414665  0.21696175  0.94667138
   0.88855647  0.11091420  0.04936867
   0.77568867  0.55665732  0.94774208
   0.88098656  0.44162620  0.05578900
   0.77826996  0.89006073  0.95309984
   0.88994401  0.77929603  0.04907685
unknown system                          
           1
     8.371253    4.796832    0.000000
    -8.384206    4.819167    0.000000
     0.000000    0.000000   30.000000
   V    Mo   W    S 
   3   3   3  18
Direct configuration=    17
   0.00168765  0.00691797 -0.00175828
   0.68398595  0.66125465  0.00065138
   0.67913243  0.02331335  0.00069530
   0.65701203  0.32358723 -0.00004733
   0.35306826  0.02332846  0.00001362
   0.98893186  0.35149732 -0.00015439
  -0.00556271  0.64108740  0.00019371
   0.35192064  0.31714445  0.00021598
   0.29974522  0.66170697 -0.00036662
   0.11279447  0.22428435  0.95228039
   0.21883917  0.10778171  0.05249682
   0.10445106  0.55365974  0.94227300
   0.22258117  0.43881518  0.04806158
   0.10882501  0.88675755  0.95348072
   0.21723173  0.78089672  0.05243483
   0.44809527  0.22178617  0.94316814
   0.56039547  0.10824150  0.05394164
   0.44568237  0.55666657  0.95392903
   0.55884332  0.44777880  0.05302064
   0.44973445  0.88957712  0.95055561
   0.55319099  0.77676303  0.04312684
   0.77412900  0.21695766  0.94659586
   0.88859721  0.11094258  0.04943190
   0.77573637  0.55657976  0.94764980
   0.88092487  0.44152948  0.05584897
   0.77817351  0.89000043  0.95314152
   0.89006766  0.77935828  0.04911924
unknown system                          
           1
     8.375273    4.798948    0.000000
    -8.387297    4.819662    0.000000
     0.000000    0.000000   30.000000
   V    Mo   W    S 
   3   3   3  18
Direct configuration=    18
   0.00130471  0.00732747 -0.00185596
   0.68449112  0.66042466  0.00074871
   0.67964820  0.02423280  0.00072805
   0.65729442  0.32377912 -0.00005927
   0.35365340  0.02337068  0.00002521
   0.98820550  0.35115561 -0.00017436
  -0.00644194  0.64051553  0.00020383
   0.35256132  0.31710436  0.00027697
   0.29920632  0.66212761 -0.00041538
   0.11314567  0.22471081  0.95236991
   0.21899851  0.10773404  0.05240341
   0.10396433  0.55356111  0.94228748
   0.22259007  0.43873214  0.04778541
   0.10885837  0.88671016  0.95372216
   0.21678316  0.78078418  0.05239503
   0.44820692  0.22171412  0.94317788
   0.56053319  0.10828776  0.05397125
   0.44571140  0.55676066  0.95415514
   0.55901316  0.44770619  0.05310458
   0.44988086  0.88961436  0.95056417
   0.55321577  0.77668217  0.04276627
   0.77406935  0.21700494  0.94648899
   0.88866228  0.11102200  0.04950074
   0.77567589  0.55646376  0.94750863
   0.88071789  0.44133304  0.05590515
   0.77812380  0.88993652  0.95325790
   0.89014079  0.77941866  0.04915801
unknown system                          
           1
     8.391167    4.808077    0.000000
    -8.398523    4.820642    0.000000
     0.000000    0.000000   30.000000
   V    Mo   W    S 
   3   3   3  18
Direct configuration=    19
   0.00088584  0.00780236 -0.00193707
   0.68465556  0.65965095  0.00083557
   0.67992589  0.02490727  0.00074151
   0.65763612  0.32396622 -0.00007289
   0.35410725  0.02326310  0.00003455
   0.98766876  0.35075455 -0.00019872
  -0.00714723  0.64011381  0.00020676
   0.35300430  0.31711280  0.00033275
   0.29890856  0.66253644 -0.00047672
   0.11347608  0.22507534  0.95240748
   0.21910353  0.10766217  0.05234090
   0.10358242  0.55348247  0.94228050
   0.22265731  0.43871449  0.04757510
   0.10886101  0.88669139  0.95392702
   0.21641608  0.78072098  0.05239133
   0.44831031  0.22164743  0.94317765
   0.56068275  0.10831782  0.05402498
   0.44573942  0.55683296  0.95430771
   0.55918907  0.44763473  0.05320919
   0.45003287  0.88967878  0.95053270
   0.55331200  0.77667512  0.04250363
   0.77404730  0.21703493  0.94638218
   0.88870410  0.11106890  0.04957674
   0.77563733  0.55637268  0.94738725
   0.88057264  0.44115746  0.05597680
   0.77804483  0.88987173  0.95335231
   0.89020037  0.77946755  0.04918070
unknown system                          
           1
     8.382817    4.803824    0.000000
    -8.390767    4.817429    0.000000
     0.000000    0.000000   30.000000
   V    Mo   W    S 
   3   3   3  18
Direct configuration=    20
  -0.00135990  0.01026889 -0.00227807
   0.68499597  0.65612500  0.00122433
   0.68075365  0.02761927  0.00077364
   0.65921688  0.32484194 -0.00010956
   0.35630772  0.02284695  0.00007408
   0.98538668  0.34897360 -0.00028289
  -0.01017133  0.63816234  0.00020791
   0.35507313  0.31718555  0.00059199
   0.29789381  0.66439090 -0.00075471
   0.11503294  0.22668261  0.95251364
   0.21954108  0.10732703  0.05202677
   0.10197969  0.55315199  0.94228883
   0.22308156  0.43884524  0.04662655
   0.10872572  0.88667244  0.95492437
   0.21489067  0.78038721  0.05236660
   0.44879965  0.22135359  0.94327029
   0.56142342  0.10853501  0.05423007
   0.44582891  0.55705242  0.95496322
   0.55995157  0.44714663  0.05363614
   0.45067231  0.89001533  0.95034306
   0.55380262  0.77669273  0.04139425
   0.77402545  0.21721399  0.94595835
   0.88881485  0.11121934  0.04990336
   0.77543704  0.55595576  0.94693347
   0.88014775  0.44037211  0.05620707
   0.77758687  0.88955484  0.95377895
   0.89037572  0.77962170  0.04918818
unknown system                          
           1
     8.383650    4.804496    0.000000
    -8.390606    4.816367    0.000000
     0.000000    0.000000   30.000000
   V    Mo   W    S 
   3   3   3  18
Direct configuration=    21
  -0.00141588  0.01026827 -0.00223828
   0.68476170  0.65653136  0.00117971
   0.68037963  0.02704985  0.00074542
   0.65912218  0.32482296 -0.00011029
   0.35612083  0.02276205  0.00008026
   0.98587281  0.34914347 -0.00029614
  -0.00965813  0.63849389  0.00019236
   0.35478523  0.31716535  0.00058069
   0.29810184  0.66418897 -0.00073756
   0.11492560  0.22651325  0.95245415
   0.21947057  0.10734534  0.05204302
   0.10222736  0.55319754  0.94229080
   0.22313171  0.43893435  0.04674224
   0.10865802  0.88674049  0.95488397
   0.21511554  0.78039698  0.05236060
   0.44881105  0.22139115  0.94326498
   0.56137890  0.10854924  0.05423686
   0.44580492  0.55696480  0.95485967
   0.55988031  0.44710862  0.05361493
   0.45058508  0.89001348  0.95031387
   0.55377667  0.77671508  0.04157679
   0.77407047  0.21724203  0.94600765
   0.88875794  0.11118209  0.04989227
   0.77544066  0.55596500  0.94701281
   0.88026839  0.44043008  0.05619671
   0.77752200  0.88953247  0.95370681
   0.89031904  0.77956631  0.04914561
unknown system                          
           1
     8.382890    4.804013    0.000000
    -8.390053    4.816244    0.000000
     0.000000    0.000000   30.000000
   V    Mo   W    S 
   3   3   3  18
Direct configuration=    22
  -0.00221983  0.01114248 -0.00228328
   0.68457416  0.65568830  0.00127133
   0.68027798  0.02745097  0.00072885
   0.65956445  0.32507014 -0.00010866
   0.35673425  0.02256951  0.00009674
   0.98550784  0.34870870 -0.00031689
  -0.01019499  0.63805448  0.00019486
   0.35526590  0.31717978  0.00064780
   0.29799615  0.66466915 -0.00082477
   0.11536484  0.22692292  0.95239975
   0.21950494  0.10721636  0.05197263
   0.10193709  0.55313193  0.94226790
   0.22333217  0.43902982  0.04655700
   0.10854372  0.88679510  0.95515764
   0.21482623  0.78030887  0.05237476
   0.44896820  0.22133059  0.94329115
   0.56160451  0.10864512  0.05431843
   0.44579358  0.55695679  0.95496294
   0.56006212  0.44690736  0.05374359
   0.45072192  0.89009758  0.95020582
   0.55388029  0.77672587  0.04139696
   0.77410549  0.21731455  0.94590204
   0.88873315  0.11119068  0.05000571
   0.77538598  0.55583389  0.94690783
   0.88028593  0.44023437  0.05624853
   0.77728019  0.88941439  0.95375365
   0.89037820  0.77962476  0.04912758
unknown system                          
           1
     8.379073    4.800339    0.000000
    -8.386804    4.813558    0.000000
     0.000000    0.000000   30.000000
   V    Mo   W    S 
   3   3   3  18
Direct configuration=    23
  -0.00216441  0.01109031 -0.00226466
   0.68452721  0.65579582  0.00125883
   0.68022180  0.02734632  0.00072600
   0.65952243  0.32504228 -0.00010496
   0.35667682  0.02257975  0.00009587
   0.98559198  0.34877467 -0.00031191
  -0.01008006  0.63810454  0.00019735
   0.35520790  0.31717938  0.00063840
   0.29803894  0.66461461 -0.00081941
   0.11532295  0.22688003  0.95238559
   0.21947860  0.10721845  0.05198669
   0.10199657  0.55314331  0.94226181
   0.22332635  0.43902506  0.04659404
   0.10854106  0.88679746  0.95512487
   0.21487968  0.78032103  0.05238104
   0.44895551  0.22134255  0.94328722
   0.56158629  0.10864461  0.05431592
   0.44578455  0.55694451  0.95493491
   0.56003641  0.44691355  0.05373392
   0.45070005  0.89008342  0.95020461
   0.55385769  0.77672390  0.04144250
   0.77410950  0.21731305  0.94591318
   0.88872792  0.11118438  0.05000047
   0.77539218  0.55584080  0.94691765
   0.88031212  0.44025877  0.05623952
   0.77727993  0.88942145  0.95373053
   0.89038448  0.77963045  0.04912994
unknown system                          
           1
     8.391412    4.810334    0.000000
    -8.399344    4.823911    0.000000
     0.000000    0.000000   30.000000
   V    Mo   W    S 
   3   3   3  18
Direct configuration=    24
  -0.00273350  0.01167489 -0.00224535
   0.68429762  0.65540712  0.00128055
   0.67988384  0.02728557  0.00068981
   0.65985781  0.32532213 -0.00011041
   0.35699208  0.02237292  0.00010998
   0.98561706  0.34854813 -0.00034121
  -0.01025513  0.63795094  0.00016823
   0.35542852  0.31721436  0.00068066
   0.29815622  0.66487793 -0.00085471
   0.11547960  0.22700051  0.95229003
   0.21941022  0.10710138  0.05195759
   0.10193807  0.55310745  0.94224071
   0.22345361  0.43911733  0.04656699
   0.10838440  0.88687664  0.95527800
   0.21485876  0.78026499  0.05240904
   0.44912591  0.22131546  0.94330787
   0.56175114  0.10875034  0.05437523
   0.44577516  0.55692591  0.95490415
   0.56016782  0.44676864  0.05380958
   0.45077478  0.89014842  0.95008831