   27   27  100    1
  0.9710400E+02  0.1002848E-08  0.1002848E-08  0.3000000E-08  0.5000000E-15
  1.000000000000000E-004
  CAR 
 unknown system                          
    159     34    120
 
  0.0000000E+00  0.0000000E+00  0.0000000E+00  0.1562500E-01
    1      -17.797009   1.000000
    2      -16.750302   1.000000
    3      -16.655346   1.000000
    4      -16.571160   1.000000
    5      -16.513061   1.000000
    6      -16.461286   1.000000
    7      -16.394126   1.000000
    8      -16.313107   1.000000
    9      -16.217913   1.000000
   10      -16.160698   1.000000
   11      -16.064736   1.000000
   12      -16.017316   1.000000
   13      -15.866626   1.000000
   14      -15.603710   1.000000
   15      -15.564247   1.000000
   16      -15.459289   1.000000
   17      -15.369648   1.000000
   18      -15.239482   1.000000
   19       -9.306522   1.000000
   20       -9.084485   1.000000
   21       -8.961790   1.000000
   22       -8.903567   1.000000
   23       -8.812192   1.000000
   24       -8.741140   1.000000
   25       -8.624860   1.000000
   26       -8.602836   1.000000
   27       -8.508537   1.000000
   28       -8.400746   1.000000
   29       -8.338928   1.000000
   30       -8.288758   1.000000
   31       -8.232233   1.000000
   32       -8.110287   1.000000
   33       -8.013308   1.000000
   34       -7.949530   1.000000
   35       -7.907531   1.000000
   36       -7.798655   1.000000
   37       -7.679081   1.000000
   38       -7.515655   1.000000
   39       -7.483677   1.000000
   40       -7.447762   1.000000
   41       -7.276655   1.000000
   42       -7.164184   1.000000
   43       -7.131078   1.000000
   44       -6.998814   1.000000
   45       -6.845182   1.000000
   46       -6.815360   1.000000
   47       -6.641848   1.000000
   48       -6.612700   1.000000
   49       -6.571824   1.000000
   50       -6.536343   1.000000
   51       -6.496952   1.000000
   52       -6.415214   1.000000
   53       -6.311009   1.000000
   54       -6.256493   1.000000
   55       -6.202024   1.000000
   56       -6.183023   1.000000
   57       -6.076289   1.000000
   58       -5.916830   1.000000
   59       -5.718435   1.000000
   60       -5.563966   1.000000
   61       -5.523579   1.000000
   62       -5.430410   1.000000
   63       -5.230412   1.000000
   64       -5.123742   1.000000
   65       -5.036024   1.000000
   66       -4.973586   1.000000
   67       -4.885834   1.000000
   68       -4.857037   1.000000
   69       -4.813966   1.000000
   70       -4.747207   1.000000
   71       -4.642466   1.000000
   72       -4.606846   1.000000
   73       -4.490417   1.000000
   74       -4.338223   1.000000
   75       -4.292755   1.000000
   76       -4.118808   1.000000
   77       -3.829215   0.999663
   78       -3.587899   0.954862
   79       -3.514084   0.879400
   80       -3.363558   0.542848
   81       -3.311610   0.397543
   82       -2.868372   0.000345
   83       -2.737364   0.000008
   84       -2.615286   0.000000
   85       -2.522912   0.000000
   86       -2.476898   0.000000
   87       -2.368828   0.000000
   88       -2.244322   0.000000
   89       -2.224162   0.000000
   90       -2.071838   0.000000
   91       -2.046952   0.000000
   92       -1.395781   0.000000
   93       -1.322811   0.000000
   94       -1.263648   0.000000
   95       -1.113956   0.000000
   96       -1.055577   0.000000
   97       -1.001518   0.000000
   98       -0.852536   0.000000
   99       -0.709331   0.000000
  100       -0.697021   0.000000
  101       -0.624689   0.000000
  102       -0.530077   0.000000
  103       -0.494936   0.000000
  104       -0.337540   0.000000
  105       -0.215968   0.000000
  106       -0.128068   0.000000
  107       -0.075737   0.000000
  108       -0.001728   0.000000
  109        0.078086   0.000000
  110        0.280527   0.000000
  111        0.316392   0.000000
  112        0.598859   0.000000
  113        0.751921   0.000000
  114        0.784920   0.000000
  115        0.834534   0.000000
  116        1.035184   0.000000
  117        1.117819   0.000000
  118        1.639236   0.000000
  119        1.837274   0.000000
  120        2.148339   0.000000
 
  0.1250000E+00  0.2775558E-16  0.0000000E+00  0.3125000E-01
    1      -17.771828   1.000000
    2      -16.784581   1.000000
    3      -16.731369   1.000000
    4      -16.640389   1.000000
    5      -16.489767   1.000000
    6      -16.408542   1.000000
    7      -16.372189   1.000000
    8      -16.331835   1.000000
    9      -16.241680   1.000000
   10      -16.089270   1.000000
   11      -16.041610   1.000000
   12      -15.992509   1.000000
   13      -15.847378   1.000000
   14      -15.611740   1.000000
   15      -15.574946   1.000000
   16      -15.452243   1.000000
   17      -15.379215   1.000000
   18      -15.246997   1.000000
   19       -9.288647   1.000000
   20       -9.190428   1.000000
   21       -9.072223   1.000000
   22       -9.017726   1.000000
   23       -8.797308   1.000000
   24       -8.712901   1.000000
   25       -8.668380   1.000000
   26       -8.566248   1.000000
   27       -8.498128   1.000000
   28       -8.411752   1.000000
   29       -8.380034   1.000000
   30       -8.188102   1.000000
   31       -8.136414   1.000000
   32       -8.070994   1.000000
   33       -8.024749   1.000000
   34       -7.879112   1.000000
   35       -7.815888   1.000000
   36       -7.702380   1.000000
   37       -7.661248   1.000000
   38       -7.569847   1.000000
   39       -7.486638   1.000000
   40       -7.358868   1.000000
   41       -7.311229   1.000000
   42       -7.237136   1.000000
   43       -7.137428   1.000000
   44       -7.011955   1.000000
   45       -6.861103   1.000000
   46       -6.827416   1.000000
   47       -6.726406   1.000000
   48       -6.665047   1.000000
   49       -6.568445   1.000000
   50       -6.475628   1.000000
   51       -6.456197   1.000000
   52       -6.386067   1.000000
   53       -6.304885   1.000000
   54       -6.254432   1.000000
   55       -6.189394   1.000000
   56       -6.157369   1.000000
   57       -6.024095   1.000000
   58       -5.921306   1.000000
   59       -5.710027   1.000000
   60       -5.560332   1.000000
   61       -5.525637   1.000000
   62       -5.449788   1.000000
   63       -5.344321   1.000000
   64       -5.167527   1.000000
   65       -5.140539   1.000000
   66       -5.037324   1.000000
   67       -4.906661   1.000000
   68       -4.887074   1.000000
   69       -4.781626   1.000000
   70       -4.697711   1.000000
   71       -4.615352   1.000000
   72       -4.519424   1.000000
   73       -4.443119   1.000000
   74       -4.324875   1.000000
   75       -4.236290   1.000000
   76       -4.069375   1.000000
   77       -3.901306   0.999954
   78       -3.684813   0.991326
   79       -3.570911   0.942235
   80       -3.444810   0.752428
   81       -3.132481   0.063462
   82       -2.855668   0.000247
   83       -2.742198   0.000009
   84       -2.619381   0.000000
   85       -2.516637   0.000000
   86       -2.452774   0.000000
   87       -2.360748   0.000000
   88       -2.230432   0.000000
   89       -2.189208   0.000000
   90       -2.063221   0.000000
   91       -2.059791   0.000000
   92       -1.401717   0.000000
   93       -1.313898   0.000000
   94       -1.249087   0.000000
   95       -1.103458   0.000000
   96       -1.057475   0.000000
   97       -0.989719   0.000000
   98       -0.856624   0.000000
   99       -0.791910   0.000000
  100       -0.726150   0.000000
  101       -0.670363   0.000000
  102       -0.554344   0.000000
  103       -0.515489   0.000000
  104       -0.341399   0.000000
  105       -0.273516   0.000000
  106       -0.201773   0.000000
  107       -0.121693   0.000000
  108       -0.068574   0.000000
  109        0.124599   0.000000
  110        0.259446   0.000000
  111        0.300405   0.000000
  112        0.569394   0.000000
  113        0.733476   0.000000
  114        0.829235   0.000000
  115        0.914136   0.000000
  116        1.078889   0.000000
  117        1.151911   0.000000
  118        1.683422   0.000000
  119        1.875854   0.000000
  120        2.183511   0.000000
 
  0.2500000E+00  0.5551115E-16  0.0000000E+00  0.3125000E-01
    1      -17.697441   1.000000
    2      -16.986418   1.000000
    3      -16.732208   1.000000
    4      -16.697200   1.000000
    5      -16.553265   1.000000
    6      -16.390102   1.000000
    7      -16.319007   1.000000
    8      -16.279156   1.000000
    9      -16.233249   1.000000
   10      -16.062437   1.000000
   11      -15.984365   1.000000
   12      -15.932736   1.000000
   13      -15.778053   1.000000
   14      -15.631385   1.000000
   15      -15.594660   1.000000
   16      -15.456115   1.000000
   17      -15.386889   1.000000
   18      -15.266658   1.000000
   19       -9.478473   1.000000
   20       -9.286067   1.000000
   21       -9.155978   1.000000
   22       -9.057341   1.000000
   23       -8.902445   1.000000
   24       -8.729244   1.000000
   25       -8.660879   1.000000
   26       -8.536188   1.000000
   27       -8.464403   1.000000
   28       -8.399709   1.000000
   29       -8.296152   1.000000
   30       -8.231316   1.000000
   31       -8.101482   1.000000
   32       -7.977313   1.000000
   33       -7.899493   1.000000
   34       -7.833801   1.000000
   35       -7.737067   1.000000
   36       -7.664427   1.000000
   37       -7.588568   1.000000
   38       -7.460574   1.000000
   39       -7.426209   1.000000
   40       -7.366409   1.000000
   41       -7.311083   1.000000
   42       -7.226016   1.000000
   43       -7.119293   1.000000
   44       -6.990914   1.000000
   45       -6.951744   1.000000
   46       -6.877214   1.000000
   47       -6.704783   1.000000
   48       -6.677129   1.000000
   49       -6.550853   1.000000
   50       -6.505691   1.000000
   51       -6.417368   1.000000
   52       -6.391622   1.000000
   53       -6.287323   1.000000
   54       -6.184618   1.000000
   55       -6.130449   1.000000
   56       -6.088502   1.000000
   57       -5.963150   1.000000
   58       -5.900950   1.000000
   59       -5.779614   1.000000
   60       -5.671094   1.000000
   61       -5.590361   1.000000
   62       -5.565969   1.000000
   63       -5.479865   1.000000
   64       -5.290611   1.000000
   65       -5.191443   1.000000
   66       -5.112611   1.000000
   67       -4.961525   1.000000
   68       -4.842325   1.000000
   69       -4.798390   1.000000
   70       -4.617364   1.000000
   71       -4.526859   1.000000
   72       -4.402246   1.000000
   73       -4.337032   1.000000
   74       -4.305087   1.000000
   75       -4.175748   1.000000
   76       -4.093898   1.000000
   77       -4.011653   0.999999
   78       -3.882666   0.999921
   79       -3.595697   0.959862
   80       -3.388122   0.610763
   81       -3.004355   0.007501
   82       -2.834613   0.000140
   83       -2.737199   0.000008
   84       -2.632308   0.000000
   85       -2.487745   0.000000
   86       -2.418086   0.000000
   87       -2.343675   0.000000
   88       -2.226247   0.000000
   89       -2.108280   0.000000
   90       -2.055530   0.000000
   91       -2.022345   0.000000
   92       -1.422160   0.000000
   93       -1.293133   0.000000
   94       -1.199495   0.000000
   95       -1.102572   0.000000
   96       -1.087038   0.000000
   97       -0.979117   0.000000
   98       -0.925525   0.000000
   99       -0.860900   0.000000
  100       -0.809895   0.000000
  101       -0.736761   0.000000
  102       -0.644335   0.000000
  103       -0.579100   0.000000
  104       -0.460415   0.000000
  105       -0.378730   0.000000
  106       -0.299094   0.000000
  107       -0.217244   0.000000
  108       -0.097243   0.000000
  109        0.116136   0.000000
  110        0.139976   0.000000
  111        0.343409   0.000000
  112        0.484882   0.000000
  113        0.788201   0.000000
  114        0.881280   0.000000
  115        0.963381   0.000000
  116        1.179678   0.000000
  117        1.311389   0.000000
  118        1.806112   0.000000
  119        1.986324   0.000000
  120        2.287752   0.000000
 
  0.3750000E+00  0.0000000E+00  0.0000000E+00  0.3125000E-01
    1      -17.578471   1.000000
    2      -17.200254   1.000000
    3      -16.756143   1.000000
    4      -16.692943   1.000000
    5      -16.613404   1.000000
    6      -16.417616   1.000000
    7      -16.264102   1.000000
    8      -16.252632   1.000000
    9      -16.176185   1.000000
   10      -16.069845   1.000000
   11      -15.928572   1.000000
   12      -15.876075   1.000000
   13      -15.742475   1.000000
   14      -15.642665   1.000000
   15      -15.593493   1.000000
   16      -15.490055   1.000000
   17      -15.369486   1.000000
   18      -15.289490   1.000000
   19       -9.687373   1.000000
   20       -9.384135   1.000000
   21       -9.151881   1.000000
   22       -9.046651   1.000000
   23       -8.937055   1.000000
   24       -8.766983   1.000000
   25       -8.635868   1.000000
   26       -8.514616   1.000000
   27       -8.461779   1.000000
   28       -8.345508   1.000000
   29       -8.316548   1.000000
   30       -8.170468   1.000000
   31       -8.090072   1.000000
   32       -7.962675   1.000000
   33       -7.910639   1.000000
   34       -7.842872   1.000000
   35       -7.751843   1.000000
   36       -7.654519   1.000000
   37       -7.601494   1.000000
   38       -7.467167   1.000000
   39       -7.364348   1.000000
   40       -7.270380   1.000000
   41       -7.192802   1.000000
   42       -7.113089   1.000000
   43       -7.076707   1.000000
   44       -6.979453   1.000000
   45       -6.919902   1.000000
   46       -6.793770   1.000000
   47       -6.699162   1.000000
   48       -6.609446   1.000000
   49       -6.516959   1.000000
   50       -6.480221   1.000000
   51       -6.421529   1.000000
   52       -6.368641   1.000000
   53       -6.241162   1.000000
   54       -6.186204   1.000000
   55       -6.127374   1.000000
   56       -6.063629   1.000000
   57       -5.992576   1.000000
   58       -5.933568   1.000000
   59       -5.851255   1.000000
   60       -5.771076   1.000000
   61       -5.756006   1.000000
   62       -5.693375   1.000000
   63       -5.563234   1.000000
   64       -5.308786   1.000000
   65       -5.192099   1.000000
   66       -5.127263   1.000000
   67       -5.000272   1.000000
   68       -4.836177   1.000000
   69       -4.741936   1.000000
   70       -4.713323   1.000000
   71       -4.471120   1.000000
   72       -4.399146   1.000000
   73       -4.336574   1.000000
   74       -4.254988   1.000000
   75       -4.184435   1.000000
   76       -4.123786   1.000000
   77       -3.977965   0.999996
   78       -3.873551   0.999898
   79       -3.641006   0.980749
   80       -3.320752   0.422669
   81       -2.940830   0.001979
   82       -2.825192   0.000108
   83       -2.716962   0.000004
   84       -2.638722   0.000000
   85       -2.457156   0.000000
   86       -2.420936   0.000000
   87       -2.308379   0.000000
   88       -2.233929   0.000000
   89       -2.063388   0.000000
   90       -2.019401   0.000000
   91       -1.926647   0.000000
   92       -1.453331   0.000000
   93       -1.270915   0.000000
   94       -1.196439   0.000000
   95       -1.151589   0.000000
   96       -1.106584   0.000000
   97       -1.028298   0.000000
   98       -0.940006   0.000000
   99       -0.871261   0.000000
  100       -0.852115   0.000000
  101       -0.808312   0.000000
  102       -0.753642   0.000000
  103       -0.659004   0.000000
  104       -0.588228   0.000000
  105       -0.478179   0.000000
  106       -0.385105   0.000000
  107       -0.235091   0.000000
  108       -0.146321   0.000000
  109        0.014442   0.000000
  110        0.149482   0.000000
  111        0.309831   0.000000
  112        0.454589   0.000000
  113        0.797756   0.000000
  114        0.929012   0.000000
  115        1.007318   0.000000
  116        1.299977   0.000000
  117        1.451398   0.000000
  118        1.989928   0.000000
  119        2.157931   0.000000
  120        2.457694   0.000000
 
  0.5000000E+00  0.1110223E-15  0.0000000E+00  0.1562500E-01
    1      -17.459608   1.000000
    2      -17.352683   1.000000
    3      -16.769387   1.000000
    4      -16.672253   1.000000
    5      -16.647564   1.000000
    6      -16.428503   1.000000
    7      -16.263923   1.000000
    8      -16.230346   1.000000
    9      -16.126046   1.000000
   10      -16.098916   1.000000
   11      -15.900318   1.000000
   12      -15.837176   1.000000
   13      -15.761862   1.000000
   14      -15.648805   1.000000
   15      -15.579288   1.000000
   16      -15.506663   1.000000
   17      -15.358677   1.000000
   18      -15.300345   1.000000
   19       -9.762908   1.000000
   20       -9.426371   1.000000
   21       -9.150768   1.000000
   22       -9.067666   1.000000
   23       -8.855797   1.000000
   24       -8.816230   1.000000
   25       -8.603134   1.000000
   26       -8.564201   1.000000
   27       -8.485142   1.000000
   28       -8.364349   1.000000
   29       -8.188985   1.000000
   30       -8.142137   1.000000
   31       -8.065391   1.000000
   32       -8.034441   1.000000
   33       -7.940622   1.000000
   34       -7.867651   1.000000
   35       -7.790430   1.000000
   36       -7.639403   1.000000
   37       -7.598048   1.000000
   38       -7.472849   1.000000
   39       -7.394102   1.000000
   40       -7.292899   1.000000
   41       -7.072497   1.000000
   42       -7.067238   1.000000
   43       -7.033496   1.000000
   44       -6.875421   1.000000
   45       -6.847067   1.000000
   46       -6.692450   1.000000
   47       -6.658472   1.000000
   48       -6.608023   1.000000
   49       -6.569743   1.000000
   50       -6.515400   1.000000
   51       -6.453553   1.000000
   52       -6.329820   1.000000
   53       -6.312666   1.000000
   54       -6.232883   1.000000
   55       -6.136184   1.000000
   56       -6.054863   1.000000
   57       -5.962944   1.000000
   58       -5.940474   1.000000
   59       -5.880826   1.000000
   60       -5.813804   1.000000
   61       -5.750916   1.000000
   62       -5.679122   1.000000
   63       -5.571873   1.000000
   64       -5.344149   1.000000
   65       -5.289537   1.000000
   66       -5.095480   1.000000
   67       -5.067799   1.000000
   68       -4.939822   1.000000
   69       -4.729848   1.000000
   70       -4.598578   1.000000
   71       -4.497103   1.000000
   72       -4.411074   1.000000
   73       -4.360900   1.000000
   74       -4.245876   1.000000
   75       -4.185148   1.000000
   76       -4.094432   1.000000
   77       -3.942872   0.999987
   78       -3.834631   0.999708
   79       -3.678928   0.990296
   80       -3.292628   0.346813
   81       -2.921954   0.001285
   82       -2.825539   0.000109
   83       -2.699209   0.000002
   84       -2.648491   0.000000
   85       -2.445707   0.000000
   86       -2.419774   0.000000
   87       -2.300219   0.000000
   88       -2.229386   0.000000
   89       -2.044129   0.000000
   90       -2.006550   0.000000
   91       -1.873776   0.000000
   92       -1.463796   0.000000
   93       -1.294275   0.000000
   94       -1.219972   0.000000
   95       -1.176249   0.000000
   96       -1.068735   0.000000
   97       -1.056605   0.000000
   98       -0.953837   0.000000
   99       -0.870317   0.000000
  100       -0.852431   0.000000
  101       -0.827869   0.000000
  102       -0.810652   0.000000
  103       -0.701398   0.000000
  104       -0.638921   0.000000
  105       -0.513446   0.000000
  106       -0.417088   0.000000
  107       -0.234557   0.000000
  108       -0.179291   0.000000
  109       -0.015021   0.000000
  110        0.148864   0.000000
  111        0.291500   0.000000
  112        0.448763   0.000000
  113        0.787685   0.000000
  114        0.967927   0.000000
  115        1.018897   0.000000
  116        1.341297   0.000000
  117        1.506255   0.000000
  118        2.206515   0.000000
  119        2.243728   0.000000
  120        2.368480   0.000000
 
  0.0000000E+00  0.1250000E+00  0.0000000E+00  0.3125000E-01
    1      -17.771663   1.000000
    2      -16.790257   1.000000
    3      -16.742333   1.000000
    4      -16.587685   1.000000
    5      -16.528877   1.000000
    6      -16.425145   1.000000
    7      -16.360530   1.000000
    8      -16.326284   1.000000
    9      -16.237148   1.000000
   10      -16.112658   1.000000
   11      -16.026309   1.000000
   12      -15.975791   1.000000
   13      -15.857922   1.000000
   14      -15.614297   1.000000
   15      -15.577732   1.000000
   16      -15.450633   1.000000
   17      -15.371264   1.000000
   18      -15.251237   1.000000
   19       -9.297707   1.000000
   20       -9.216013   1.000000
   21       -9.062013   1.000000
   22       -9.029947   1.000000
   23       -8.776190   1.000000
   24       -8.697107   1.000000
   25       -8.662527   1.000000
   26       -8.561252   1.000000
   27       -8.451973   1.000000
   28       -8.427011   1.000000
   29       -8.392481   1.000000
   30       -8.220775   1.000000
   31       -8.147203   1.000000
   32       -8.062925   1.000000
   33       -8.004169   1.000000
   34       -7.892614   1.000000
   35       -7.821659   1.000000
   36       -7.705308   1.000000
   37       -7.657335   1.000000
   38       -7.567375   1.000000
   39       -7.476312   1.000000
   40       -7.366432   1.000000
   41       -7.331700   1.000000
   42       -7.190505   1.000000
   43       -7.134905   1.000000
   44       -7.021765   1.000000
   45       -6.875704   1.000000
   46       -6.826050   1.000000
   47       -6.742993   1.000000
   48       -6.637108   1.000000
   49       -6.573963   1.000000
   50       -6.468888   1.000000
   51       -6.433924   1.000000
   52       -6.381579   1.000000
   53       -6.345070   1.000000
   54       -6.279563   1.000000
   55       -6.194073   1.000000
   56       -6.147455   1.000000
   57       -6.011127   1.000000
   58       -5.934057   1.000000
   59       -5.704296   1.000000
   60       -5.562419   1.000000
   61       -5.508924   1.000000
   62       -5.470717   1.000000
   63       -5.339653   1.000000
   64       -5.175051   1.000000
   65       -5.121343   1.000000
   66       -5.009029   1.000000
   67       -4.938315   1.000000
   68       -4.875177   1.000000
   69       -4.801157   1.000000
   70       -4.702619   1.000000
   71       -4.613965   1.000000
   72       -4.557962   1.000000
   73       -4.417202   1.000000
   74       -4.315782   1.000000
   75       -4.224037   1.000000
   76       -4.061372   1.000000
   77       -3.884265   0.999925
   78       -3.725993   0.996212
   79       -3.534640   0.906139
   80       -3.443381   0.749225
   81       -3.155266   0.086090
   82       -2.852520   0.000227
   83       -2.726163   0.000005
   84       -2.637477   0.000000
   85       -2.504451   0.000000
   86       -2.466236   0.000000
   87       -2.353269   0.000000
   88       -2.230800   0.000000
   89       -2.199706   0.000000
   90       -2.097490   0.000000
   91       -2.009930   0.000000
   92       -1.405016   0.000000
   93       -1.340405   0.000000
   94       -1.218502   0.000000
   95       -1.115982   0.000000
   96       -1.060830   0.000000
   97       -0.987528   0.000000
   98       -0.885880   0.000000
   99       -0.803474   0.000000
  100       -0.711424   0.000000
  101       -0.688506   0.000000
  102       -0.573261   0.000000
  103       -0.499172   0.000000
  104       -0.342720   0.000000
  105       -0.296985   0.000000
  106       -0.146744   0.000000
  107       -0.118640   0.000000
  108       -0.054304   0.000000
  109        0.116411   0.000000
  110        0.274106   0.000000
  111        0.353095   0.000000
  112        0.609747   0.000000
  113        0.733907   0.000000
  114        0.781223   0.000000
  115        0.912495   0.000000
  116        1.049426   0.000000
  117        1.132089   0.000000
  118        1.684546   0.000000
  119        1.875362   0.000000
  120        2.183815   0.000000
 
  0.1250000E+00  0.1250000E+00  0.0000000E+00  0.3125000E-01
    1      -17.720320   1.000000
    2      -16.928738   1.000000
    3      -16.745928   1.000000
    4      -16.690906   1.000000
    5      -16.491944   1.000000
    6      -16.402792   1.000000
    7      -16.365388   1.000000
    8      -16.273263   1.000000
    9      -16.236466   1.000000
   10      -16.086790   1.000000
   11      -15.996492   1.000000
   12      -15.943362   1.000000
   13      -15.796881   1.000000
   14      -15.622300   1.000000
   15      -15.589878   1.000000
   16      -15.447606   1.000000
   17      -15.377550   1.000000
   18      -15.271230   1.000000
   19       -9.419566   1.000000
   20       -9.318385   1.000000
   21       -9.156661   1.000000
   22       -9.002600   1.000000
   23       -8.896890   1.000000
   24       -8.683194   1.000000
   25       -8.669690   1.000000
   26       -8.502942   1.000000
   27       -8.446812   1.000000
   28       -8.383256   1.000000
   29       -8.320371   1.000000
   30       -8.222079   1.000000
   31       -8.145091   1.000000
   32       -8.109391   1.000000
   33       -7.911839   1.000000
   34       -7.805622   1.000000
   35       -7.739079   1.000000
   36       -7.692152   1.000000
   37       -7.597729   1.000000
   38       -7.476826   1.000000
   39       -7.420064   1.000000
   40       -7.356986   1.000000
   41       -7.286185   1.000000
   42       -7.237956   1.000000
   43       -7.148833   1.000000
   44       -7.047310   1.000000
   45       -6.893325   1.000000
   46       -6.853496   1.000000
   47       -6.770339   1.000000
   48       -6.656332   1.000000
   49       -6.616264   1.000000
   50       -6.486728   1.000000
   51       -6.419853   1.000000
   52       -6.325846   1.000000
   53       -6.270601   1.000000
   54       -6.224728   1.000000
   55       -6.182027   1.000000
   56       -6.117297   1.000000
   57       -5.963789   1.000000
   58       -5.927162   1.000000
   59       -5.745512   1.000000
   60       -5.667169   1.000000
   61       -5.518127   1.000000
   62       -5.460791   1.000000
   63       -5.427254   1.000000
   64       -5.347824   1.000000
   65       -5.158397   1.000000
   66       -5.109406   1.000000
   67       -4.954416   1.000000
   68       -4.900676   1.000000
   69       -4.775410   1.000000
   70       -4.655751   1.000000
   71       -4.575417   1.000000
   72       -4.438305   1.000000
   73       -4.308233   1.000000
   74       -4.285455   1.000000
   75       -4.190071   1.000000
   76       -4.038701   0.999999
   77       -3.978795   0.999996
   78       -3.879898   0.999915
   79       -3.602578   0.963891
   80       -3.396103   0.632221
   81       -3.017050   0.009576
   82       -2.859414   0.000273
   83       -2.725471   0.000005
   84       -2.653538   0.000000
   85       -2.502023   0.000000
   86       -2.435490   0.000000
   87       -2.364526   0.000000
   88       -2.234431   0.000000
   89       -2.122966   0.000000
   90       -2.101475   0.000000
   91       -1.989189   0.000000
   92       -1.403736   0.000000
   93       -1.322155   0.000000
   94       -1.177272   0.000000
   95       -1.106195   0.000000
   96       -1.069948   0.000000
   97       -0.963649   0.000000
   98       -0.911277   0.000000
   99       -0.869773   0.000000
  100       -0.794960   0.000000
  101       -0.728043   0.000000
  102       -0.622534   0.000000
  103       -0.543583   0.000000
  104       -0.486403   0.000000
  105       -0.338574   0.000000
  106       -0.194038   0.000000
  107       -0.161862   0.000000
  108       -0.101980   0.000000
  109        0.100537   0.000000
  110        0.259849   0.000000
  111        0.319918   0.000000
  112        0.526570   0.000000
  113        0.750849   0.000000
  114        0.827172   0.000000
  115        0.941449   0.000000
  116        1.129570   0.000000
  117        1.268723   0.000000
  118        1.770617   0.000000
  119        1.948080   0.000000
  120        2.254231   0.000000
 
  0.2500000E+00  0.1250000E+00  0.0000000E+00  0.3125000E-01
    1      -17.621714   1.000000
    2      -17.108573   1.000000
    3      -16.847529   1.000000
    4      -16.682587   1.000000
    5      -16.507916   1.000000
    6      -16.394622   1.000000
    7      -16.306847   1.000000
    8      -16.255845   1.000000
    9      -16.191227   1.000000
   10      -16.078057   1.000000
   11      -15.968236   1.000000
   12      -15.914212   1.000000
   13      -15.719525   1.000000
   14      -15.629629   1.000000
   15      -15.597486   1.000000
   16      -15.475338   1.000000
   17      -15.370829   1.000000
   18      -15.290269   1.000000
   19       -9.612925   1.000000
   20       -9.453051   1.000000
   21       -9.161200   1.000000
   22       -9.036987   1.000000
   23       -8.873004   1.000000
   24       -8.716130   1.000000
   25       -8.638330   1.000000
   26       -8.480110   1.000000
   27       -8.424776   1.000000
   28       -8.363205   1.000000
   29       -8.293963   1.000000
   30       -8.208895   1.000000
   31       -8.131000   1.000000
   32       -8.055905   1.000000
   33       -7.913949   1.000000
   34       -7.854070   1.000000
   35       -7.792730   1.000000
   36       -7.624196   1.000000
   37       -7.581890   1.000000
   38       -7.418962   1.000000
   39       -7.355892   1.000000
   40       -7.309477   1.000000
   41       -7.240967   1.000000
   42       -7.164749   1.000000
   43       -7.042527   1.000000
   44       -6.984675   1.000000
   45       -6.901020   1.000000
   46       -6.796172   1.000000
   47       -6.696289   1.000000