       N       E                     dE             d eps       ncg     rms          rms(c)
DAV:   1     0.112416654595E+04    0.11242E+04   -0.35872E+04  8160   0.577E+02
DAV:   2    -0.499622481158E+01   -0.11292E+04   -0.10893E+04 11160   0.173E+02
DAV:   3    -0.199903253794E+03   -0.19491E+03   -0.18729E+03 10840   0.818E+01
DAV:   4    -0.209046411502E+03   -0.91432E+01   -0.88375E+01 11880   0.261E+01
DAV:   5    -0.209403837532E+03   -0.35743E+00   -0.35643E+00 11720   0.389E+00    0.278E+01
DAV:   6    -0.241336220849E+03   -0.31932E+02   -0.11334E+02 12480   0.600E+01    0.607E+01
DAV:   7    -0.196113945209E+03    0.45222E+02   -0.18033E+02 13160   0.151E+02    0.198E+01
DAV:   8    -0.189357812827E+03    0.67561E+01   -0.18503E+01 12000   0.126E+01    0.123E+01
DAV:   9    -0.188082104138E+03    0.12757E+01   -0.30337E+00 13040   0.612E+00    0.891E+00
DAV:  10    -0.186949881639E+03    0.11322E+01   -0.15882E+00 13400   0.728E+00    0.205E+00
DAV:  11    -0.187054500472E+03   -0.10462E+00   -0.57920E-01 13440   0.340E+00    0.413E+00
DAV:  12    -0.186948904870E+03    0.10560E+00   -0.56869E-01 12880   0.415E+00    0.292E+00
DAV:  13    -0.186873909617E+03    0.74995E-01   -0.19882E-01 12520   0.237E+00    0.131E+00
DAV:  14    -0.186852850504E+03    0.21059E-01   -0.72248E-02 12600   0.121E+00    0.808E-01
DAV:  15    -0.186850642707E+03    0.22078E-02   -0.20904E-02 12720   0.713E-01    0.708E-01
DAV:  16    -0.186846681653E+03    0.39611E-02   -0.10979E-02 13280   0.473E-01    0.314E-01
DAV:  17    -0.186845424582E+03    0.12571E-02   -0.54565E-03 12800   0.336E-01    0.234E-01
DAV:  18    -0.186844814794E+03    0.60979E-03   -0.17053E-03 12600   0.201E-01    0.677E-02
DAV:  19    -0.186845212497E+03   -0.39770E-03   -0.64861E-04 10720   0.698E-02    0.891E-02
DAV:  20    -0.186845749109E+03   -0.53661E-03   -0.62193E-04  9600   0.759E-02    0.600E-02
DAV:  21    -0.186846545589E+03   -0.79648E-03   -0.22179E-04  8080   0.440E-02    0.392E-02
DAV:  22    -0.186847468700E+03   -0.92311E-03   -0.14823E-04  7520   0.441E-02    0.250E-02
DAV:  23    -0.186848549156E+03   -0.10805E-02   -0.89369E-05  7440   0.237E-02    0.118E-02
DAV:  24    -0.186849211133E+03   -0.66198E-03   -0.30588E-05  6440   0.173E-02    0.771E-03
DAV:  25    -0.186849575362E+03   -0.36423E-03   -0.13871E-05  6080   0.118E-02    0.255E-03
DAV:  26    -0.186849793945E+03   -0.21858E-03   -0.81480E-06  6800   0.616E-03    0.149E-03
DAV:  27    -0.186849867464E+03   -0.73519E-04   -0.31444E-06  7280   0.410E-03
   1 F= -.18684987E+03 E0= -.18667648E+03  d E =-.186850E+03
       N       E                     dE             d eps       ncg     rms          rms(c)
DAV:   1    -0.187532213498E+03   -0.68242E+00   -0.27394E+02  8160   0.351E+01    0.477E+00
DAV:   2    -0.190021689000E+03   -0.24895E+01   -0.21016E+01 12280   0.169E+01    0.131E+01
DAV:   3    -0.189244367584E+03    0.77732E+00   -0.59861E+00 12440   0.138E+01    0.561E+00
DAV:   4    -0.188849751429E+03    0.39462E+00   -0.63586E-01 12520   0.439E+00    0.332E+00
DAV:   5    -0.188857855394E+03   -0.81040E-02   -0.52629E-01 12000   0.412E+00    0.428E+00
DAV:   6    -0.188763089561E+03    0.94766E-01   -0.52838E-01 12200   0.330E+00    0.216E+00
DAV:   7    -0.188710510068E+03    0.52579E-01   -0.20239E-01 10600   0.133E+00    0.118E+00
DAV:   8    -0.188696122521E+03    0.14388E-01   -0.61489E-02 12360   0.102E+00    0.100E+00
DAV:   9    -0.188689875721E+03    0.62468E-02   -0.24676E-02 12480   0.848E-01    0.658E-01
DAV:  10    -0.188687259383E+03    0.26163E-02   -0.80448E-03 12000   0.427E-01    0.313E-01
DAV:  11    -0.188686409280E+03    0.85010E-03   -0.26337E-03 13040   0.223E-01    0.105E-01
DAV:  12    -0.188686411869E+03   -0.25884E-05   -0.98989E-04 11800   0.944E-02
   2 F= -.18868641E+03 E0= -.18854467E+03  d E =-.183654E+01
       N       E                     dE             d eps       ncg     rms          rms(c)
DAV:   1    -0.190635658565E+03   -0.19492E+01   -0.31710E+01  8960   0.143E+01    0.447E+00
DAV:   2    -0.190562264534E+03    0.73394E-01   -0.28061E+00 11480   0.917E+00    0.724E+00
DAV:   3    -0.190126069766E+03    0.43619E+00   -0.15278E+00 12320   0.846E+00    0.438E+00
DAV:   4    -0.189895649861E+03    0.23042E+00   -0.72890E-01 12680   0.439E+00    0.249E+00
DAV:   5    -0.189870783107E+03    0.24867E-01   -0.37570E-01 12240   0.305E+00    0.284E+00
DAV:   6    -0.189797195951E+03    0.73587E-01   -0.15884E-01 12560   0.247E+00    0.755E-01
DAV:   7    -0.189791365878E+03    0.58301E-02   -0.16032E-02 11680   0.605E-01    0.397E-01
DAV:   8    -0.189791445412E+03   -0.79534E-04   -0.66803E-03 12720   0.480E-01    0.382E-01
DAV:   9    -0.189790385433E+03    0.10600E-02   -0.26048E-03 11480   0.272E-01    0.128E-01
DAV:  10    -0.189790810691E+03   -0.42526E-03   -0.10516E-03 10680   0.111E-01    0.139E-01
DAV:  11    -0.189790498913E+03    0.31178E-03   -0.56724E-04  9800   0.863E-02    0.205E-02
DAV:  12    -0.189790522479E+03   -0.23566E-04   -0.71219E-05  7160   0.265E-02
   3 F= -.18979052E+03 E0= -.18967037E+03  d E =-.110411E+01
       N       E                     dE             d eps       ncg     rms          rms(c)
DAV:   1    -0.191368367512E+03   -0.15779E+01   -0.79178E+01  8160   0.202E+01    0.456E+00
DAV:   2    -0.191121206500E+03    0.24716E+00   -0.52620E+00 13280   0.671E+00    0.377E+00
DAV:   3    -0.191426315858E+03   -0.30511E+00   -0.14964E+00 12120   0.855E+00    0.797E+00
DAV:   4    -0.190988920115E+03    0.43740E+00   -0.20508E+00 11320   0.911E+00    0.365E+00
DAV:   5    -0.190981252371E+03    0.76677E-02   -0.71947E-01 11920   0.536E+00    0.363E+00
DAV:   6    -0.190806109679E+03    0.17514E+00   -0.22667E-01 12080   0.321E+00    0.699E-01
DAV:   7    -0.190806241795E+03   -0.13212E-03   -0.35946E-02 12480   0.831E-01    0.656E-01
DAV:   8    -0.190804426369E+03    0.18154E-02   -0.17991E-02 11800   0.849E-01    0.611E-01
DAV:   9    -0.190800850548E+03    0.35758E-02   -0.63317E-03 11520   0.513E-01    0.174E-01
DAV:  10    -0.190801158447E+03   -0.30790E-03   -0.15834E-03 11000   0.149E-01    0.125E-01
DAV:  11    -0.190800935929E+03    0.22252E-03   -0.67261E-04 10600   0.101E-01    0.418E-02
DAV:  12    -0.190800945848E+03   -0.99187E-05   -0.96097E-05  7240   0.342E-02
   4 F= -.19080095E+03 E0= -.19069773E+03  d E =-.101042E+01
       N       E                     dE             d eps       ncg     rms          rms(c)
DAV:   1    -0.192287317017E+03   -0.14864E+01   -0.17974E+02  8160   0.299E+01    0.591E+00
DAV:   2    -0.191995283601E+03    0.29203E+00   -0.98969E+00 11080   0.776E+00    0.398E+00
DAV:   3    -0.192420536718E+03   -0.42525E+00   -0.31170E+00 12120   0.109E+01    0.732E+00
DAV:   4    -0.191705983327E+03    0.71455E+00   -0.11986E+00 12200   0.854E+00    0.302E+00
DAV:   5    -0.191731459459E+03   -0.25476E-01   -0.59780E-01 12000   0.555E+00    0.464E+00
DAV:   6    -0.191543680054E+03    0.18778E+00   -0.56055E-01 12240   0.493E+00    0.117E+00
DAV:   7    -0.191542901440E+03    0.77861E-03   -0.80384E-02 11840   0.156E+00    0.119E+00
DAV:   8    -0.191530987680E+03    0.11914E-01   -0.40907E-02 11640   0.130E+00    0.535E-01
DAV:   9    -0.191527591860E+03    0.33958E-02   -0.76243E-03 11960   0.485E-01    0.161E-01
DAV:  10    -0.191527650375E+03   -0.58515E-04   -0.25614E-03 10440   0.148E-01    0.682E-02
DAV:  11    -0.191527679492E+03   -0.29117E-04   -0.34397E-04  9160   0.769E-02
   5 F= -.19152768E+03 E0= -.19143019E+03  d E =-.726734E+00
       N       E                     dE             d eps       ncg     rms          rms(c)
DAV:   1    -0.191586108197E+03   -0.58458E-01   -0.39280E+00  8160   0.424E+00    0.721E-01
DAV:   2    -0.191662808250E+03   -0.76700E-01   -0.29631E-01 12400   0.327E+00    0.256E+00
DAV:   3    -0.191593849376E+03    0.68959E-01   -0.11612E-01 12440   0.254E+00    0.370E-01
DAV:   4    -0.191597747729E+03   -0.38984E-02   -0.18704E-02 11680   0.846E-01    0.819E-01
DAV:   5    -0.191591639376E+03    0.61084E-02   -0.14793E-02 11640   0.777E-01    0.234E-01
DAV:   6    -0.191592044137E+03   -0.40476E-03   -0.48358E-03 11400   0.356E-01    0.319E-01
DAV:   7    -0.191591339554E+03    0.70458E-03   -0.40223E-03 11440   0.398E-01    0.193E-01
DAV:   8    -0.191590957812E+03    0.38174E-03   -0.86924E-04  9160   0.167E-01    0.414E-02
DAV:   9    -0.191590949594E+03    0.82173E-05   -0.97402E-05  6240   0.386E-02
   6 F= -.19159095E+03 E0= -.19149113E+03  d E =-.632701E-01
       N       E                     dE             d eps       ncg     rms          rms(c)
DAV:   1    -0.191677072527E+03   -0.86115E-01   -0.10503E+01  8160   0.682E+00    0.915E-01
DAV:   2    -0.191778178711E+03   -0.10111E+00   -0.39542E-01 12720   0.324E+00    0.292E+00
DAV:   3    -0.191688807928E+03    0.89371E-01   -0.19343E-01 12400   0.320E+00    0.707E-01
DAV:   4    -0.191693641538E+03   -0.48336E-02   -0.38230E-02 11600   0.117E+00    0.105E+00
DAV:   5    -0.191683241972E+03    0.10400E-01   -0.25819E-02 11680   0.102E+00    0.298E-01
DAV:   6    -0.191683270140E+03   -0.28168E-04   -0.56362E-03 11520   0.377E-01    0.321E-01
DAV:   7    -0.191683097978E+03    0.17216E-03   -0.60985E-03 11480   0.494E-01    0.312E-01
DAV:   8    -0.191682209674E+03    0.88830E-03   -0.22166E-03 10080   0.280E-01    0.673E-02
DAV:   9    -0.191682151857E+03    0.57817E-04   -0.20189E-04  6600   0.595E-02
   7 F= -.19168215E+03 E0= -.19158157E+03  d E =-.912023E-01
       N       E                     dE             d eps       ncg     rms          rms(c)
DAV:   1    -0.191713351645E+03   -0.31142E-01   -0.98190E-01  8160   0.215E+00    0.326E-01
DAV:   2    -0.191723404742E+03   -0.10053E-01   -0.49678E-02 12720   0.121E+00    0.966E-01
DAV:   3    -0.191714092099E+03    0.93126E-02   -0.19656E-02 12080   0.988E-01    0.241E-01
DAV:   4    -0.191715368761E+03   -0.12767E-02   -0.68623E-03 11440   0.503E-01    0.455E-01
DAV:   5    -0.191713317476E+03    0.20513E-02   -0.45766E-03 11120   0.428E-01    0.104E-01
DAV:   6    -0.191713277035E+03    0.40442E-04   -0.87450E-04  9880   0.114E-01
   8 F= -.19171328E+03 E0= -.19161275E+03  d E =-.311252E-01
       N       E                     dE             d eps       ncg     rms          rms(c)
DAV:   1    -0.191777926834E+03   -0.64609E-01   -0.46261E+00  8160   0.460E+00    0.582E-01
DAV:   2    -0.191820244236E+03   -0.42317E-01   -0.18109E-01 13440   0.233E+00    0.193E+00
DAV:   3    -0.191784425971E+03    0.35818E-01   -0.77517E-02 12360   0.195E+00    0.487E-01
DAV:   4    -0.191786955863E+03   -0.25299E-02   -0.19501E-02 11280   0.869E-01    0.702E-01
DAV:   5    -0.191781718919E+03    0.52369E-02   -0.96973E-03 11360   0.655E-01    0.149E-01
DAV:   6    -0.191782110242E+03   -0.39132E-03   -0.24668E-03 11560   0.235E-01    0.214E-01
DAV:   7    -0.191781887336E+03    0.22291E-03   -0.23577E-03 11160   0.324E-01    0.210E-01
DAV:   8    -0.191781435269E+03    0.45207E-03   -0.84318E-04  8440   0.186E-01    0.286E-02
DAV:   9    -0.191781443496E+03   -0.82273E-05   -0.69203E-05  6120   0.321E-02
   9 F= -.19178144E+03 E0= -.19168233E+03  d E =-.681665E-01
       N       E                     dE             d eps       ncg     rms          rms(c)
DAV:   1    -0.191797184788E+03   -0.15750E-01   -0.22577E-01  8160   0.102E+00    0.120E-01
DAV:   2    -0.191798566073E+03   -0.13813E-02   -0.79921E-03 12320   0.415E-01    0.337E-01
DAV:   3    -0.191797502731E+03    0.10633E-02   -0.27213E-03 11440   0.351E-01    0.107E-01
DAV:   4    -0.191797622990E+03   -0.12026E-03   -0.74232E-04  8600   0.177E-01    0.144E-01
DAV:   5    -0.191797399196E+03    0.22379E-03   -0.40806E-04  7960   0.149E-01    0.353E-02
DAV:   6    -0.191797417974E+03   -0.18778E-04   -0.99901E-05  6240   0.452E-02
  10 F= -.19179742E+03 E0= -.19169890E+03  d E =-.159745E-01
       N       E                     dE             d eps       ncg     rms          rms(c)
DAV:   1    -0.191762520897E+03    0.34878E-01   -0.11660E+00  8160   0.238E+00    0.383E-01
DAV:   2    -0.191768189698E+03   -0.56688E-02   -0.55342E-02 12520   0.103E+00    0.798E-01
DAV:   3    -0.191763169207E+03    0.50205E-02   -0.20680E-02 12440   0.951E-01    0.400E-01
DAV:   4    -0.191762884628E+03    0.28458E-03   -0.85527E-03 10840   0.561E-01    0.415E-01
DAV:   5    -0.191761453280E+03    0.14313E-02   -0.54951E-03 10240   0.517E-01    0.208E-01
DAV:   6    -0.191761086828E+03    0.36645E-03   -0.19434E-03 11560   0.245E-01    0.139E-01
DAV:   7    -0.191761033430E+03    0.53399E-04   -0.96942E-04  9200   0.209E-01
  11 F= -.19176103E+03 E0= -.19166102E+03  d E =0.363845E-01
       N       E                     dE             d eps       ncg     rms          rms(c)
DAV:   1    -0.191870001916E+03   -0.10892E+00   -0.10425E+01  8160   0.704E+00    0.902E-01
DAV:   2    -0.191931480756E+03   -0.61479E-01   -0.39969E-01 12760   0.290E+00    0.241E+00
DAV:   3    -0.191885437402E+03    0.46043E-01   -0.14236E-01 12360   0.255E+00    0.827E-01
DAV:   4    -0.191889442138E+03   -0.40047E-02   -0.42129E-02 12240   0.143E+00    0.109E+00
DAV:   5    -0.191875853512E+03    0.13589E-01   -0.24331E-02 11320   0.119E+00    0.311E-01
DAV:   6    -0.191876916410E+03   -0.10629E-02   -0.96634E-03 11680   0.546E-01    0.462E-01
DAV:   7    -0.191875110008E+03    0.18064E-02   -0.62647E-03 11560   0.564E-01    0.220E-01
DAV:   8    -0.191874546378E+03    0.56363E-03   -0.11532E-03  9920   0.202E-01    0.533E-02
DAV:   9    -0.191874499874E+03    0.46504E-04   -0.16209E-04  6760   0.483E-02
  12 F= -.19187450E+03 E0= -.19177946E+03  d E =-.113466E+00
       N       E                     dE             d eps       ncg     rms          rms(c)
DAV:   1    -0.191922103137E+03   -0.47557E-01   -0.18700E+00  8160   0.295E+00    0.339E-01
DAV:   2    -0.191929623844E+03   -0.75207E-02   -0.60591E-02 12000   0.991E-01    0.764E-01
DAV:   3    -0.191925202590E+03    0.44213E-02   -0.16344E-02 12400   0.886E-01    0.343E-01
DAV:   4    -0.191924574190E+03    0.62840E-03   -0.35920E-03 11440   0.402E-01    0.269E-01
DAV:   5    -0.191923962027E+03    0.61216E-03   -0.21478E-03 10480   0.381E-01    0.166E-01
DAV:   6    -0.191923976143E+03   -0.14116E-04   -0.13679E-03  9960   0.229E-01    0.157E-01
DAV:   7    -0.191923776238E+03    0.19991E-03   -0.82849E-04  8840   0.215E-01    0.110E-01
DAV:   8    -0.191923642186E+03    0.13405E-03   -0.24168E-04  6960   0.107E-01    0.169E-02
DAV:   9    -0.191923645048E+03   -0.28629E-05   -0.36055E-05  6560   0.234E-02
  13 F= -.19192365E+03 E0= -.19183100E+03  d E =-.491452E-01
       N       E                     dE             d eps       ncg     rms          rms(c)
DAV:   1    -0.191897494043E+03    0.26148E-01   -0.50792E-01  8160   0.156E+00    0.212E-01
DAV:   2    -0.191898538337E+03   -0.10443E-02   -0.18634E-02 11440   0.466E-01    0.289E-01
DAV:   3    -0.191898575696E+03   -0.37359E-04   -0.45564E-03 12480   0.485E-01    0.313E-01
DAV:   4    -0.191897707447E+03    0.86825E-03   -0.23963E-03  9960   0.322E-01    0.149E-01
DAV:   5    -0.191897665083E+03    0.42364E-04   -0.10493E-03 10040   0.249E-01    0.140E-01
DAV:   6    -0.191897475388E+03    0.18970E-03   -0.55791E-04  9200   0.162E-01    0.592E-02
DAV:   7    -0.191897482836E+03   -0.74484E-05   -0.19810E-04  6640   0.100E-01
  14 F= -.19189748E+03 E0= -.19180355E+03  d E =0.261622E-01
       N       E                     dE             d eps       ncg     rms          rms(c)
DAV:   1    -0.191899331201E+03   -0.18558E-02   -0.32065E-03 10120   0.144E-01    0.184E-02
DAV:   2    -0.191899390443E+03   -0.59242E-04   -0.14371E-04  6280   0.760E-02
  15 F= -.19189939E+03 E0= -.19180569E+03  d E =-.190761E-02
       N       E                     dE             d eps       ncg     rms          rms(c)
DAV:   1    -0.191873360860E+03    0.25970E-01   -0.62497E-01  8160   0.171E+00    0.199E-01
DAV:   2    -0.191875374745E+03   -0.20139E-02   -0.19370E-02 11360   0.522E-01    0.395E-01
DAV:   3    -0.191874263567E+03    0.11112E-02   -0.53753E-03 11800   0.506E-01    0.219E-01
DAV:   4    -0.191873761352E+03    0.50221E-03   -0.11862E-03 10040   0.209E-01    0.860E-02
DAV:   5    -0.191873960005E+03   -0.19865E-03   -0.84605E-04  9640   0.203E-01    0.172E-01
DAV:   6    -0.191873695148E+03    0.26486E-03   -0.77301E-04  8680   0.195E-01    0.725E-02
DAV:   7    -0.191873694003E+03    0.11451E-05   -0.24630E-04  7160   0.109E-01
  16 F= -.19187369E+03 E0= -.19177800E+03  d E =0.256964E-01
       N       E                     dE             d eps       ncg     rms          rms(c)
DAV:   1    -0.191866000991E+03    0.76942E-02   -0.13333E+00  8160   0.252E+00    0.366E-01
DAV:   2    -0.191872557519E+03   -0.65565E-02   -0.52492E-02 12320   0.954E-01    0.854E-01
DAV:   3    -0.191867135502E+03    0.54220E-02   -0.22362E-02 12240   0.974E-01    0.386E-01
DAV:   4    -0.191865977114E+03    0.11584E-02   -0.50487E-03 11480   0.402E-01    0.260E-01
DAV:   5    -0.191866038780E+03   -0.61666E-04   -0.43089E-03 11280   0.442E-01    0.308E-01
DAV:   6    -0.191865180254E+03    0.85853E-03   -0.23235E-03 10800   0.299E-01    0.872E-02
DAV:   7    -0.191865159056E+03    0.21198E-04   -0.47359E-04  8960   0.140E-01
  17 F= -.19186516E+03 E0= -.19176807E+03  d E =0.853495E-02
       N       E                     dE             d eps       ncg     rms          rms(c)
DAV:   1    -0.191932736137E+03   -0.67556E-01   -0.49116E+00  8160   0.475E+00    0.543E-01
DAV:   2    -0.191956357243E+03   -0.23621E-01   -0.16507E-01 11520   0.165E+00    0.139E+00
DAV:   3    -0.191940965470E+03    0.15392E-01   -0.52668E-02 12400   0.155E+00    0.543E-01
DAV:   4    -0.191939045482E+03    0.19200E-02   -0.83114E-03 11240   0.567E-01    0.400E-01
DAV:   5    -0.191938403774E+03    0.64171E-03   -0.66595E-03 11960   0.612E-01    0.359E-01
DAV:   6    -0.191937403227E+03    0.10005E-02   -0.34816E-03 11760   0.363E-01    0.135E-01
DAV:   7    -0.191937185369E+03    0.21786E-03   -0.10785E-03 10680   0.187E-01    0.107E-01
DAV:   8    -0.191937093573E+03    0.91796E-04   -0.36867E-04  9200   0.158E-01
  18 F= -.19193709E+03 E0= -.19184323E+03  d E =-.719345E-01
       N       E                     dE             d eps       ncg     rms          rms(c)
DAV:   1    -0.191956036819E+03   -0.18851E-01   -0.31541E-01  8160   0.123E+00    0.181E-01
DAV:   2    -0.191957843375E+03   -0.18066E-02   -0.14093E-02 11560   0.525E-01    0.428E-01
DAV:   3    -0.191956387599E+03    0.14558E-02   -0.46163E-03 11840   0.477E-01    0.174E-01
DAV:   4    -0.191956225729E+03    0.16187E-03   -0.10850E-03  9880   0.221E-01    0.142E-01
DAV:   5    -0.191956090882E+03    0.13485E-03   -0.70662E-04 10040   0.215E-01    0.102E-01
DAV:   6    -0.191956023260E+03    0.67623E-04   -0.38048E-04  7880   0.128E-01
  19 F= -.19195602E+03 E0= -.19186285E+03  d E =-.189297E-01
       N       E                     dE             d eps       ncg     rms          rms(c)
DAV:   1    -0.192041353421E+03   -0.85263E-01   -0.80154E+00  8160   0.611E+00    0.691E-01
DAV:   2    -0.192068349222E+03   -0.26996E-01   -0.26053E-01 12200   0.184E+00    0.134E+00
DAV:   3    -0.192058055902E+03    0.10293E-01   -0.59534E-02 12360   0.176E+00    0.787E-01
DAV:   4    -0.192051269156E+03    0.67867E-02   -0.10796E-02 12280   0.695E-01    0.327E-01
DAV:   5    -0.192052548183E+03   -0.12790E-02   -0.82053E-03 11920   0.706E-01    0.524E-01
DAV:   6    -0.192050569431E+03    0.19788E-02   -0.67218E-03 11600   0.605E-01    0.217E-01
DAV:   7    -0.192049686383E+03    0.88305E-03   -0.15494E-03 10520   0.187E-01    0.420E-02
DAV:   8    -0.192049703695E+03   -0.17312E-04   -0.19817E-04  8000   0.803E-02
  20 F= -.19204970E+03 E0= -.19196000E+03  d E =-.936804E-01
       N       E                     dE             d eps       ncg     rms          rms(c)
DAV:   1    -0.192118337487E+03   -0.68651E-01   -0.51335E+00  8160   0.490E+00    0.554E-01
DAV:   2    -0.192128890915E+03   -0.10553E-01   -0.15901E-01 12080   0.118E+00    0.624E-01
DAV:   3    -0.192132575402E+03   -0.36845E-02   -0.28221E-02 12360   0.132E+00    0.884E-01
DAV:   4    -0.192124057266E+03    0.85181E-02   -0.10837E-02 12320   0.831E-01    0.206E-01
DAV:   5    -0.192124536904E+03   -0.47964E-03   -0.39129E-03 11440   0.421E-01    0.307E-01
DAV:   6    -0.192123983015E+03    0.55389E-03   -0.32708E-03 11960   0.481E-01    0.217E-01
DAV:   7    -0.192123420329E+03    0.56269E-03   -0.11478E-03  9680   0.248E-01    0.914E-02
DAV:   8    -0.192123352916E+03    0.67412E-04   -0.25452E-04  8480   0.123E-01
  21 F= -.19212335E+03 E0= -.19203535E+03  d E =-.736492E-01
       N       E                     dE             d eps       ncg     rms          rms(c)
DAV:   1    -0.192164220045E+03   -0.40800E-01   -0.25710E+00  8160   0.345E+00    0.442E-01
DAV:   2    -0.192177895593E+03   -0.13676E-01   -0.89951E-02 11480   0.135E+00    0.983E-01
DAV:   3    -0.192168060666E+03    0.98349E-02   -0.20609E-02 11480   0.119E+00    0.372E-01
DAV:   4    -0.192167473522E+03    0.58714E-03   -0.45539E-03 11520   0.504E-01    0.315E-01
DAV:   5    -0.192166650313E+03    0.82321E-03   -0.29444E-03 11600   0.484E-01    0.198E-01
DAV:   6    -0.192166326696E+03    0.32362E-03   -0.13621E-03 11600   0.247E-01    0.894E-02
DAV:   7    -0.192166272988E+03    0.53708E-04   -0.50276E-04  9520   0.155E-01
  22 F= -.19216627E+03 E0= -.19207961E+03  d E =-.429201E-01
       N       E                     dE             d eps       ncg     rms          rms(c)
DAV:   1    -0.192146591723E+03    0.19735E-01   -0.32995E+00  8160   0.393E+00    0.556E-01
DAV:   2    -0.192187315973E+03   -0.40724E-01   -0.14766E-01 12000   0.212E+00    0.207E+00
DAV:   3    -0.192150575956E+03    0.36740E-01   -0.71531E-02 12320   0.198E+00    0.348E-01
DAV:   4    -0.192148869135E+03    0.17068E-02   -0.35968E-03 11480   0.266E-01    0.152E-01
DAV:   5    -0.192148847757E+03    0.21378E-04   -0.19731E-03 11920   0.250E-01    0.192E-01
DAV:   6    -0.192148952728E+03   -0.10497E-03   -0.20500E-03 11520   0.380E-01    0.223E-01
DAV:   7    -0.192148359380E+03    0.59335E-03   -0.77478E-04  9840   0.225E-01    0.363E-02
DAV:   8    -0.192148359364E+03    0.15712E-07   -0.85285E-05  6320   0.599E-02
  23 F= -.19214836E+03 E0= -.19205999E+03  d E =0.179136E-01
       N       E                     dE             d eps       ncg     rms          rms(c)
DAV:   1    -0.192143474444E+03    0.48849E-02   -0.96085E+00  8160   0.671E+00    0.933E-01
DAV:   2    -0.192250284543E+03   -0.10681E+00   -0.45857E-01 10960   0.339E+00    0.351E+00
DAV:   3    -0.192159886407E+03    0.90398E-01   -0.22336E-01 12360   0.321E+00    0.651E-01
DAV:   4    -0.192154168658E+03    0.57177E-02   -0.13641E-02 12240   0.573E-01    0.398E-01
DAV:   5    -0.192153705566E+03    0.46309E-03   -0.10684E-02 12840   0.773E-01    0.436E-01
DAV:   6    -0.192152117195E+03    0.15884E-02   -0.61312E-03 11840   0.638E-01    0.235E-01
DAV:   7    -0.192151249605E+03    0.86759E-03   -0.23654E-03 12000   0.281E-01    0.764E-02
DAV:   8    -0.192151179866E+03    0.69739E-04   -0.36041E-04  9680   0.111E-01
  24 F= -.19215118E+03 E0= -.19205968E+03  d E =-.282050E-02
       N       E                     dE             d eps       ncg     rms          rms(c)
DAV:   1    -0.192184596694E+03   -0.33347E-01   -0.63089E+00  8160   0.531E+00    0.574E-01
DAV:   2    -0.192207171748E+03   -0.22575E-01   -0.23319E-01 11640   0.162E+00    0.864E-01
DAV:   3    -0.192202944126E+03    0.42276E-02   -0.36474E-02 12360   0.150E+00    0.695E-01
DAV:   4    -0.192199026872E+03    0.39173E-02   -0.11101E-02 12280   0.819E-01    0.427E-01
DAV:   5    -0.192197709177E+03    0.13177E-02   -0.47892E-03 11200   0.584E-01    0.277E-01
DAV:   6    -0.192197178069E+03    0.53111E-03   -0.26677E-03 12760   0.326E-01    0.129E-01
DAV:   7    -0.192196889900E+03    0.28817E-03   -0.11136E-03 10280   0.132E-01    0.446E-02
DAV:   8    -0.192196881292E+03    0.86084E-05   -0.14562E-04  7440   0.788E-02
  25 F= -.19219688E+03 E0= -.19210532E+03  d E =-.457014E-01
       N       E                     dE             d eps       ncg     rms          rms(c)
DAV:   1    -0.192197146528E+03   -0.25663E-03   -0.11833E+00  8160   0.232E+00    0.286E-01
DAV:   2    -0.192205881831E+03   -0.87353E-02   -0.50565E-02 11200   0.111E+00    0.789E-01
DAV:   3    -0.192199597913E+03    0.62839E-02   -0.13718E-02 12600   0.928E-01    0.232E-01
DAV:   4    -0.192199427363E+03    0.17055E-03   -0.19053E-03 11000   0.320E-01    0.209E-01
DAV:   5    -0.192199019753E+03    0.40761E-03   -0.11463E-03 10360   0.298E-01    0.126E-01
DAV:   6    -0.192198899950E+03    0.11980E-03   -0.69269E-04 10440   0.154E-01    0.629E-02
DAV:   7    -0.192198819173E+03    0.80777E-04   -0.20558E-04  6880   0.616E-02
  26 F= -.19219882E+03 E0= -.19210776E+03  d E =-.193788E-02
       N       E                     dE             d eps       ncg     rms          rms(c)
DAV:   1    -0.192235994575E+03   -0.37095E-01   -0.23569E+00  8160   0.331E+00    0.384E-01
DAV:   2    -0.192240318310E+03   -0.43237E-02   -0.69419E-02 11160   0.763E-01    0.397E-01
DAV:   3    -0.192241995804E+03   -0.16775E-02   -0.10996E-02 11480   0.852E-01    0.608E-01
DAV:   4    -0.192238407687E+03    0.35881E-02   -0.58444E-03 11600   0.615E-01    0.210E-01
DAV:   5    -0.192238465646E+03   -0.57959E-04   -0.24464E-03 11160   0.408E-01    0.236E-01
DAV:   6    -0.192237957223E+03    0.50842E-03   -0.15209E-03 10760   0.302E-01    0.947E-02
DAV:   7    -0.192237877311E+03    0.79911E-04   -0.49349E-04  8920   0.156E-01
  27 F= -.19223788E+03 E0= -.19214684E+03  d E =-.390581E-01
       N       E                     dE             d eps       ncg     rms          rms(c)
DAV:   1    -0.192202549410E+03    0.35408E-01   -0.17339E+00  8160   0.283E+00    0.341E-01
DAV:   2    -0.192207874639E+03   -0.53252E-02   -0.55049E-02 11560   0.840E-01    0.562E-01
DAV:   3    -0.192206098533E+03    0.17761E-02   -0.11528E-02 11840   0.864E-01    0.410E-01
DAV:   4    -0.192204889383E+03    0.12092E-02   -0.36109E-03 12040   0.467E-01    0.271E-01
DAV:   5    -0.192204167824E+03    0.72156E-03   -0.20592E-03 10560   0.392E-01    0.141E-01
DAV:   6    -0.192204016294E+03    0.15153E-03   -0.78813E-04 10280   0.165E-01    0.616E-02
DAV:   7    -0.192203991926E+03    0.24368E-04   -0.25278E-04  8800   0.115E-01
  28 F= -.19220399E+03 E0= -.19211292E+03  d E =0.338854E-01
       N       E                     dE             d eps       ncg     rms          rms(c)
DAV:   1    -0.192163762423E+03    0.40254E-01   -0.23424E+00  8160   0.330E+00    0.409E-01
DAV:   2    -0.192168991121E+03   -0.52287E-02   -0.71476E-02 11360   0.879E-01    0.546E-01
DAV:   3    -0.192169344293E+03   -0.35317E-03   -0.14687E-02 11160   0.963E-01    0.580E-01
DAV:   4    -0.192166272864E+03    0.30714E-02   -0.54226E-03 12160   0.583E-01    0.277E-01
DAV:   5    -0.192165734412E+03    0.53845E-03   -0.28241E-03 10440   0.451E-01    0.197E-01
DAV:   6    -0.192165424200E+03    0.31021E-03   -0.11960E-03 10480   0.229E-01    0.832E-02
DAV:   7    -0.192165359638E+03    0.64562E-04   -0.38171E-04  9200   0.144E-01
  29 F= -.19216536E+03 E0= -.19207376E+03  d E =0.386323E-01
       N       E                     dE             d eps       ncg     rms          rms(c)
DAV:   1    -0.192177102292E+03   -0.11678E-01   -0.58793E-01  8160   0.166E+00    0.225E-01
DAV:   2    -0.192179067297E+03   -0.19650E-02   -0.24082E-02 12960   0.553E-01    0.350E-01
DAV:   3    -0.192178407054E+03    0.66024E-03   -0.53300E-03 12080   0.574E-01    0.288E-01
DAV:   4    -0.192177603162E+03    0.80389E-03   -0.19676E-03 11160   0.319E-01    0.139E-01
DAV:   5    -0.192177578317E+03    0.24845E-04   -0.92400E-04 10240   0.233E-01
  30 F= -.19217758E+03 E0= -.19208595E+03  d E =-.122187E-01
       N       E                     dE             d eps       ncg     rms          rms(c)
DAV:   1    -0.192143938465E+03    0.33665E-01   -0.48358E+00  8160   0.478E+00    0.595E-01
DAV:   2    -0.192158480226E+03   -0.14542E-01   -0.12517E-01 11600   0.145E+00    0.119E+00
DAV:   3    -0.192149524639E+03    0.89556E-02   -0.41193E-02 12200   0.147E+00    0.640E-01
DAV:   4    -0.192146213950E+03    0.33107E-02   -0.85904E-03 11360   0.631E-01    0.379E-01
DAV:   5    -0.192145864998E+03    0.34895E-03   -0.70809E-03 11680   0.691E-01    0.386E-01
DAV:   6    -0.192144771739E+03    0.10933E-02   -0.42162E-03 11680   0.466E-01    0.168E-01
DAV:   7    -0.192144367005E+03    0.40473E-03   -0.12154E-03 10440   0.228E-01    0.107E-01
DAV:   8    -0.192144230797E+03    0.13621E-03   -0.26372E-04  8640   0.132E-01    0.290E-02
DAV:   9    -0.192144229000E+03    0.17970E-05   -0.48253E-05  6400   0.317E-02
  31 F= -.19214423E+03 E0= -.19205068E+03  d E =0.333493E-01
       N       E                     dE             d eps       ncg     rms          rms(c)
DAV:   1    -0.192161748329E+03   -0.17518E-01   -0.74350E+00  8160   0.581E+00    0.665E-01
DAV:   2    -0.192192475145E+03   -0.30727E-01   -0.26669E-01 13080   0.187E+00    0.123E+00
DAV:   3    -0.192178718134E+03    0.13757E-01   -0.62805E-02 12360   0.184E+00    0.756E-01
DAV:   4    -0.192175916976E+03    0.28012E-02   -0.18360E-02 12280   0.917E-01    0.611E-01
DAV:   5    -0.192172631911E+03    0.32851E-02   -0.92243E-03 11760   0.743E-01    0.309E-01
DAV:   6    -0.192171825483E+03    0.80643E-03   -0.38903E-03 12840   0.374E-01    0.155E-01
DAV:   7    -0.192171574439E+03    0.25104E-03   -0.17578E-03 11400   0.202E-01    0.106E-01
DAV:   8    -0.192171484174E+03    0.90265E-04   -0.47446E-04  9520   0.172E-01
  32 F= -.19217148E+03 E0= -.19207726E+03  d E =-.272552E-01
       N       E                     dE             d eps       ncg     rms          rms(c)
DAV:   1    -0.192182609274E+03   -0.11035E-01   -0.41980E+00  8160   0.434E+00    0.454E-01
DAV:   2    -0.192197941945E+03   -0.15333E-01   -0.13828E-01 12560   0.136E+00    0.867E-01
DAV:   3    -0.192192566845E+03    0.53751E-02   -0.30791E-02 12360   0.126E+00    0.551E-01
DAV:   4    -0.192190429384E+03    0.21375E-02   -0.80519E-03 11640   0.608E-01    0.350E-01
DAV:   5    -0.192189324577E+03    0.11048E-02   -0.34615E-03 12160   0.475E-01    0.205E-01
DAV:   6    -0.192189040691E+03    0.28389E-03   -0.18406E-03 12200   0.270E-01    0.110E-01
DAV:   7    -0.192188924201E+03    0.11649E-03   -0.89596E-04 10360   0.153E-01    0.811E-02
DAV:   8    -0.192188861134E+03    0.63067E-04   -0.23973E-04  7720   0.121E-01
  33 F= -.19218886E+03 E0= -.19209482E+03  d E =-.173770E-01
       N       E                     dE             d eps       ncg     rms          rms(c)
DAV:   1    -0.192192690068E+03   -0.37659E-02   -0.23497E-01  8160   0.106E+00    0.140E-01
DAV:   2    -0.192193253353E+03   -0.56328E-03   -0.86776E-03 11280   0.337E-01    0.188E-01
DAV:   3    -0.192193112673E+03    0.14068E-03   -0.16843E-03 11840   0.312E-01    0.163E-01
DAV:   4    -0.192192903603E+03    0.20907E-03   -0.77696E-04  9800   0.212E-01    0.115E-01
DAV:   5    -0.192192861734E+03    0.41868E-04   -0.56593E-04  8840   0.179E-01
  34 F= -.19219286E+03 E0= -.19209852E+03  d E =-.400060E-02
       N       E                     dE             d eps       ncg     rms          rms(c)
DAV:   1    -0.192202523350E+03   -0.96197E-02   -0.23682E+00  8160   0.328E+00    0.375E-01
DAV:   2    -0.192209804441E+03   -0.72811E-02   -0.81759E-02 12960   0.968E-01    0.578E-01
DAV:   3    -0.192208521090E+03    0.12834E-02   -0.16760E-02 12360   0.948E-01    0.500E-01
DAV:   4    -0.192206315545E+03    0.22055E-02   -0.56693E-03 12360   0.516E-01    0.255E-01
DAV:   5    -0.192205865199E+03    0.45035E-03   -0.24350E-03 11480   0.385E-01    0.200E-01
DAV:   6    -0.192205638202E+03    0.22700E-03   -0.16859E-03 11960   0.287E-01    0.120E-01
DAV:   7    -0.192205518157E+03    0.12005E-03   -0.86958E-04 10240   0.192E-01    0.103E-01
DAV:   8    -0.192205401303E+03    0.11685E-03   -0.23323E-04  8000   0.126E-01    0.306E-02
DAV:   9    -0.192205391558E+03    0.97455E-05   -0.33019E-05  6080   0.345E-02
  35 F= -.19220539E+03 E0= -.19211059E+03  d E =-.125298E-01
       N       E                     dE             d eps       ncg     rms          rms(c)
DAV:   1    -0.192205925524E+03   -0.52422E-03   -0.19476E-01  8160   0.981E-01    0.160E-01
DAV:   2    -0.192206417527E+03   -0.49200E-03   -0.82369E-03 11880   0.360E-01    0.262E-01
DAV:   3    -0.192206092032E+03    0.32549E-03   -0.29802E-03 12320   0.404E-01    0.210E-01
DAV:   4    -0.192205662177E+03    0.42985E-03   -0.10793E-03  9560   0.212E-01    0.876E-02
DAV:   5    -0.192205680401E+03   -0.18224E-04   -0.48576E-04  8440   0.168E-01
  36 F= -.19220568E+03 E0= -.19211096E+03  d E =-.288843E-03
       N       E                     dE             d eps       ncg     rms          rms(c)
DAV:   1    -0.192211947086E+03   -0.62849E-02   -0.43602E-01  8160   0.142E+00    0.156E-01
DAV:   2    -0.192212924234E+03   -0.97715E-03   -0.14414E-02 11360   0.330E-01    0.137E-01
DAV:   3    -0.192213281540E+03   -0.35731E-03   -0.20938E-03 12320   0.345E-01    0.239E-01
DAV:   4    -0.192212677161E+03    0.60438E-03   -0.98571E-04 10000   0.255E-01    0.740E-02
DAV:   5    -0.192212741039E+03   -0.63878E-04   -0.39337E-04  8400   0.138E-01
  37 F= -.19221274E+03 E0= -.19211870E+03  d E =-.706064E-02
       N       E                     dE             d eps       ncg     rms          rms(c)
DAV:   1    -0.192203680355E+03    0.89968E-02   -0.55747E-01  8160   0.162E+00    0.185E-01
DAV:   2    -0.192206269954E+03   -0.25896E-02   -0.19672E-02 12160   0.539E-01    0.402E-01
DAV:   3    -0.192204858049E+03    0.14119E-02   -0.43698E-03 12080   0.503E-01    0.190E-01
DAV:   4    -0.192204591019E+03    0.26703E-03   -0.10359E-03  9640   0.211E-01    0.119E-01
DAV:   5    -0.192204486505E+03    0.10451E-03   -0.54215E-04  9200   0.189E-01    0.904E-02
DAV:   6    -0.192204459571E+03    0.26934E-04   -0.38995E-04  8120   0.135E-01
  38 F= -.19220446E+03 E0= -.19211003E+03  d E =0.828147E-02
       N       E                     dE             d eps       ncg     rms          rms(c)
DAV:   1    -0.192194686436E+03    0.98001E-02   -0.79904E-01  8160   0.194E+00    0.230E-01
DAV:   2    -0.192196270177E+03   -0.15837E-02   -0.26114E-02 11080   0.477E-01    0.234E-01
DAV:   3    -0.192197087620E+03   -0.81744E-03   -0.50376E-03 12440   0.504E-01    0.391E-01
DAV:   4    -0.192195650443E+03    0.14372E-02   -0.28079E-03 10920   0.386E-01    0.118E-01
DAV:   5    -0.192195751609E+03   -0.10117E-03   -0.99384E-04 10000   0.226E-01    0.163E-01
DAV:   6    -0.192195572820E+03    0.17879E-03   -0.83540E-04 10400   0.231E-01    0.947E-02
DAV:   7    -0.192195450439E+03    0.12238E-03   -0.28482E-04  7400   0.101E-01    0.242E-02
DAV:   8    -0.192195449351E+03    0.10882E-05   -0.43197E-05  7560   0.468E-02
  39 F= -.19219545E+03 E0= -.19210103E+03  d E =0.901022E-02
       N       E                     dE             d eps       ncg     rms          rms(c)
DAV:   1    -0.192204443866E+03   -0.89934E-02   -0.10696E+00  8160   0.223E+00    0.250E-01
DAV:   2    -0.192207276025E+03   -0.28322E-02   -0.34969E-02 11200   0.619E-01    0.358E-01
DAV:   3    -0.192207339494E+03   -0.63469E-04   -0.71716E-03 12280   0.602E-01    0.370E-01
DAV:   4    -0.192205863528E+03    0.14760E-02   -0.22023E-03 11280   0.338E-01    0.898E-02
DAV:   5    -0.192206003319E+03   -0.13979E-03   -0.93987E-04 10120   0.173E-01    0.139E-01
DAV:   6    -0.192205858450E+03    0.14487E-03   -0.71641E-04 11400   0.217E-01    0.967E-02
DAV:   7    -0.192205754417E+03    0.10403E-03   -0.27549E-04  7760   0.118E-01    0.329E-02
DAV:   8    -0.192205749830E+03    0.45871E-05   -0.52767E-05  6400   0.554E-02
  40 F= -.19220575E+03 E0= -.19211124E+03  d E =-.103005E-01
       N       E                     dE             d eps       ncg     rms          rms(c)
DAV:   1    -0.192206260586E+03   -0.50617E-03   -0.63250E-03  8320   0.170E-01    0.207E-02
DAV:   2    -0.192206276507E+03   -0.15921E-04   -0.22047E-04  8560   0.465E-02
  41 F= -.19220628E+03 E0= -.19211174E+03  d E =-.526678E-03
       N       E                     dE             d eps       ncg     rms          rms(c)
DAV:   1    -0.192207395199E+03   -0.11346E-02   -0.26241E-02  8160   0.352E-01    0.477E-02
DAV:   2    -0.192207645072E+03   -0.24987E-03   -0.94969E-04 11640   0.179E-01    0.145E-01
DAV:   3    -0.192207406028E+03    0.23904E-03   -0.34707E-04  8400   0.158E-01    0.308E-02
DAV:   4    -0.192207429853E+03   -0.23825E-04   -0.71516E-05  5640   0.680E-02
  42 F= -.19220743E+03 E0= -.19211283E+03  d E =-.115335E-02
       N       E                     dE             d eps       ncg     rms          rms(c)
DAV:   1    -0.192215242884E+03   -0.78369E-02   -0.57236E-01  8160   0.164E+00    0.193E-01
DAV:   2    -0.192216397967E+03   -0.11551E-02   -0.17511E-02 12200   0.462E-01    0.222E-01
DAV:   3    -0.192216332880E+03    0.65087E-04   -0.26914E-03 12120   0.424E-01    0.214E-01
DAV:   4    -0.192215739438E+03    0.59344E-03   -0.92303E-04 10200   0.241E-01    0.806E-02
DAV:   5    -0.192215940941E+03   -0.20150E-03   -0.73826E-04 10040   0.208E-01    0.159E-01
DAV:   6    -0.192215702898E+03    0.23804E-03   -0.55399E-04  8600   0.188E-01    0.556E-02
DAV:   7    -0.192215678161E+03    0.24737E-04   -0.10721E-04  5840   0.776E-02
  43 F= -.19221568E+03 E0= -.19212110E+03  d E =-.824831E-02
       N       E                     dE             d eps       ncg     rms          rms(c)
DAV:   1    -0.192213583279E+03    0.21196E-02   -0.65354E-02  8160   0.551E-01    0.519E-02
DAV:   2    -0.192213688371E+03   -0.10509E-03   -0.14983E-03 11720   0.127E-01    0.632E-02
DAV:   3    -0.192213666372E+03    0.21999E-04   -0.20970E-04  8160   0.116E-01
  44 F= -.19221367E+03 E0= -.19211881E+03  d E =0.201179E-02
       N       E                     dE             d eps       ncg     rms          rms(c)
DAV:   1    -0.192221315582E+03   -0.76272E-02   -0.44832E-01  8160   0.145E+00    0.160E-01
DAV:   2    -0.192222169004E+03   -0.85342E-03   -0.13643E-02 11200   0.367E-01    0.150E-01
DAV:   3    -0.192222419169E+03   -0.25017E-03   -0.17562E-03 12320   0.335E-01    0.218E-01
DAV:   4    -0.192221955106E+03    0.46406E-03   -0.97221E-04 10600   0.259E-01    0.992E-02
DAV:   5    -0.192221976721E+03   -0.21615E-04   -0.54259E-04  8640   0.176E-01
  45 F= -.19222198E+03 E0= -.19212701E+03  d E =-.831035E-02
       N       E                     dE             d eps       ncg     rms          rms(c)
DAV:   1    -0.192214713869E+03    0.72412E-02   -0.32267E-01  8160   0.123E+00    0.163E-01
DAV:   2    -0.192217053699E+03   -0.23398E-02   -0.11825E-02 12160   0.537E-01    0.456E-01
DAV:   3    -0.192214993576E+03    0.20601E-02   -0.48404E-03 11520   0.509E-01    0.141E-01
DAV:   4    -0.192214959540E+03    0.34036E-04   -0.83196E-04  9800   0.184E-01
  46 F= -.19221496E+03 E0= -.19211977E+03  d E =0.701718E-02
       N       E                     dE             d eps       ncg     rms          rms(c)
DAV:   1    -0.192210680081E+03    0.43135E-02   -0.24377E-01  8160   0.108E+00    0.203E-01
DAV:   2    -0.192212157768E+03   -0.14777E-02   -0.99246E-03 11640   0.578E-01    0.437E-01
DAV:   3    -0.192210398178E+03    0.17596E-02   -0.47815E-03 11800   0.541E-01    0.197E-01
DAV:   4    -0.192210285588E+03    0.11259E-03   -0.17288E-03 10320   0.285E-01    0.184E-01
DAV:   5    -0.192210098201E+03    0.18739E-03   -0.13282E-03 10240   0.281E-01    0.139E-01
DAV:   6    -0.192209862359E+03    0.23584E-03   -0.64503E-04  9240   0.165E-01    0.504E-02
DAV:   7    -0.192209849230E+03    0.13129E-04   -0.16145E-04  6560   0.913E-02
  47 F= -.19220985E+03 E0= -.19211498E+03  d E =0.511031E-02
       N       E                     dE             d eps       ncg     rms          rms(c)
DAV:   1    -0.192219771128E+03   -0.99088E-02   -0.79959E-01  8160   0.194E+00    0.237E-01
DAV:   2    -0.192221018280E+03   -0.12472E-02   -0.22834E-02 11160   0.466E-01    0.278E-01
DAV:   3    -0.192221530558E+03   -0.51228E-03   -0.57264E-03 12440   0.552E-01    0.377E-01
DAV:   4    -0.192220138246E+03    0.13923E-02   -0.25850E-03 11120   0.368E-01    0.111E-01
DAV:   5    -0.192220292127E+03   -0.15388E-03   -0.98429E-04 10000   0.234E-01    0.163E-01
DAV:   6    -0.192219987518E+03    0.30461E-03   -0.62697E-04 10480   0.215E-01    0.515E-02
DAV:   7    -0.192219965720E+03    0.21798E-04   -0.12611E-04  6160   0.739E-02
  48 F= -.19221997E+03 E0= -.19212508E+03  d E =-.101165E-01
       N       E                     dE             d eps       ncg     rms          rms(c)
DAV:   1    -0.192222530125E+03   -0.25426E-02   -0.55889E-02  8160   0.516E-01    0.682E-02
DAV:   2    -0.192222721175E+03   -0.19105E-03   -0.21356E-03 11840   0.182E-01    0.107E-01
DAV:   3    -0.192222637233E+03    0.83942E-04   -0.45967E-04  9040   0.175E-01
  49 F= -.19222264E+03 E0= -.19212773E+03  d E =-.267151E-02
       N       E                     dE             d eps       ncg     rms          rms(c)
DAV:   1    -0.192222122581E+03    0.59859E-03   -0.18983E-03  9680   0.132E-01    0.368E-02
DAV:   2    -0.192222362751E+03   -0.24017E-03   -0.49806E-04  8960   0.171E-01    0.147E-01
DAV:   3    -0.192222115561E+03    0.24719E-03   -0.32608E-04  7800   0.153E-01    0.266E-02
DAV:   4    -0.192222117772E+03   -0.22112E-05   -0.30206E-05  5840   0.354E-02
  50 F= -.19222212E+03 E0= -.19212727E+03  d E =0.519461E-03
       N       E                     dE             d eps       ncg     rms          rms(c)
DAV:   1    -0.192225444087E+03   -0.33285E-02   -0.10972E-01  8160   0.736E-01    0.144E-01
DAV:   2    -0.192226651140E+03   -0.12071E-02   -0.62590E-03 11520   0.501E-01    0.356E-01
DAV:   3    -0.192225192762E+03    0.14584E-02   -0.23600E-03 10920   0.413E-01    0.780E-02
DAV:   4    -0.192225202813E+03   -0.10051E-04   -0.46801E-04  8800   0.153E-01
  51 F= -.19222520E+03 E0= -.19212995E+03  d E =-.308504E-02
       N       E                     dE             d eps       ncg     rms          rms(c)
DAV:   1    -0.192232790455E+03   -0.75977E-02   -0.31744E-01  8160   0.123E+00    0.168E-01
DAV:   2    -0.192234185757E+03   -0.13953E-02   -0.10239E-02 12680   0.481E-01    0.319E-01
DAV:   3    -0.192233031350E+03    0.11544E-02   -0.26702E-03 12480   0.430E-01    0.120E-01
DAV:   4    -0.192232951130E+03    0.80220E-04   -0.48086E-04  9000   0.151E-01
  52 F= -.19223295E+03 E0= -.19213820E+03  d E =-.774832E-02
       N       E                     dE             d eps       ncg     rms          rms(c)
DAV:   1    -0.192234289299E+03   -0.12579E-02   -0.46038E-02  9480   0.506E-01    0.162E-01
DAV:   2    -0.192239882345E+03   -0.55930E-02   -0.11746E-02 12240   0.847E-01    0.730E-01
DAV:   3    -0.192234038752E+03    0.58436E-02   -0.70550E-03 11240   0.702E-01    0.654E-02
DAV:   4    -0.192234136019E+03   -0.97267E-04   -0.32095E-04  8600   0.144E-01
  53 F= -.19223414E+03 E0= -.19213921E+03  d E =-.118489E-02
       N       E                     dE             d eps       ncg     rms          rms(c)
DAV:   1    -0.192247746820E+03   -0.13708E-01   -0.69142E-01  8160   0.181E+00    0.275E-01
DAV:   2    -0.192249890501E+03   -0.21437E-02   -0.24410E-02 11880   0.750E-01    0.451E-01
DAV:   3    -0.192247932062E+03    0.19584E-02   -0.59736E-03 12400   0.653E-01    0.225E-01
DAV:   4    -0.192247709243E+03    0.22282E-03   -0.21662E-03 11400   0.331E-01    0.218E-01
DAV:   5    -0.192247540512E+03    0.16873E-03   -0.19744E-03 11640   0.353E-01    0.202E-01
DAV:   6    -0.192247150338E+03    0.39017E-03   -0.11052E-03  9640   0.233E-01    0.690E-02
DAV:   7    -0.192247123388E+03    0.26950E-04   -0.28470E-04  7440   0.110E-01
  54 F= -.19224712E+03 E0= -.19215249E+03  d E =-.129874E-01
       N       E                     dE             d eps       ncg     rms          rms(c)
DAV:   1    -0.192250128490E+03   -0.29782E-02   -0.28072E-02  8160   0.374E-01    0.626E-02
DAV:   2    -0.192250269974E+03   -0.14148E-03   -0.10984E-03 10520   0.160E-01    0.120E-01
DAV:   3    -0.192250123828E+03    0.14615E-03   -0.37998E-04  9040   0.166E-01    0.565E-02
DAV:   4    -0.192250109191E+03    0.14637E-04   -0.10093E-04  5920   0.774E-02
  55 F= -.19225011E+03 E0= -.19215567E+03  d E =-.298580E-02
       N       E                     dE             d eps       ncg     rms          rms(c)
DAV:   1    -0.192271587378E+03   -0.21464E-01   -0.11904E+00  8160   0.238E+00    0.327E-01
DAV:   2    -0.192276455573E+03   -0.48682E-02   -0.36525E-02 12040   0.922E-01    0.673E-01
DAV:   3    -0.192272304331E+03    0.41512E-02   -0.11491E-02 12360   0.858E-01    0.288E-01
DAV:   4    -0.192271666414E+03    0.63792E-03   -0.23005E-03 11000   0.321E-01    0.180E-01
DAV:   5    -0.192271543292E+03    0.12312E-03   -0.16662E-03 11640   0.340E-01    0.184E-01
DAV:   6    -0.192271239422E+03    0.30387E-03   -0.10917E-03 10520   0.256E-01    0.801E-02
DAV:   7    -0.192271114273E+03    0.12515E-03   -0.20938E-04  6600   0.783E-02    0.166E-02
DAV:   8    -0.192271114422E+03   -0.14948E-06   -0.48842E-05  8160   0.298E-02
  56 F= -.19227111E+03 E0= -.19217664E+03  d E =-.210052E-01
       N       E                     dE             d eps       ncg     rms          rms(c)
DAV:   1    -0.192269543786E+03    0.15705E-02   -0.63419E-03  8200   0.178E-01    0.334E-02
DAV:   2    -0.192269679223E+03   -0.13544E-03   -0.35039E-04  9040   0.148E-01    0.113E-01
DAV:   3    -0.192269526287E+03    0.15294E-03   -0.18031E-04  6760   0.129E-01    0.156E-02
DAV:   4    -0.192269532755E+03   -0.64686E-05   -0.24048E-05  5760   0.305E-02
  57 F= -.19226953E+03 E0= -.19217496E+03  d E =0.158167E-02
       N       E                     dE             d eps       ncg     rms          rms(c)
DAV:   1    -0.192269629819E+03   -0.10353E-03   -0.14767E-01  8160   0.818E-01    0.133E-01
DAV:   2    -0.192271231345E+03   -0.16015E-02   -0.90949E-03 11240   0.527E-01    0.348E-01
DAV:   3    -0.192269840411E+03    0.13909E-02   -0.24645E-03 11760   0.412E-01    0.746E-02
DAV:   4    -0.192269939064E+03   -0.98653E-04   -0.42233E-04  8880   0.168E-01
  58 F= -.19226994E+03 E0= -.19217532E+03  d E =-.406309E-03
       N       E                     dE             d eps       ncg     rms          rms(c)
DAV:   1    -0.192256021577E+03    0.13819E-01   -0.14212E+00  8160   0.272E+00    0.525E-01
DAV:   2    -0.192260974916E+03   -0.49533E-02   -0.57481E-02 12440   0.134E+00    0.100E+00
DAV:   3    -0.192251766276E+03    0.92086E-02   -0.24685E-02 12320   0.131E+00    0.424E-01
DAV:   4    -0.192252433736E+03   -0.66746E-03   -0.10993E-02 12160   0.774E-01    0.581E-01
DAV:   5    -0.192249572494E+03    0.28612E-02   -0.95875E-03 12320   0.778E-01    0.301E-01
DAV:   6    -0.192248449928E+03    0.11226E-02   -0.31429E-03 11080   0.342E-01    0.113E-01
DAV:   7    -0.192248406871E+03    0.43056E-04   -0.85048E-04 10640   0.211E-01
  59 F= -.19224841E+03 E0= -.19215138E+03  d E =0.215322E-01
       N       E                     dE             d eps       ncg     rms          rms(c)
DAV:   1    -0.192305993374E+03   -0.57543E-01   -0.52518E+00  8160   0.503E+00    0.780E-01
DAV:   2    -0.192319446712E+03   -0.13453E-01   -0.15855E-01 12360   0.199E+00    0.132E+00
DAV:   3    -0.192302101152E+03    0.17346E-01   -0.46024E-02 12360   0.184E+00    0.614E-01
DAV:   4    -0.192300732393E+03    0.13688E-02   -0.18417E-02 11000   0.985E-01    0.650E-01
DAV:   5    -0.192297999767E+03    0.27326E-02   -0.14490E-02 12360   0.103E+00    0.459E-01
DAV:   6    -0.192295389269E+03    0.26105E-02   -0.59137E-03 11560   0.519E-01    0.120E-01
DAV:   7    -0.192295391061E+03   -0.17924E-05   -0.13910E-03 11880   0.219E-01    0.129E-01
DAV:   8    -0.192295235908E+03    0.15515E-03   -0.45061E-04  9160   0.188E-01    0.676E-02
DAV:   9    -0.192295185548E+03    0.50360E-04   -0.92407E-05  6160   0.737E-02
  60 F= -.19229519E+03 E0= -.19220099E+03  d E =-.467787E-01
       N       E                     dE             d eps       ncg     rms          rms(c)
DAV:   1    -0.192314729279E+03   -0.19493E-01   -0.71105E-01  8160   0.182E+00    0.246E-01
DAV:   2    -0.192318639856E+03   -0.39106E-02   -0.21410E-02 11120   0.757E-01    0.582E-01
DAV:   3    -0.192315114335E+03    0.35255E-02   -0.67807E-03 12240   0.692E-01    0.179E-01
DAV:   4    -0.192314845075E+03    0.26926E-03   -0.97506E-04 10040   0.192E-01    0.105E-01
DAV:   5    -0.192314848209E+03   -0.31344E-05   -0.79737E-04 11400   0.216E-01
  61 F= -.19231485E+03 E0= -.19222110E+03  d E =-.196627E-01
       N       E                     dE             d eps       ncg     rms          rms(c)
DAV:   1    -0.192302167440E+03    0.12678E-01   -0.33713E-01  8160   0.131E+00    0.212E-01
DAV:   2    -0.192305421876E+03   -0.32544E-02   -0.17933E-02 11160   0.710E-01    0.551E-01
DAV:   3    -0.192302369721E+03    0.30522E-02   -0.68721E-03 11480   0.672E-01    0.182E-01
DAV:   4    -0.192302032099E+03    0.33762E-03   -0.10838E-03 10000   0.193E-01    0.997E-02
DAV:   5    -0.192301966476E+03    0.65623E-04   -0.62174E-04 10720   0.179E-01
  62 F= -.19230197E+03 E0= -.19220779E+03  d E =0.128817E-01
       N       E                     dE             d eps       ncg     rms          rms(c)
DAV:   1    -0.192342496689E+03   -0.40465E-01   -0.28737E+00  8160   0.366E+00    0.507E-01
DAV:   2    -0.192358170781E+03   -0.15674E-01   -0.95958E-02 10960   0.158E+00    0.112E+00
DAV:   3    -0.192344216919E+03    0.13954E-01   -0.26125E-02 11600   0.139E+00    0.372E-01
DAV:   4    -0.192343445203E+03    0.77172E-03   -0.55165E-03 11440   0.540E-01    0.317E-01
DAV:   5    -0.192342910341E+03    0.53486E-03   -0.43950E-03 10400   0.565E-01    0.271E-01
DAV:   6    -0.192342118380E+03    0.79196E-03   -0.23631E-03 11920   0.349E-01    0.105E-01
DAV:   7    -0.192341939449E+03    0.17893E-03   -0.58136E-04 10320   0.104E-01    0.441E-02
DAV:   8    -0.192341927504E+03    0.11945E-04   -0.85284E-05  7440   0.783E-02
  63 F= -.19234193E+03 E0= -.19224845E+03  d E =-.399610E-01
       N       E                     dE             d eps       ncg     rms          rms(c)
DAV:   1    -0.192353186931E+03   -0.11247E-01   -0.22092E-01  8160   0.102E+00    0.143E-01
DAV:   2    -0.192354011752E+03   -0.82482E-03   -0.69694E-03 11400   0.371E-01    0.262E-01
DAV:   3    -0.192353393491E+03    0.61826E-03   -0.19972E-03 11840   0.374E-01    0.137E-01
DAV:   4    -0.192353217684E+03    0.17581E-03   -0.41063E-04  8680   0.144E-01    0.668E-02
DAV:   5    -0.192353224531E+03   -0.68467E-05   -0.31059E-04  8600   0.144E-01
  64 F= -.19235322E+03 E0= -.19225983E+03  d E =-.112970E-01
       N       E                     dE             d eps       ncg     rms          rms(c)
DAV:   1    -0.192382893467E+03   -0.29676E-01   -0.16066E+00  8160   0.274E+00    0.366E-01
DAV:   2    -0.192391154808E+03   -0.82613E-02   -0.49880E-02 11320   0.114E+00    0.803E-01
DAV:   3    -0.192384161489E+03    0.69933E-02   -0.13946E-02 12000   0.102E+00    0.262E-01
DAV:   4    -0.192383582867E+03    0.57862E-03   -0.20298E-03 11320   0.318E-01    0.188E-01
DAV:   5    -0.192383476916E+03    0.10595E-03   -0.16140E-03 11680   0.358E-01    0.172E-01
DAV:   6    -0.192383150390E+03    0.32653E-03   -0.77419E-04 10160   0.211E-01    0.498E-02
DAV:   7    -0.192383095422E+03    0.54968E-04   -0.10770E-04  6640   0.573E-02
  65 F= -.19238310E+03 E0= -.19228969E+03  d E =-.298709E-01
       N       E                     dE             d eps       ncg     rms          rms(c)
DAV:   1    -0.192443546759E+03   -0.60396E-01   -0.15199E+01  8160   0.850E+00    0.101E+00
DAV:   2    -0.192490257983E+03   -0.46711E-01   -0.46355E-01 11320   0.263E+00    0.156E+00
DAV:   3    -0.192467943174E+03    0.22315E-01   -0.81808E-02 11880   0.244E+00    0.923E-01
DAV:   4    -0.192458209572E+03    0.97336E-02   -0.20047E-02 12320   0.110E+00    0.458E-01
DAV:   5    -0.192459395748E+03   -0.11862E-02   -0.13951E-02 12240   0.990E-01    0.574E-01
DAV:   6    -0.192455653576E+03    0.37422E-02   -0.78394E-03 11800   0.728E-01    0.171E-01
DAV:   7    -0.192455006964E+03    0.64661E-03   -0.12973E-03 10760   0.193E-01    0.593E-02
DAV:   8    -0.192455038156E+03   -0.31192E-04   -0.30368E-04 10000   0.133E-01
  66 F= -.19245504E+03 E0= -.19236224E+03  d E =-.719427E-01
       N       E                     dE             d eps       ncg     rms          rms(c)
DAV:   1    -0.192470752731E+03   -0.15746E-01   -0.67621E+00  8160   0.558E+00    0.683E-01
DAV:   2    -0.192498341585E+03   -0.27589E-01   -0.23725E-01 10920   0.203E+00    0.120E+00
DAV:   3    -0.192482877305E+03    0.15464E-01   -0.44947E-02 12000   0.181E+00    0.554E-01
DAV:   4    -0.192479491145E+03    0.33862E-02   -0.78689E-03 12480   0.693E-01    0.314E-01
DAV:   5    -0.192479704941E+03   -0.21380E-03   -0.55117E-03 12000   0.651E-01    0.361E-01
DAV:   6    -0.192478272869E+03    0.14321E-02   -0.38048E-03 11400   0.462E-01    0.115E-01
DAV:   7    -0.192478001651E+03    0.27122E-03   -0.70368E-04 10560   0.122E-01    0.399E-02
DAV:   8    -0.192478000672E+03    0.97897E-06   -0.11623E-04  7600   0.771E-02
  67 F= -.19247800E+03 E0= -.19238639E+03  d E =-.229625E-01
       N       E                     dE             d eps       ncg     rms          rms(c)
DAV:   1    -0.192479479981E+03   -0.14783E-02   -0.60471E-01  8160   0.169E+00    0.260E-01
DAV:   2    -0.192484906737E+03   -0.54268E-02   -0.22478E-02 12360   0.970E-01    0.693E-01
DAV:   3    -0.192479250692E+03    0.56560E-02   -0.91934E-03 11160   0.840E-01    0.145E-01
DAV:   4    -0.192479225993E+03    0.24699E-04   -0.10935E-03 10880   0.258E-01    0.173E-01
DAV:   5    -0.192478982486E+03    0.24351E-03   -0.10374E-03 10640   0.290E-01    0.118E-01
DAV:   6    -0.192478807166E+03    0.17532E-03   -0.47393E-04  8000   0.142E-01    0.341E-02
DAV:   7    -0.192478787011E+03    0.20155E-04   -0.78854E-05  6640   0.365E-02
  68 F= -.19247879E+03 E0= -.19238718E+03  d E =-.786339E-03
       N       E                     dE             d eps       ncg     rms          rms(c)
DAV:   1    -0.192482441141E+03   -0.36340E-02   -0.30631E-01  8160   0.117E+00    0.141E-01
DAV:   2    -0.192483909958E+03   -0.14688E-02   -0.13665E-02 11360   0.462E-01    0.245E-01
DAV:   3    -0.192483330550E+03    0.57941E-03   -0.20435E-03 12160   0.380E-01    0.120E-01
DAV:   4    -0.192483153399E+03    0.17715E-03   -0.34371E-04  8880   0.150E-01    0.599E-02
DAV:   5    -0.192483186709E+03   -0.33311E-04   -0.24298E-04  8440   0.136E-01
  69 F= -.19248319E+03 E0= -.19239228E+03  d E =-.439970E-02
       N       E                     dE             d eps       ncg     rms          rms(c)
DAV:   1    -0.192486894881E+03   -0.37415E-02   -0.12619E+00  8160   0.237E+00    0.269E-01
DAV:   2    -0.192491969991E+03   -0.50751E-02   -0.50176E-02 12120   0.833E-01    0.428E-01
DAV:   3    -0.192490541971E+03    0.14280E-02   -0.69681E-03 12240   0.714E-01    0.264E-01
DAV:   4    -0.192489668475E+03    0.87350E-03   -0.13035E-03 11360   0.299E-01    0.951E-02
DAV:   5    -0.192489907883E+03   -0.23941E-03   -0.89461E-04 11240   0.243E-01    0.166E-01
DAV:   6    -0.192489597855E+03    0.31003E-03   -0.70026E-04  9280   0.215E-01    0.437E-02
DAV:   7    -0.192489566088E+03    0.31767E-04   -0.87821E-05  6360   0.501E-02
  70 F= -.19248957E+03 E0= -.19240005E+03  d E =-.637938E-02
       N       E                     dE             d eps       ncg     rms          rms(c)
DAV:   1    -0.192489552726E+03    0.45129E-04   -0.46825E-02  8160   0.490E-01    0.963E-02
DAV:   2    -0.192489856772E+03   -0.30405E-03   -0.27168E-03 11240   0.291E-01    0.192E-01
DAV:   3    -0.192489451630E+03    0.40514E-03   -0.94422E-04 10360   0.270E-01    0.714E-02
DAV:   4    -0.192489382631E+03    0.68999E-04   -0.18203E-04  7440   0.102E-01
  71 F= -.19248938E+03 E0= -.19239968E+03  d E =0.183456E-03
       N       E                     dE             d eps       ncg     rms          rms(c)
DAV:   1    -0.192490876289E+03   -0.14247E-02   -0.12159E-01  8160   0.759E-01    0.965E-02
DAV:   2    -0.192491337427E+03   -0.46114E-03   -0.50488E-03 12640   0.241E-01    0.146E-01
DAV:   3    -0.192491145615E+03    0.19181E-03   -0.96658E-04 10320   0.248E-01    0.994E-02
DAV:   4    -0.192491025720E+03    0.11989E-03   -0.20346E-04  7840   0.111E-01    0.367E-02
DAV:   5    -0.192491043768E+03   -0.18048E-04   -0.10388E-04  6680   0.931E-02
  72 F= -.19249104E+03 E0= -.19240181E+03  d E =-.166114E-02
       N       E                     dE             d eps       ncg     rms          rms(c)
DAV:   1    -0.192491806700E+03   -0.78098E-03   -0.28481E-02  8160   0.366E-01    0.483E-02
DAV:   2    -0.192491931261E+03   -0.12456E-03   -0.12427E-03 12000   0.140E-01    0.790E-02
DAV:   3    -0.192491867726E+03    0.63534E-04   -0.18812E-04  7720   0.124E-01
  73 F= -.19249187E+03 E0= -.19240283E+03  d E =-.823958E-03
       N       E                     dE             d eps       ncg     rms          rms(c)
DAV:   1    -0.192492785964E+03   -0.85470E-03   -0.50543E-02  8160   0.482E-01    0.617E-02
DAV:   2    -0.192492915903E+03   -0.12994E-03   -0.16841E-03 12560   0.164E-01    0.834E-02
DAV:   3    -0.192492865188E+03    0.50715E-04   -0.24901E-04  9800   0.139E-01
  74 F= -.19249287E+03 E0= -.19240424E+03  d E =-.997461E-03
       N       E                     dE             d eps       ncg     rms          rms(c)
DAV:   1    -0.192494827121E+03   -0.19112E-02   -0.52315E-01  8160   0.153E+00    0.167E-01
DAV:   2    -0.192496046646E+03   -0.12195E-02   -0.16550E-02 12320   0.420E-01    0.178E-01
DAV:   3    -0.192496090968E+03   -0.44322E-04   -0.19317E-03 11960   0.370E-01    0.189E-01
DAV:   4    -0.192495614950E+03    0.47602E-03   -0.72404E-04 10360   0.229E-01    0.589E-02
DAV:   5    -0.192495767084E+03   -0.15213E-03   -0.39069E-04  9120   0.165E-01    0.123E-01
DAV:   6    -0.192495592278E+03    0.17481E-03   -0.29416E-04  8120   0.154E-01    0.265E-02
DAV:   7    -0.192495586494E+03    0.57846E-05   -0.38876E-05  5760   0.326E-02
  75 F= -.19249559E+03 E0= -.19240833E+03  d E =-.272131E-02
       N       E                     dE             d eps       ncg     rms          rms(c)
DAV:   1    -0.192496328244E+03   -0.73597E-03   -0.59044E-02  8160   0.512E-01    0.527E-02
DAV:   2    -0.192496529704E+03   -0.20146E-03   -0.22318E-03 11880   0.168E-01    0.698E-02
DAV:   3    -0.192496499468E+03    0.30235E-04   -0.24135E-04  8760   0.129E-01
  76 F= -.19249650E+03 E0= -.19240972E+03  d E =-.912974E-03
       N       E                     dE             d eps       ncg     rms          rms(c)
DAV:   1    -0.192497347430E+03   -0.81773E-03   -0.12611E-01  8160   0.746E-01    0.849E-02
DAV:   2    -0.192497756157E+03   -0.40873E-03   -0.40529E-03 12600   0.262E-01    0.131E-01
DAV:   3    -0.192497587473E+03    0.16868E-03   -0.67344E-04 10840   0.212E-01    0.765E-02
DAV:   4    -0.192497532316E+03    0.55157E-04   -0.13300E-04  6080   0.985E-02
  77 F= -.19249753E+03 E0= -.19241136E+03  d E =-.103285E-02
       N       E                     dE             d eps       ncg     rms          rms(c)
DAV:   1    -0.192498424374E+03   -0.83690E-03   -0.17083E-01  8160   0.873E-01    0.925E-02
DAV:   2    -0.192498929451E+03   -0.50508E-03   -0.50100E-03 12440   0.247E-01    0.141E-01
DAV:   3    -0.192498780192E+03    0.14926E-03   -0.72933E-04 10320   0.231E-01    0.918E-02
DAV:   4    -0.192498687245E+03    0.92947E-04   -0.13127E-04  5880   0.994E-02
  78 F= -.19249869E+03 E0= -.19241325E+03  d E =-.115493E-02
       N       E                     dE             d eps       ncg     rms          rms(c)
DAV:   1    -0.192499138000E+03   -0.35781E-03   -0.21707E-02  8160   0.321E-01    0.738E-02
DAV:   2    -0.192499629686E+03   -0.49169E-03   -0.16806E-03 11600   0.305E-01    0.205E-01
DAV:   3    -0.192499080642E+03    0.54904E-03   -0.72822E-04  9720   0.247E-01    0.308E-02
DAV:   4    -0.192499075632E+03    0.50104E-05   -0.54614E-05  6120   0.434E-02
  79 F= -.19249908E+03 E0= -.19241382E+03  d E =-.388387E-03
