<?xml version="1.0" encoding="ISO-8859-1"?>
<modeling>
 <generator>
  <i name="program" type="string">vasp </i>
  <i name="version" type="string">5.4.1  </i>
  <i name="subversion" type="string">05Feb16 (build Jul 05 2020 17:13:04) complex                          parallel </i>
  <i name="platform" type="string">IFC91_ompi </i>
  <i name="date" type="string">2024 04 24 </i>
  <i name="time" type="string">10:42:11 </i>
 </generator>
 <incar>
  <i type="int" name="ISTART">     0</i>
  <i type="string" name="PREC">normal</i>
  <i type="string" name="ALGO"> Normal</i>
  <i type="int" name="ISPIN">     1</i>
  <i type="int" name="ICHARG">     2</i>
  <i type="int" name="IBRION">     1</i>
  <i type="int" name="NSW">   100</i>
  <i type="int" name="ISIF">     3</i>
  <i type="int" name="ISYM">     0</i>
  <i name="SYMPREC">      0.00000001</i>
  <i name="POTIM">      0.50000000</i>
  <i type="logical" name="LREAL"> F  </i>
  <i type="logical" name="LPLANE"> F  </i>
  <i type="int" name="ISMEAR">     0</i>
  <i type="logical" name="LWAVE"> F  </i>
  <i type="logical" name="LCHARG"> F  </i>
  <v type="int" name="KPOINT_BSE">    -1     0     0     0</v>
 </incar>
 <kpoints>
  <generation param="Gamma">
   <v type="int" name="divisions">       8        8        1 </v>
   <v name="usershift">      0.00000000       0.00000000       0.00000000 </v>
   <v name="genvec1">      0.12500000       0.00000000       0.00000000 </v>
   <v name="genvec2">     -0.00000000       0.12500000       0.00000000 </v>
   <v name="genvec3">      0.00000000       0.00000000       1.00000000 </v>
   <v name="shift">      0.00000000       0.00000000       0.00000000 </v>
  </generation>
  <varray name="kpointlist" >
   <v>       0.00000000       0.00000000       0.00000000 </v>
   <v>       0.12500000       0.00000000       0.00000000 </v>
   <v>       0.25000000       0.00000000       0.00000000 </v>
   <v>       0.37500000       0.00000000       0.00000000 </v>
   <v>       0.50000000       0.00000000       0.00000000 </v>
   <v>       0.00000000       0.12500000       0.00000000 </v>
   <v>       0.12500000       0.12500000       0.00000000 </v>
   <v>       0.25000000       0.12500000       0.00000000 </v>
   <v>       0.37500000       0.12500000       0.00000000 </v>
   <v>       0.50000000       0.12500000       0.00000000 </v>
   <v>      -0.37500000       0.12500000       0.00000000 </v>
   <v>      -0.25000000       0.12500000       0.00000000 </v>
   <v>      -0.12500000       0.12500000       0.00000000 </v>
   <v>       0.00000000       0.25000000       0.00000000 </v>
   <v>       0.12500000       0.25000000       0.00000000 </v>
   <v>       0.25000000       0.25000000       0.00000000 </v>
   <v>       0.37500000       0.25000000       0.00000000 </v>
   <v>       0.50000000       0.25000000       0.00000000 </v>
   <v>      -0.37500000       0.25000000       0.00000000 </v>
   <v>      -0.25000000       0.25000000       0.00000000 </v>
   <v>      -0.12500000       0.25000000       0.00000000 </v>
   <v>      -0.00000000       0.37500000       0.00000000 </v>
   <v>       0.12500000       0.37500000       0.00000000 </v>
   <v>       0.25000000       0.37500000       0.00000000 </v>
   <v>       0.37500000       0.37500000       0.00000000 </v>
   <v>       0.50000000       0.37500000       0.00000000 </v>
   <v>      -0.37500000       0.37500000       0.00000000 </v>
   <v>      -0.25000000       0.37500000       0.00000000 </v>
   <v>      -0.12500000       0.37500000       0.00000000 </v>
   <v>       0.00000000       0.50000000       0.00000000 </v>
   <v>       0.12500000       0.50000000       0.00000000 </v>
   <v>       0.25000000       0.50000000       0.00000000 </v>
   <v>       0.37500000       0.50000000       0.00000000 </v>
   <v>       0.50000000       0.50000000       0.00000000 </v>
  </varray>
  <varray name="weights" >
   <v>       0.01562500 </v>
   <v>       0.03125000 </v>
   <v>       0.03125000 </v>
   <v>       0.03125000 </v>
   <v>       0.01562500 </v>
   <v>       0.03125000 </v>
   <v>       0.03125000 </v>
   <v>       0.03125000 </v>
   <v>       0.03125000 </v>
   <v>       0.03125000 </v>
   <v>       0.03125000 </v>
   <v>       0.03125000 </v>
   <v>       0.03125000 </v>
   <v>       0.03125000 </v>
   <v>       0.03125000 </v>
   <v>       0.03125000 </v>
   <v>       0.03125000 </v>
   <v>       0.03125000 </v>
   <v>       0.03125000 </v>
   <v>       0.03125000 </v>
   <v>       0.03125000 </v>
   <v>       0.03125000 </v>
   <v>       0.03125000 </v>
   <v>       0.03125000 </v>
   <v>       0.03125000 </v>
   <v>       0.03125000 </v>
   <v>       0.03125000 </v>
   <v>       0.03125000 </v>
   <v>       0.03125000 </v>
   <v>       0.01562500 </v>
   <v>       0.03125000 </v>
   <v>       0.03125000 </v>
   <v>       0.03125000 </v>
   <v>       0.01562500 </v>
  </varray>
 </kpoints>
 <parameters>
  <separator name="general" >
   <i type="string" name="SYSTEM">unknown system</i>
   <i type="logical" name="LCOMPAT"> F  </i>
  </separator>
  <separator name="electronic" >
   <i type="string" name="PREC">normal</i>
   <i name="ENMAX">    280.00000000</i>
   <i name="ENAUG">    373.43800000</i>
   <i name="EDIFF">      0.00010000</i>
   <i type="int" name="IALGO">    38</i>
   <i type="int" name="IWAVPR">    11</i>
   <i type="int" name="NBANDS">   120</i>
   <i name="NELECT">    159.00000000</i>
   <i type="int" name="TURBO">     0</i>
   <i type="int" name="IRESTART">     0</i>
   <i type="int" name="NREBOOT">     0</i>
   <i type="int" name="NMIN">     0</i>
   <i name="EREF">      0.00000000</i>
   <separator name="electronic smearing" >
    <i type="int" name="ISMEAR">     0</i>
    <i name="SIGMA">      0.20000000</i>
    <i name="KSPACING">      0.50000000</i>
    <i type="logical" name="KGAMMA"> T  </i>
   </separator>
   <separator name="electronic projectors" >
    <i type="logical" name="LREAL"> F  </i>
    <v name="ROPT">      0.00000000      0.00000000      0.00000000      0.00000000</v>
    <i type="int" name="LMAXPAW">  -100</i>
    <i type="int" name="LMAXMIX">     2</i>
    <i type="logical" name="NLSPLINE"> F  </i>
   </separator>
   <separator name="electronic startup" >
    <i type="int" name="ISTART">     0</i>
    <i type="int" name="ICHARG">     2</i>
    <i type="int" name="INIWAV">     1</i>
   </separator>
   <separator name="electronic spin" >
    <i type="int" name="ISPIN">     1</i>
    <i type="logical" name="LNONCOLLINEAR"> F  </i>
    <v name="MAGMOM">      1.00000000      1.00000000      1.00000000      1.00000000      1.00000000      1.00000000      1.00000000      1.00000000      1.00000000      1.00000000      1.00000000      1.00000000      1.00000000      1.00000000      1.00000000      1.00000000      1.00000000      1.00000000      1.00000000      1.00000000
      1.00000000      1.00000000      1.00000000      1.00000000      1.00000000      1.00000000      1.00000000</v>
    <i name="NUPDOWN">     -1.00000000</i>
    <i type="logical" name="LSORBIT"> F  </i>
    <v name="SAXIS">      0.00000000      0.00000000      1.00000000</v>
    <i type="logical" name="LSPIRAL"> F  </i>
    <v name="QSPIRAL">      0.00000000      0.00000000      0.00000000</v>
    <i type="logical" name="LZEROZ"> F  </i>
   </separator>
   <separator name="electronic exchange-correlation" >
    <i type="logical" name="LASPH"> F  </i>
    <i type="logical" name="LMETAGGA"> F  </i>
   </separator>
   <separator name="electronic convergence" >
    <i type="int" name="NELM">    60</i>
    <i type="int" name="NELMDL">    -5</i>
    <i type="int" name="NELMIN">     2</i>
    <i name="ENINI">    280.00000000</i>
    <separator name="electronic convergence detail" >
     <i type="logical" name="LDIAG"> T  </i>
     <i type="logical" name="LSUBROT"> F  </i>
     <i name="WEIMIN">      0.00100000</i>
     <i name="EBREAK">      0.00000021</i>
     <i name="DEPER">      0.30000000</i>
     <i type="int" name="NRMM">     4</i>
     <i name="TIME">      0.40000000</i>
    </separator>
   </separator>
   <separator name="electronic mixer" >
    <i name="AMIX">      0.40000000</i>
    <i name="BMIX">      1.00000000</i>
    <i name="AMIN">      0.10000000</i>
    <i name="AMIX_MAG">      1.60000000</i>
    <i name="BMIX_MAG">      1.00000000</i>
    <separator name="electronic mixer details" >
     <i type="int" name="IMIX">     4</i>
     <i type="logical" name="MIXFIRST"> F  </i>
     <i type="int" name="MAXMIX">   -45</i>
     <i name="WC">    100.00000000</i>
     <i type="int" name="INIMIX">     1</i>
     <i type="int" name="MIXPRE">     1</i>
     <i type="int" name="MREMOVE">     5</i>
    </separator>
   </separator>
   <separator name="electronic dipolcorrection" >
    <i type="logical" name="LDIPOL"> F  </i>
    <i type="logical" name="LMONO"> F  </i>
    <i type="int" name="IDIPOL">     0</i>
    <i name="EPSILON">      1.00000000</i>
    <v name="DIPOL">   -100.00000000   -100.00000000   -100.00000000</v>
    <i name="EFIELD">      0.00000000</i>
   </separator>
  </separator>
  <separator name="grids" >
   <i type="int" name="NGX">    42</i>
   <i type="int" name="NGY">    42</i>
   <i type="int" name="NGZ">   126</i>
   <i type="int" name="NGXF">    84</i>
   <i type="int" name="NGYF">    84</i>
   <i type="int" name="NGZF">   252</i>
   <i type="logical" name="ADDGRID"> F  </i>
  </separator>
  <separator name="ionic" >
   <i type="int" name="NSW">   100</i>
   <i type="int" name="IBRION">     1</i>
   <i type="int" name="ISIF">     3</i>
   <i name="PSTRESS">      0.00000000</i>
   <i name="EDIFFG">      0.00100000</i>
   <i type="int" name="NFREE">     0</i>
   <i name="POTIM">      0.50000000</i>
   <i name="SMASS">     -3.00000000</i>
   <i name="SCALEE">      1.00000000</i>
  </separator>
  <separator name="ionic md" >
   <i name="TEBEG">      0.00010000</i>
   <i name="TEEND">      0.00010000</i>
   <i type="int" name="NBLOCK">     1</i>
   <i type="int" name="KBLOCK">   100</i>
   <i type="int" name="NPACO">   256</i>
   <i name="APACO">     16.00000000</i>
  </separator>
  <separator name="symmetry" >
   <i type="int" name="ISYM">     0</i>
   <i name="SYMPREC">      0.00000001</i>
  </separator>
  <separator name="dos" >
   <i type="logical" name="LORBIT"> F  </i>
   <v name="RWIGS">     -1.00000000     -1.00000000     -1.00000000     -1.00000000</v>
   <i type="int" name="NEDOS">   301</i>
   <i name="EMIN">     10.00000000</i>
   <i name="EMAX">    -10.00000000</i>
   <i name="EFERMI">      0.00000000</i>
  </separator>
  <separator name="writing" >
   <i type="int" name="NWRITE">     2</i>
   <i type="logical" name="LWAVE"> F  </i>
   <i type="logical" name="LCHARG"> F  </i>
   <i type="logical" name="LPARD"> F  </i>
   <i type="logical" name="LVTOT"> F  </i>
   <i type="logical" name="LVHAR"> F  </i>
   <i type="logical" name="LELF"> F  </i>
   <i type="logical" name="LOPTICS"> F  </i>
   <v name="STM">      0.00000000      0.00000000      0.00000000      0.00000000      0.00000000      0.00000000      0.00000000</v>
  </separator>
  <separator name="performance" >
   <i type="int" name="NPAR">    40</i>
   <i type="int" name="NSIM">     4</i>
   <i type="int" name="NBLK">    -1</i>
   <i type="logical" name="LPLANE"> F  </i>
   <i type="logical" name="LSCALAPACK"> T  </i>
   <i type="logical" name="LSCAAWARE"> F  </i>
   <i type="logical" name="LSCALU"> F  </i>
   <i type="logical" name="LASYNC"> F  </i>
   <i type="logical" name="LORBITALREAL"> F  </i>
  </separator>
  <separator name="miscellaneous" >
   <i type="int" name="IDIOT">     3</i>
   <i type="logical" name="LMUSIC"> F  </i>
   <v name="POMASS">     50.94100000     95.94000000    183.85000000     32.06600000</v>
   <v name="DARWINR">      0.00000000      0.00000000      0.00000000      0.00000000</v>
   <v name="DARWINV">      1.00000000      1.00000000      1.00000000      1.00000000</v>
   <i type="logical" name="LCORR"> T  </i>
  </separator>
  <i type="logical" name="GGA_COMPAT"> T  </i>
  <i type="logical" name="LBERRY"> F  </i>
  <i type="int" name="ICORELEVEL">     0</i>
  <i type="logical" name="LDAU"> F  </i>
  <i type="int" name="I_CONSTRAINED_M">     0</i>
  <separator name="electronic exchange-correlation" >
   <i type="string" name="GGA">--</i>
   <i type="int" name="VOSKOWN">     0</i>
   <i type="logical" name="LHFCALC"> F  </i>
   <i type="string" name="PRECFOCK"></i>
   <i type="logical" name="LSYMGRAD"> F  </i>
   <i type="logical" name="LHFONE"> F  </i>
   <i type="logical" name="LRHFCALC"> F  </i>
   <i type="logical" name="LTHOMAS"> F  </i>
   <i type="logical" name="LMODELHF"> F  </i>
   <i name="ENCUT4O">     -1.00000000</i>
   <i type="int" name="EXXOEP">     0</i>
   <i type="int" name="FOURORBIT">     0</i>
   <i name="AEXX">      0.00000000</i>
   <i name="HFALPHA">      0.00000000</i>
   <i name="MCALPHA">      0.00000000</i>
   <i name="ALDAX">      1.00000000</i>
   <i name="AGGAX">      1.00000000</i>
   <i name="ALDAC">      1.00000000</i>
   <i name="AGGAC">      1.00000000</i>
   <i type="int" name="NKREDX">     1</i>
   <i type="int" name="NKREDY">     1</i>
   <i type="int" name="NKREDZ">     1</i>
   <i type="logical" name="SHIFTRED"> F  </i>
   <i type="logical" name="ODDONLY"> F  </i>
   <i type="logical" name="EVENONLY"> F  </i>
   <i type="int" name="LMAXFOCK">     0</i>
   <i type="int" name="NMAXFOCKAE">     0</i>
   <i type="logical" name="LFOCKAEDFT"> F  </i>
   <i name="HFSCREEN">      0.00000000</i>
   <i name="HFSCREENC">      0.00000000</i>
   <i type="int" name="NBANDSGWLOW">     0</i>
  </separator>
  <separator name="vdW DFT" >
   <i type="logical" name="LUSE_VDW"> F  </i>
   <i name="Zab_VDW">     -0.84910000</i>
   <i name="PARAM1">      0.12340000</i>
   <i name="PARAM2">      1.00000000</i>
   <i name="PARAM3">      0.00000000</i>
  </separator>
  <separator name="model GW" >
   <i type="int" name="MODEL_GW">     0</i>
   <i name="MODEL_EPS0">     58.26239943</i>
   <i name="MODEL_ALPHA">      1.00000000</i>
  </separator>
  <separator name="linear response parameters" >
   <i type="logical" name="LEPSILON"> F  </i>
   <i type="logical" name="LRPA"> F  </i>
   <i type="logical" name="LNABLA"> F  </i>
   <i type="logical" name="LVEL"> F  </i>
   <i type="int" name="KINTER">     0</i>
   <i name="CSHIFT">      0.10000000</i>
   <i name="OMEGAMAX">     -1.00000000</i>
   <i name="DEG_THRESHOLD">      0.00200000</i>
  </separator>
  <separator name="orbital magnetization" >
   <i type="logical" name="NUCIND"> F  </i>
   <v name="MAGPOS">      0.00000000      0.00000000      0.00000000</v>
   <i type="logical" name="LNICSALL"> T  </i>
   <i type="logical" name="ORBITALMAG"> F  </i>
   <i type="logical" name="LMAGBLOCH"> F  </i>
   <i type="logical" name="LCHIMAG"> F  </i>
   <i type="logical" name="LGAUGE"> T  </i>
   <i type="int" name="MAGATOM">     0</i>
   <v name="MAGDIPOL">      0.00000000      0.00000000      0.00000000</v>
   <v name="AVECCONST">      0.00000000      0.00000000      0.00000000</v>
  </separator>
  <separator name="response functions" >
   <i type="logical" name="LADDER"> F  </i>
   <i type="logical" name="LFXC"> F  </i>
   <i type="logical" name="LHARTREE"> T  </i>
   <i type="int" name="IBSE">     0</i>
   <v type="int" name="KPOINT">    -1     0     0     0</v>
   <i type="logical" name="LTCTE"> F  </i>
   <i type="logical" name="LTETE"> F  </i>
   <i type="logical" name="LTRIPLET"> F  </i>
   <i type="logical" name="LFXCEPS"> F  </i>
   <i type="logical" name="LFXHEG"> F  </i>
   <i type="int" name="NATURALO">     0</i>
   <i type="logical" name="L2ORDER"> F  </i>
   <i type="logical" name="LUSEW"> F  </i>
   <i name="ENCUTGW">     -2.00000000</i>
   <i name="ENCUTGWSOFT">     -2.00000000</i>
   <i name="ENCUTLF">     -1.00000000</i>
   <i type="int" name="LMAXMP2">    -1</i>
   <i name="SCISSOR">      0.00000000</i>
   <i type="int" name="NOMEGA">     0</i>
   <i type="int" name="NOMEGAR">     0</i>
   <i type="int" name="NBANDSGW">    -1</i>
   <i type="int" name="NBANDSO">    -1</i>
   <i type="int" name="NBANDSV">    -1</i>
   <i type="int" name="NELM">     1</i>
   <i type="int" name="NELMHF">     1</i>
   <i type="int" name="DIM">     3</i>
   <i type="int" name="ANTIRES">     0</i>
   <i name="OMEGAMAX">    -30.00000000</i>
   <i name="OMEGAMIN">    -30.00000000</i>
   <i name="OMEGATL">   -200.00000000</i>
   <i type="int" name="OMEGAGRID">     0</i>
   <i name="CSHIFT">     -0.10000000</i>
   <i type="logical" name="SELFENERGY"> F  </i>
   <i type="logical" name="LSPECTRAL"> F  </i>
   <i type="logical" name="LSPECTRALGW"> F  </i>
   <i type="logical" name="LSINGLES"> F  </i>
   <i type="logical" name="LFERMIGW"> F  </i>
   <i type="logical" name="ODDONLYGW"> F  </i>
   <i type="logical" name="EVENONLYGW"> F  </i>
   <i type="int" name="NKREDLFX">     1</i>
   <i type="int" name="NKREDLFY">     1</i>
   <i type="int" name="NKREDLFZ">     1</i>
   <i type="int" name="MAXMEM">  1800</i>
   <i type="int" name="TELESCOPE">     0</i>
   <i type="int" name="TAUPAR">     1</i>
   <i type="int" name="OMEGAPAR">    -1</i>
   <i name="LAMBDA">      1.00000000</i>
  </separator>
  <separator name="External order field" >
   <i name="OFIELD_KAPPA">      0.00000000</i>
   <v name="OFIELD_K">      0.00000000      0.00000000      0.00000000</v>
   <i name="OFIELD_Q6_NEAR">      0.00000000</i>
   <i name="OFIELD_Q6_FAR">      0.00000000</i>
   <i name="OFIELD_A">      0.00000000</i>
  </separator>
 </parameters>
 <atominfo>
  <atoms>      27 </atoms>
  <types>       4 </types>
  <array name="atoms" >
   <dimension dim="1">ion</dimension>
   <field type="string">element</field>
   <field type="int">atomtype</field>
   <set>
    <rc><c>V </c><c>   1</c></rc>
    <rc><c>V </c><c>   1</c></rc>
    <rc><c>V </c><c>   1</c></rc>
    <rc><c>Mo</c><c>   2</c></rc>
    <rc><c>Mo</c><c>   2</c></rc>
    <rc><c>Mo</c><c>   2</c></rc>
    <rc><c>W </c><c>   3</c></rc>
    <rc><c>W </c><c>   3</c></rc>
    <rc><c>W </c><c>   3</c></rc>
    <rc><c>S </c><c>   4</c></rc>
    <rc><c>S </c><c>   4</c></rc>
    <rc><c>S </c><c>   4</c></rc>
    <rc><c>S </c><c>   4</c></rc>
    <rc><c>S </c><c>   4</c></rc>
    <rc><c>S </c><c>   4</c></rc>
    <rc><c>S </c><c>   4</c></rc>
    <rc><c>S </c><c>   4</c></rc>
    <rc><c>S </c><c>   4</c></rc>
    <rc><c>S </c><c>   4</c></rc>
    <rc><c>S </c><c>   4</c></rc>
    <rc><c>S </c><c>   4</c></rc>
    <rc><c>S </c><c>   4</c></rc>
    <rc><c>S </c><c>   4</c></rc>
    <rc><c>S </c><c>   4</c></rc>
    <rc><c>S </c><c>   4</c></rc>
    <rc><c>S </c><c>   4</c></rc>
    <rc><c>S </c><c>   4</c></rc>
   </set>
  </array>
  <array name="atomtypes" >
   <dimension dim="1">type</dimension>
   <field type="int">atomspertype</field>
   <field type="string">element</field>
   <field>mass</field>
   <field>valence</field>
   <field type="string">pseudopotential</field>
   <set>
    <rc><c>   3</c><c>V </c><c>     50.94100000</c><c>      5.00000000</c><c> PAW_PBE V 08Apr2002                    </c></rc>
    <rc><c>   3</c><c>Mo</c><c>     95.94000000</c><c>      6.00000000</c><c> PAW_PBE Mo 08Apr2002                   </c></rc>
    <rc><c>   3</c><c>W </c><c>    183.85000000</c><c>      6.00000000</c><c> PAW_PBE W 08Apr2002                    </c></rc>
    <rc><c>  18</c><c>S </c><c>     32.06600000</c><c>      6.00000000</c><c>  PAW_PBE S 17Jan2003                   </c></rc>
   </set>
  </array>
 </atominfo>
 <structure name="initialpos" >
  <crystal>
   <varray name="basis" >
    <v>       8.66999996       5.03999989       0.00000000 </v>
    <v>      -8.66999982       5.04000013       0.00000000 </v>
    <v>       0.00000000       0.00000000      30.00000000 </v>
   </varray>
   <i name="volume">   2621.80797419 </i>
   <varray name="rec_basis" >
    <v>       0.05767013       0.09920635       0.00000000 </v>
    <v>      -0.05767013       0.09920635       0.00000000 </v>
    <v>       0.00000000       0.00000000       0.03333333 </v>
   </varray>
  </crystal>
  <varray name="positions" >
   <v>       0.33333334       0.66666669       0.00000000 </v>
   <v>       0.66666669       0.00000000       0.00000000 </v>
   <v>       1.00000000       0.33333334       0.00000000 </v>
   <v>       0.00000000       0.66666669       0.00000000 </v>
   <v>       0.33333334       0.33333334       0.00000000 </v>
   <v>       0.66666669       0.33333334       0.00000000 </v>
   <v>       0.00000000       0.00000000       0.00000000 </v>
   <v>       0.33333334       0.00000000       0.00000000 </v>
   <v>       0.66666669       0.66666669       0.00000000 </v>
   <v>       0.11068511       0.22244981       0.95539999 </v>
   <v>       0.22244981       0.11068511       0.04460000 </v>
   <v>       0.11068511       0.55578315       0.95539999 </v>
   <v>       0.22244981       0.44401845       0.04460000 </v>
   <v>       0.11068511       0.88911647       0.95539999 </v>
   <v>       0.22244981       0.77735180       0.04460000 </v>
   <v>       0.44401845       0.22244981       0.95539999 </v>
   <v>       0.55578315       0.11068511       0.04460000 </v>
   <v>       0.44401845       0.55578315       0.95539999 </v>
   <v>       0.55578315       0.44401845       0.04460000 </v>
   <v>       0.44401845       0.88911647       0.95539999 </v>
   <v>       0.55578315       0.77735180       0.04460000 </v>
   <v>       0.77735180       0.22244981       0.95539999 </v>
   <v>       0.88911647       0.11068511       0.04460000 </v>
   <v>       0.77735180       0.55578315       0.95539999 </v>
   <v>       0.88911647       0.44401845       0.04460000 </v>
   <v>       0.77735180       0.88911647       0.95539999 </v>
   <v>       0.88911647       0.77735180       0.04460000 </v>
  </varray>
 </structure>
 <calculation>
  <scstep>
   <time name="dav">   22.00   22.06</time>
   <time name="total">   22.04   22.11</time>
   <energy>
    <i name="alphaZ">     81.65567618 </i>
    <i name="ewald">  41891.12778375 </i>
    <i name="hartreedc"> -47723.77362661 </i>
    <i name="XCdc">   -242.92539885 </i>
    <i name="pawpsdc">   3467.42045192 </i>
    <i name="pawaedc">  -2871.19716117 </i>
    <i name="eentropy">     -0.53141895 </i>
    <i name="bandstr">   -239.05228459 </i>
    <i name="atom">   6761.44252427 </i>
    <i name="e_fr_energy">   1124.16654595 </i>
    <i name="e_wo_entrp">   1124.69796490 </i>
    <i name="e_0_energy">   1124.43225543 </i>
   </energy>
  </scstep>
  <scstep>
   <time name="dav">   28.37   28.44</time>
   <time name="total">   28.37   28.45</time>
   <energy>
    <i name="e_fr_energy">     -4.99622481 </i>
    <i name="e_wo_entrp">     -4.79785802 </i>
    <i name="e_0_energy">     -4.89704142 </i>
   </energy>
  </scstep>
  <scstep>
   <time name="dav">   27.67   27.74</time>
   <time name="total">   27.67   27.75</time>
   <energy>
    <i name="e_fr_energy">   -199.90325379 </i>
    <i name="e_wo_entrp">   -199.64019241 </i>
    <i name="e_0_energy">   -199.77172310 </i>
   </energy>
  </scstep>
  <scstep>
   <time name="dav">   29.89   29.96</time>
   <time name="total">   29.89   29.97</time>
   <energy>
    <i name="e_fr_energy">   -209.04641150 </i>
    <i name="e_wo_entrp">   -208.78803670 </i>
    <i name="e_0_energy">   -208.91722410 </i>
   </energy>
  </scstep>
  <scstep>
   <time name="dav">   29.57   29.65</time>
   <time name="total">   30.04   30.12</time>
   <energy>
    <i name="e_fr_energy">   -209.40383753 </i>
    <i name="e_wo_entrp">   -209.14893180 </i>
    <i name="e_0_energy">   -209.27638467 </i>
   </energy>
  </scstep>
  <scstep>
   <time name="dav">   31.04   31.12</time>
   <time name="total">   31.54   31.64</time>
   <energy>
    <i name="e_fr_energy">   -241.33622085 </i>
    <i name="e_wo_entrp">   -241.05080119 </i>
    <i name="e_0_energy">   -241.19351102 </i>
   </energy>
  </scstep>
  <scstep>
   <time name="dav">   32.55   32.63</time>
   <time name="total">   33.06   33.14</time>
   <energy>
    <i name="e_fr_energy">   -196.11394521 </i>
    <i name="e_wo_entrp">   -195.78707369 </i>
    <i name="e_0_energy">   -195.95050945 </i>
   </energy>
  </scstep>
  <scstep>
   <time name="dav">   30.18   30.25</time>
   <time name="total">   30.70   30.78</time>
   <energy>
    <i name="e_fr_energy">   -189.35781283 </i>
    <i name="e_wo_entrp">   -189.03072911 </i>
    <i name="e_0_energy">   -189.19427097 </i>
   </energy>
  </scstep>
  <scstep>
   <time name="dav">   32.34   32.41</time>
   <time name="total">   32.86   32.94</time>
   <energy>
    <i name="e_fr_energy">   -188.08210414 </i>
    <i name="e_wo_entrp">   -187.75152084 </i>
    <i name="e_0_energy">   -187.91681249 </i>
   </energy>
  </scstep>
  <scstep>
   <time name="dav">   33.11   33.19</time>
   <time name="total">   33.64   33.73</time>
   <energy>
    <i name="e_fr_energy">   -186.94988164 </i>
    <i name="e_wo_entrp">   -186.59436221 </i>
    <i name="e_0_energy">   -186.77212192 </i>
   </energy>
  </scstep>
  <scstep>
   <time name="dav">   33.18   33.26</time>
   <time name="total">   33.71   33.80</time>
   <energy>
    <i name="e_fr_energy">   -187.05450047 </i>
    <i name="e_wo_entrp">   -186.71590663 </i>
    <i name="e_0_energy">   -186.88520355 </i>
   </energy>
  </scstep>
  <scstep>
   <time name="dav">   31.98   32.05</time>
   <time name="total">   32.51   32.60</time>
   <energy>
    <i name="e_fr_energy">   -186.94890487 </i>
    <i name="e_wo_entrp">   -186.60574860 </i>
    <i name="e_0_energy">   -186.77732674 </i>
   </energy>
  </scstep>
  <scstep>
   <time name="dav">   31.26   31.33</time>
   <time name="total">   31.79   31.88</time>
   <energy>
    <i name="e_fr_energy">   -186.87390962 </i>
    <i name="e_wo_entrp">   -186.52978806 </i>
    <i name="e_0_energy">   -186.70184884 </i>
   </energy>
  </scstep>
  <scstep>
   <time name="dav">   31.35   31.43</time>
   <time name="total">   31.88   31.97</time>
   <energy>
    <i name="e_fr_energy">   -186.85285050 </i>
    <i name="e_wo_entrp">   -186.50417883 </i>
    <i name="e_0_energy">   -186.67851467 </i>
   </energy>
  </scstep>
  <scstep>
   <time name="dav">   31.62   31.69</time>
   <time name="total">   32.15   32.24</time>
   <energy>
    <i name="e_fr_energy">   -186.85064271 </i>
    <i name="e_wo_entrp">   -186.50256506 </i>
    <i name="e_0_energy">   -186.67660388 </i>
   </energy>
  </scstep>
  <scstep>
   <time name="dav">   32.84   32.92</time>
   <time name="total">   33.38   33.58</time>
   <energy>
    <i name="e_fr_energy">   -186.84668165 </i>
    <i name="e_wo_entrp">   -186.49884757 </i>
    <i name="e_0_energy">   -186.67276461 </i>
   </energy>
  </scstep>
  <scstep>
   <time name="dav">   31.71   31.79</time>
   <time name="total">   32.25   32.33</time>
   <energy>
    <i name="e_fr_energy">   -186.84542458 </i>
    <i name="e_wo_entrp">   -186.49887914 </i>
    <i name="e_0_energy">   -186.67215186 </i>
   </energy>
  </scstep>
  <scstep>
   <time name="dav">   31.25   31.32</time>
   <time name="total">   31.78   31.86</time>
   <energy>
    <i name="e_fr_energy">   -186.84481479 </i>
    <i name="e_wo_entrp">   -186.49765201 </i>
    <i name="e_0_energy">   -186.67123340 </i>
   </energy>
  </scstep>
  <scstep>
   <time name="dav">   27.28   27.35</time>
   <time name="total">   27.82   27.89</time>
   <energy>
    <i name="e_fr_energy">   -186.84521250 </i>
    <i name="e_wo_entrp">   -186.49828386 </i>
    <i name="e_0_energy">   -186.67174818 </i>
   </energy>
  </scstep>
  <scstep>
   <time name="dav">   24.97   25.03</time>
   <time name="total">   25.51   25.58</time>
   <energy>
    <i name="e_fr_energy">   -186.84574911 </i>
    <i name="e_wo_entrp">   -186.49904102 </i>
    <i name="e_0_energy">   -186.67239506 </i>
   </energy>
  </scstep>
  <scstep>
   <time name="dav">   21.89   21.94</time>
   <time name="total">   22.42   22.49</time>
   <energy>
    <i name="e_fr_energy">   -186.84654559 </i>
    <i name="e_wo_entrp">   -186.49984922 </i>
    <i name="e_0_energy">   -186.67319741 </i>
   </energy>
  </scstep>
  <scstep>
   <time name="dav">   20.73   20.78</time>
   <time name="total">   21.26   21.32</time>
   <energy>
    <i name="e_fr_energy">   -186.84746870 </i>
    <i name="e_wo_entrp">   -186.50070139 </i>
    <i name="e_0_energy">   -186.67408504 </i>
   </energy>
  </scstep>
  <scstep>
   <time name="dav">   20.51   20.56</time>
   <time name="total">   21.05   21.11</time>
   <energy>
    <i name="e_fr_energy">   -186.84854916 </i>
    <i name="e_wo_entrp">   -186.50177073 </i>
    <i name="e_0_energy">   -186.67515994 </i>
   </energy>
  </scstep>
  <scstep>
   <time name="dav">   18.52   18.56</time>
   <time name="total">   19.05   19.10</time>
   <energy>
    <i name="e_fr_energy">   -186.84921113 </i>
    <i name="e_wo_entrp">   -186.50245266 </i>
    <i name="e_0_energy">   -186.67583190 </i>
   </energy>
  </scstep>
  <scstep>
   <time name="dav">   17.79   17.83</time>
   <time name="total">   18.32   18.37</time>
   <energy>
    <i name="e_fr_energy">   -186.84957536 </i>
    <i name="e_wo_entrp">   -186.50279932 </i>
    <i name="e_0_energy">   -186.67618734 </i>
   </energy>
  </scstep>
  <scstep>
   <time name="dav">   19.24   19.29</time>
   <time name="total">   19.78   19.84</time>
   <energy>
    <i name="e_fr_energy">   -186.84979394 </i>
    <i name="e_wo_entrp">   -186.50302586 </i>
    <i name="e_0_energy">   -186.67640990 </i>
   </energy>
  </scstep>
  <scstep>
   <time name="dav">   20.30   20.34</time>
   <time name="total">   20.33   20.39</time>
   <energy>
    <i name="alphaZ">     81.65567618 </i>
    <i name="ewald">  41891.12778375 </i>
    <i name="hartreedc"> -47833.62266119 </i>
    <i name="XCdc">   -231.60213361 </i>
    <i name="pawpsdc">   4192.07552719 </i>
    <i name="pawaedc">  -3610.08228631 </i>
    <i name="eentropy">     -0.34676874 </i>
    <i name="bandstr">  -1437.49752899 </i>
    <i name="atom">   6761.44252427 </i>
    <i name="e_fr_energy">   -186.84986746 </i>
    <i name="e_wo_entrp">   -186.50309872 </i>
    <i name="e_0_energy">   -186.67648309 </i>
   </energy>
  </scstep>
  <structure>
   <crystal>
    <varray name="basis" >
     <v>       8.66999996       5.03999989       0.00000000 </v>
     <v>      -8.66999982       5.04000013       0.00000000 </v>
     <v>       0.00000000       0.00000000      30.00000000 </v>
    </varray>
    <i name="volume">   2621.80797419 </i>
    <varray name="rec_basis" >
     <v>       0.05767013       0.09920635       0.00000000 </v>
     <v>      -0.05767013       0.09920635       0.00000000 </v>
     <v>       0.00000000       0.00000000       0.03333333 </v>
    </varray>
   </crystal>
   <varray name="positions" >
    <v>       0.33333334       0.66666669       0.00000000 </v>
    <v>       0.66666669       0.00000000       0.00000000 </v>
    <v>       1.00000000       0.33333334       0.00000000 </v>
    <v>       0.00000000       0.66666669       0.00000000 </v>
    <v>       0.33333334       0.33333334       0.00000000 </v>
    <v>       0.66666669       0.33333334       0.00000000 </v>
    <v>       0.00000000       0.00000000       0.00000000 </v>
    <v>       0.33333334       0.00000000       0.00000000 </v>
    <v>       0.66666669       0.66666669       0.00000000 </v>
    <v>       0.11068511       0.22244981       0.95539999 </v>
    <v>       0.22244981       0.11068511       0.04460000 </v>
    <v>       0.11068511       0.55578315       0.95539999 </v>
    <v>       0.22244981       0.44401845       0.04460000 </v>
    <v>       0.11068511       0.88911647       0.95539999 </v>
    <v>       0.22244981       0.77735180       0.04460000 </v>
    <v>       0.44401845       0.22244981       0.95539999 </v>
    <v>       0.55578315       0.11068511       0.04460000 </v>
    <v>       0.44401845       0.55578315       0.95539999 </v>
    <v>       0.55578315       0.44401845       0.04460000 </v>
    <v>       0.44401845       0.88911647       0.95539999 </v>
    <v>       0.55578315       0.77735180       0.04460000 </v>
    <v>       0.77735180       0.22244981       0.95539999 </v>
    <v>       0.88911647       0.11068511       0.04460000 </v>
    <v>       0.77735180       0.55578315       0.95539999 </v>
    <v>       0.88911647       0.44401845       0.04460000 </v>
    <v>       0.77735180       0.88911647       0.95539999 </v>
    <v>       0.88911647       0.77735180       0.04460000 </v>
   </varray>
  </structure>
  <varray name="forces" >
   <v>       0.01320363      -0.26082082       0.02775832 </v>
   <v>      -0.21347821       0.13263453      -0.01064530 </v>
   <v>      -0.22833286       0.13337288      -0.01414930 </v>
   <v>       0.01962841      -0.28525559      -0.10555941 </v>
   <v>       0.22286172       0.11837059       0.13431980 </v>
   <v>      -0.19924469       0.15196835      -0.15168643 </v>
   <v>       0.16338896       0.17406773       0.13146786 </v>
   <v>      -0.15106592       0.15028316      -0.13668208 </v>
   <v>       0.43897294      -0.33827596       0.16605014 </v>
   <v>      -0.66797945      -0.14733430      -2.08716886 </v>
   <v>      -0.09889923      -0.13300592       2.95048978 </v>
   <v>       0.89828297      -0.00510738      -1.47613851 </v>
   <v>      -0.89885735       0.00448735       1.45201290 </v>
   <v>       0.09470851       0.13206961      -2.92540481 </v>
   <v>       0.66108803       0.14742857       2.07110885 </v>
   <v>       0.24532609      -0.15087860      -2.89535119 </v>
   <v>       0.66183659      -0.14365604       2.09473209 </v>
   <v>      -0.67855952       0.15408544      -2.10614391 </v>
   <v>      -0.25210728       0.15996657       2.92829903 </v>
   <v>       0.73328554      -0.00077007      -1.46195100 </v>
   <v>      -0.74218896       0.00135609       1.43084692 </v>
   <v>       0.89349264      -0.00368672      -1.45064931 </v>
   <v>      -0.73875008      -0.00566087       1.45719403 </v>
   <v>      -0.00824039       0.00500652      -2.95368153 </v>
   <v>       0.75658849      -0.00007399       2.11536056 </v>
   <v>      -0.60350179       0.00648191      -2.07641943 </v>
   <v>      -0.32145878       0.00294696       2.89199079 </v>
  </varray>
  <varray name="stress" >
   <v>       7.49138457       0.00994222      -1.53371251 </v>
   <v>       0.00994221       4.26475816       0.03591246 </v>
   <v>      -1.53371239       0.03591232      30.33397976 </v>
  </varray>
  <energy>
   <i name="e_fr_energy">   -186.84986746 </i>
   <i name="e_wo_entrp">   -186.67648309 </i>
   <i name="e_0_energy">     -0.34676874 </i>
  </energy>
  <time name="totalsc">  797.11  799.37</time>
 </calculation>
 <calculation>
  <scstep>
   <time name="dav">   21.97   22.02</time>
   <time name="total">   22.51   22.57</time>
   <energy>
    <i name="alphaZ">     78.92132547 </i>
    <i name="ewald">  39378.53299877 </i>
    <i name="hartreedc"> -45335.85931134 </i>
    <i name="XCdc">   -239.06908382 </i>
    <i name="pawpsdc">   4192.05177394 </i>
    <i name="pawaedc">  -3610.05903068 </i>
    <i name="eentropy">     -0.28094668 </i>
    <i name="bandstr">  -1413.21246344 </i>
    <i name="atom">   6761.44252427 </i>
    <i name="e_fr_energy">   -187.53221350 </i>
    <i name="e_wo_entrp">   -187.25126682 </i>
    <i name="e_0_energy">   -187.39174016 </i>
   </energy>
  </scstep>
  <scstep>
   <time name="dav">   30.72   30.80</time>
   <time name="total">   31.25   31.34</time>
   <energy>
    <i name="e_fr_energy">   -190.02168900 </i>
    <i name="e_wo_entrp">   -189.66623216 </i>
    <i name="e_0_energy">   -189.84396058 </i>
   </energy>
  </scstep>
  <scstep>
   <time name="dav">   30.87   30.94</time>
   <time name="total">   31.41   31.50</time>
   <energy>
    <i name="e_fr_energy">   -189.24436758 </i>
    <i name="e_wo_entrp">   -188.97794074 </i>
    <i name="e_0_energy">   -189.11115416 </i>
   </energy>
  </scstep>
  <scstep>
   <time name="dav">   31.07   31.14</time>
   <time name="total">   31.61   31.69</time>
   <energy>
    <i name="e_fr_energy">   -188.84975143 </i>
    <i name="e_wo_entrp">   -188.55930445 </i>
    <i name="e_0_energy">   -188.70452794 </i>
   </energy>
  </scstep>
  <scstep>
   <time name="dav">   29.96   30.03</time>
   <time name="total">   30.50   30.58</time>
   <energy>
    <i name="e_fr_energy">   -188.85785539 </i>
    <i name="e_wo_entrp">   -188.57215371 </i>
    <i name="e_0_energy">   -188.71500455 </i>
   </energy>
  </scstep>
  <scstep>
   <time name="dav">   30.42   30.50</time>
   <time name="total">   30.96   31.05</time>
   <energy>
    <i name="e_fr_energy">   -188.76308956 </i>
    <i name="e_wo_entrp">   -188.47550588 </i>
    <i name="e_0_energy">   -188.61929772 </i>
   </energy>
  </scstep>
  <scstep>
   <time name="dav">   27.10   27.16</time>
   <time name="total">   27.64   27.71</time>
   <energy>
    <i name="e_fr_energy">   -188.71051007 </i>
    <i name="e_wo_entrp">   -188.42483143 </i>
    <i name="e_0_energy">   -188.56767075 </i>
   </energy>
  </scstep>
  <scstep>
   <time name="dav">   30.77   30.85</time>
   <time name="total">   31.31   31.40</time>
   <energy>
    <i name="e_fr_energy">   -188.69612252 </i>
    <i name="e_wo_entrp">   -188.41074916 </i>
    <i name="e_0_energy">   -188.55343584 </i>
   </energy>
  </scstep>
  <scstep>
   <time name="dav">   31.02   31.09</time>
   <time name="total">   31.56   31.64</time>
   <energy>
    <i name="e_fr_energy">   -188.68987572 </i>
    <i name="e_wo_entrp">   -188.40457925 </i>
    <i name="e_0_energy">   -188.54722749 </i>
   </energy>
  </scstep>
  <scstep>
   <time name="dav">   30.00   30.07</time>
   <time name="total">   30.54   30.62</time>
   <energy>
    <i name="e_fr_energy">   -188.68725938 </i>
    <i name="e_wo_entrp">   -188.40274570 </i>
    <i name="e_0_energy">   -188.54500254 </i>
   </energy>
  </scstep>
  <scstep>
   <time name="dav">   32.14   32.22</time>
   <time name="total">   32.68   32.77</time>
   <energy>
    <i name="e_fr_energy">   -188.68640928 </i>
    <i name="e_wo_entrp">   -188.40271913 </i>
    <i name="e_0_energy">   -188.54456420 </i>
   </energy>
  </scstep>
  <scstep>
   <time name="dav">   29.61   29.68</time>
   <time name="total">   29.65   29.73</time>
   <energy>
    <i name="alphaZ">     78.92132547 </i>
    <i name="ewald">  39378.53299877 </i>
    <i name="hartreedc"> -45346.81515945 </i>
    <i name="XCdc">   -237.97852903 </i>
    <i name="pawpsdc">   3953.06874411 </i>
    <i name="pawaedc">  -3367.60507736 </i>
    <i name="eentropy">     -0.28347971 </i>
    <i name="bandstr">  -1407.96975894 </i>
    <i name="atom">   6761.44252427 </i>
    <i name="e_fr_energy">   -188.68641187 </i>
    <i name="e_wo_entrp">   -188.40293216 </i>
    <i name="e_0_energy">   -188.54467201 </i>
   </energy>
  </scstep>
  <structure>
   <crystal>
    <varray name="basis" >
     <v>       8.86005258       5.10309866       0.00000000 </v>
     <v>      -8.85975941       5.10259483       0.00000000 </v>
     <v>       0.00000000       0.00000000      30.00000000 </v>
    </varray>
    <i name="volume">   2712.64454384 </i>
    <varray name="rec_basis" >
     <v>       0.05643122       0.09798290       0.00000000 </v>
     <v>      -0.05643679       0.09798614       0.00000000 </v>
     <v>       0.00000000       0.00000000       0.03333333 </v>
    </varray>
   </crystal>
   <varray name="positions" >
    <v>       0.33212180       0.66538167       0.00004464 </v>
    <v>       0.66670754       0.00122872      -0.00001712 </v>
    <v>       1.00000306       0.33460692      -0.00002275 </v>
    <v>      -0.00131062       0.66524685      -0.00016975 </v>
    <v>       0.33451990       0.33327983       0.00021600 </v>
    <v>       0.66683967       0.33461499      -0.00024393 </v>
    <v>       0.00128766       0.00037851       0.00021141 </v>
    <v>       0.33363231       0.00113954      -0.00021980 </v>
    <v>       0.66626900       0.66382641       0.00026702 </v>
    <v>       0.10812155       0.22360310       0.95204364 </v>
    <v>       0.22153809       0.11032370       0.04934465 </v>
    <v>       0.11315983       0.55325954       0.95302623 </v>
    <v>       0.21997052       0.44654069       0.04693496 </v>
    <v>       0.11158069       0.88948505       0.95069568 </v>
    <v>       0.22499465       0.77621813       0.04793052 </v>
    <v>       0.44397889       0.22104517       0.95074401 </v>
    <v>       0.55693695       0.10815624       0.04796851 </v>
    <v>       0.44286804       0.55840846       0.95201312 </v>
    <v>       0.55584735       0.44548545       0.04930896 </v>
    <v>       0.44605489       0.88707266       0.95304904 </v>
    <v>       0.55372475       0.77942318       0.04690093 </v>
    <v>       0.77981999       0.21994633       0.95306722 </v>
    <v>       0.88703405       0.11271334       0.04694330 </v>
    <v>       0.77735283       0.55583004       0.95065021 </v>
    <v>       0.89122106       0.44191315       0.04800169 </v>
    <v>       0.77570378       0.89082653       0.95206092 </v>
    <v>       0.88823622       0.77826025       0.04925058 </v>
   </varray>
  </structure>
  <varray name="forces" >
   <v>      -0.00026618      -0.18040794       0.09007845 </v>
   <v>      -0.17952877       0.08663914      -0.01410248 </v>
   <v>      -0.19768348       0.09639197      -0.00488400 </v>
   <v>      -0.24646969      -0.30247720       0.04982608 </v>
   <v>       0.44420881       0.08909662      -0.04527739 </v>
   <v>      -0.46244896       0.20383580      -0.02599607 </v>
   <v>       0.35954796       0.21754589      -0.08090812 </v>
   <v>      -0.37905173       0.10346871      -0.01908298 </v>
   <v>       0.58515202      -0.31445230       0.01293160 </v>
   <v>       0.02474805      -0.10299616       0.13779336 </v>
   <v>       0.08643880      -0.09394626       0.13831730 </v>
   <v>       0.04643774      -0.01095376      -0.00575485 </v>
   <v>      -0.04461346       0.00018103      -0.07908029 </v>
   <v>      -0.07076903       0.10135309      -0.02562563 </v>
   <v>      -0.02442093       0.10652004      -0.15464802 </v>
   <v>       0.05607274      -0.10057486      -0.18235839 </v>
   <v>      -0.03117139      -0.09308052      -0.06602832 </v>
   <v>       0.02339622       0.11318734       0.06039931 </v>
   <v>      -0.03296113       0.11087476       0.28080844 </v>
   <v>      -0.10298504      -0.00363641       0.14766157 </v>
   <v>       0.10757671      -0.00616186      -0.23874250 </v>
   <v>       0.03130498       0.00892816       0.06638756 </v>
   <v>       0.09221727       0.00973119      -0.14999650 </v>
   <v>      -0.14654544      -0.00737158      -0.25984917 </v>
   <v>       0.06528435      -0.01011489       0.04913641 </v>
   <v>       0.10602215      -0.01071998       0.27482087 </v>
   <v>      -0.10949258      -0.01086004       0.04417377 </v>
  </varray>
  <varray name="stress" >
   <v>     -20.16904525      -0.00229338       0.14641853 </v>
   <v>      -0.00229355     -19.63066463       0.02105797 </v>
   <v>       0.14641854       0.02105807      -1.83719249 </v>
  </varray>
  <energy>
   <i name="e_fr_energy">   -188.68641187 </i>
   <i name="e_wo_entrp">   -188.54467201 </i>
   <i name="e_0_energy">     -0.28347971 </i>
  </energy>
  <time name="totalsc">  404.02  405.09</time>
 </calculation>
 <calculation>
  <scstep>
   <time name="dav">   23.58   23.64</time>
   <time name="total">   24.11   24.17</time>
   <energy>
    <i name="alphaZ">     82.37067921 </i>
    <i name="ewald">  41316.01550854 </i>
    <i name="hartreedc"> -47315.04417535 </i>
    <i name="XCdc">   -233.83002878 </i>
    <i name="pawpsdc">   3950.34496114 </i>
    <i name="pawaedc">  -3364.84999121 </i>
    <i name="eentropy">     -0.23786672 </i>
    <i name="bandstr">  -1386.84726967 </i>
    <i name="atom">   6761.44252427 </i>
    <i name="e_fr_energy">   -190.63565857 </i>
    <i name="e_wo_entrp">   -190.39779185 </i>
    <i name="e_0_energy">   -190.51672521 </i>
   </energy>
  </scstep>
  <scstep>
   <time name="dav">   28.86   28.93</time>
   <time name="total">   29.38   29.46</time>
   <energy>
    <i name="e_fr_energy">   -190.56226453 </i>
    <i name="e_wo_entrp">   -190.32939096 </i>
    <i name="e_0_energy">   -190.44582775 </i>
   </energy>
  </scstep>
  <scstep>
   <time name="dav">   30.57   30.64</time>
   <time name="total">   31.09   31.18</time>
   <energy>
    <i name="e_fr_energy">   -190.12606977 </i>
    <i name="e_wo_entrp">   -189.87332106 </i>
    <i name="e_0_energy">   -189.99969541 </i>
   </energy>
  </scstep>
  <scstep>
   <time name="dav">   31.39   31.46</time>
   <time name="total">   31.92   32.01</time>
   <energy>
    <i name="e_fr_energy">   -189.89564986 </i>
    <i name="e_wo_entrp">   -189.66171864 </i>
    <i name="e_0_energy">   -189.77868425 </i>
   </energy>
  </scstep>
  <scstep>
   <time name="dav">   30.40   30.47</time>
   <time name="total">   30.93   31.01</time>
   <energy>
    <i name="e_fr_energy">   -189.87078311 </i>
    <i name="e_wo_entrp">   -189.62277308 </i>
    <i name="e_0_energy">   -189.74677809 </i>
   </energy>
  </scstep>
  <scstep>
   <time name="dav">   31.12   31.20</time>
   <time name="total">   31.66   31.74</time>
   <energy>
    <i name="e_fr_energy">   -189.79719595 </i>
    <i name="e_wo_entrp">   -189.55906314 </i>
    <i name="e_0_energy">   -189.67812954 </i>
   </energy>
  </scstep>
  <scstep>
   <time name="dav">   29.27   29.34</time>
   <time name="total">   29.80   29.88</time>
   <energy>
    <i name="e_fr_energy">   -189.79136588 </i>
    <i name="e_wo_entrp">   -189.55100344 </i>
    <i name="e_0_energy">   -189.67118466 </i>
   </energy>
  </scstep>
  <scstep>
   <time name="dav">   31.43   31.50</time>
   <time name="total">   31.95   32.04</time>
   <energy>
    <i name="e_fr_energy">   -189.79144541 </i>
    <i name="e_wo_entrp">   -189.55153476 </i>
    <i name="e_0_energy">   -189.67149009 </i>
   </energy>
  </scstep>
  <scstep>
   <time name="dav">   28.89   28.96</time>
   <time name="total">   29.42   29.50</time>
   <energy>
    <i name="e_fr_energy">   -189.79038543 </i>
    <i name="e_wo_entrp">   -189.55030554 </i>
    <i name="e_0_energy">   -189.67034549 </i>
   </energy>
  </scstep>
  <scstep>
   <time name="dav">   27.17   27.23</time>
   <time name="total">   27.70   27.77</time>
   <energy>
    <i name="e_fr_energy">   -189.79081069 </i>
    <i name="e_wo_entrp">   -189.55056359 </i>
    <i name="e_0_energy">   -189.67068714 </i>
   </energy>
  </scstep>
  <scstep>
   <time name="dav">   25.39   25.45</time>
   <time name="total">   25.92   25.99</time>
   <energy>
    <i name="e_fr_energy">   -189.79049891 </i>
    <i name="e_wo_entrp">   -189.55018098 </i>
    <i name="e_0_energy">   -189.67033995 </i>
   </energy>
  </scstep>
  <scstep>
   <time name="dav">   20.00   20.05</time>
   <time name="total">   20.04   20.09</time>
   <energy>
    <i name="alphaZ">     82.37067921 </i>
    <i name="ewald">  41316.01550854 </i>
    <i name="hartreedc"> -47288.10673387 </i>
    <i name="XCdc">   -235.23547381 </i>
    <i name="pawpsdc">   4039.04777794 </i>
    <i name="pawaedc">  -3454.75413252 </i>
    <i name="eentropy">     -0.24029972 </i>
    <i name="bandstr">  -1410.33037253 </i>
    <i name="atom">   6761.44252427 </i>
    <i name="e_fr_energy">   -189.79052248 </i>
    <i name="e_wo_entrp">   -189.55022276 </i>
    <i name="e_0_energy">   -189.67037262 </i>
   </energy>
  </scstep>
  <structure>
   <crystal>
    <varray name="basis" >
     <v>       8.67000859       4.99654678       0.00000000 </v>
     <v>      -8.66974660       4.99609668       0.00000000 </v>
     <v>       0.00000000       0.00000000      30.00000000 </v>
    </varray>
    <i name="volume">   2599.04986797 </i>
    <varray name="rec_basis" >
     <v>       0.05766834       0.10007211       0.00000000 </v>
     <v>      -0.05767354       0.10007513       0.00000000 </v>
     <v>       0.00000000       0.00000000       0.03333333 </v>
    </varray>
   </crystal>
   <varray name="positions" >
    <v>       0.33182177       0.66508214       0.00009556 </v>
    <v>       0.66667970       0.00154451      -0.00002509 </v>
    <v>       0.99997405       0.33495629      -0.00002551 </v>
    <v>      -0.00204909       0.66498012      -0.00014158 </v>
    <v>       0.33509305       0.33300273       0.00019040 </v>
    <v>       0.66673582       0.33539630      -0.00025862 </v>
    <v>       0.00199322       0.00039589       0.00016568 </v>
    <v>       0.33344149       0.00167426      -0.00023058 </v>
    <v>       0.66630647       0.66274385       0.00027433 </v>
    <v>       0.10797409       0.22340826       0.95212153 </v>
    <v>       0.22146471       0.11008486       0.04942284 </v>
    <v>       0.11318607       0.55319690       0.95302298 </v>
    <v>       0.21992813       0.44658369       0.04689026 </v>
    <v>       0.11168137       0.88972120       0.95068119 </v>
    <v>       0.22514828       0.77641851       0.04784311 </v>
    <v>       0.44386543       0.22082438       0.95064093 </v>
    <v>       0.55675246       0.10803140       0.04793119 </v>
    <v>       0.44307851       0.55857415       0.95204727 </v>
    <v>       0.55600004       0.44570124       0.04946770 </v>
    <v>       0.44595029       0.88716519       0.95313251 </v>
    <v>       0.55381746       0.77930998       0.04676597 </v>
    <v>       0.77986479       0.21993120       0.95310475 </v>
    <v>       0.88713847       0.11264125       0.04685851 </v>
    <v>       0.77720034       0.55595805       0.95050332 </v>
    <v>       0.89126673       0.44183386       0.04802946 </v>
    <v>       0.77578743       0.89070724       0.95221627 </v>
    <v>       0.88811339       0.77834700       0.04927555 </v>
   </varray>
  </structure>
  <varray name="forces" >
   <v>      -0.00196224      -0.14879076       0.08573959 </v>
   <v>      -0.16923327       0.07027711      -0.01001689 </v>
   <v>      -0.18002541       0.07648725      -0.00169699 </v>
   <v>      -0.33611475      -0.29422449       0.06688512 </v>
   <v>       0.52519181       0.06269280      -0.06380629 </v>
   <v>      -0.54475601       0.20553782       0.00882772 </v>
   <v>       0.43597066       0.22760794      -0.10343031 </v>
   <v>      -0.46668805       0.08101702       0.02030970 </v>
   <v>       0.63130809      -0.28986541      -0.02547740 </v>
   <v>      -0.08680715      -0.02371643      -0.35001459 </v>
   <v>       0.05220765      -0.02030542       0.72419825 </v>
   <v>       0.11204772      -0.00984802      -0.45832273 </v>
   <v>      -0.09950454      -0.00798141       0.36061784 </v>
   <v>      -0.02206152       0.03065942      -0.59493902 </v>
   <v>       0.07376023       0.04307783       0.31953121 </v>
   <v>       0.02121473      -0.02182514      -0.75259212 </v>
   <v>       0.06757326      -0.01501817       0.41794916 </v>
   <v>      -0.08254847       0.04473313      -0.42781938 </v>
   <v>       0.01867248       0.02790790       0.86569395 </v>
   <v>       0.05044391      -0.00998635      -0.30979432 </v>
   <v>      -0.03305223      -0.00384000       0.20616880 </v>
   <v>       0.09275100       0.01625596      -0.38165586 </v>
   <v>      -0.05425259       0.01695036       0.30359599 </v>
   <v>      -0.06864497      -0.00688982      -0.84658630 </v>
   <v>       0.13475343      -0.02154571       0.53749942 </v>
   <v>      -0.02404665      -0.02175131      -0.19756559 </v>
   <v>      -0.04619713      -0.00761608       0.60670102 </v>
  </varray>
  <varray name="stress" >
   <v>     -10.20001616      -0.01082311       0.13853911 </v>
   <v>      -0.01082336      -9.82340362       0.01051546 </v>
   <v>       0.13853916       0.01051532       6.53300124 </v>
  </varray>
  <energy>
   <i name="e_fr_energy">   -189.79052248 </i>
   <i name="e_wo_entrp">   -189.67037262 </i>
   <i name="e_0_energy">     -0.24029972 </i>
  </energy>
  <time name="totalsc">  386.39  387.42</time>
 </calculation>
 <calculation>
  <scstep>
   <time name="dav">   21.90   21.96</time>
   <time name="total">   22.42   22.48</time>
   <energy>
    <i name="alphaZ">     85.81992570 </i>
    <i name="ewald">  42832.51840764 </i>
    <i name="hartreedc"> -48848.75292099 </i>
    <i name="XCdc">   -232.97968397 </i>
    <i name="pawpsdc">   4039.08134205 </i>
    <i name="pawaedc">  -3454.78512719 </i>
    <i name="eentropy">     -0.19916058 </i>
    <i name="bandstr">  -1373.51367444 </i>
    <i name="atom">   6761.44252427 </i>
    <i name="e_fr_energy">   -191.36836751 </i>
    <i name="e_wo_entrp">   -191.16920693 </i>
    <i name="e_0_energy">   -191.26878722 </i>
   </energy>
  </scstep>
  <scstep>
   <time name="dav">   32.64   32.72</time>
   <time name="total">   33.15   33.24</time>
   <energy>
    <i name="e_fr_energy">   -191.12120650 </i>
    <i name="e_wo_entrp">   -190.91765853 </i>
    <i name="e_0_energy">   -191.01943251 </i>
   </energy>
  </scstep>
  <scstep>
   <time name="dav">   30.15   30.22</time>
   <time name="total">   30.66   30.74</time>
   <energy>
    <i name="e_fr_energy">   -191.42631586 </i>
    <i name="e_wo_entrp">   -191.20946155 </i>
    <i name="e_0_energy">   -191.31788870 </i>
   </energy>
  </scstep>
  <scstep>
   <time name="dav">   28.45   28.52</time>
   <time name="total">   28.96   29.04</time>
   <energy>
    <i name="e_fr_energy">   -190.98892012 </i>
    <i name="e_wo_entrp">   -190.77737703 </i>
    <i name="e_0_energy">   -190.88314857 </i>
   </energy>
  </scstep>
  <scstep>
   <time name="dav">   29.73   29.80</time>
   <time name="total">   30.25   30.33</time>
   <energy>
    <i name="e_fr_energy">   -190.98125237 </i>
    <i name="e_wo_entrp">   -190.78612059 </i>
    <i name="e_0_energy">   -190.88368648 </i>
   </energy>
  </scstep>
  <scstep>
   <time name="dav">   30.07   30.14</time>
   <time name="total">   30.58   30.66</time>
   <energy>
    <i name="e_fr_energy">   -190.80610968 </i>
    <i name="e_wo_entrp">   -190.59888303 </i>
    <i name="e_0_energy">   -190.70249635 </i>
   </energy>
  </scstep>
  <scstep>
   <time name="dav">   30.92   30.99</time>
   <time name="total">   31.43   31.51</time>
   <energy>
    <i name="e_fr_energy">   -190.80624179 </i>
    <i name="e_wo_entrp">   -190.60016545 </i>
    <i name="e_0_energy">   -190.70320362 </i>
   </energy>
  </scstep>
  <scstep>
   <time name="dav">   29.54   29.61</time>
   <time name="total">   30.06   30.14</time>
   <energy>
    <i name="e_fr_energy">   -190.80442637 </i>
    <i name="e_wo_entrp">   -190.59787743 </i>
    <i name="e_0_energy">   -190.70115190 </i>
   </energy>
  </scstep>
  <scstep>
   <time name="dav">   28.92   28.99</time>
   <time name="total">   29.44   29.51</time>
   <energy>
    <i name="e_fr_energy">   -190.80085055 </i>
    <i name="e_wo_entrp">   -190.59469310 </i>
    <i name="e_0_energy">   -190.69777183 </i>
   </energy>
  </scstep>
  <scstep>
   <time name="dav">   27.80   27.87</time>
   <time name="total">   28.31   28.39</time>
   <energy>
    <i name="e_fr_energy">   -190.80115845 </i>
    <i name="e_wo_entrp">   -190.59486959 </i>
    <i name="e_0_energy">   -190.69801402 </i>
   </energy>
  </scstep>
  <scstep>
   <time name="dav">   27.06   27.12</time>
   <time name="total">   27.57   27.65</time>
   <energy>
    <i name="e_fr_energy">   -190.80093593 </i>
    <i name="e_wo_entrp">   -190.59453973 </i>
    <i name="e_0_energy">   -190.69773783 </i>
   </energy>
  </scstep>
  <scstep>
   <time name="dav">   20.11   20.16</time>
   <time name="total">   20.14   20.20</time>
   <energy>
    <i name="alphaZ">     85.81992570 </i>
    <i name="ewald">  42832.51840764 </i>
    <i name="hartreedc"> -48820.23737673 </i>
    <i name="XCdc">   -234.30306301 </i>
    <i name="pawpsdc">   4063.64634202 </i>
    <i name="pawaedc">  -3479.52574098 </i>
    <i name="eentropy">     -0.20642789 </i>
    <i name="bandstr">  -1399.95553686 </i>
    <i name="atom">   6761.44252427 </i>
    <i name="e_fr_energy">   -190.80094585 </i>
    <i name="e_wo_entrp">   -190.59451795 </i>
    <i name="e_0_energy">   -190.69773190 </i>
   </energy>
  </scstep>
  <structure>
   <crystal>
    <varray name="basis" >
     <v>       8.48903355       4.89735612       0.00000000 </v>
     <v>      -8.48930439       4.89783001       0.00000000 </v>
     <v>       0.00000000       0.00000000      30.00000000 </v>
    </varray>
    <i name="volume">   2494.58970266 </i>
    <varray name="rec_basis" >
     <v>       0.05890143       0.10209259       0.00000000 </v>
     <v>      -0.05889573       0.10208934       0.00000000 </v>
     <v>       0.00000000       0.00000000       0.03333333 </v>
    </varray>
   </crystal>
   <varray name="positions" >
    <v>       0.33096134       0.66424061       0.00026869 </v>
    <v>       0.66648383       0.00253728      -0.00004232 </v>
    <v>       0.99977983       0.33600752      -0.00002635 </v>
    <v>      -0.00520158       0.66450023       0.00001059 </v>
    <v>       0.33742369       0.33132468       0.00004335 </v>
    <v>       0.66594642       0.33876019      -0.00021128 </v>
    <v>       0.00511548       0.00016443      -0.00006641 </v>
    <v>       0.33208876       0.00392811      -0.00015575 </v>
    <v>       0.66689436       0.65865804       0.00018967 </v>
    <v>       0.10755071       0.22392561       0.95099175 </v>
    <v>       0.22165843       0.10999989       0.05140611 </v>
    <v>       0.11362339       0.55264203       0.95169939 </v>
    <v>       0.21942248       0.44694959       0.04800164 </v>
    <v>       0.11168849       0.88974908       0.94897827 </v>
    <v>       0.22566558       0.77612687       0.04889863 </v>
    <v>       0.44394984       0.22085489       0.94861220 </v>
    <v>       0.55723371       0.10774664       0.04919782 </v>
    <v>       0.44274229       0.55913212       0.95075674 </v>
    <v>       0.55611049       0.44553104       0.05174186 </v>
    <v>       0.44627116       0.88668837       0.95211105 </v>
    <v>       0.55348108       0.77960987       0.04756329 </v>
    <v>       0.78040502       0.21962991       0.95194301 </v>
    <v>       0.88685936       0.11316752       0.04786395 </v>
    <v>       0.77702190       0.55605286       0.94826700 </v>
    <v>       0.89168736       0.44108798       0.04954623 </v>
    <v>       0.77535376       0.89081512       0.95141370 </v>
    <v>       0.88799728       0.77838399       0.05099704 </v>
   </varray>
  </structure>
  <varray name="forces" >
   <v>      -0.00146051      -0.06156022       0.05158017 </v>
   <v>      -0.20236233       0.03110641      -0.00828738 </v>
   <v>      -0.18756689       0.02196460      -0.00098141 </v>
   <v>      -0.39152836      -0.30872920       0.03585867 </v>
   <v>       0.59027619       0.02036126      -0.03092090 </v>
   <v>      -0.55893449       0.20989016       0.03177986 </v>
   <v>       0.47679526       0.27485810      -0.05773653 </v>
   <v>      -0.50474170       0.08654194       0.03715475 </v>
   <v>       0.61877291      -0.28161926      -0.03715613 </v>
   <v>       0.00005805       0.04803022      -0.20138195 </v>
   <v>      -0.00763758       0.03500865       0.57290899 </v>
   <v>      -0.01738019      -0.01959404      -0.32723578 </v>
   <v>       0.04169916      -0.02452944       0.24935284 </v>
   <v>       0.08330279      -0.01732535      -0.45198342 </v>
   <v>      -0.03840133      -0.00744908       0.15556542 </v>
   <v>       0.06020244       0.04209848      -0.57408048 </v>
   <v>      -0.05162591       0.03826793       0.23734280 </v>
   <v>       0.03530690      -0.00468080      -0.24514158 </v>
   <v>       0.01409371      -0.02058704       0.65983890 </v>
   <v>      -0.02760888      -0.01859655      -0.22072731 </v>
   <v>       0.06299232      -0.01392236       0.13762983 </v>
   <v>      -0.05136163       0.04001540      -0.29252060 </v>
   <v>       0.01734781       0.03965835       0.19099118 </v>
   <v>       0.02520780      -0.01518608      -0.67189290 </v>
   <v>      -0.00356049      -0.03109670       0.36603519 </v>
   <v>       0.06664796      -0.03791073      -0.02612401 </v>
   <v>      -0.04853302      -0.02501464       0.42013177 </v>
  </varray>
  <varray name="stress" >
   <v>      -5.68300503      -0.01492769      -0.18910842 </v>
   <v>      -0.01492749      -6.08464086      -0.03086150 </v>
   <v>      -0.18910833      -0.03086137       4.60027810 </v>
  </varray>
  <energy>
   <i name="e_fr_energy">   -190.80094585 </i>
   <i name="e_wo_entrp">   -190.69773190 </i>
   <i name="e_0_energy">     -0.20642789 </i>
  </energy>
  <time name="totalsc">  385.51  386.53</time>
 </calculation>
 <calculation>
  <scstep>
   <time name="dav">   21.94   21.99</time>
   <time name="total">   22.45   22.50</time>
   <energy>
    <i name="alphaZ">     90.27279492 </i>
    <i name="ewald">  44719.54657396 </i>
    <i name="hartreedc"> -50763.08745222 </i>
    <i name="XCdc">   -231.74430222 </i>
    <i name="pawpsdc">   4063.57220535 </i>
    <i name="pawaedc">  -3479.44799063 </i>
    <i name="eentropy">     -0.18008113 </i>
    <i name="bandstr">  -1352.66158932 </i>
    <i name="atom">   6761.44252427 </i>
    <i name="e_fr_energy">   -192.28731702 </i>
    <i name="e_wo_entrp">   -192.10723589 </i>
    <i name="e_0_energy">   -192.19727645 </i>
   </energy>
  </scstep>
  <scstep>
   <time name="dav">   27.97   28.04</time>
   <time name="total">   28.48   28.55</time>
   <energy>
    <i name="e_fr_energy">   -191.99528360 </i>
    <i name="e_wo_entrp">   -191.78247373 </i>
    <i name="e_0_energy">   -191.88887866 </i>
   </energy>
  </scstep>
  <scstep>
   <time name="dav">   30.16   30.23</time>
   <time name="total">   30.66   30.74</time>
   <energy>
    <i name="e_fr_energy">   -192.42053672 </i>
    <i name="e_wo_entrp">   -192.24568396 </i>
    <i name="e_0_energy">   -192.33311034 </i>
   </energy>
  </scstep>
  <scstep>
   <time name="dav">   30.31   30.38</time>
   <time name="total">   30.82   30.90</time>
   <energy>
    <i name="e_fr_energy">   -191.70598333 </i>
    <i name="e_wo_entrp">   -191.51653820 </i>
    <i name="e_0_energy">   -191.61126076 </i>
   </energy>
  </scstep>
  <scstep>
   <time name="dav">   29.88   29.95</time>
   <time name="total">   30.38   30.46</time>
   <energy>
    <i name="e_fr_energy">   -191.73145946 </i>
    <i name="e_wo_entrp">   -191.53022388 </i>
    <i name="e_0_energy">   -191.63084167 </i>
   </energy>
  </scstep>
  <scstep>
   <time name="dav">   30.39   30.46</time>
   <time name="total">   30.90   30.98</time>
   <energy>
    <i name="e_fr_energy">   -191.54368005 </i>
    <i name="e_wo_entrp">   -191.35390574 </i>
    <i name="e_0_energy">   -191.44879290 </i>
   </energy>
  </scstep>
  <scstep>
   <time name="dav">   29.62   29.69</time>
   <time name="total">   30.12   30.20</time>
   <energy>
    <i name="e_fr_energy">   -191.54290144 </i>
    <i name="e_wo_entrp">   -191.34649155 </i>
    <i name="e_0_energy">   -191.44469650 </i>
   </energy>
  </scstep>
  <scstep>
   <time name="dav">   29.13   29.20</time>
   <time name="total">   29.64   29.72</time>
   <energy>
    <i name="e_fr_energy">   -191.53098768 </i>
    <i name="e_wo_entrp">   -191.33567199 </i>
    <i name="e_0_energy">   -191.43332984 </i>
   </energy>
  </scstep>
  <scstep>
   <time name="dav">   29.84   29.91</time>
   <time name="total">   30.35   30.43</time>
   <energy>
    <i name="e_fr_energy">   -191.52759186 </i>
    <i name="e_wo_entrp">   -191.33278126 </i>
    <i name="e_0_energy">   -191.43018656 </i>
   </energy>
  </scstep>
  <scstep>
   <time name="dav">   26.61   26.67</time>
   <time name="total">   27.12   27.19</time>
   <energy>
    <i name="e_fr_energy">   -191.52765038 </i>
    <i name="e_wo_entrp">   -191.33285892 </i>
    <i name="e_0_energy">   -191.43025465 </i>
   </energy>
  </scstep>
  <scstep>
   <time name="dav">   24.09   24.14</time>
   <time name="total">   24.12   24.19</time>
   <energy>
    <i name="alphaZ">     90.27279492 </i>
    <i name="ewald">  44719.54657396 </i>
    <i name="hartreedc"> -50728.23437245 </i>
    <i name="XCdc">   -233.29108666 </i>
    <i name="pawpsdc">   4089.70407031 </i>
    <i name="pawaedc">  -3505.73469915 </i>
    <i name="eentropy">     -0.19497012 </i>
    <i name="bandstr">  -1385.03851458 </i>
    <i name="atom">   6761.44252427 </i>
    <i name="e_fr_energy">   -191.52767949 </i>
    <i name="e_wo_entrp">   -191.33270938 </i>
    <i name="e_0_energy">   -191.43019443 </i>
   </energy>
  </scstep>
  <structure>
   <crystal>
    <varray name="basis" >
     <v>       8.28676238       4.76813916       0.00000000 </v>
     <v>      -8.28814308       4.77053604       0.00000000 </v>
     <v>       0.00000000       0.00000000      30.00000000 </v>
    </varray>
    <i name="volume">   2371.53954428 </i>
    <varray name="rec_basis" >
     <v>       0.06034733       0.10484510       0.00000000 </v>
     <v>      -0.06031701       0.10482763       0.00000000 </v>
     <v>       0.00000000       0.00000000       0.03333333 </v>
    </varray>
   </crystal>
   <varray name="positions" >
    <v>       0.33014255       0.66344893       0.00048780 </v>
    <v>       0.66550202       0.00431457      -0.00007230 </v>
    <v>       0.99879355       0.33759566      -0.00002756 </v>
    <v>      -0.01178572       0.66362837       0.00018606 </v>
    <v>       0.34190181       0.32733308      -0.00011484 </v>
    <v>       0.66444666       0.34538789      -0.00006313 </v>
    <v>       0.01187764       0.00002711      -0.00034195 </v>
    <v>       0.32940647       0.00858127       0.00002140 </v>
    <v>       0.66795925       0.65081905       0.00001076 </v>
    <v>       0.10798249       0.22488388       0.94964186 </v>
    <v>       0.22215153       0.11059998       0.05433167 </v>
    <v>       0.11350888       0.55231537       0.94989137 </v>
    <v>       0.21919829       0.44658163       0.04947671 </v>
    <v>       0.11192264       0.88884704       0.94655467 </v>
    <v>       0.22547176       0.77594361       0.05006092 </v>
    <v>       0.44491475       0.22115748       0.94568284 </v>
    <v>       0.55774493       0.10843992       0.05070395 </v>
    <v>       0.44253706       0.55899602       0.94921437 </v>
    <v>       0.55589068       0.44493527       0.05504119 </v>
    <v>       0.44616874       0.88632805       0.95074448 </v>
    <v>       0.55345851       0.77933805       0.04857608 </v>
    <v>       0.78074972       0.22022784       0.95029953 </v>
    <v>       0.88714385       0.11381982       0.04912066 </v>
    <v>       0.77706783       0.55566532       0.94493416 </v>
    <v>       0.89150850       0.44047270       0.05156438 </v>
    <v>       0.77505799       0.89017401       0.95076478 </v>
    <v>       0.88749205       0.77835253       0.05331003 </v>
   </varray>
  </structure>
  <varray name="forces" >
   <v>       0.03564926       0.04582671       0.05335958 </v>
   <v>      -0.30180059      -0.03747877      -0.04144696 </v>
   <v>      -0.23706129      -0.03488782      -0.00036226 </v>
   <v>      -0.21346221      -0.16602829      -0.09178830 </v>
   <v>       0.27430586      -0.11729769       0.09107033 </v>
   <v>      -0.06396494       0.10085846      -0.07429580 </v>
   <v>       0.36262792       0.25637563       0.05139834 </v>
   <v>      -0.27042895       0.07717637      -0.09961685 </v>
   <v>       0.22300093      -0.13685140       0.04082705 </v>
   <v>       0.15293495       0.10915841       0.06336359 </v>
   <v>      -0.04230448       0.06940433       0.35476251 </v>
   <v>      -0.14179266      -0.02044075       0.00326748 </v>
   <v>       0.17715366      -0.03392245      -0.07352424 </v>
   <v>       0.16281870      -0.04548658      -0.19037915 </v>
   <v>      -0.20882869      -0.05406661      -0.11462548 </v>
   <v>       0.14373899       0.09652799      -0.22742486 </v>
   <v>      -0.20182094       0.07021163       0.03510177 </v>
   <v>       0.19907321      -0.05752954       0.01456568 </v>
   <v>      -0.02960300      -0.07103353       0.29346629 </v>
   <v>      -0.15221053      -0.02422449       0.00336415 </v>
   <v>       0.20580229      -0.00491029      -0.08193531 </v>
   <v>      -0.19042526       0.04817878      -0.03871693 </v>
   <v>       0.12904967       0.04390858      -0.09524293 </v>
   <v>       0.06922490      -0.01406588      -0.32362679 </v>
   <v>      -0.18939374      -0.03492891       0.07927868 </v>
   <v>       0.20890197      -0.03185149       0.24944013 </v>
   <v>      -0.10118504      -0.03262240       0.11972029 </v>
  </varray>
  <varray name="stress" >
   <v>       0.95446316      -0.02177105      -0.80310583 </v>
   <v>      -0.02177120      -0.28102475      -0.12246884 </v>
   <v>      -0.80310594      -0.12246864       0.02431947 </v>
  </varray>
  <energy>
   <i name="e_fr_energy">   -191.52767949 </i>
   <i name="e_wo_entrp">   -191.43019443 </i>
   <i name="e_0_energy">     -0.19497012 </i>
  </energy>
  <time name="totalsc">  357.79  358.74</time>
 </calculation>
 <calculation>
  <scstep>
   <time name="dav">   21.88   21.94</time>
   <time name="total">   22.39   22.45</time>
   <energy>
    <i name="alphaZ">     89.99457642 </i>
    <i name="ewald">  44575.59652038 </i>
    <i name="hartreedc"> -50581.89954395 </i>
    <i name="XCdc">   -233.55896836 </i>
    <i name="pawpsdc">   4089.87397710 </i>
    <i name="pawaedc">  -3505.90215307 </i>
    <i name="eentropy">     -0.19662957 </i>
    <i name="bandstr">  -1386.93641143 </i>
    <i name="atom">   6761.44252427 </i>
    <i name="e_fr_energy">   -191.58610820 </i>
    <i name="e_wo_entrp">   -191.38947863 </i>
    <i name="e_0_energy">   -191.48779341 </i>
   </energy>
  </scstep>
  <scstep>
   <time name="dav">   30.75   30.83</time>
   <time name="total">   31.26   31.34</time>
   <energy>
    <i name="e_fr_energy">   -191.66280825 </i>
    <i name="e_wo_entrp">   -191.45284790 </i>
    <i name="e_0_energy">   -191.55782807 </i>
   </energy>
  </scstep>
  <scstep>
   <time name="dav">   30.78   30.86</time>
   <time name="total">   31.30   31.37</time>
   <energy>
    <i name="e_fr_energy">   -191.59384938 </i>
    <i name="e_wo_entrp">   -191.39521651 </i>
    <i name="e_0_energy">   -191.49453295 </i>
   </energy>
  </scstep>
  <scstep>
   <time name="dav">   29.27   29.34</time>
   <time name="total">   29.77   29.85</time>
   <energy>
    <i name="e_fr_energy">   -191.59774773 </i>
    <i name="e_wo_entrp">   -191.39848557 </i>
    <i name="e_0_energy">   -191.49811665 </i>
   </energy>
  </scstep>
  <scstep>
   <time name="dav">   29.14   29.21</time>
   <time name="total">   29.64   29.72</time>
   <energy>
    <i name="e_fr_energy">   -191.59163938 </i>
    <i name="e_wo_entrp">   -191.39107162 </i>
    <i name="e_0_energy">   -191.49135550 </i>
   </energy>
  </scstep>
  <scstep>
   <time name="dav">   28.73   28.79</time>
   <time name="total">   29.23   29.31</time>
   <energy>
    <i name="e_fr_energy">   -191.59204414 </i>
    <i name="e_wo_entrp">   -191.39329411 </i>
    <i name="e_0_energy">   -191.49266913 </i>
   </energy>
  </scstep>
  <scstep>
   <time name="dav">   28.73   28.80</time>
   <time name="total">   29.23   29.31</time>
   <energy>
    <i name="e_fr_energy">   -191.59133955 </i>
    <i name="e_wo_entrp">   -191.39133393 </i>
    <i name="e_0_energy">   -191.49133674 </i>
   </energy>
  </scstep>
  <scstep>
   <time name="dav">   24.08   24.14</time>
   <time name="total">   24.59   24.65</time>
   <energy>
    <i name="e_fr_energy">   -191.59095781 </i>
    <i name="e_wo_entrp">   -191.39139719 </i>
    <i name="e_0_energy">   -191.49117750 </i>
   </energy>
  </scstep>
  <scstep>
   <time name="dav">   18.08   18.12</time>
   <time name="total">   18.11   18.17</time>
   <energy>
    <i name="alphaZ">     89.99457642 </i>
    <i name="ewald">  44575.59652038 </i>
    <i name="hartreedc"> -50585.13237542 </i>
    <i name="XCdc">   -233.44512112 </i>
    <i name="pawpsdc">   4085.02544017 </i>
    <i name="pawaedc">  -3500.98819964 </i>
    <i name="eentropy">     -0.19964835 </i>
    <i name="bandstr">  -1383.88466633 </i>
    <i name="atom">   6761.44252427 </i>
    <i name="e_fr_energy">   -191.59094959 </i>
    <i name="e_wo_entrp">   -191.39130125 </i>
    <i name="e_0_energy">   -191.49112542 </i>
   </energy>
  </scstep>
  <structure>
   <crystal>
    <varray name="basis" >
     <v>       8.31130306       4.76824379       0.00000000 </v>
     <v>      -8.31313247       4.77141346       0.00000000 </v>
     <v>       0.00000000       0.00000000      30.00000000 </v>
    </varray>
    <i name="volume">   2378.87116584 </i>
    <varray name="rec_basis" >
     <v>       0.06017241       0.10483711       0.00000000 </v>
     <v>      -0.06013243       0.10481404       0.00000000 </v>
     <v>       0.00000000       0.00000000       0.03333333 </v>
    </varray>
   </crystal>
   <varray name="positions" >
    <v>       0.33049265       0.66360704       0.00055528 </v>
    <v>       0.66456820       0.00485980      -0.00013207 </v>
    <v>       0.99804480       0.33798851      -0.00002812 </v>
    <v>      -0.01280023       0.66346619       0.00004091 </v>
    <v>       0.34186727       0.32625585       0.00002847 </v>
    <v>       0.66482186       0.34569598      -0.00018076 </v>
    <v>       0.01370138       0.00025978      -0.00025104 </v>
    <v>       0.32918047       0.00943080      -0.00013526 </v>
    <v>       0.66786258       0.64997617       0.00008083 </v>
    <v>       0.10888144       0.22492248       0.94982003 </v>
    <v>       0.22233235       0.11100143       0.05468964 </v>
    <v>       0.11303270       0.55262214       0.95000198 </v>
    <v>       0.21953236       0.44596191       0.04927958 </v>
    <v>       0.11213962       0.88824919       0.94641384 </v>
    <v>       0.22466704       0.77627136       0.04981652 </v>
    <v>       0.44569822       0.22119963       0.94551289 </v>
    <v>       0.55749293       0.10927492       0.05066293 </v>
    <v>       0.44282514       0.55819869       0.94933063 </v>
    <v>       0.55549506       0.44472223       0.05528942 </v>
    <v>       0.44564418       0.88665066       0.95083294 </v>
    <v>       0.55399640       0.77876784       0.04838987 </v>
    <v>       0.78044043       0.22093872       0.95033923 </v>
    <v>       0.88768901       0.11363724       0.04890177 </v>
    <v>       0.77718341       0.55543515       0.94464259 </v>
    <v>       0.89084182       0.44085524       0.05156336 </v>
    <v>       0.77549280       0.88949040       0.95118289 </v>
    <v>       0.88709055       0.77847511       0.05335152 </v>
   </varray>
  </structure>
  <varray name="forces" >
   <v>       0.08580858       0.04531118       0.07564891 </v>
   <v>      -0.36875529      -0.04439518      -0.02142526 </v>
   <v>      -0.26864937      -0.03019467       0.02505467 </v>
   <v>      -0.24953564      -0.21387382      -0.02262287 </v>
   <v>       0.34207858      -0.09984698       0.01800308 </v>
   <v>      -0.13694289       0.11533611       0.01778315 </v>
   <v>       0.41054078       0.29738687       0.00922539 </v>
   <v>      -0.32358313       0.11131988      -0.00585338 </v>
   <v>       0.31045514      -0.20653668      -0.02619193 </v>
   <v>       0.09590763       0.06267543       0.07791973 </v>
   <v>       0.03475228       0.04120480       0.29109426 </v>
   <v>      -0.08890871      -0.00756764       0.00434959 </v>
   <v>       0.11107081      -0.02909119      -0.08088997 </v>
   <v>       0.08981478      -0.02603422      -0.15741990 </v>
   <v>      -0.12898047      -0.02943776      -0.14970304 </v>
   <v>       0.07123821       0.06738151      -0.18591900 </v>
   <v>      -0.11815099       0.03579633       0.03157862 </v>
   <v>       0.12735254      -0.05764484       0.02895010 </v>
   <v>       0.03318228      -0.04535622       0.19915366 </v>
   <v>      -0.10032708      -0.02027139      -0.01438833 </v>
   <v>       0.12683104       0.01093586      -0.08205805 </v>
   <v>      -0.10609012       0.03232869      -0.07251344 </v>
   <v>       0.09314405       0.01982694      -0.13119360 </v>
   <v>      -0.00314738      -0.01865653      -0.24681230 </v>
   <v>      -0.11501590      -0.00867506       0.06385564 </v>
   <v>       0.12697941       0.00514938       0.27907339 </v>
   <v>      -0.05106915      -0.00707079       0.07530088 </v>
  </varray>
  <varray name="stress" >
   <v>      -0.26586175       0.02986331      -0.25359573 </v>
   <v>       0.02986334      -0.34769578      -0.05678241 </v>
   <v>      -0.25359561      -0.05678253      -0.69144053 </v>
  </varray>
  <energy>
   <i name="e_fr_energy">   -191.59094959 </i>
   <i name="e_wo_entrp">   -191.49112542 </i>
   <i name="e_0_energy">     -0.19964835 </i>
  </energy>
  <time name="totalsc">  288.10  288.86</time>
 </calculation>
 <calculation>
  <scstep>
   <time name="dav">   21.92   21.97</time>
   <time name="total">   22.43   22.48</time>
   <energy>
    <i name="alphaZ">     90.23708575 </i>
    <i name="ewald">  44667.54052353 </i>
    <i name="hartreedc"> -50680.20742066 </i>
    <i name="XCdc">   -233.35155984 </i>
    <i name="pawpsdc">   4084.65032870 </i>
    <i name="pawaedc">  -3500.60931424 </i>
    <i name="eentropy">     -0.19574899 </i>
    <i name="bandstr">  -1381.18349106 </i>
    <i name="atom">   6761.44252427 </i>
    <i name="e_fr_energy">   -191.67707253 </i>
    <i name="e_wo_entrp">   -191.48132354 </i>
    <i name="e_0_energy">   -191.57919803 </i>
   </energy>
  </scstep>
  <scstep>
   <time name="dav">   31.45   31.53</time>
   <time name="total">   31.96   32.04</time>
   <energy>
    <i name="e_fr_energy">   -191.77817871 </i>
    <i name="e_wo_entrp">   -191.56042327 </i>
    <i name="e_0_energy">   -191.66930099 </i>
   </energy>
  </scstep>
  <scstep>
   <time name="dav">   30.75   30.83</time>
   <time name="total">   31.26   31.34</time>
   <energy>
    <i name="e_fr_energy">   -191.68880793 </i>
    <i name="e_wo_entrp">   -191.49006110 </i>
    <i name="e_0_energy">   -191.58943451 </i>
   </energy>
  </scstep>
  <scstep>
   <time name="dav">   29.06   29.14</time>
   <time name="total">   29.58   29.65</time>
   <energy>
    <i name="e_fr_energy">   -191.69364154 </i>
    <i name="e_wo_entrp">   -191.49521587 </i>
    <i name="e_0_energy">   -191.59442870 </i>
   </energy>
  </scstep>
  <scstep>
   <time name="dav">   29.26   29.33</time>
   <time name="total">   29.77   29.85</time>
   <energy>
    <i name="e_fr_energy">   -191.68324197 </i>
    <i name="e_wo_entrp">   -191.48230873 </i>
    <i name="e_0_energy">   -191.58277535 </i>
   </energy>
  </scstep>
  <scstep>
   <time name="dav">   28.87   28.94</time>
   <time name="total">   29.37   29.45</time>
   <energy>
    <i name="e_fr_energy">   -191.68327014 </i>
    <i name="e_wo_entrp">   -191.48289472 </i>
    <i name="e_0_energy">   -191.58308243 </i>
   </energy>
  </scstep>
  <scstep>
   <time name="dav">   28.88   28.95</time>
   <time name="total">   29.38   29.46</time>
   <energy>
    <i name="e_fr_energy">   -191.68309798 </i>
    <i name="e_wo_entrp">   -191.48088800 </i>
    <i name="e_0_energy">   -191.58199299 </i>
   </energy>
  </scstep>
  <scstep>
   <time name="dav">   25.87   25.93</time>
   <time name="total">   26.38   26.45</time>
   <energy>
    <i name="e_fr_energy">   -191.68220967 </i>
    <i name="e_wo_entrp">   -191.48098316 </i>
    <i name="e_0_energy">   -191.58159642 </i>
   </energy>
  </scstep>
  <scstep>
   <time name="dav">   18.83   18.88</time>
   <time name="total">   18.87   18.92</time>
   <energy>
    <i name="alphaZ">     90.23708575 </i>
    <i name="ewald">  44667.54052353 </i>
    <i name="hartreedc"> -50678.78004649 </i>
    <i name="XCdc">   -233.40369824 </i>
[...]
      <set comment="kpoint 31">
       <r>  -17.4908    1.0000 </r>
       <r>  -17.2881    1.0000 </r>
       <r>  -16.9102    1.0000 </r>
       <r>  -16.6660    1.0000 </r>
       <r>  -16.4999    1.0000 </r>
       <r>  -16.4267    1.0000 </r>
       <r>  -16.2831    1.0000 </r>
       <r>  -16.2206    1.0000 </r>
       <r>  -16.1536    1.0000 </r>
       <r>  -16.1028    1.0000 </r>
       <r>  -15.9188    1.0000 </r>
       <r>  -15.8171    1.0000 </r>
       <r>  -15.7523    1.0000 </r>
       <r>  -15.6697    1.0000 </r>
       <r>  -15.6065    1.0000 </r>
       <r>  -15.4955    1.0000 </r>
       <r>  -15.3650    1.0000 </r>
       <r>  -15.2745    1.0000 </r>
       <r>   -9.7603    1.0000 </r>
       <r>   -9.5049    1.0000 </r>
       <r>   -9.3155    1.0000 </r>
       <r>   -8.9717    1.0000 </r>
       <r>   -8.7981    1.0000 </r>
       <r>   -8.6442    1.0000 </r>
       <r>   -8.6033    1.0000 </r>
       <r>   -8.5026    1.0000 </r>
       <r>   -8.4066    1.0000 </r>
       <r>   -8.3470    1.0000 </r>
       <r>   -8.2726    1.0000 </r>
       <r>   -8.1728    1.0000 </r>
       <r>   -8.1023    1.0000 </r>
       <r>   -8.0617    1.0000 </r>
       <r>   -7.9948    1.0000 </r>
       <r>   -7.8980    1.0000 </r>
       <r>   -7.7842    1.0000 </r>
       <r>   -7.6952    1.0000 </r>
       <r>   -7.5502    1.0000 </r>
       <r>   -7.4322    1.0000 </r>
       <r>   -7.3592    1.0000 </r>
       <r>   -7.2493    1.0000 </r>
       <r>   -7.0977    1.0000 </r>
       <r>   -7.0378    1.0000 </r>
       <r>   -7.0197    1.0000 </r>
       <r>   -6.9587    1.0000 </r>
       <r>   -6.8396    1.0000 </r>
       <r>   -6.8057    1.0000 </r>
       <r>   -6.6780    1.0000 </r>
       <r>   -6.6187    1.0000 </r>
       <r>   -6.5338    1.0000 </r>
       <r>   -6.4579    1.0000 </r>
       <r>   -6.4404    1.0000 </r>
       <r>   -6.3058    1.0000 </r>
       <r>   -6.2830    1.0000 </r>
       <r>   -6.2002    1.0000 </r>
       <r>   -6.1334    1.0000 </r>
       <r>   -6.1108    1.0000 </r>
       <r>   -6.0521    1.0000 </r>
       <r>   -5.9274    1.0000 </r>
       <r>   -5.8693    1.0000 </r>
       <r>   -5.8044    1.0000 </r>
       <r>   -5.7482    1.0000 </r>
       <r>   -5.6799    1.0000 </r>
       <r>   -5.5356    1.0000 </r>
       <r>   -5.3372    1.0000 </r>
       <r>   -5.2200    1.0000 </r>
       <r>   -5.1724    1.0000 </r>
       <r>   -5.0952    1.0000 </r>
       <r>   -4.9312    1.0000 </r>
       <r>   -4.7722    1.0000 </r>
       <r>   -4.6561    1.0000 </r>
       <r>   -4.5040    1.0000 </r>
       <r>   -4.4380    1.0000 </r>
       <r>   -4.2946    1.0000 </r>
       <r>   -4.2609    1.0000 </r>
       <r>   -4.1768    1.0000 </r>
       <r>   -4.1088    1.0000 </r>
       <r>   -3.9093    1.0000 </r>
       <r>   -3.7536    0.9979 </r>
       <r>   -3.6171    0.9713 </r>
       <r>   -3.3912    0.6190 </r>
       <r>   -2.9228    0.0013 </r>
       <r>   -2.7700    0.0000 </r>
       <r>   -2.6658    0.0000 </r>
       <r>   -2.5860    0.0000 </r>
       <r>   -2.5181    0.0000 </r>
       <r>   -2.4145    0.0000 </r>
       <r>   -2.3172    0.0000 </r>
       <r>   -2.2494    0.0000 </r>
       <r>   -2.1041    0.0000 </r>
       <r>   -2.0191    0.0000 </r>
       <r>   -1.7269    0.0000 </r>
       <r>   -1.4659    0.0000 </r>
       <r>   -1.3926    0.0000 </r>
       <r>   -1.2989    0.0000 </r>
       <r>   -1.2409    0.0000 </r>
       <r>   -1.1545    0.0000 </r>
       <r>   -1.1279    0.0000 </r>
       <r>   -0.9951    0.0000 </r>
       <r>   -0.9488    0.0000 </r>
       <r>   -0.8666    0.0000 </r>
       <r>   -0.8066    0.0000 </r>
       <r>   -0.7392    0.0000 </r>
       <r>   -0.6894    0.0000 </r>
       <r>   -0.5418    0.0000 </r>
       <r>   -0.4660    0.0000 </r>
       <r>   -0.2840    0.0000 </r>
       <r>   -0.2336    0.0000 </r>
       <r>   -0.1035    0.0000 </r>
       <r>    0.0171    0.0000 </r>
       <r>    0.2080    0.0000 </r>
       <r>    0.3302    0.0000 </r>
       <r>    0.5133    0.0000 </r>
       <r>    0.7711    0.0000 </r>
       <r>    0.8686    0.0000 </r>
       <r>    1.0672    0.0000 </r>
       <r>    1.2446    0.0000 </r>
       <r>    1.3917    0.0000 </r>
       <r>    2.1285    0.0000 </r>
       <r>    2.2906    0.0000 </r>
       <r>    2.3960    0.0000 </r>
      </set>
      <set comment="kpoint 32">
       <r>  -17.5256    1.0000 </r>
       <r>  -17.1665    1.0000 </r>
       <r>  -17.0510    1.0000 </r>
       <r>  -16.6722    1.0000 </r>
       <r>  -16.4169    1.0000 </r>
       <r>  -16.3319    1.0000 </r>
       <r>  -16.3061    1.0000 </r>
       <r>  -16.2563    1.0000 </r>
       <r>  -16.1918    1.0000 </r>
       <r>  -16.0860    1.0000 </r>
       <r>  -15.9420    1.0000 </r>
       <r>  -15.8395    1.0000 </r>
       <r>  -15.7567    1.0000 </r>
       <r>  -15.6783    1.0000 </r>
       <r>  -15.6089    1.0000 </r>
       <r>  -15.4849    1.0000 </r>
       <r>  -15.3565    1.0000 </r>
       <r>  -15.2735    1.0000 </r>
       <r>   -9.6437    1.0000 </r>
       <r>   -9.5837    1.0000 </r>
       <r>   -9.4010    1.0000 </r>
       <r>   -9.0099    1.0000 </r>
       <r>   -8.7467    1.0000 </r>
       <r>   -8.5655    1.0000 </r>
       <r>   -8.4955    1.0000 </r>
       <r>   -8.4598    1.0000 </r>
       <r>   -8.3876    1.0000 </r>
       <r>   -8.3533    1.0000 </r>
       <r>   -8.2880    1.0000 </r>
       <r>   -8.2078    1.0000 </r>
       <r>   -8.1409    1.0000 </r>
       <r>   -8.0959    1.0000 </r>
       <r>   -8.0476    1.0000 </r>
       <r>   -7.9668    1.0000 </r>
       <r>   -7.7998    1.0000 </r>
       <r>   -7.6492    1.0000 </r>
       <r>   -7.5039    1.0000 </r>
       <r>   -7.4193    1.0000 </r>
       <r>   -7.3858    1.0000 </r>
       <r>   -7.3203    1.0000 </r>
       <r>   -7.1232    1.0000 </r>
       <r>   -7.0504    1.0000 </r>
       <r>   -6.9840    1.0000 </r>
       <r>   -6.9449    1.0000 </r>
       <r>   -6.8564    1.0000 </r>
       <r>   -6.7839    1.0000 </r>
       <r>   -6.7187    1.0000 </r>
       <r>   -6.6150    1.0000 </r>
       <r>   -6.5168    1.0000 </r>
       <r>   -6.4745    1.0000 </r>
       <r>   -6.4282    1.0000 </r>
       <r>   -6.3374    1.0000 </r>
       <r>   -6.3236    1.0000 </r>
       <r>   -6.1738    1.0000 </r>
       <r>   -6.1463    1.0000 </r>
       <r>   -6.0996    1.0000 </r>
       <r>   -5.9671    1.0000 </r>
       <r>   -5.9131    1.0000 </r>
       <r>   -5.8647    1.0000 </r>
       <r>   -5.7640    1.0000 </r>
       <r>   -5.6723    1.0000 </r>
       <r>   -5.6368    1.0000 </r>
       <r>   -5.5271    1.0000 </r>
       <r>   -5.4238    1.0000 </r>
       <r>   -5.3002    1.0000 </r>
       <r>   -5.1746    1.0000 </r>
       <r>   -5.0637    1.0000 </r>
       <r>   -4.9522    1.0000 </r>
       <r>   -4.7819    1.0000 </r>
       <r>   -4.6518    1.0000 </r>
       <r>   -4.5273    1.0000 </r>
       <r>   -4.4207    1.0000 </r>
       <r>   -4.3159    1.0000 </r>
       <r>   -4.2475    1.0000 </r>
       <r>   -4.1688    1.0000 </r>
       <r>   -4.1033    1.0000 </r>
       <r>   -3.9814    1.0000 </r>
       <r>   -3.8011    0.9993 </r>
       <r>   -3.5117    0.8760 </r>
       <r>   -3.3815    0.5928 </r>
       <r>   -3.0272    0.0116 </r>
       <r>   -2.7380    0.0000 </r>
       <r>   -2.6123    0.0000 </r>
       <r>   -2.5533    0.0000 </r>
       <r>   -2.4700    0.0000 </r>
       <r>   -2.3888    0.0000 </r>
       <r>   -2.2822    0.0000 </r>
       <r>   -2.2202    0.0000 </r>
       <r>   -2.0874    0.0000 </r>
       <r>   -2.0068    0.0000 </r>
       <r>   -1.8127    0.0000 </r>
       <r>   -1.4894    0.0000 </r>
       <r>   -1.4323    0.0000 </r>
       <r>   -1.3126    0.0000 </r>
       <r>   -1.2438    0.0000 </r>
       <r>   -1.1607    0.0000 </r>
       <r>   -1.0862    0.0000 </r>
       <r>   -1.0349    0.0000 </r>
       <r>   -0.9754    0.0000 </r>
       <r>   -0.9022    0.0000 </r>
       <r>   -0.8182    0.0000 </r>
       <r>   -0.7561    0.0000 </r>
       <r>   -0.6670    0.0000 </r>
       <r>   -0.5516    0.0000 </r>
       <r>   -0.4494    0.0000 </r>
       <r>   -0.2665    0.0000 </r>
       <r>   -0.2263    0.0000 </r>
       <r>   -0.1406    0.0000 </r>
       <r>    0.0072    0.0000 </r>
       <r>    0.2271    0.0000 </r>
       <r>    0.3062    0.0000 </r>
       <r>    0.5315    0.0000 </r>
       <r>    0.8220    0.0000 </r>
       <r>    0.8913    0.0000 </r>
       <r>    1.0437    0.0000 </r>
       <r>    1.2373    0.0000 </r>
       <r>    1.3389    0.0000 </r>
       <r>    2.0923    0.0000 </r>
       <r>    2.2600    0.0000 </r>
       <r>    2.5570    0.0000 </r>
      </set>
      <set comment="kpoint 33">
       <r>  -17.5281    1.0000 </r>
       <r>  -17.2310    1.0000 </r>
       <r>  -16.9312    1.0000 </r>
       <r>  -16.6776    1.0000 </r>
       <r>  -16.5026    1.0000 </r>
       <r>  -16.3590    1.0000 </r>
       <r>  -16.3286    1.0000 </r>
       <r>  -16.2410    1.0000 </r>
       <r>  -16.1003    1.0000 </r>
       <r>  -16.0569    1.0000 </r>
       <r>  -15.9630    1.0000 </r>
       <r>  -15.8517    1.0000 </r>
       <r>  -15.7689    1.0000 </r>
       <r>  -15.6886    1.0000 </r>
       <r>  -15.5902    1.0000 </r>
       <r>  -15.4770    1.0000 </r>
       <r>  -15.3839    1.0000 </r>
       <r>  -15.2694    1.0000 </r>
       <r>   -9.6957    1.0000 </r>
       <r>   -9.4449    1.0000 </r>
       <r>   -9.3230    1.0000 </r>
       <r>   -9.0598    1.0000 </r>
       <r>   -8.9062    1.0000 </r>
       <r>   -8.7352    1.0000 </r>
       <r>   -8.4604    1.0000 </r>
       <r>   -8.4246    1.0000 </r>
       <r>   -8.3927    1.0000 </r>
       <r>   -8.3030    1.0000 </r>
       <r>   -8.2412    1.0000 </r>
       <r>   -8.2087    1.0000 </r>
       <r>   -8.1488    1.0000 </r>
       <r>   -8.0740    1.0000 </r>
       <r>   -8.0461    1.0000 </r>
       <r>   -7.8631    1.0000 </r>
       <r>   -7.7795    1.0000 </r>
       <r>   -7.6811    1.0000 </r>
       <r>   -7.4964    1.0000 </r>
       <r>   -7.4500    1.0000 </r>
       <r>   -7.3759    1.0000 </r>
       <r>   -7.2358    1.0000 </r>
       <r>   -7.1594    1.0000 </r>
       <r>   -7.0891    1.0000 </r>
       <r>   -7.0257    1.0000 </r>
       <r>   -6.9660    1.0000 </r>
       <r>   -6.8675    1.0000 </r>
       <r>   -6.7759    1.0000 </r>
       <r>   -6.6472    1.0000 </r>
       <r>   -6.6013    1.0000 </r>
       <r>   -6.5377    1.0000 </r>
       <r>   -6.4452    1.0000 </r>
       <r>   -6.4150    1.0000 </r>
       <r>   -6.3670    1.0000 </r>
       <r>   -6.2978    1.0000 </r>
       <r>   -6.2022    1.0000 </r>
       <r>   -6.1201    1.0000 </r>
       <r>   -6.0954    1.0000 </r>
       <r>   -6.0402    1.0000 </r>
       <r>   -5.9324    1.0000 </r>
       <r>   -5.8853    1.0000 </r>
       <r>   -5.8211    1.0000 </r>
       <r>   -5.7247    1.0000 </r>
       <r>   -5.6295    1.0000 </r>
       <r>   -5.5959    1.0000 </r>
       <r>   -5.4210    1.0000 </r>
       <r>   -5.2929    1.0000 </r>
       <r>   -5.0900    1.0000 </r>
       <r>   -5.0172    1.0000 </r>
       <r>   -4.8081    1.0000 </r>
       <r>   -4.7619    1.0000 </r>
       <r>   -4.6235    1.0000 </r>
       <r>   -4.5490    1.0000 </r>
       <r>   -4.4500    1.0000 </r>
       <r>   -4.3455    1.0000 </r>
       <r>   -4.2239    1.0000 </r>
       <r>   -4.1637    1.0000 </r>
       <r>   -4.1249    1.0000 </r>
       <r>   -4.0426    1.0000 </r>
       <r>   -3.8704    0.9999 </r>
       <r>   -3.4694    0.8041 </r>
       <r>   -3.3470    0.4963 </r>
       <r>   -3.1245    0.0568 </r>
       <r>   -2.7046    0.0000 </r>
       <r>   -2.5832    0.0000 </r>
       <r>   -2.5163    0.0000 </r>
       <r>   -2.4080    0.0000 </r>
       <r>   -2.3836    0.0000 </r>
       <r>   -2.2477    0.0000 </r>
       <r>   -2.1925    0.0000 </r>
       <r>   -2.0863    0.0000 </r>
       <r>   -1.9593    0.0000 </r>
       <r>   -1.8664    0.0000 </r>
       <r>   -1.5208    0.0000 </r>
       <r>   -1.4616    0.0000 </r>
       <r>   -1.3253    0.0000 </r>
       <r>   -1.2722    0.0000 </r>
       <r>   -1.1743    0.0000 </r>
       <r>   -1.0846    0.0000 </r>
       <r>   -1.0169    0.0000 </r>
       <r>   -0.9502    0.0000 </r>
       <r>   -0.9178    0.0000 </r>
       <r>   -0.8896    0.0000 </r>
       <r>   -0.7764    0.0000 </r>
       <r>   -0.6826    0.0000 </r>
       <r>   -0.5490    0.0000 </r>
       <r>   -0.4879    0.0000 </r>
       <r>   -0.3012    0.0000 </r>
       <r>   -0.1948    0.0000 </r>
       <r>   -0.1026    0.0000 </r>
       <r>    0.0058    0.0000 </r>
       <r>    0.1399    0.0000 </r>
       <r>    0.3695    0.0000 </r>
       <r>    0.5302    0.0000 </r>
       <r>    0.8190    0.0000 </r>
       <r>    0.9407    0.0000 </r>
       <r>    1.0320    0.0000 </r>
       <r>    1.2731    0.0000 </r>
       <r>    1.3500    0.0000 </r>
       <r>    2.1169    0.0000 </r>
       <r>    2.2852    0.0000 </r>
       <r>    2.3629    0.0000 </r>
      </set>
      <set comment="kpoint 34">
       <r>  -17.5210    1.0000 </r>
       <r>  -17.2786    1.0000 </r>
       <r>  -16.7850    1.0000 </r>
       <r>  -16.6801    1.0000 </r>
       <r>  -16.6490    1.0000 </r>
       <r>  -16.3468    1.0000 </r>
       <r>  -16.3297    1.0000 </r>
       <r>  -16.2609    1.0000 </r>
       <r>  -16.0608    1.0000 </r>
       <r>  -16.0143    1.0000 </r>
       <r>  -15.9685    1.0000 </r>
       <r>  -15.8575    1.0000 </r>
       <r>  -15.7843    1.0000 </r>
       <r>  -15.6896    1.0000 </r>
       <r>  -15.5811    1.0000 </r>
       <r>  -15.4629    1.0000 </r>
       <r>  -15.4124    1.0000 </r>
       <r>  -15.2687    1.0000 </r>
       <r>   -9.7312    1.0000 </r>
       <r>   -9.2718    1.0000 </r>
       <r>   -9.2548    1.0000 </r>
       <r>   -9.1038    1.0000 </r>
       <r>   -9.0280    1.0000 </r>
       <r>   -8.8944    1.0000 </r>
       <r>   -8.4649    1.0000 </r>
       <r>   -8.4217    1.0000 </r>
       <r>   -8.4004    1.0000 </r>
       <r>   -8.2720    1.0000 </r>
       <r>   -8.2359    1.0000 </r>
       <r>   -8.1650    1.0000 </r>
       <r>   -8.1376    1.0000 </r>
       <r>   -8.1139    1.0000 </r>
       <r>   -7.9485    1.0000 </r>
       <r>   -7.8961    1.0000 </r>
       <r>   -7.8027    1.0000 </r>
       <r>   -7.5480    1.0000 </r>
       <r>   -7.4982    1.0000 </r>
       <r>   -7.4169    1.0000 </r>
       <r>   -7.3766    1.0000 </r>
       <r>   -7.3018    1.0000 </r>
       <r>   -7.1656    1.0000 </r>
       <r>   -7.1138    1.0000 </r>
       <r>   -7.0537    1.0000 </r>
       <r>   -6.9738    1.0000 </r>
       <r>   -6.8678    1.0000 </r>
       <r>   -6.7738    1.0000 </r>
       <r>   -6.6084    1.0000 </r>
       <r>   -6.5474    1.0000 </r>
       <r>   -6.5264    1.0000 </r>
       <r>   -6.4514    1.0000 </r>
       <r>   -6.4147    1.0000 </r>
       <r>   -6.3316    1.0000 </r>
       <r>   -6.2644    1.0000 </r>
       <r>   -6.2400    1.0000 </r>
       <r>   -6.2260    1.0000 </r>
       <r>   -6.1139    1.0000 </r>
       <r>   -6.0512    1.0000 </r>
       <r>   -5.9462    1.0000 </r>
       <r>   -5.8992    1.0000 </r>
       <r>   -5.8528    1.0000 </r>
       <r>   -5.7305    1.0000 </r>
       <r>   -5.6603    1.0000 </r>
       <r>   -5.5650    1.0000 </r>
       <r>   -5.5248    1.0000 </r>
       <r>   -5.2188    1.0000 </r>
       <r>   -5.0973    1.0000 </r>
       <r>   -4.9199    1.0000 </r>
       <r>   -4.7523    1.0000 </r>
       <r>   -4.6782    1.0000 </r>
       <r>   -4.6373    1.0000 </r>
       <r>   -4.5479    1.0000 </r>
       <r>   -4.5004    1.0000 </r>
       <r>   -4.3514    1.0000 </r>
       <r>   -4.2172    1.0000 </r>
       <r>   -4.1810    1.0000 </r>
       <r>   -4.1428    1.0000 </r>
       <r>   -4.0481    1.0000 </r>
       <r>   -3.9018    1.0000 </r>
       <r>   -3.4624    0.7900 </r>
       <r>   -3.3525    0.5117 </r>
       <r>   -3.1502    0.0806 </r>
       <r>   -2.6915    0.0000 </r>
       <r>   -2.5556    0.0000 </r>
       <r>   -2.5206    0.0000 </r>
       <r>   -2.3864    0.0000 </r>
       <r>   -2.3780    0.0000 </r>
       <r>   -2.2420    0.0000 </r>
       <r>   -2.1633    0.0000 </r>
       <r>   -2.0994    0.0000 </r>
       <r>   -1.9282    0.0000 </r>
       <r>   -1.8824    0.0000 </r>
       <r>   -1.5406    0.0000 </r>
       <r>   -1.4627    0.0000 </r>
       <r>   -1.3309    0.0000 </r>
       <r>   -1.2845    0.0000 </r>
       <r>   -1.1976    0.0000 </r>
       <r>   -1.0560    0.0000 </r>
       <r>   -0.9868    0.0000 </r>
       <r>   -0.9665    0.0000 </r>
       <r>   -0.9525    0.0000 </r>
       <r>   -0.9001    0.0000 </r>
       <r>   -0.7678    0.0000 </r>
       <r>   -0.7133    0.0000 </r>
       <r>   -0.5478    0.0000 </r>
       <r>   -0.5044    0.0000 </r>
       <r>   -0.3646    0.0000 </r>
       <r>   -0.1285    0.0000 </r>
       <r>   -0.0519    0.0000 </r>
       <r>   -0.0254    0.0000 </r>
       <r>    0.0915    0.0000 </r>
       <r>    0.4076    0.0000 </r>
       <r>    0.5001    0.0000 </r>
       <r>    0.8253    0.0000 </r>
       <r>    0.9406    0.0000 </r>
       <r>    1.0555    0.0000 </r>
       <r>    1.2856    0.0000 </r>
       <r>    1.3809    0.0000 </r>
       <r>    2.1850    0.0000 </r>
       <r>    2.2231    0.0000 </r>
       <r>    2.3636    0.0000 </r>
      </set>
     </set>
    </set>
   </array>
  </eigenvalues>
  <separator name="orbital magnetization" >
   <v name="MAGDIPOLOUT">      0.00000000      0.00000000      0.00000000</v>
  </separator>
 </calculation>
 <structure name="finalpos" >
  <crystal>
   <varray name="basis" >
    <v>       8.39269258       4.82452754       0.00000000 </v>
    <v>      -8.38258367       4.80678439       0.00000000 </v>
    <v>       0.00000000       0.00000000      30.00000000 </v>
   </varray>
   <i name="volume">   2423.51608360 </i>
   <varray name="rec_basis" >
    <v>       0.05950178       0.10376556       0.00000000 </v>
    <v>      -0.05972142       0.10389070       0.00000000 </v>
    <v>       0.00000000       0.00000000       0.03333333 </v>
   </varray>
  </crystal>
  <varray name="positions" >
   <v>       0.35049908       0.64469871       0.00294368 </v>
   <v>       0.65301927       0.02224101      -0.00171051 </v>
   <v>       0.97976143       0.35287781      -0.00206092 </v>
   <v>      -0.03246496       0.65574227      -0.00096204 </v>
   <v>       0.35133152       0.32488525       0.00094297 </v>
   <v>       0.66274338       0.34135092      -0.00064178 </v>
   <v>       0.03266299      -0.00239425       0.00203311 </v>
   <v>       0.34425758       0.02834590      -0.00023948 </v>
   <v>       0.65966134       0.63661427       0.00028525 </v>
   <v>       0.10690794       0.22541541       0.95549426 </v>
   <v>       0.23000098       0.11223327       0.05775201 </v>
   <v>       0.11389794       0.55839113       0.95141218 </v>
   <v>       0.21191371       0.43447622       0.04767283 </v>
   <v>       0.11778065       0.88835929       0.94681533 </v>
   <v>       0.22479905       0.77302157       0.04049387 </v>
   <v>       0.44844865       0.22352752       0.94310794 </v>
   <v>       0.55720803       0.11383717       0.05317054 </v>
   <v>       0.44335402       0.55029381       0.94754231 </v>
   <v>       0.55553926       0.44183666       0.05726393 </v>
   <v>       0.44316828       0.88349165       0.95240812 </v>
   <v>       0.55915391       0.78045836       0.04787368 </v>
   <v>       0.77669490       0.22455886       0.94723687 </v>
   <v>       0.88883728       0.11529701       0.04315398 </v>
   <v>       0.77103517       0.55240015       0.94254169 </v>
   <v>       0.88611136       0.44609286       0.05276245 </v>
   <v>       0.77839724       0.89200177       0.95918748 </v>
   <v>       0.88349446       0.77815987       0.05352014 </v>
  </varray>
 </structure>
</modeling>
