unknown system                          
           1
     8.860053    5.103099    0.000000
    -8.859759    5.102595    0.000000
     0.000000    0.000000   30.000000
   V    Mo   W    S 
   3   3   3  18
Direct configuration=     1
   0.33333334  0.66666669  0.00000000
   0.66666669  0.00000000  0.00000000
   1.00000000  0.33333334  0.00000000
   0.00000000  0.66666669  0.00000000
   0.33333334  0.33333334  0.00000000
   0.66666669  0.33333334  0.00000000
   0.00000000  0.00000000  0.00000000
   0.33333334  0.00000000  0.00000000
   0.66666669  0.66666669  0.00000000
   0.11068511  0.22244981  0.95539999
   0.22244981  0.11068511  0.04460000
   0.11068511  0.55578315  0.95539999
   0.22244981  0.44401845  0.04460000
   0.11068511  0.88911647  0.95539999
   0.22244981  0.77735180  0.04460000
   0.44401845  0.22244981  0.95539999
   0.55578315  0.11068511  0.04460000
   0.44401845  0.55578315  0.95539999
   0.55578315  0.44401845  0.04460000
   0.44401845  0.88911647  0.95539999
   0.55578315  0.77735180  0.04460000
   0.77735180  0.22244981  0.95539999
   0.88911647  0.11068511  0.04460000
   0.77735180  0.55578315  0.95539999
   0.88911647  0.44401845  0.04460000
   0.77735180  0.88911647  0.95539999
   0.88911647  0.77735180  0.04460000
unknown system                          
           1
     8.670009    4.996547    0.000000
    -8.669747    4.996097    0.000000
     0.000000    0.000000   30.000000
   V    Mo   W    S 
   3   3   3  18
Direct configuration=     2
   0.33212180  0.66538167  0.00004464
   0.66670754  0.00122872 -0.00001712
   1.00000306  0.33460692 -0.00002275
  -0.00131062  0.66524685 -0.00016975
   0.33451990  0.33327983  0.00021600
   0.66683967  0.33461499 -0.00024393
   0.00128766  0.00037851  0.00021141
   0.33363231  0.00113954 -0.00021980
   0.66626900  0.66382641  0.00026702
   0.10812155  0.22360310  0.95204364
   0.22153809  0.11032370  0.04934465
   0.11315983  0.55325954  0.95302623
   0.21997052  0.44654069  0.04693496
   0.11158069  0.88948505  0.95069568
   0.22499465  0.77621813  0.04793052
   0.44397889  0.22104517  0.95074401
   0.55693695  0.10815624  0.04796851
   0.44286804  0.55840846  0.95201312
   0.55584735  0.44548545  0.04930896
   0.44605489  0.88707266  0.95304904
   0.55372475  0.77942318  0.04690093
   0.77981999  0.21994633  0.95306722
   0.88703405  0.11271334  0.04694330
   0.77735283  0.55583004  0.95065021
   0.89122106  0.44191315  0.04800169
   0.77570378  0.89082653  0.95206092
   0.88823622  0.77826025  0.04925058
unknown system                          
           1
     8.489034    4.897356    0.000000
    -8.489304    4.897830    0.000000
     0.000000    0.000000   30.000000
   V    Mo   W    S 
   3   3   3  18
Direct configuration=     3
   0.33182177  0.66508214  0.00009556
   0.66667970  0.00154451 -0.00002509
   0.99997405  0.33495629 -0.00002551
  -0.00204909  0.66498012 -0.00014158
   0.33509305  0.33300273  0.00019040
   0.66673582  0.33539630 -0.00025862
   0.00199322  0.00039589  0.00016568
   0.33344149  0.00167426 -0.00023058
   0.66630647  0.66274385  0.00027433
   0.10797409  0.22340826  0.95212153
   0.22146471  0.11008486  0.04942284
   0.11318607  0.55319690  0.95302298
   0.21992813  0.44658369  0.04689026
   0.11168137  0.88972120  0.95068119
   0.22514828  0.77641851  0.04784311
   0.44386543  0.22082438  0.95064093
   0.55675246  0.10803140  0.04793119
   0.44307851  0.55857415  0.95204727
   0.55600004  0.44570124  0.04946770
   0.44595029  0.88716519  0.95313251
   0.55381746  0.77930998  0.04676597
   0.77986479  0.21993120  0.95310475
   0.88713847  0.11264125  0.04685851
   0.77720034  0.55595805  0.95050332
   0.89126673  0.44183386  0.04802946
   0.77578743  0.89070724  0.95221627
   0.88811339  0.77834700  0.04927555
unknown system                          
           1
     8.286762    4.768139    0.000000
    -8.288143    4.770536    0.000000
     0.000000    0.000000   30.000000
   V    Mo   W    S 
   3   3   3  18
Direct configuration=     4
   0.33096134  0.66424061  0.00026869
   0.66648383  0.00253728 -0.00004232
   0.99977983  0.33600752 -0.00002635
  -0.00520158  0.66450023  0.00001059
   0.33742369  0.33132468  0.00004335
   0.66594642  0.33876019 -0.00021128
   0.00511548  0.00016443 -0.00006641
   0.33208876  0.00392811 -0.00015575
   0.66689436  0.65865804  0.00018967
   0.10755071  0.22392561  0.95099175
   0.22165843  0.10999989  0.05140611
   0.11362339  0.55264203  0.95169939
   0.21942248  0.44694959  0.04800164
   0.11168849  0.88974908  0.94897827
   0.22566558  0.77612687  0.04889863
   0.44394984  0.22085489  0.94861220
   0.55723371  0.10774664  0.04919782
   0.44274229  0.55913212  0.95075674
   0.55611049  0.44553104  0.05174186
   0.44627116  0.88668837  0.95211105
   0.55348108  0.77960987  0.04756329
   0.78040502  0.21962991  0.95194301
   0.88685936  0.11316752  0.04786395
   0.77702190  0.55605286  0.94826700
   0.89168736  0.44108798  0.04954623
   0.77535376  0.89081512  0.95141370
   0.88799728  0.77838399  0.05099704
unknown system                          
           1
     8.311303    4.768244    0.000000
    -8.313132    4.771413    0.000000
     0.000000    0.000000   30.000000
   V    Mo   W    S 
   3   3   3  18
Direct configuration=     5
   0.33014255  0.66344893  0.00048780
   0.66550202  0.00431457 -0.00007230
   0.99879355  0.33759566 -0.00002756
  -0.01178572  0.66362837  0.00018606
   0.34190181  0.32733308 -0.00011484
   0.66444666  0.34538789 -0.00006313
   0.01187764  0.00002711 -0.00034195
   0.32940647  0.00858127  0.00002140
   0.66795925  0.65081905  0.00001076
   0.10798249  0.22488388  0.94964186
   0.22215153  0.11059998  0.05433167
   0.11350888  0.55231537  0.94989137
   0.21919829  0.44658163  0.04947671
   0.11192264  0.88884704  0.94655467
   0.22547176  0.77594361  0.05006092
   0.44491475  0.22115748  0.94568284
   0.55774493  0.10843992  0.05070395
   0.44253706  0.55899602  0.94921437
   0.55589068  0.44493527  0.05504119
   0.44616874  0.88632805  0.95074448
   0.55345851  0.77933805  0.04857608
   0.78074972  0.22022784  0.95029953
   0.88714385  0.11381982  0.04912066
   0.77706783  0.55566532  0.94493416
   0.89150850  0.44047270  0.05156438
   0.77505799  0.89017401  0.95076478
   0.88749205  0.77835253  0.05331003
unknown system                          
           1
     8.302594    4.761298    0.000000
    -8.303661    4.763138    0.000000
     0.000000    0.000000   30.000000
   V    Mo   W    S 
   3   3   3  18
Direct configuration=     6
   0.33049265  0.66360704  0.00055528
   0.66456820  0.00485980 -0.00013207
   0.99804480  0.33798851 -0.00002812
  -0.01280023  0.66346619  0.00004091
   0.34186727  0.32625585  0.00002847
   0.66482186  0.34569598 -0.00018076
   0.01370138  0.00025978 -0.00025104
   0.32918047  0.00943080 -0.00013526
   0.66786258  0.64997617  0.00008083
   0.10888144  0.22492248  0.94982003
   0.22233235  0.11100143  0.05468964
   0.11303270  0.55262214  0.95000198
   0.21953236  0.44596191  0.04927958
   0.11213962  0.88824919  0.94641384
   0.22466704  0.77627136  0.04981652
   0.44569822  0.22119963  0.94551289
   0.55749293  0.10927492  0.05066293
   0.44282514  0.55819869  0.94933063
   0.55549506  0.44472223  0.05528942
   0.44564418  0.88665066  0.95083294
   0.55399640  0.77876784  0.04838987
   0.78044043  0.22093872  0.95033923
   0.88768901  0.11363724  0.04890177
   0.77718341  0.55543515  0.94464259
   0.89084182  0.44085524  0.05156336
   0.77549280  0.88949040  0.95118289
   0.88709055  0.77847511  0.05335152
unknown system                          
           1
     8.313011    4.764314    0.000000
    -8.313757    4.765594    0.000000
     0.000000    0.000000   30.000000
   V    Mo   W    S 
   3   3   3  18
Direct configuration=     7
   0.33100922  0.66356460  0.00070177
   0.66305040  0.00588869 -0.00017472
   0.99693731  0.33876105  0.00001622
  -0.01509482  0.66303394 -0.00000082
   0.34256898  0.32439214  0.00006249
   0.66499125  0.34704147 -0.00015054
   0.01703175  0.00061007 -0.00024036
   0.32864898  0.01130858 -0.00014805
   0.66774156  0.64749343  0.00003144
   0.10960440  0.22501199  0.94990568
   0.22270511  0.11116962  0.05535069
   0.11267900  0.55286564  0.94993745
   0.21973227  0.44539908  0.04919047
   0.11230018  0.88774477  0.94602180
   0.22403833  0.77652386  0.04959268
   0.44638556  0.22136624  0.94504952
   0.55732807  0.10992512  0.05078566
   0.44291151  0.55742110  0.94931823
   0.55531438  0.44432260  0.05579536
   0.44518250  0.88685671  0.95075053
   0.55448760  0.77838699  0.04828193
   0.78028042  0.22151707  0.95014095
   0.88813316  0.11347010  0.04871458
   0.77707963  0.55531228  0.94404874
   0.89038387  0.44116874  0.05176452
   0.77593568  0.88905502  0.95166531
   0.88684815  0.77860356  0.05358838
unknown system                          
           1
     8.321848    4.765370    0.000000
    -8.321763    4.765198    0.000000
     0.000000    0.000000   30.000000
   V    Mo   W    S 
   3   3   3  18
Direct configuration=     8
   0.33137719  0.66345532  0.00078330
   0.66226085  0.00637832 -0.00022295
   0.99643083  0.33913752  0.00002095
  -0.01569046  0.66280020 -0.00004587
   0.34258143  0.32390366  0.00010153
   0.66526509  0.34708638 -0.00018957
   0.01805814  0.00080022 -0.00020880
   0.32874827  0.01182282 -0.00020193
   0.66749569  0.64690459  0.00004010
   0.10980259  0.22498464  0.95002380
   0.22283228  0.11120677  0.05549625
   0.11259259  0.55296169  0.95002009
   0.21977110  0.44521737  0.04906499
   0.11241176  0.88759546  0.94599663
   0.22384506  0.77662407  0.04940725
   0.44663124  0.22140143  0.94500778
   0.55722179  0.11007270  0.05081334
   0.44291263  0.55711970  0.94937100
   0.55524252  0.44418748  0.05583931
   0.44503752  0.88693834  0.95079017
   0.55469157  0.77834474  0.04816660
   0.78025643  0.22164150  0.95013216
   0.88822732  0.11334237  0.04853282
   0.77702326  0.55524231  0.94397562
   0.89027386  0.44133911  0.05177705
   0.77614767  0.88901956  0.95196318
   0.88676620  0.77868615  0.05354510
unknown system                          
           1
     8.323414    4.765870    0.000000
    -8.323083    4.765269    0.000000
     0.000000    0.000000   30.000000
   V    Mo   W    S 
   3   3   3  18
Direct configuration=     9
   0.33213069  0.66311138  0.00095875
   0.66061629  0.00746012 -0.00031100
   0.99538360  0.33999034  0.00003547
  -0.01721613  0.66223805 -0.00010444
   0.34286260  0.32283299  0.00015085
   0.66574701  0.34750050 -0.00021925
   0.02037474  0.00116250 -0.00016348
   0.32885867  0.01310775 -0.00025916
   0.66703771  0.64534238  0.00002600
   0.11019439  0.22499531  0.95020460
   0.22313846  0.11127850  0.05586790
   0.11242457  0.55314915  0.95010363
   0.21981898  0.44482404  0.04889276
   0.11261390  0.88726656  0.94586000
   0.22346962  0.77677321  0.04907607
   0.44710659  0.22151852  0.94480808
   0.55704071  0.11036538  0.05093696
   0.44289003  0.55653812  0.94940340
   0.55513402  0.44387498  0.05604267
   0.44473184  0.88705126  0.95079446
   0.55509031  0.77826435  0.04799453
   0.78024749  0.22192311  0.95001863
   0.88841657  0.11313234  0.04822522
   0.77690048  0.55512491  0.94371116
   0.89008484  0.44165651  0.05187928
   0.77651280  0.88893143  0.95252425
   0.88660366  0.77880077  0.05354255
unknown system                          
           1
     8.309998    4.759100    0.000000
    -8.311067    4.760942    0.000000
     0.000000    0.000000   30.000000
   V    Mo   W    S 
   3   3   3  18
Direct configuration=    10
   0.33235567  0.66298226  0.00100488
   0.66021130  0.00773727 -0.00033448
   0.99512287  0.34020178  0.00003666
  -0.01754314  0.66208741 -0.00011652
   0.34292498  0.32263818  0.00015944
   0.66586475  0.34751656 -0.00022301
   0.02085363  0.00124475 -0.00015046
   0.32894445  0.01340398 -0.00026791
   0.66688924  0.64501574  0.00002001
   0.11025656  0.22499562  0.95025408
   0.22321251  0.11128105  0.05593343
   0.11240156  0.55319322  0.95012964
   0.21981200  0.44473452  0.04885249
   0.11266447  0.88720810  0.94584561
   0.22341007  0.77679834  0.04898553
   0.44720202  0.22155204  0.94477584
   0.55699996  0.11040704  0.05096940
   0.44287591  0.55642251  0.94940749
   0.55512653  0.44380326  0.05607058
   0.44466539  0.88706748  0.95079830
   0.55518467  0.77827559  0.04795345
   0.78025626  0.22197390  0.94998951
   0.88844125  0.11307911  0.04814222
   0.77685977  0.55509989  0.94366976
   0.89006036  0.44172637  0.05190112
   0.77658556  0.88894503  0.95266611
   0.88657585  0.77882347  0.05352674
unknown system                          
           1
     8.333237    4.769392    0.000000
    -8.331628    4.766558    0.000000
     0.000000    0.000000   30.000000
   V    Mo   W    S 
   3   3   3  18
Direct configuration=    11
   0.33160394  0.66354273  0.00087941
   0.66116825  0.00712749 -0.00025650
   0.99567002  0.33969268  0.00005798
  -0.01686580  0.66248376 -0.00009627
   0.34271199  0.32260547  0.00014724
   0.66554614  0.34763510 -0.00020945
   0.02023072  0.00117004 -0.00018507
   0.32845131  0.01283819 -0.00024951
   0.66733994  0.64556848  0.00003573
   0.11016898  0.22499285  0.95011643
   0.22300894  0.11126848  0.05582513
   0.11243634  0.55304537  0.95004873
   0.21987589  0.44497385  0.04892538
   0.11249415  0.88732079  0.94583473
   0.22348962  0.77679020  0.04926207
   0.44701945  0.22147572  0.94483484
   0.55710014  0.11036278  0.05084226
   0.44295618  0.55668664  0.94944927
   0.55509649  0.44398613  0.05602695
   0.44481257  0.88700712  0.95077806
   0.55493608  0.77813386  0.04803914
   0.78026043  0.22188688  0.95008677
   0.88846114  0.11322224  0.04836412
   0.77698742  0.55520385  0.94372091
   0.89010041  0.44153861  0.05182725
   0.77648810  0.88882821  0.95230126
   0.88666565  0.77882695  0.05359304
unknown system                          
           1
     8.338933    4.771784    0.000000
    -8.336348    4.767245    0.000000
     0.000000    0.000000   30.000000
   V    Mo   W    S 
   3   3   3  18
Direct configuration=    12
   0.33347851  0.66231277  0.00122843
   0.65830620  0.00904861 -0.00045332
   0.99388613  0.34119779  0.00003415
  -0.01907146  0.66137758 -0.00017702
   0.34325200  0.32180614  0.00020134
   0.66640162  0.34752518 -0.00024837
   0.02300334  0.00159951 -0.00008594
   0.32941904  0.01479375 -0.00031454
   0.66615384  0.64351417 -0.00000624
   0.11053789  0.22500421  0.95047748
   0.22356656  0.11130501  0.05626238
   0.11230043  0.55340927  0.95023869
   0.21976361  0.44429996  0.04868371
   0.11292522  0.88693457  0.94576556
   0.22315008  0.77691094  0.04855621
   0.44766798  0.22171317  0.94460112
   0.55681450  0.11060424  0.05114994
   0.44280004  0.55588397  0.94939515
   0.55509649  0.44345971  0.05622891
   0.44435271  0.88714927  0.95080877
   0.55564343  0.77836065  0.04777319
   0.78028725  0.22221313  0.94983201
   0.88854008  0.11282428  0.04775528
   0.77665813  0.55495680  0.94345344
   0.88993596  0.44204673  0.05203355
   0.77691010  0.88903419  0.95333636
   0.88643478  0.77892885  0.05346965
unknown system                          
           1
     8.332664    4.768221    0.000000
    -8.330693    4.764757    0.000000
     0.000000    0.000000   30.000000
   V    Mo   W    S 
   3   3   3  18
Direct configuration=    13
   0.33428407  0.66174572  0.00137891
   0.65718301  0.00988837 -0.00053974
   0.99304871  0.34186554  0.00002111
  -0.01999140  0.66087040 -0.00021505
   0.34350538  0.32139050  0.00022731
   0.66670113  0.34737666 -0.00026336
   0.02417915  0.00179479 -0.00003572
   0.32986193  0.01571009 -0.00034153
   0.66559614  0.64263226 -0.00002609
   0.11066254  0.22503872  0.95061700
   0.22380323  0.11132253  0.05645262
   0.11228521  0.55355576  0.95030704
   0.21967890  0.44401314  0.04859737
   0.11310358  0.88679208  0.94573330
   0.22303676  0.77694312  0.04826777
   0.44795317  0.22183540  0.94449365
   0.55668866  0.11071067  0.05128466
   0.44273380  0.55558683  0.94936357
   0.55510071  0.44324508  0.05631103
   0.44413784  0.88714658  0.95081316
   0.55593767  0.77849077  0.04768265
   0.78032662  0.22236077  0.94971756
   0.88857049  0.11268466  0.04750778
   0.77650569  0.55484816  0.94333964
   0.88988552  0.44223473  0.05212764
   0.77707798  0.88915477  0.95375408
   0.88635799  0.77897633  0.05342354
unknown system                          
           1
     8.332593    4.768163    0.000000
    -8.330585    4.764634    0.000000
     0.000000    0.000000   30.000000
   V    Mo   W    S 
   3   3   3  18
Direct configuration=    14
   0.33378502  0.66216432  0.00129340
   0.65761604  0.00950812 -0.00048854
   0.99351554  0.34151477  0.00004389
  -0.01955317  0.66115704 -0.00019748
   0.34332808  0.32148576  0.00021560
   0.66663257  0.34757747 -0.00025985
   0.02374158  0.00173108 -0.00006412
   0.32949353  0.01520502 -0.00033523
   0.66595398  0.64301628 -0.00001346
   0.11062235  0.22498854  0.95053051
   0.22366004  0.11130326  0.05635554
   0.11226662  0.55345402  0.95026774
   0.21977745  0.44420286  0.04862740
   0.11298876  0.88684213  0.94573495
   0.22306142  0.77695545  0.04845780
   0.44779587  0.22174834  0.94456755
   0.55676438  0.11065569  0.05120040
   0.44279337  0.55574248  0.94940239
   0.55508318  0.44335722  0.05626882
   0.44427107  0.88717538  0.95080272
   0.55576635  0.77835182  0.04770827
   0.78031407  0.22226637  0.94979532
   0.88857675  0.11272878  0.04764498
   0.77661808  0.55493054  0.94339115
   0.88991839  0.44212706  0.05206337
   0.77701653  0.88904347  0.95353538
   0.88640662  0.77898118  0.05345138
unknown system                          
           1
     8.332526    4.770097    0.000000
    -8.331612    4.768478    0.000000
     0.000000    0.000000   30.000000
   V    Mo   W    S 
   3   3   3  18
Direct configuration=    15
   0.33382509  0.66212357  0.00129991
   0.65758670  0.00953810 -0.00049265
   0.99347941  0.34154326  0.00004166
  -0.01959282  0.66113171 -0.00019858
   0.34334285  0.32148001  0.00021644
   0.66663921  0.34756690 -0.00025998
   0.02377910  0.00173557 -0.00006201
   0.32952002  0.01524976 -0.00033553
   0.66592804  0.64298528 -0.00001411
   0.11062417  0.22499150  0.95053867
   0.22366872  0.11130328  0.05635885
   0.11226684  0.55346058  0.95027211
   0.21976845  0.44418739  0.04862483
   0.11299712  0.88684131  0.94573769
   0.22306041  0.77695469  0.04844205
   0.44780368  0.22175368  0.94456456
   0.55675865  0.11065809  0.05120549
   0.44279073  0.55573243  0.94939943
   0.55508557  0.44335115  0.05626962
   0.44426248  0.88717367  0.95080492
   0.55577837  0.77836116  0.04770635
   0.78031604  0.22227406  0.94979072
   0.88857705  0.11272825  0.04763454
   0.77660933  0.55492565  0.94339018
   0.88991678  0.44213446  0.05206608
   0.77702015  0.88904969  0.95355115
   0.88640232  0.77897925  0.05344750
unknown system                          
           1
     8.336787    4.776078    0.000000
    -8.336763    4.776017    0.000000
     0.000000    0.000000   30.000000
   V    Mo   W    S 
   3   3   3  18
Direct configuration=    16
   0.33310540  0.66269840  0.00118882
   0.65804105  0.00919007 -0.00042289
   0.99395162  0.34127137  0.00008418
  -0.01900666  0.66128831 -0.00018229
   0.34309772  0.32160302  0.00020409
   0.66673871  0.34759928 -0.00026472
   0.02318694  0.00165372 -0.00008912
   0.32933640  0.01470302 -0.00033667
   0.66630717  0.64347880 -0.00001063
   0.11057190  0.22502189  0.95046903
   0.22360107  0.11129842  0.05628132
   0.11224588  0.55327853  0.95026860
   0.21974136  0.44430219  0.04861264
   0.11290640  0.88689290  0.94575085
   0.22310135  0.77697258  0.04863633
   0.44769486  0.22165405  0.94464700
   0.55676360  0.11067103  0.05112075
   0.44280791  0.55582953  0.94945687
   0.55505031  0.44337003  0.05622248
   0.44428502  0.88716125  0.95079457
   0.55563097  0.77825259  0.04771665
   0.78039616  0.22227655  0.94989092
   0.88860896  0.11287655  0.04773059
   0.77669255  0.55495768  0.94344401
   0.88994594  0.44197181  0.05198506
   0.77696566  0.88897141  0.95334210
   0.88644619  0.77896947  0.05345934
unknown system                          
           1
     8.338323    4.772724    0.000000
    -8.336188    4.768980    0.000000
     0.000000    0.000000   30.000000
   V    Mo   W    S 
   3   3   3  18
Direct configuration=    17
   0.33172191  0.66405443  0.00110987
   0.65765762  0.00928841 -0.00031837
   0.99431963  0.34142739  0.00020339
  -0.01844487  0.66100075 -0.00019436
   0.34273304  0.32106513  0.00020602
   0.66743069  0.34777702 -0.00030209
   0.02335098  0.00193364 -0.00010817
   0.32915052  0.01415916 -0.00037784
   0.66657263  0.64341471  0.00000177
   0.11057841  0.22503485  0.95050112
   0.22368470  0.11123321  0.05625686
   0.11211728  0.55288948  0.95031027
   0.21968866  0.44441260  0.04837707
   0.11288321  0.88680716  0.94579135
   0.22299359  0.77708850  0.04884423
   0.44780971  0.22154797  0.94478011
   0.55660601  0.11090183  0.05108750
   0.44277538  0.55570100  0.94969474
   0.55507620  0.44320185  0.05609797
   0.44412212  0.88715739  0.95073302
   0.55548403  0.77805900  0.04750013
   0.78074847  0.22240928  0.95000471
   0.88871060  0.11299055  0.04761850
   0.77683059  0.55489722  0.94346341
   0.89003385  0.44183916  0.05194859
   0.77704641  0.88893160  0.95339706
   0.88653308  0.77899115  0.05337300
unknown system                          
           1
     8.343394    4.775457    0.000000
    -8.340957    4.771184    0.000000
     0.000000    0.000000   30.000000
   V    Mo   W    S 
   3   3   3  18
Direct configuration=    18
   0.33297295  0.66338438  0.00138381
   0.65594892  0.01054308 -0.00048054
   0.99291722  0.34232702  0.00015080
  -0.01996721  0.66026582 -0.00024708
   0.34334555  0.32024662  0.00023577
   0.66758178  0.34777443 -0.00030689
   0.02530455  0.00229088 -0.00003678
   0.32973660  0.01552066 -0.00040398
   0.66569368  0.64182337 -0.00006100
   0.11077589  0.22499395  0.95072658
   0.22398313  0.11119843  0.05651209
   0.11210496  0.55326020  0.95030072
   0.21977520  0.44403710  0.04829291
   0.11317419  0.88659813  0.94577792
   0.22275495  0.77711346  0.04839931
   0.44826507  0.22178766  0.94459298
   0.55649486  0.11099061  0.05134517
   0.44269272  0.55528604  0.94967185
   0.55518372  0.44296230  0.05621509
   0.44398214  0.88723748  0.95069612
   0.55594296  0.77836408  0.04734444
   0.78067027  0.22245041  0.94974011
   0.88861732  0.11254144  0.04723731
   0.77665133  0.55478158  0.94331301
   0.88996206  0.44226964  0.05219844
   0.77722593  0.88918866  0.95412879
   0.88642373  0.77897706  0.05327294
unknown system                          
           1
     8.354382    4.780102    0.000000
    -8.349464    4.771497    0.000000
     0.000000    0.000000   30.000000
   V    Mo   W    S 
   3   3   3  18
Direct configuration=    19
   0.33322418  0.66325186  0.00145163
   0.65550232  0.01089862 -0.00051839
   0.99254791  0.34260329  0.00014198
  -0.02027476  0.65999633 -0.00025937
   0.34348808  0.32009826  0.00024706
   0.66770373  0.34766508 -0.00030545
   0.02570948  0.00236741 -0.00001593
   0.33000598  0.01584960 -0.00041136
   0.66542850  0.64148130 -0.00007503
   0.11082606  0.22503465  0.95078605
   0.22409441  0.11119300  0.05658929
   0.11209485  0.55331659  0.95031198
   0.21974785  0.44391384  0.04825163
   0.11325924  0.88653803  0.94577204
   0.22269107  0.77711238  0.04829402
   0.44840407  0.22184530  0.94453935
   0.55645038  0.11103153  0.05141938
   0.44264221  0.55515495  0.94966248
   0.55519923  0.44286308  0.05625329
   0.44391388  0.88724788  0.95067804
   0.55607436  0.77846435  0.04730009
   0.78068849  0.22250122  0.94967615
   0.88859261  0.11246849  0.04712687
   0.77660369  0.55473366  0.94326244
   0.88994906  0.44234847  0.05225627
   0.77725601  0.88927280  0.95431706
   0.88639158  0.77896249  0.05324832
unknown system                          
           1
     8.363276    4.785174    0.000000
    -8.356705    4.773680    0.000000
     0.000000    0.000000   30.000000
   V    Mo   W    S 
   3   3   3  18
Direct configuration=    20
   0.33506696  0.66202020  0.00182131
   0.65339210  0.01256425 -0.00074148
   0.99069556  0.34392761  0.00004952
  -0.02210128  0.65880386 -0.00032645
   0.34433401  0.31962880  0.00030191
   0.66804098  0.34710752 -0.00030450
   0.02770006  0.00261100  0.00009049
   0.33149087  0.01782704 -0.00043384
   0.66398699  0.63972171 -0.00013754
   0.11106179  0.22518647  0.95114646
   0.22463126  0.11116523  0.05687329
   0.11208610  0.55371749  0.95043467
   0.21955548  0.44323749  0.04807129
   0.11371575  0.88632804  0.94582728
   0.22244197  0.77707064  0.04762120
   0.44900558  0.22213149  0.94431468
   0.55622234  0.11114730  0.05175430
   0.44241242  0.55453647  0.94956697
   0.55531654  0.44246405  0.05639484
   0.44358533  0.88729163  0.95066654
   0.55675537  0.77903062  0.04712161
   0.78066898  0.22276291  0.94936851
   0.88846751  0.11214553  0.04656258
   0.77627422  0.55449482  0.94310433
   0.88984463  0.44278506  0.05250452
   0.77738869  0.88967779  0.95526399
   0.88617423  0.77882943  0.05308342
unknown system                          
           1
     8.360299    4.784689    0.000000
    -8.352994    4.771908    0.000000
     0.000000    0.000000   30.000000
   V    Mo   W    S 
   3   3   3  18
Direct configuration=    21
   0.33674784  0.66058500  0.00210554
   0.65210027  0.01381267 -0.00092875
   0.98918447  0.34494152 -0.00005890
  -0.02362382  0.65775853 -0.00037137
   0.34509820  0.31957195  0.00034074
   0.66819152  0.34648100 -0.00029585
   0.02898985  0.00270542  0.00018757
   0.33293825  0.01955475 -0.00043323
   0.66277361  0.63849516 -0.00018128
   0.11116664  0.22537950  0.95145700
   0.22507475  0.11116200  0.05705959
   0.11213114  0.55406371  0.95057100
   0.21922127  0.44259479  0.04796367
   0.11413345  0.88623337  0.94591159
   0.22233189  0.77699611  0.04700724
   0.44944657  0.22240100  0.94414096
   0.55602202  0.11126682  0.05202063
   0.44220132  0.55408264  0.94942180
   0.55542096  0.44215174  0.05649924
   0.44325424  0.88725892  0.95068909
   0.55732335  0.77956837  0.04704186
   0.78065930  0.22306279  0.94912923
   0.88837273  0.11204886  0.04611909
   0.77592087  0.55425710  0.94300585
   0.88973875  0.44308301  0.05267981
   0.77743332  0.89001700  0.95596133
   0.88596170  0.77868072  0.05295644
unknown system                          
           1
     8.364229    4.786595    0.000000
    -8.357045    4.774027    0.000000
     0.000000    0.000000   30.000000
   V    Mo   W    S 
   3   3   3  18
Direct configuration=    22
   0.33827830  0.65844055  0.00216589
   0.65270586  0.01392694 -0.00101910
   0.98866005  0.34490240 -0.00023931
  -0.02454986  0.65757354 -0.00035993
   0.34558698  0.32049304  0.00035721
   0.66740195  0.34594087 -0.00027065
   0.02889542  0.00247679  0.00022856
   0.33404219  0.02054797 -0.00035449
   0.66238519  0.63852663 -0.00015158
   0.11089599  0.22550322  0.95169671
   0.22527304  0.11131219  0.05700697
   0.11236013  0.55448203  0.95072286
   0.21861693  0.44197055  0.04809416
   0.11442116  0.88642582  0.94609797
   0.22263434  0.77680867  0.04640257
   0.44957637  0.22273544  0.94405535
   0.55600426  0.11139709  0.05207201
   0.44208763  0.55402281  0.94915545
   0.55552111  0.44211892  0.05650279
   0.44303775  0.88709340  0.95086832
   0.55763987  0.77993877  0.04720068
   0.78045691  0.22336894  0.94900078
   0.88841534  0.11245784  0.04598375
   0.77538960  0.55397348  0.94301637
   0.88946691  0.44316414  0.05273036
   0.77735798  0.89009917  0.95610286
   0.88565306  0.77851325  0.05293334
unknown system                          
           1
     8.375745    4.796236    0.000000
    -8.368452    4.783471    0.000000
     0.000000    0.000000   30.000000
   V    Mo   W    S 
   3   3   3  18
Direct configuration=    23
   0.33706657  0.66066586  0.00229040
   0.65128288  0.01449577 -0.00100639
   0.98843541  0.34555958 -0.00007168
  -0.02411465  0.65716706 -0.00040132
   0.34546372  0.31910138  0.00036285
   0.66852333  0.34634351 -0.00027893
   0.02979638  0.00288654  0.00020515
   0.33334675  0.02011246 -0.00044678
   0.66210788  0.63769082 -0.00022288
   0.11134893  0.22547384  0.95159751
   0.22534425  0.11108180  0.05719230
   0.11203027  0.55405848  0.95059825
   0.21918878  0.44239067  0.04780099
   0.11433058  0.88613410  0.94592727
   0.22212290  0.77708976  0.04686266
   0.44981105  0.22250458  0.94406074
   0.55580224  0.11136163  0.05217900
   0.44205650  0.55376163  0.94945794
   0.55552402  0.44191447  0.05653049
   0.44301563  0.88731460  0.95059775
   0.55760855  0.77984743  0.04691112
   0.78079707  0.22323753  0.94901002
   0.88830758  0.11187590  0.04584335
   0.77587127  0.55416090  0.94294467
   0.88977876  0.44324344  0.05281569
   0.77744685  0.89019539  0.95639665
   0.88592096  0.77854529  0.05284307
unknown system                          
           1
     8.379764    4.798515    0.000000
    -8.371379    4.783844    0.000000
     0.000000    0.000000   30.000000
   V    Mo   W    S 
   3   3   3  18
Direct configuration=    24
   0.33580631  0.66365986  0.00265386
   0.64920240  0.01592756 -0.00108885
   0.98713065  0.34679657  0.00002830
  -0.02397642  0.65588935 -0.00050470
   0.34603622  0.31705501  0.00042592
   0.66987881  0.34645586 -0.00026878
   0.03170200  0.00361119  0.00024308
   0.33353091  0.02005025 -0.00057736
   0.66088179  0.63583714 -0.00037080
   0.11201232  0.22576301  0.95177790
   0.22580779  0.11070140  0.05750983
   0.11160415  0.55360492  0.95048933
   0.21946720  0.44225459  0.04720335
   0.11461424  0.88571069  0.94585975
   0.22132113  0.77753965  0.04713727
   0.45088594  0.22252238  0.94397513
   0.55524237  0.11153199  0.05248091
   0.44153866  0.55287353  0.94987120
   0.55578724  0.44129927  0.05657864
   0.44260980  0.88761720  0.95019348