   27   27  100    1
  0.9710400E+02  0.1002848E-08  0.1002848E-08  0.3000000E-08  0.5000000E-15
  1.000000000000000E-004
  CAR 
 unknown system                          
    159     34    120
 
  0.0000000E+00  0.0000000E+00  0.0000000E+00  0.1562500E-01
    1      -17.859471   1.000000
    2      -16.799096   1.000000
    3      -16.687380   1.000000
    4      -16.603295   1.000000
    5      -16.578280   1.000000
    6      -16.429830   1.000000
    7      -16.353563   1.000000
    8      -16.338542   1.000000
    9      -16.241402   1.000000
   10      -16.138308   1.000000
   11      -16.074848   1.000000
   12      -15.982493   1.000000
   13      -15.867774   1.000000
   14      -15.633219   1.000000
   15      -15.583657   1.000000
   16      -15.459090   1.000000
   17      -15.223413   1.000000
   18      -15.189873   1.000000
   19       -9.474690   1.000000
   20       -9.057999   1.000000
   21       -9.029313   1.000000
   22       -8.923876   1.000000
   23       -8.755002   1.000000
   24       -8.707147   1.000000
   25       -8.640788   1.000000
   26       -8.568224   1.000000
   27       -8.485510   1.000000
   28       -8.451464   1.000000
   29       -8.406741   1.000000
   30       -8.360863   1.000000
   31       -8.231986   1.000000
   32       -8.197053   1.000000
   33       -8.151201   1.000000
   34       -8.051667   1.000000
   35       -7.809056   1.000000
   36       -7.770616   1.000000
   37       -7.631952   1.000000
   38       -7.613627   1.000000
   39       -7.500653   1.000000
   40       -7.373353   1.000000
   41       -7.305251   1.000000
   42       -7.210725   1.000000
   43       -7.085727   1.000000
   44       -6.956463   1.000000
   45       -6.829788   1.000000
   46       -6.824582   1.000000
   47       -6.751579   1.000000
   48       -6.717148   1.000000
   49       -6.642463   1.000000
   50       -6.511013   1.000000
   51       -6.398619   1.000000
   52       -6.248544   1.000000
   53       -6.208798   1.000000
   54       -6.175587   1.000000
   55       -6.118983   1.000000
   56       -6.038816   1.000000
   57       -5.980927   1.000000
   58       -5.876575   1.000000
   59       -5.852590   1.000000
   60       -5.729040   1.000000
   61       -5.607950   1.000000
   62       -5.337965   1.000000
   63       -5.288395   1.000000
   64       -5.042346   1.000000
   65       -4.981709   1.000000
   66       -4.896260   1.000000
   67       -4.849766   1.000000
   68       -4.781805   1.000000
   69       -4.744790   1.000000
   70       -4.720822   1.000000
   71       -4.654691   1.000000
   72       -4.621419   1.000000
   73       -4.417186   1.000000
   74       -4.361961   1.000000
   75       -4.287459   1.000000
   76       -3.989927   1.000000
   77       -3.750384   0.999912
   78       -3.578731   0.994421
   79       -3.503264   0.977470
   80       -3.186657   0.407241
   81       -3.143564   0.294819
   82       -2.848761   0.004346
   83       -2.692557   0.000096
   84       -2.668928   0.000049
   85       -2.518794   0.000000
   86       -2.510814   0.000000
   87       -2.290639   0.000000
   88       -2.228050   0.000000
   89       -2.185679   0.000000
   90       -1.943531   0.000000
   91       -1.732391   0.000000
   92       -1.612769   0.000000
   93       -1.491992   0.000000
   94       -1.194435   0.000000
   95       -1.131622   0.000000
   96       -1.023851   0.000000
   97       -0.960249   0.000000
   98       -0.876977   0.000000
   99       -0.813492   0.000000
  100       -0.631041   0.000000
  101       -0.546552   0.000000
  102       -0.499794   0.000000
  103       -0.378711   0.000000
  104       -0.232243   0.000000
  105       -0.129563   0.000000
  106       -0.065092   0.000000
  107       -0.025412   0.000000
  108        0.020337   0.000000
  109        0.128041   0.000000
  110        0.181983   0.000000
  111        0.438175   0.000000
  112        0.541289   0.000000
  113        0.610519   0.000000
  114        0.891728   0.000000
  115        0.973435   0.000000
  116        1.025107   0.000000
  117        1.136851   0.000000
  118        1.648356   0.000000
  119        1.841884   0.000000
  120        2.171467   0.000000
 
  0.1250000E+00  0.2775558E-16  0.0000000E+00  0.3125000E-01
    1      -17.834852   1.000000
    2      -16.817591   1.000000
    3      -16.795517   1.000000
    4      -16.626333   1.000000
    5      -16.511563   1.000000
    6      -16.446160   1.000000
    7      -16.375880   1.000000
    8      -16.315457   1.000000
    9      -16.290442   1.000000
   10      -16.063119   1.000000
   11      -16.028396   1.000000
   12      -15.966890   1.000000
   13      -15.847214   1.000000
   14      -15.628769   1.000000
   15      -15.577457   1.000000
   16      -15.469161   1.000000
   17      -15.249160   1.000000
   18      -15.187627   1.000000
   19       -9.478546   1.000000
   20       -9.170429   1.000000
   21       -9.115597   1.000000
   22       -9.043587   1.000000
   23       -8.761013   1.000000
   24       -8.721367   1.000000
   25       -8.616009   1.000000
   26       -8.573955   1.000000
   27       -8.517702   1.000000
   28       -8.418881   1.000000
   29       -8.392783   1.000000
   30       -8.291260   1.000000
   31       -8.252761   1.000000
   32       -8.079571   1.000000
   33       -7.985984   1.000000
   34       -7.942665   1.000000
   35       -7.831460   1.000000
   36       -7.773301   1.000000
   37       -7.699356   1.000000
   38       -7.522860   1.000000
   39       -7.421399   1.000000
   40       -7.394528   1.000000
   41       -7.321339   1.000000
   42       -7.239121   1.000000
   43       -7.119686   1.000000
   44       -6.977188   1.000000
   45       -6.908110   1.000000
   46       -6.812820   1.000000
   47       -6.760530   1.000000
   48       -6.698764   1.000000
   49       -6.600274   1.000000
   50       -6.515773   1.000000
   51       -6.381509   1.000000
   52       -6.279582   1.000000
   53       -6.229298   1.000000
   54       -6.171543   1.000000
   55       -6.138123   1.000000
   56       -6.038965   1.000000
   57       -5.957930   1.000000
   58       -5.884748   1.000000
   59       -5.790759   1.000000
   60       -5.652455   1.000000
   61       -5.561932   1.000000
   62       -5.355778   1.000000
   63       -5.324407   1.000000
   64       -5.211781   1.000000
   65       -5.045624   1.000000
   66       -5.011558   1.000000
   67       -4.901921   1.000000
   68       -4.856581   1.000000
   69       -4.747954   1.000000
   70       -4.624133   1.000000
   71       -4.584406   1.000000
   72       -4.496596   1.000000
   73       -4.425542   1.000000
   74       -4.304905   1.000000
   75       -4.246811   1.000000
   76       -3.902543   0.999999
   77       -3.787990   0.999971
   78       -3.703431   0.999686
   79       -3.488331   0.971185
   80       -3.383210   0.875994
   81       -2.956856   0.031472
   82       -2.857251   0.005175
   83       -2.704729   0.000135
   84       -2.654823   0.000032
   85       -2.518174   0.000000
   86       -2.497312   0.000000
   87       -2.287591   0.000000
   88       -2.194231   0.000000
   89       -2.157783   0.000000
   90       -1.935328   0.000000
   91       -1.749982   0.000000
   92       -1.591804   0.000000
   93       -1.468664   0.000000
   94       -1.201862   0.000000
   95       -1.130925   0.000000
   96       -1.015754   0.000000
   97       -0.972092   0.000000
   98       -0.880764   0.000000
   99       -0.813619   0.000000
  100       -0.676736   0.000000
  101       -0.605553   0.000000
  102       -0.525529   0.000000
  103       -0.454730   0.000000
  104       -0.314241   0.000000
  105       -0.181827   0.000000
  106       -0.140746   0.000000
  107       -0.111308   0.000000
  108        0.029595   0.000000
  109        0.166347   0.000000
  110        0.227367   0.000000
  111        0.505139   0.000000
  112        0.564228   0.000000
  113        0.631194   0.000000
  114        0.802004   0.000000
  115        0.965408   0.000000
  116        1.075316   0.000000
  117        1.217397   0.000000
  118        1.693359   0.000000
  119        1.880266   0.000000
  120        2.206915   0.000000
 
  0.2500000E+00  0.5551115E-16  0.0000000E+00  0.3125000E-01
    1      -17.763015   1.000000
    2      -17.019992   1.000000
    3      -16.786957   1.000000
    4      -16.659710   1.000000
    5      -16.556935   1.000000
    6      -16.476495   1.000000
    7      -16.361415   1.000000
    8      -16.275352   1.000000
    9      -16.245644   1.000000
   10      -16.066125   1.000000
   11      -15.959794   1.000000
   12      -15.881270   1.000000
   13      -15.792804   1.000000
   14      -15.607542   1.000000
   15      -15.562196   1.000000
   16      -15.489310   1.000000
   17      -15.297462   1.000000
   18      -15.200355   1.000000
   19       -9.604448   1.000000
   20       -9.315679   1.000000
   21       -9.232787   1.000000
   22       -9.136398   1.000000
   23       -8.838017   1.000000
   24       -8.725081   1.000000
   25       -8.617203   1.000000
   26       -8.575714   1.000000
   27       -8.503169   1.000000
   28       -8.425418   1.000000
   29       -8.322081   1.000000
   30       -8.214307   1.000000
   31       -8.114985   1.000000
   32       -8.045313   1.000000
   33       -7.961262   1.000000
   34       -7.837907   1.000000
   35       -7.753612   1.000000
   36       -7.650380   1.000000
   37       -7.569330   1.000000
   38       -7.502014   1.000000
   39       -7.442911   1.000000
   40       -7.381319   1.000000
   41       -7.334095   1.000000
   42       -7.224293   1.000000
   43       -7.116549   1.000000
   44       -6.982543   1.000000
   45       -6.955031   1.000000
   46       -6.798900   1.000000
   47       -6.753013   1.000000
   48       -6.711274   1.000000
   49       -6.540664   1.000000
   50       -6.437412   1.000000
   51       -6.406316   1.000000
   52       -6.304450   1.000000
   53       -6.279308   1.000000
   54       -6.175463   1.000000
   55       -6.132278   1.000000
   56       -6.045383   1.000000
   57       -5.890837   1.000000
   58       -5.851804   1.000000
   59       -5.763573   1.000000
   60       -5.646757   1.000000
   61       -5.566797   1.000000
   62       -5.504074   1.000000
   63       -5.450335   1.000000
   64       -5.272649   1.000000
   65       -5.151684   1.000000
   66       -5.115919   1.000000
   67       -5.013398   1.000000
   68       -4.871396   1.000000
   69       -4.727795   1.000000
   70       -4.562627   1.000000
   71       -4.476958   1.000000
   72       -4.425764   1.000000
   73       -4.306005   1.000000
   74       -4.264286   1.000000
   75       -4.148238   1.000000
   76       -4.010013   1.000000
   77       -3.914204   1.000000
   78       -3.751611   0.999915
   79       -3.474403   0.964071
   80       -3.417119   0.918486
   81       -2.933680   0.021512
   82       -2.822863   0.002500
   83       -2.697217   0.000110
   84       -2.627949   0.000014
   85       -2.528054   0.000000
   86       -2.456310   0.000000
   87       -2.290248   0.000000
   88       -2.130269   0.000000
   89       -2.067685   0.000000
   90       -1.916686   0.000000
   91       -1.769940   0.000000
   92       -1.553922   0.000000
   93       -1.406685   0.000000
   94       -1.228240   0.000000
   95       -1.130423   0.000000
   96       -1.045013   0.000000
   97       -0.998960   0.000000
   98       -0.889537   0.000000
   99       -0.823211   0.000000
  100       -0.783510   0.000000
  101       -0.727865   0.000000
  102       -0.610422   0.000000
  103       -0.552507   0.000000
  104       -0.435955   0.000000
  105       -0.318360   0.000000
  106       -0.275989   0.000000
  107       -0.203261   0.000000
  108       -0.020065   0.000000
  109        0.187296   0.000000
  110        0.276627   0.000000
  111        0.487742   0.000000
  112        0.582849   0.000000
  113        0.691363   0.000000
  114        0.770104   0.000000
  115        1.031369   0.000000
  116        1.137768   0.000000
  117        1.364156   0.000000
  118        1.818266   0.000000
  119        1.991431   0.000000
  120        2.311943   0.000000
 
  0.3750000E+00  0.0000000E+00  0.0000000E+00  0.3125000E-01
    1      -17.653749   1.000000
    2      -17.221115   1.000000
    3      -16.777551   1.000000
    4      -16.686619   1.000000
    5      -16.611974   1.000000
    6      -16.513629   1.000000
    7      -16.328308   1.000000
    8      -16.236755   1.000000
    9      -16.201334   1.000000
   10      -16.079060   1.000000
   11      -15.872100   1.000000
   12      -15.841985   1.000000
   13      -15.756685   1.000000
   14      -15.614897   1.000000
   15      -15.547397   1.000000
   16      -15.464327   1.000000
   17      -15.334284   1.000000
   18      -15.230523   1.000000
   19       -9.794547   1.000000
   20       -9.407336   1.000000
   21       -9.287608   1.000000
   22       -9.108472   1.000000
   23       -8.893307   1.000000
   24       -8.772444   1.000000
   25       -8.632077   1.000000
   26       -8.567982   1.000000
   27       -8.480463   1.000000
   28       -8.329861   1.000000
   29       -8.287789   1.000000
   30       -8.198314   1.000000
   31       -8.101891   1.000000
   32       -8.016894   1.000000
   33       -7.922133   1.000000
   34       -7.819979   1.000000
   35       -7.765087   1.000000
   36       -7.661093   1.000000
   37       -7.571841   1.000000
   38       -7.513467   1.000000
   39       -7.472140   1.000000
   40       -7.298573   1.000000
   41       -7.171113   1.000000
   42       -7.132685   1.000000
   43       -7.013654   1.000000
   44       -6.970025   1.000000
   45       -6.885717   1.000000
   46       -6.798944   1.000000
   47       -6.733149   1.000000
   48       -6.614032   1.000000
   49       -6.507323   1.000000
   50       -6.452795   1.000000
   51       -6.339579   1.000000
   52       -6.293591   1.000000
   53       -6.221970   1.000000
   54       -6.188455   1.000000
   55       -6.144135   1.000000
   56       -6.038290   1.000000
   57       -6.023886   1.000000
   58       -5.966363   1.000000
   59       -5.853798   1.000000
   60       -5.716933   1.000000
   61       -5.626059   1.000000
   62       -5.574804   1.000000
   63       -5.453703   1.000000
   64       -5.352484   1.000000
   65       -5.160991   1.000000
   66       -5.097379   1.000000
   67       -5.004881   1.000000
   68       -4.824129   1.000000
   69       -4.754190   1.000000
   70       -4.652004   1.000000
   71       -4.505566   1.000000
   72       -4.417635   1.000000
   73       -4.282675   1.000000
   74       -4.204699   1.000000
   75       -4.159959   1.000000
   76       -4.056640   1.000000
   77       -3.889877   0.999999
   78       -3.749427   0.999910
   79       -3.515014   0.981564
   80       -3.269770   0.637975
   81       -2.986157   0.049227
   82       -2.804202   0.001646
   83       -2.679800   0.000067
   84       -2.637642   0.000019
   85       -2.533061   0.000001
   86       -2.402468   0.000000
   87       -2.275097   0.000000
   88       -2.091684   0.000000
   89       -1.971342   0.000000
   90       -1.876003   0.000000
   91       -1.771631   0.000000
   92       -1.552974   0.000000
   93       -1.327389   0.000000
   94       -1.242485   0.000000
   95       -1.159277   0.000000
   96       -1.135951   0.000000
   97       -1.037017   0.000000
   98       -0.912119   0.000000
   99       -0.875346   0.000000
  100       -0.806735   0.000000
  101       -0.789395   0.000000
  102       -0.718565   0.000000
  103       -0.608453   0.000000
  104       -0.538276   0.000000
  105       -0.501809   0.000000
  106       -0.331205   0.000000
  107       -0.253959   0.000000
  108       -0.068962   0.000000
  109        0.151899   0.000000
  110        0.262229   0.000000
  111        0.420877   0.000000
  112        0.606668   0.000000
  113        0.749106   0.000000
  114        0.778661   0.000000
  115        1.117379   0.000000
  116        1.223475   0.000000
  117        1.481265   0.000000
  118        2.004806   0.000000
  119        2.167765   0.000000
  120        2.477815   0.000000
 
  0.5000000E+00  0.1110223E-15  0.0000000E+00  0.1562500E-01
    1      -17.569690   1.000000
    2      -17.337849   1.000000
    3      -16.773205   1.000000
    4      -16.697475   1.000000
    5      -16.630433   1.000000
    6      -16.527516   1.000000
    7      -16.315886   1.000000
    8      -16.225583   1.000000
    9      -16.188660   1.000000
   10      -16.074597   1.000000
   11      -15.860936   1.000000
   12      -15.772326   1.000000
   13      -15.760176   1.000000
   14      -15.659837   1.000000
   15      -15.535522   1.000000
   16      -15.440910   1.000000
   17      -15.334085   1.000000
   18      -15.254901   1.000000
   19       -9.869220   1.000000
   20       -9.445895   1.000000
   21       -9.315277   1.000000
   22       -9.047842   1.000000
   23       -8.909574   1.000000
   24       -8.801703   1.000000
   25       -8.646011   1.000000
   26       -8.622810   1.000000
   27       -8.419235   1.000000
   28       -8.331512   1.000000
   29       -8.204479   1.000000
   30       -8.159730   1.000000
   31       -8.122927   1.000000
   32       -8.019871   1.000000
   33       -7.940326   1.000000
   34       -7.835833   1.000000
   35       -7.776370   1.000000
   36       -7.677632   1.000000
   37       -7.601692   1.000000
   38       -7.564170   1.000000
   39       -7.475479   1.000000
   40       -7.311812   1.000000
   41       -7.084753   1.000000
   42       -7.024262   1.000000
   43       -6.938224   1.000000
   44       -6.900738   1.000000
   45       -6.846993   1.000000
   46       -6.685660   1.000000
   47       -6.633202   1.000000
   48       -6.565221   1.000000
   49       -6.534308   1.000000
   50       -6.476087   1.000000
   51       -6.452770   1.000000
   52       -6.395963   1.000000
   53       -6.263970   1.000000
   54       -6.250491   1.000000
   55       -6.172193   1.000000
   56       -6.069710   1.000000
   57       -5.987626   1.000000
   58       -5.873430   1.000000
   59       -5.839864   1.000000
   60       -5.733252   1.000000
   61       -5.657899   1.000000
   62       -5.556698   1.000000
   63       -5.513572   1.000000
   64       -5.392853   1.000000
   65       -5.184758   1.000000
   66       -5.051532   1.000000
   67       -5.026759   1.000000
   68       -4.918446   1.000000
   69       -4.788227   1.000000
   70       -4.596849   1.000000
   71       -4.513506   1.000000
   72       -4.462250   1.000000
   73       -4.283953   1.000000
   74       -4.220434   1.000000
   75       -4.166234   1.000000
   76       -3.993975   1.000000
   77       -3.829144   0.999992
   78       -3.766875   0.999945
   79       -3.546520   0.989555
   80       -3.185366   0.403702
   81       -2.996602   0.057221
   82       -2.831726   0.003031
   83       -2.692652   0.000097
   84       -2.627095   0.000014
   85       -2.531291   0.000001
   86       -2.378387   0.000000
   87       -2.263028   0.000000
   88       -2.072529   0.000000
   89       -1.943897   0.000000
   90       -1.851044   0.000000
   91       -1.766014   0.000000
   92       -1.559588   0.000000
   93       -1.299009   0.000000
   94       -1.235168   0.000000
   95       -1.191773   0.000000
   96       -1.175068   0.000000
   97       -1.058879   0.000000
   98       -0.930866   0.000000
   99       -0.882495   0.000000
  100       -0.821787   0.000000
  101       -0.785177   0.000000
  102       -0.764575   0.000000
  103       -0.630743   0.000000
  104       -0.593980   0.000000
  105       -0.576312   0.000000
  106       -0.342243   0.000000
  107       -0.268882   0.000000
  108       -0.093667   0.000000
  109        0.131992   0.000000
  110        0.244579   0.000000
  111        0.407113   0.000000
  112        0.613737   0.000000
  113        0.771127   0.000000
  114        0.779662   0.000000
  115        1.149368   0.000000
  116        1.262370   0.000000
  117        1.525713   0.000000
  118        2.225160   0.000000
  119        2.259380   0.000000
  120        2.389302   0.000000
 
  0.0000000E+00  0.1250000E+00  0.0000000E+00  0.3125000E-01
    1      -17.835227   1.000000
    2      -16.829402   1.000000
    3      -16.779491   1.000000
    4      -16.609777   1.000000
    5      -16.540779   1.000000
    6      -16.441979   1.000000
    7      -16.381911   1.000000
    8      -16.323891   1.000000
    9      -16.267620   1.000000
   10      -16.051070   1.000000
   11      -16.020969   1.000000
   12      -16.001483   1.000000
   13      -15.833998   1.000000
   14      -15.632510   1.000000
   15      -15.578538   1.000000
   16      -15.464968   1.000000
   17      -15.249644   1.000000
   18      -15.188608   1.000000
   19       -9.483529   1.000000
   20       -9.151127   1.000000
   21       -9.108814   1.000000
   22       -9.040152   1.000000
   23       -8.782096   1.000000
   24       -8.697303   1.000000
   25       -8.632458   1.000000
   26       -8.571510   1.000000
   27       -8.505739   1.000000
   28       -8.489550   1.000000
   29       -8.391925   1.000000
   30       -8.308505   1.000000
   31       -8.202509   1.000000
   32       -8.075013   1.000000
   33       -8.008766   1.000000
   34       -7.910999   1.000000
   35       -7.839187   1.000000
   36       -7.758576   1.000000
   37       -7.696915   1.000000
   38       -7.495726   1.000000
   39       -7.436673   1.000000
   40       -7.406269   1.000000
   41       -7.338013   1.000000
   42       -7.200345   1.000000
   43       -7.135746   1.000000
   44       -6.998584   1.000000
   45       -6.886638   1.000000
   46       -6.851632   1.000000
   47       -6.740289   1.000000
   48       -6.678986   1.000000
   49       -6.617290   1.000000
   50       -6.540365   1.000000
   51       -6.385351   1.000000
   52       -6.271294   1.000000
   53       -6.236780   1.000000
   54       -6.171436   1.000000
   55       -6.128035   1.000000
   56       -6.033578   1.000000
   57       -5.976951   1.000000
   58       -5.852433   1.000000
   59       -5.778211   1.000000
   60       -5.663776   1.000000
   61       -5.562456   1.000000
   62       -5.362451   1.000000
   63       -5.308739   1.000000
   64       -5.212097   1.000000
   65       -5.053024   1.000000
   66       -5.009565   1.000000
   67       -4.885887   1.000000
   68       -4.861845   1.000000
   69       -4.771338   1.000000
   70       -4.650667   1.000000
   71       -4.580801   1.000000
   72       -4.479573   1.000000
   73       -4.381684   1.000000
   74       -4.299346   1.000000
   75       -4.278326   1.000000
   76       -3.907404   0.999999
   77       -3.810392   0.999985
   78       -3.673930   0.999338
   79       -3.479451   0.966800
   80       -3.395106   0.892384
   81       -2.955779   0.030936
   82       -2.859630   0.005431
   83       -2.710233   0.000157
   84       -2.642594   0.000022
   85       -2.514949   0.000000
   86       -2.504594   0.000000
   87       -2.288883   0.000000
   88       -2.197255   0.000000
   89       -2.156441   0.000000
   90       -1.947002   0.000000
   91       -1.737098   0.000000
   92       -1.593232   0.000000
   93       -1.476795   0.000000
   94       -1.193590   0.000000
   95       -1.133803   0.000000
   96       -1.013837   0.000000
   97       -0.968940   0.000000
   98       -0.880286   0.000000
   99       -0.821322   0.000000
  100       -0.668835   0.000000
  101       -0.603488   0.000000
  102       -0.562381   0.000000
  103       -0.462067   0.000000
  104       -0.317585   0.000000
  105       -0.200734   0.000000
  106       -0.134191   0.000000
  107       -0.056591   0.000000
  108        0.069379   0.000000
  109        0.164955   0.000000
  110        0.219013   0.000000
  111        0.431040   0.000000
  112        0.541324   0.000000
  113        0.623453   0.000000
  114        0.811838   0.000000
  115        0.993458   0.000000
  116        1.089682   0.000000
  117        1.230844   0.000000
  118        1.693570   0.000000
  119        1.881108   0.000000
  120        2.206971   0.000000
 
  0.1250000E+00  0.1250000E+00  0.0000000E+00  0.3125000E-01
    1      -17.785533   1.000000
    2      -16.969723   1.000000
    3      -16.771695   1.000000
    4      -16.678210   1.000000
    5      -16.526223   1.000000
    6      -16.463583   1.000000
    7      -16.369322   1.000000
    8      -16.289582   1.000000
    9      -16.241400   1.000000
   10      -16.085816   1.000000
   11      -16.011497   1.000000
   12      -15.895702   1.000000
   13      -15.784607   1.000000
   14      -15.606446   1.000000
   15      -15.562066   1.000000
   16      -15.470380   1.000000
   17      -15.295920   1.000000
   18      -15.203115   1.000000
   19       -9.558418   1.000000
   20       -9.303222   1.000000
   21       -9.211126   1.000000
   22       -9.077475   1.000000
   23       -8.839484   1.000000
   24       -8.662632   1.000000
   25       -8.658713   1.000000
   26       -8.523625   1.000000
   27       -8.492693   1.000000
   28       -8.424351   1.000000
   29       -8.371886   1.000000
   30       -8.342431   1.000000
   31       -8.167533   1.000000
   32       -8.055152   1.000000
   33       -7.969816   1.000000
   34       -7.856149   1.000000
   35       -7.710865   1.000000
   36       -7.632121   1.000000
   37       -7.597772   1.000000
   38       -7.513542   1.000000
   39       -7.429681   1.000000
   40       -7.334628   1.000000
   41       -7.314046   1.000000
   42       -7.227804   1.000000
   43       -7.153870   1.000000
   44       -7.030434   1.000000
   45       -6.983851   1.000000
   46       -6.866917   1.000000
   47       -6.737642   1.000000
   48       -6.706823   1.000000
   49       -6.565280   1.000000
   50       -6.495097   1.000000
   51       -6.382026   1.000000
   52       -6.319280   1.000000
   53       -6.292026   1.000000
   54       -6.192079   1.000000
   55       -6.106408   1.000000
   56       -6.028601   1.000000
   57       -5.890539   1.000000
   58       -5.766730   1.000000
   59       -5.731825   1.000000
   60       -5.660409   1.000000
   61       -5.528429   1.000000
   62       -5.491774   1.000000
   63       -5.294729   1.000000
   64       -5.243968   1.000000
   65       -5.212746   1.000000
   66       -5.161058   1.000000
   67       -5.045120   1.000000
   68       -4.831035   1.000000
   69       -4.751921   1.000000
   70       -4.622726   1.000000
   71       -4.475301   1.000000
   72       -4.432811   1.000000
   73       -4.295383   1.000000
   74       -4.254380   1.000000
   75       -4.153573   1.000000
   76       -3.984964   1.000000
   77       -3.865270   0.999997
   78       -3.683684   0.999481
   79       -3.585093   0.995099
   80       -3.397908   0.896006
   81       -2.949979   0.028182
   82       -2.849195   0.004385
   83       -2.712205   0.000166
   84       -2.605079   0.000007
   85       -2.521673   0.000000
   86       -2.487696   0.000000
   87       -2.324122   0.000000
   88       -2.159314   0.000000
   89       -2.089369   0.000000
   90       -1.941861   0.000000
   91       -1.762222   0.000000
   92       -1.531543   0.000000
   93       -1.443287   0.000000
   94       -1.211155   0.000000
   95       -1.119811   0.000000
   96       -1.016897   0.000000
   97       -0.982553   0.000000
   98       -0.879520   0.000000
   99       -0.834756   0.000000
  100       -0.707588   0.000000
  101       -0.658649   0.000000
  102       -0.622361   0.000000
  103       -0.539746   0.000000
  104       -0.457427   0.000000
  105       -0.316018   0.000000
  106       -0.204526   0.000000
  107       -0.106190   0.000000
  108       -0.026969   0.000000
  109        0.146733   0.000000
  110        0.207416   0.000000
  111        0.516419   0.000000
  112        0.570543   0.000000
  113        0.643162   0.000000
  114        0.747389   0.000000
  115        1.036669   0.000000
  116        1.156765   0.000000
  117        1.396358   0.000000
  118        1.780613   0.000000
  119        1.953861   0.000000
  120        2.277895   0.000000
 
  0.2500000E+00  0.1250000E+00  0.0000000E+00  0.3125000E-01
    1      -17.692787   1.000000
    2      -17.141868   1.000000
    3      -16.823075   1.000000
    4      -16.723284   1.000000
    5      -16.543440   1.000000
    6      -16.458087   1.000000
    7      -16.327004   1.000000
    8      -16.251231   1.000000
    9      -16.207836   1.000000
   10      -16.105388   1.000000
   11      -15.959554   1.000000
   12      -15.850515   1.000000
   13      -15.747810   1.000000
   14      -15.569822   1.000000
   15      -15.544028   1.000000
   16      -15.464247   1.000000
   17      -15.336403   1.000000
   18      -15.234474   1.000000
   19       -9.717765   1.000000
   20       -9.468612   1.000000
   21       -9.238864   1.000000
   22       -9.143602   1.000000
   23       -8.808184   1.000000
   24       -8.721156   1.000000
   25       -8.602789   1.000000
   26       -8.529324   1.000000
   27       -8.490587   1.000000
   28       -8.345950   1.000000
   29       -8.319615   1.000000
   30       -8.235040   1.000000
   31       -8.155608   1.000000
   32       -8.071247   1.000000
   33       -7.977674   1.000000
   34       -7.906005   1.000000
   35       -7.797729   1.000000
   36       -7.600963   1.000000
   37       -7.481841   1.000000
   38       -7.424746   1.000000
   39       -7.370149   1.000000
   40       -7.321244   1.000000
   41       -7.247770   1.000000
   42       -7.166570   1.000000
   43       -7.094417   1.000000
   44       -6.983387   1.000000
   45       -6.936610   1.000000
   46       -6.832153   1.000000
   47       -6.732494   1.000000