       N       E                     dE             d eps       ncg     rms          rms(c)
DAV:   1     0.112413809843E+04    0.11241E+04   -0.35862E+04  8160   0.577E+02
DAV:   2    -0.171542167889E+01   -0.11259E+04   -0.10845E+04 11080   0.173E+02
DAV:   3    -0.199522385940E+03   -0.19781E+03   -0.18975E+03 10880   0.820E+01
DAV:   4    -0.208991874295E+03   -0.94695E+01   -0.91500E+01 12160   0.263E+01
DAV:   5    -0.209324507929E+03   -0.33263E+00   -0.33167E+00 11520   0.362E+00    0.275E+01
DAV:   6    -0.236764938188E+03   -0.27440E+02   -0.10602E+02 12760   0.604E+01    0.594E+01
DAV:   7    -0.196508074527E+03    0.40257E+02   -0.17672E+02 13080   0.152E+02    0.200E+01
DAV:   8    -0.189387523241E+03    0.71206E+01   -0.17480E+01 12040   0.127E+01    0.125E+01
DAV:   9    -0.188129086777E+03    0.12584E+01   -0.30478E+00 13080   0.648E+00    0.902E+00
DAV:  10    -0.187011212909E+03    0.11179E+01   -0.21774E+00 13520   0.716E+00    0.285E+00
DAV:  11    -0.186969175949E+03    0.42037E-01   -0.60843E-01 13320   0.260E+00    0.276E+00
DAV:  12    -0.187104942340E+03   -0.13577E+00   -0.86921E-01 12640   0.499E+00    0.512E+00
DAV:  13    -0.186887641385E+03    0.21730E+00   -0.60583E-01 12880   0.417E+00    0.218E+00
DAV:  14    -0.186862350888E+03    0.25290E-01   -0.13737E-01 13360   0.216E+00    0.177E+00
DAV:  15    -0.186839196535E+03    0.23154E-01   -0.74540E-02 12440   0.165E+00    0.826E-01
DAV:  16    -0.186832230051E+03    0.69665E-02   -0.11475E-02 12040   0.431E-01    0.468E-01
DAV:  17    -0.186830472894E+03    0.17572E-02   -0.78691E-03 12880   0.397E-01    0.239E-01
DAV:  18    -0.186829706924E+03    0.76597E-03   -0.29746E-03 12160   0.168E-01    0.203E-01
DAV:  19    -0.186829313232E+03    0.39369E-03   -0.10961E-03 11360   0.159E-01    0.468E-02
DAV:  20    -0.186830048711E+03   -0.73548E-03   -0.69749E-04  9080   0.574E-02    0.497E-02
DAV:  21    -0.186830628623E+03   -0.57991E-03   -0.25439E-04  8200   0.435E-02    0.412E-02
DAV:  22    -0.186831801388E+03   -0.11728E-02   -0.19742E-04  7520   0.533E-02    0.338E-02
DAV:  23    -0.186833034312E+03   -0.12329E-02   -0.13328E-04  7480   0.400E-02    0.107E-02
DAV:  24    -0.186833634700E+03   -0.60039E-03   -0.30530E-05  6680   0.137E-02    0.674E-03
DAV:  25    -0.186833996750E+03   -0.36205E-03   -0.14995E-05  5600   0.108E-02    0.468E-03
DAV:  26    -0.186834232800E+03   -0.23605E-03   -0.92065E-06  6800   0.726E-03    0.150E-03
DAV:  27    -0.186834332693E+03   -0.99893E-04   -0.37220E-06  7200   0.462E-03
   1 F= -.18683433E+03 E0= -.18666213E+03  d E =-.186834E+03
       N       E                     dE             d eps       ncg     rms          rms(c)
DAV:   1    -0.187451533774E+03   -0.61730E+00   -0.27164E+02  8160   0.350E+01    0.460E+00
DAV:   2    -0.189261198025E+03   -0.18097E+01   -0.20060E+01 12240   0.149E+01    0.802E+00
DAV:   3    -0.189362978052E+03   -0.10178E+00   -0.36585E+00 12480   0.118E+01    0.691E+00
DAV:   4    -0.188719822960E+03    0.64316E+00   -0.62148E-01 12680   0.487E+00    0.179E+00
DAV:   5    -0.188738941754E+03   -0.19119E-01   -0.32378E-01 11440   0.183E+00    0.266E+00
DAV:   6    -0.188699914015E+03    0.39028E-01   -0.38228E-01 12840   0.304E+00    0.293E+00
DAV:   7    -0.188662825748E+03    0.37088E-01   -0.24765E-01 12040   0.278E+00    0.175E+00
DAV:   8    -0.188631717012E+03    0.31109E-01   -0.65123E-02 12840   0.129E+00    0.650E-01
DAV:   9    -0.188629677236E+03    0.20398E-02   -0.14910E-02 12920   0.694E-01    0.509E-01
DAV:  10    -0.188627974627E+03    0.17026E-02   -0.46245E-03 13600   0.364E-01    0.182E-01
DAV:  11    -0.188627495130E+03    0.47950E-03   -0.21391E-03 12640   0.149E-01    0.113E-01
DAV:  12    -0.188627510270E+03   -0.15139E-04   -0.94737E-04 11000   0.943E-02
   2 F= -.18862751E+03 E0= -.18848558E+03  d E =-.179318E+01
       N       E                     dE             d eps       ncg     rms          rms(c)
DAV:   1    -0.190545884960E+03   -0.19184E+01   -0.30834E+01  9320   0.142E+01    0.448E+00
DAV:   2    -0.190566611271E+03   -0.20726E-01   -0.28822E+00 11400   0.992E+00    0.763E+00
DAV:   3    -0.190010218902E+03    0.55639E+00   -0.13343E+00 12360   0.872E+00    0.408E+00
DAV:   4    -0.189810323041E+03    0.19990E+00   -0.67655E-01 12720   0.397E+00    0.250E+00
DAV:   5    -0.189734551357E+03    0.75772E-01   -0.31070E-01 11520   0.214E+00    0.150E+00
DAV:   6    -0.189713565446E+03    0.20986E-01   -0.82312E-02 11920   0.168E+00    0.930E-01
DAV:   7    -0.189705645709E+03    0.79197E-02   -0.16940E-02 12640   0.728E-01    0.194E-01
DAV:   8    -0.189705708696E+03   -0.62987E-04   -0.25319E-03 11080   0.174E-01    0.151E-01
DAV:   9    -0.189705910730E+03   -0.20203E-03   -0.11186E-03 10880   0.178E-01    0.180E-01
DAV:  10    -0.189706273638E+03   -0.36291E-03   -0.15317E-03 10480   0.270E-01    0.237E-01
DAV:  11    -0.189705716524E+03    0.55711E-03   -0.83743E-04  9960   0.177E-01    0.261E-02
DAV:  12    -0.189705745072E+03   -0.28548E-04   -0.84130E-05  6280   0.337E-02
   3 F= -.18970575E+03 E0= -.18958638E+03  d E =-.107823E+01
       N       E                     dE             d eps       ncg     rms          rms(c)
DAV:   1    -0.191210673674E+03   -0.15050E+01   -0.66582E+01  8160   0.187E+01    0.457E+00
DAV:   2    -0.191158151898E+03    0.52522E-01   -0.53471E+00 13520   0.879E+00    0.561E+00
DAV:   3    -0.191080006217E+03    0.78146E-01   -0.15393E+00 12040   0.918E+00    0.582E+00
DAV:   4    -0.190760400677E+03    0.31961E+00   -0.10841E+00 13080   0.644E+00    0.276E+00
DAV:   5    -0.190745273162E+03    0.15128E-01   -0.41590E-01 12200   0.411E+00    0.301E+00
DAV:   6    -0.190641897564E+03    0.10338E+00   -0.18796E-01 12240   0.312E+00    0.963E-01
DAV:   7    -0.190635472304E+03    0.64253E-02   -0.36256E-02 12520   0.100E+00    0.502E-01
DAV:   8    -0.190633774010E+03    0.16983E-02   -0.11199E-02 11240   0.670E-01    0.506E-01
DAV:   9    -0.190631424609E+03    0.23494E-02   -0.40466E-03 11520   0.461E-01    0.144E-01
DAV:  10    -0.190631761955E+03   -0.33735E-03   -0.11955E-03 10280   0.131E-01    0.124E-01
DAV:  11    -0.190631566186E+03    0.19577E-03   -0.78415E-04 10800   0.107E-01    0.465E-02
DAV:  12    -0.190631568490E+03   -0.23044E-05   -0.11517E-04  7080   0.435E-02
   4 F= -.19063157E+03 E0= -.19053170E+03  d E =-.925823E+00
       N       E                     dE             d eps       ncg     rms          rms(c)
DAV:   1    -0.192081282559E+03   -0.14497E+01   -0.14190E+02  8160   0.269E+01    0.590E+00
DAV:   2    -0.191884486961E+03    0.19680E+00   -0.98877E+00 12600   0.983E+00    0.529E+00
DAV:   3    -0.192167004104E+03   -0.28252E+00   -0.24605E+00 10920   0.114E+01    0.942E+00
DAV:   4    -0.191533103398E+03    0.63390E+00   -0.30006E+00 12120   0.118E+01    0.413E+00
DAV:   5    -0.191458338976E+03    0.74764E-01   -0.86312E-01 12240   0.627E+00    0.374E+00
DAV:   6    -0.191265800651E+03    0.19254E+00   -0.29399E-01 12240   0.402E+00    0.984E-01
DAV:   7    -0.191259152150E+03    0.66485E-02   -0.54113E-02 12160   0.112E+00    0.547E-01
DAV:   8    -0.191254335801E+03    0.48163E-02   -0.11049E-02 10600   0.519E-01    0.287E-01
DAV:   9    -0.191254907017E+03   -0.57122E-03   -0.43175E-03 12680   0.482E-01    0.346E-01
DAV:  10    -0.191254213391E+03    0.69363E-03   -0.31328E-03 11280   0.354E-01    0.104E-01
DAV:  11    -0.191254123508E+03    0.89883E-04   -0.70682E-04 10720   0.103E-01
   5 F= -.19125412E+03 E0= -.19116173E+03  d E =-.622555E+00
       N       E                     dE             d eps       ncg     rms          rms(c)
DAV:   1    -0.191313432067E+03   -0.59219E-01   -0.51691E+00  8160   0.480E+00    0.637E-01
DAV:   2    -0.191372045541E+03   -0.58613E-01   -0.23680E-01 13520   0.267E+00    0.225E+00
DAV:   3    -0.191322935366E+03    0.49110E-01   -0.11402E-01 11800   0.235E+00    0.516E-01
DAV:   4    -0.191322688388E+03    0.24698E-03   -0.13075E-02 11480   0.780E-01    0.532E-01
DAV:   5    -0.191319852273E+03    0.28361E-02   -0.63291E-03 11320   0.603E-01    0.216E-01
DAV:   6    -0.191319383210E+03    0.46906E-03   -0.17318E-03 11040   0.221E-01    0.121E-01
DAV:   7    -0.191319780990E+03   -0.39778E-03   -0.17294E-03 11640   0.283E-01    0.228E-01
DAV:   8    -0.191319246938E+03    0.53405E-03   -0.10578E-03  9720   0.249E-01    0.601E-02
DAV:   9    -0.191319215237E+03    0.31702E-04   -0.10228E-04  6160   0.586E-02
   6 F= -.19131922E+03 E0= -.19122353E+03  d E =-.650917E-01
       N       E                     dE             d eps       ncg     rms          rms(c)
DAV:   1    -0.191362169223E+03   -0.42922E-01   -0.25466E+00  8160   0.337E+00    0.428E-01
DAV:   2    -0.191386192943E+03   -0.24024E-01   -0.99856E-02 13600   0.171E+00    0.144E+00
DAV:   3    -0.191365770073E+03    0.20423E-01   -0.46980E-02 12000   0.152E+00    0.351E-01
DAV:   4    -0.191365837609E+03   -0.67537E-04   -0.61256E-03 11240   0.530E-01    0.374E-01
DAV:   5    -0.191364450059E+03    0.13875E-02   -0.31025E-03 11040   0.421E-01    0.149E-01
DAV:   6    -0.191364250798E+03    0.19926E-03   -0.87599E-04 10480   0.157E-01    0.857E-02
DAV:   7    -0.191364397428E+03   -0.14663E-03   -0.74855E-04 10400   0.181E-01    0.143E-01
DAV:   8    -0.191364187896E+03    0.20953E-03   -0.43201E-04  8840   0.160E-01    0.416E-02
DAV:   9    -0.191364176339E+03    0.11557E-04   -0.50038E-05  6240   0.423E-02
   7 F= -.19136418E+03 E0= -.19126647E+03  d E =-.449611E-01
       N       E                     dE             d eps       ncg     rms          rms(c)
DAV:   1    -0.191351929152E+03    0.12259E-01   -0.18388E-01  8160   0.910E-01    0.116E-01
DAV:   2    -0.191353453635E+03   -0.15245E-02   -0.68974E-03 13600   0.459E-01    0.346E-01
DAV:   3    -0.191352121108E+03    0.13325E-02   -0.25389E-03 11080   0.377E-01    0.853E-02
DAV:   4    -0.191352152295E+03   -0.31187E-04   -0.41683E-04  8600   0.137E-01
   8 F= -.19135215E+03 E0= -.19125492E+03  d E =0.120240E-01
       N       E                     dE             d eps       ncg     rms          rms(c)
DAV:   1    -0.191326840115E+03    0.25281E-01   -0.13942E+00  8160   0.250E+00    0.279E-01
DAV:   2    -0.191331849382E+03   -0.50093E-02   -0.38693E-02 13560   0.803E-01    0.578E-01
DAV:   3    -0.191329075926E+03    0.27735E-02   -0.11891E-02 12480   0.769E-01    0.352E-01
DAV:   4    -0.191328009399E+03    0.10665E-02   -0.33599E-03 11600   0.367E-01    0.164E-01
DAV:   5    -0.191327728734E+03    0.28067E-03   -0.10454E-03 10520   0.194E-01    0.126E-01
DAV:   6    -0.191327726859E+03    0.18750E-05   -0.89969E-04 10360   0.222E-01
   9 F= -.19132773E+03 E0= -.19123116E+03  d E =0.244254E-01
       N       E                     dE             d eps       ncg     rms          rms(c)
DAV:   1    -0.191376660240E+03   -0.48932E-01   -0.39057E+00  8160   0.417E+00    0.492E-01
DAV:   2    -0.191403760316E+03   -0.27100E-01   -0.13112E-01 13520   0.166E+00    0.150E+00
DAV:   3    -0.191382503080E+03    0.21257E-01   -0.59991E-02 11880   0.167E+00    0.484E-01
DAV:   4    -0.191381428512E+03    0.10746E-02   -0.88609E-03 11080   0.602E-01    0.401E-01
DAV:   5    -0.191379973401E+03    0.14551E-02   -0.43292E-03 11080   0.496E-01    0.213E-01
DAV:   6    -0.191379537949E+03    0.43545E-03   -0.15509E-03 10680   0.223E-01    0.114E-01
DAV:   7    -0.191379727535E+03   -0.18959E-03   -0.12061E-03 10520   0.229E-01    0.175E-01
DAV:   8    -0.191379418515E+03    0.30902E-03   -0.69417E-04  8840   0.203E-01    0.587E-02
DAV:   9    -0.191379383148E+03    0.35367E-04   -0.88054E-05  6000   0.559E-02
  10 F= -.19137938E+03 E0= -.19128044E+03  d E =-.516563E-01
       N       E                     dE             d eps       ncg     rms          rms(c)
DAV:   1    -0.191391283369E+03   -0.11865E-01   -0.21113E-01  8160   0.980E-01    0.114E-01
DAV:   2    -0.191392294360E+03   -0.10110E-02   -0.67137E-03 13600   0.386E-01    0.262E-01
DAV:   3    -0.191391533740E+03    0.76062E-03   -0.19124E-03 11160   0.325E-01    0.905E-02
DAV:   4    -0.191391496460E+03    0.37280E-04   -0.34500E-04  7360   0.110E-01
  11 F= -.19139150E+03 E0= -.19129219E+03  d E =-.121133E-01
       N       E                     dE             d eps       ncg     rms          rms(c)
DAV:   1    -0.191355112044E+03    0.36422E-01   -0.57335E+00  8160   0.510E+00    0.665E-01
DAV:   2    -0.191408235866E+03   -0.53124E-01   -0.21826E-01 13600   0.256E+00    0.216E+00
DAV:   3    -0.191361396530E+03    0.46839E-01   -0.10005E-01 12360   0.226E+00    0.598E-01
DAV:   4    -0.191359863096E+03    0.15334E-02   -0.15686E-02 11040   0.798E-01    0.514E-01
DAV:   5    -0.191357683873E+03    0.21792E-02   -0.85391E-03 11560   0.670E-01    0.327E-01
DAV:   6    -0.191356393972E+03    0.12899E-02   -0.34859E-03 11560   0.373E-01    0.144E-01
DAV:   7    -0.191356867382E+03   -0.47341E-03   -0.23601E-03 11640   0.335E-01    0.253E-01
DAV:   8    -0.191356196925E+03    0.67046E-03   -0.13395E-03  9760   0.276E-01    0.624E-02
DAV:   9    -0.191356148298E+03    0.48627E-04   -0.11946E-04  5720   0.608E-02
  12 F= -.19135615E+03 E0= -.19125749E+03  d E =0.353482E-01
       N       E                     dE             d eps       ncg     rms          rms(c)
DAV:   1    -0.191420194941E+03   -0.63998E-01   -0.62141E+00  8160   0.535E+00    0.730E-01
DAV:   2    -0.191468886148E+03   -0.48691E-01   -0.24944E-01 13560   0.268E+00    0.206E+00
DAV:   3    -0.191426163438E+03    0.42723E-01   -0.10705E-01 12280   0.232E+00    0.577E-01
DAV:   4    -0.191426304842E+03   -0.14140E-03   -0.19663E-02 12280   0.916E-01    0.687E-01
DAV:   5    -0.191422315848E+03    0.39890E-02   -0.13655E-02 12240   0.852E-01    0.387E-01
DAV:   6    -0.191420792901E+03    0.15229E-02   -0.50299E-03 11400   0.421E-01    0.198E-01
DAV:   7    -0.191421249428E+03   -0.45653E-03   -0.35092E-03 12080   0.420E-01    0.297E-01
DAV:   8    -0.191420327992E+03    0.92144E-03   -0.17287E-03 10120   0.310E-01    0.673E-02
DAV:   9    -0.191420260970E+03    0.67022E-04   -0.15973E-04  5960   0.656E-02
  13 F= -.19142026E+03 E0= -.19131896E+03  d E =-.641127E-01
       N       E                     dE             d eps       ncg     rms          rms(c)
DAV:   1    -0.191448628877E+03   -0.28301E-01   -0.13011E+00  8160   0.241E+00    0.291E-01
DAV:   2    -0.191459069463E+03   -0.10441E-01   -0.46889E-02 13600   0.104E+00    0.971E-01
DAV:   3    -0.191450287916E+03    0.87815E-02   -0.21463E-02 12240   0.997E-01    0.237E-01
DAV:   4    -0.191450127954E+03    0.15996E-03   -0.21717E-03 11120   0.277E-01    0.214E-01
DAV:   5    -0.191449761380E+03    0.36657E-03   -0.14483E-03 10640   0.287E-01    0.138E-01
DAV:   6    -0.191449661046E+03    0.10033E-03   -0.73997E-04  9920   0.173E-01    0.865E-02
DAV:   7    -0.191449678407E+03   -0.17361E-04   -0.44255E-04  9520   0.152E-01
  14 F= -.19144968E+03 E0= -.19134805E+03  d E =-.294174E-01
       N       E                     dE             d eps       ncg     rms          rms(c)
DAV:   1    -0.191491782057E+03   -0.42121E-01   -0.25696E+00  8160   0.342E+00    0.393E-01
DAV:   2    -0.191506066299E+03   -0.14284E-01   -0.85317E-02 13600   0.134E+00    0.107E+00
DAV:   3    -0.191495717013E+03    0.10349E-01   -0.32638E-02 12200   0.122E+00    0.381E-01
DAV:   4    -0.191495240451E+03    0.47656E-03   -0.54545E-03 11360   0.484E-01    0.331E-01
DAV:   5    -0.191494216852E+03    0.10236E-02   -0.31034E-03 11440   0.423E-01    0.188E-01
DAV:   6    -0.191493976457E+03    0.24040E-03   -0.14432E-03 10120   0.235E-01    0.121E-01
DAV:   7    -0.191494122951E+03   -0.14649E-03   -0.10672E-03 10520   0.238E-01    0.169E-01
DAV:   8    -0.191493796372E+03    0.32658E-03   -0.50287E-04  8640   0.174E-01    0.306E-02
DAV:   9    -0.191493793566E+03    0.28063E-05   -0.55719E-05  5880   0.361E-02
  15 F= -.19149379E+03 E0= -.19139203E+03  d E =-.441152E-01
       N       E                     dE             d eps       ncg     rms          rms(c)
DAV:   1    -0.191471498445E+03    0.22298E-01   -0.65281E-01  8160   0.173E+00    0.196E-01
DAV:   2    -0.191473339132E+03   -0.18407E-02   -0.18716E-02 13320   0.526E-01    0.333E-01
DAV:   3    -0.191472408313E+03    0.93082E-03   -0.45719E-03 12400   0.486E-01    0.219E-01
DAV:   4    -0.191472132895E+03    0.27542E-03   -0.17370E-03 10080   0.266E-01    0.164E-01
DAV:   5    -0.191471926512E+03    0.20638E-03   -0.92002E-04  9440   0.220E-01    0.119E-01
DAV:   6    -0.191471814778E+03    0.11173E-03   -0.46817E-04  8320   0.146E-01    0.579E-02
DAV:   7    -0.191471814144E+03    0.63357E-06   -0.18767E-04  6720   0.909E-02
  16 F= -.19147181E+03 E0= -.19136989E+03  d E =0.219794E-01
       N       E                     dE             d eps       ncg     rms          rms(c)
DAV:   1    -0.191551713521E+03   -0.79899E-01   -0.84818E+00  8160   0.626E+00    0.771E-01
DAV:   2    -0.191595366205E+03   -0.43653E-01   -0.29714E-01 13400   0.251E+00    0.195E+00
DAV:   3    -0.191563468488E+03    0.31898E-01   -0.11651E-01 12000   0.227E+00    0.739E-01
DAV:   4    -0.191562035784E+03    0.14327E-02   -0.23828E-02 12320   0.107E+00    0.738E-01
DAV:   5    -0.191556628973E+03    0.54068E-02   -0.14533E-02 12120   0.921E-01    0.367E-01
DAV:   6    -0.191555520984E+03    0.11080E-02   -0.61418E-03 10960   0.453E-01    0.228E-01
DAV:   7    -0.191555720586E+03   -0.19960E-03   -0.38331E-03 12040   0.441E-01    0.290E-01
DAV:   8    -0.191554800990E+03    0.91960E-03   -0.17271E-03 10200   0.317E-01    0.702E-02
DAV:   9    -0.191554731426E+03    0.69564E-04   -0.21061E-04  6520   0.722E-02
  17 F= -.19155473E+03 E0= -.19145397E+03  d E =-.829173E-01
       N       E                     dE             d eps       ncg     rms          rms(c)
DAV:   1    -0.191587619710E+03   -0.32819E-01   -0.14436E+00  8160   0.255E+00    0.267E-01
DAV:   2    -0.191592396682E+03   -0.47770E-02   -0.41862E-02 13000   0.761E-01    0.543E-01
DAV:   3    -0.191590259692E+03    0.21370E-02   -0.11364E-02 12200   0.728E-01    0.310E-01
DAV:   4    -0.191589443739E+03    0.81595E-03   -0.21618E-03 11240   0.292E-01    0.150E-01
DAV:   5    -0.191589356439E+03    0.87300E-04   -0.11594E-03 10560   0.243E-01    0.155E-01
DAV:   6    -0.191589280168E+03    0.76271E-04   -0.10063E-03 10480   0.226E-01    0.110E-01
DAV:   7    -0.191589162513E+03    0.11765E-03   -0.37804E-04  8280   0.130E-01    0.621E-02
DAV:   8    -0.191589124780E+03    0.37733E-04   -0.10146E-04  6720   0.836E-02
  18 F= -.19158912E+03 E0= -.19148957E+03  d E =-.343934E-01
       N       E                     dE             d eps       ncg     rms          rms(c)
DAV:   1    -0.191618262422E+03   -0.29100E-01   -0.10862E+00  8160   0.222E+00    0.225E-01
DAV:   2    -0.191620539222E+03   -0.22768E-02   -0.29165E-02 12240   0.541E-01    0.302E-01
DAV:   3    -0.191620637228E+03   -0.98005E-04   -0.63214E-03 11560   0.547E-01    0.335E-01
DAV:   4    -0.191619576907E+03    0.10603E-02   -0.22114E-03 10320   0.327E-01    0.123E-01
DAV:   5    -0.191619499941E+03    0.76967E-04   -0.69886E-04  9640   0.190E-01
  19 F= -.19161950E+03 E0= -.19152132E+03  d E =-.303752E-01
       N       E                     dE             d eps       ncg     rms          rms(c)
DAV:   1    -0.191602108233E+03    0.17469E-01   -0.38358E-01  8160   0.136E+00    0.189E-01
DAV:   2    -0.191606456692E+03   -0.43485E-02   -0.18024E-02 13240   0.738E-01    0.602E-01
DAV:   3    -0.191602478466E+03    0.39782E-02   -0.82744E-03 10800   0.678E-01    0.140E-01
DAV:   4    -0.191602340772E+03    0.13769E-03   -0.96172E-04  9560   0.173E-01    0.101E-01
DAV:   5    -0.191602297327E+03    0.43445E-04   -0.53024E-04  8720   0.161E-01
  20 F= -.19160230E+03 E0= -.19150301E+03  d E =0.172026E-01
       N       E                     dE             d eps       ncg     rms          rms(c)
DAV:   1    -0.191459232663E+03    0.14311E+00   -0.33648E+01  8160   0.125E+01    0.153E+00
DAV:   2    -0.191604299696E+03   -0.14507E+00   -0.11313E+00 13400   0.467E+00    0.321E+00
DAV:   3    -0.191506502211E+03    0.97797E-01   -0.33178E-01 12240   0.419E+00    0.147E+00
DAV:   4    -0.191497574968E+03    0.89272E-02   -0.89405E-02 12280   0.202E+00    0.135E+00
DAV:   5    -0.191481729935E+03    0.15845E-01   -0.53324E-02 12240   0.174E+00    0.834E-01
DAV:   6    -0.191477389246E+03    0.43407E-02   -0.28597E-02 12560   0.112E+00    0.581E-01
DAV:   7    -0.191477053389E+03    0.33586E-03   -0.18602E-02 12280   0.934E-01    0.580E-01
DAV:   8    -0.191473239847E+03    0.38135E-02   -0.70911E-03 11880   0.605E-01    0.122E-01
DAV:   9    -0.191473036266E+03    0.20358E-03   -0.90206E-04 10640   0.129E-01    0.488E-02
DAV:  10    -0.191473026673E+03    0.95926E-05   -0.25735E-04  8320   0.546E-02
  21 F= -.19147303E+03 E0= -.19137344E+03  d E =0.129271E+00
       N       E                     dE             d eps       ncg     rms          rms(c)
DAV:   1    -0.191654535421E+03   -0.18150E+00   -0.74071E+01  8160   0.189E+01    0.222E+00
DAV:   2    -0.191932445131E+03   -0.27791E+00   -0.24331E+00 12680   0.629E+00    0.455E+00
DAV:   3    -0.191781472816E+03    0.15097E+00   -0.81876E-01 12240   0.624E+00    0.225E+00
DAV:   4    -0.191736982211E+03    0.44491E-01   -0.16253E-01 12320   0.282E+00    0.168E+00
DAV:   5    -0.191712880233E+03    0.24102E-01   -0.10083E-01 12120   0.242E+00    0.130E+00
DAV:   6    -0.191698570285E+03    0.14310E-01   -0.67784E-02 12640   0.175E+00    0.698E-01
DAV:   7    -0.191696621758E+03    0.19485E-02   -0.32927E-02 12000   0.112E+00    0.676E-01
DAV:   8    -0.191691721590E+03    0.49002E-02   -0.12610E-02 12040   0.860E-01    0.248E-01
DAV:   9    -0.191690812852E+03    0.90874E-03   -0.18699E-03 11720   0.255E-01    0.819E-02
DAV:  10    -0.191690730524E+03    0.82328E-04   -0.74795E-04 10680   0.817E-02
  22 F= -.19169073E+03 E0= -.19159644E+03  d E =-.217704E+00
       N       E                     dE             d eps       ncg     rms          rms(c)
DAV:   1    -0.191707393294E+03   -0.16580E-01   -0.91118E-01  8160   0.202E+00    0.246E-01
DAV:   2    -0.191713884203E+03   -0.64909E-02   -0.34822E-02 13120   0.957E-01    0.691E-01
DAV:   3    -0.191708699978E+03    0.51842E-02   -0.11325E-02 12280   0.805E-01    0.187E-01
DAV:   4    -0.191708529208E+03    0.17077E-03   -0.13525E-03  9800   0.246E-01    0.159E-01
DAV:   5    -0.191708424801E+03    0.10441E-03   -0.10398E-03 11520   0.258E-01    0.140E-01
DAV:   6    -0.191708319353E+03    0.10545E-03   -0.70157E-04  9120   0.179E-01    0.887E-02
DAV:   7    -0.191708301579E+03    0.17774E-04   -0.36636E-04  8680   0.154E-01
  23 F= -.19170830E+03 E0= -.19161452E+03  d E =-.175711E-01
       N       E                     dE             d eps       ncg     rms          rms(c)
DAV:   1    -0.191753245031E+03   -0.44926E-01   -0.28482E+00  8160   0.362E+00    0.378E-01
DAV:   2    -0.191759322235E+03   -0.60772E-02   -0.79248E-02 12000   0.907E-01    0.484E-01
DAV:   3    -0.191759209913E+03    0.11232E-03   -0.15340E-02 12360   0.920E-01    0.505E-01
DAV:   4    -0.191756533768E+03    0.26761E-02   -0.57054E-03 12440   0.546E-01    0.184E-01
DAV:   5    -0.191756375696E+03    0.15807E-03   -0.19418E-03 10800   0.291E-01    0.198E-01
DAV:   6    -0.191756390367E+03   -0.14672E-04   -0.18795E-03 11480   0.342E-01    0.185E-01
DAV:   7    -0.191755975152E+03    0.41522E-03   -0.75216E-04  8920   0.194E-01    0.527E-02
DAV:   8    -0.191755961889E+03    0.13263E-04   -0.12003E-04  6320   0.853E-02
  24 F= -.19175596E+03 E0= -.19166542E+03  d E =-.476603E-01
       N       E                     dE             d eps       ncg     rms          rms(c)
DAV:   1    -0.191813162137E+03   -0.57187E-01   -0.52332E+00  8160   0.490E+00    0.508E-01
DAV:   2    -0.191826695372E+03   -0.13533E-01   -0.15721E-01 11880   0.131E+00    0.710E-01
DAV:   3    -0.191825365820E+03    0.13296E-02   -0.28126E-02 12360   0.127E+00    0.657E-01
DAV:   4    -0.191820760262E+03    0.46056E-02   -0.88633E-03 12280   0.687E-01    0.229E-01
DAV:   5    -0.191820633852E+03    0.12641E-03   -0.29580E-03 11760   0.388E-01    0.257E-01
DAV:   6    -0.191820591480E+03    0.42371E-04   -0.30175E-03 12960   0.447E-01    0.227E-01
DAV:   7    -0.191819934147E+03    0.65733E-03   -0.13128E-03  9840   0.257E-01    0.817E-02
DAV:   8    -0.191819885491E+03    0.48656E-04   -0.23845E-04  8120   0.120E-01
  25 F= -.19181989E+03 E0= -.19173376E+03  d E =-.639236E-01
       N       E                     dE             d eps       ncg     rms          rms(c)
DAV:   1    -0.191912057323E+03   -0.92123E-01   -0.23389E+01  8160   0.104E+01    0.109E+00
DAV:   2    -0.191978762259E+03   -0.66705E-01   -0.76298E-01 11800   0.285E+00    0.149E+00
DAV:   3    -0.191973225672E+03    0.55366E-02   -0.11732E-01 12240   0.274E+00    0.138E+00
DAV:   4    -0.191951631088E+03    0.21595E-01   -0.37053E-02 12320   0.149E+00    0.467E-01
DAV:   5    -0.191950691192E+03    0.93990E-03   -0.12326E-02 12000   0.759E-01    0.492E-01
DAV:   6    -0.191950790248E+03   -0.99056E-04   -0.12294E-02 12920   0.926E-01    0.469E-01
DAV:   7    -0.191947705891E+03    0.30844E-02   -0.52447E-03 11840   0.534E-01    0.143E-01
DAV:   8    -0.191947619830E+03    0.86061E-04   -0.99342E-04 10760   0.237E-01
  26 F= -.19194762E+03 E0= -.19187000E+03  d E =-.127734E+00
       N       E                     dE             d eps       ncg     rms          rms(c)
DAV:   1    -0.191954402257E+03   -0.66964E-02   -0.84989E-01  8160   0.204E+00    0.304E-01
DAV:   2    -0.191955603135E+03   -0.12009E-02   -0.33708E-02 11840   0.653E-01    0.334E-01
DAV:   3    -0.191955448269E+03    0.15487E-03   -0.61960E-03 11600   0.640E-01    0.340E-01
DAV:   4    -0.191954184143E+03    0.12641E-02   -0.35344E-03 11240   0.460E-01    0.182E-01
DAV:   5    -0.191954176436E+03    0.77069E-05   -0.18158E-03 12560   0.334E-01    0.201E-01
DAV:   6    -0.191953746445E+03    0.42999E-03   -0.98236E-04 10200   0.265E-01    0.617E-02
DAV:   7    -0.191953716582E+03    0.29862E-04   -0.12616E-04  6400   0.820E-02
  27 F= -.19195372E+03 E0= -.19187711E+03  d E =-.609675E-02
       N       E                     dE             d eps       ncg     rms          rms(c)
DAV:   1    -0.191988110183E+03   -0.34364E-01   -0.27728E+00  8160   0.359E+00    0.374E-01
DAV:   2    -0.191993879980E+03   -0.57698E-02   -0.74510E-02 11160   0.890E-01    0.488E-01
DAV:   3    -0.191993367151E+03    0.51283E-03   -0.11093E-02 12120   0.902E-01    0.481E-01
DAV:   4    -0.191990667026E+03    0.27001E-02   -0.40636E-03 12000   0.502E-01    0.132E-01
DAV:   5    -0.191990584698E+03    0.82327E-04   -0.15858E-03 10440   0.197E-01    0.122E-01
DAV:   6    -0.191990583960E+03    0.73851E-06   -0.10919E-03 10880   0.247E-01    0.147E-01
DAV:   7    -0.191990315079E+03    0.26888E-03   -0.39240E-04  9240   0.169E-01    0.302E-02
DAV:   8    -0.191990323458E+03   -0.83789E-05   -0.57790E-05  6000   0.603E-02
  28 F= -.19199032E+03 E0= -.19191615E+03  d E =-.366069E-01
       N       E                     dE             d eps       ncg     rms          rms(c)
DAV:   1    -0.192034053495E+03   -0.43738E-01   -0.74050E+00  8160   0.581E+00    0.619E-01
DAV:   2    -0.192054785025E+03   -0.20732E-01   -0.26388E-01 11840   0.150E+00    0.654E-01
DAV:   3    -0.192057691927E+03   -0.29069E-02   -0.28651E-02 12120   0.145E+00    0.892E-01
DAV:   4    -0.192048933609E+03    0.87583E-02   -0.12591E-02 12040   0.982E-01    0.237E-01
DAV:   5    -0.192048688856E+03    0.24475E-03   -0.41216E-03 11720   0.362E-01    0.222E-01
DAV:   6    -0.192048970865E+03   -0.28201E-03   -0.34600E-03 11120   0.463E-01    0.282E-01
DAV:   7    -0.192047950891E+03    0.10200E-02   -0.14577E-03 11360   0.314E-01    0.554E-02
DAV:   8    -0.192047965138E+03   -0.14247E-04   -0.18811E-04  6960   0.109E-01
  29 F= -.19204797E+03 E0= -.19197745E+03  d E =-.576417E-01
       N       E                     dE             d eps       ncg     rms          rms(c)
DAV:   1    -0.192084272481E+03   -0.36322E-01   -0.19066E+01  8160   0.929E+00    0.976E-01
DAV:   2    -0.192131345943E+03   -0.47073E-01   -0.64151E-01 12000   0.223E+00    0.842E-01
DAV:   3    -0.192140850551E+03   -0.95046E-02   -0.64246E-02 12560   0.207E+00    0.132E+00
DAV:   4    -0.192121639293E+03    0.19211E-01   -0.31128E-02 12080   0.162E+00    0.433E-01
DAV:   5    -0.192120224480E+03    0.14148E-02   -0.93755E-03 12600   0.634E-01    0.355E-01
DAV:   6    -0.192121213286E+03   -0.98881E-03   -0.82966E-03 12680   0.758E-01    0.451E-01
DAV:   7    -0.192118650266E+03    0.25630E-02   -0.36996E-03 12680   0.508E-01    0.102E-01
DAV:   8    -0.192118621968E+03    0.28297E-04   -0.60382E-04 10400   0.184E-01
  30 F= -.19211862E+03 E0= -.19205301E+03  d E =-.706568E-01
       N       E                     dE             d eps       ncg     rms          rms(c)
DAV:   1    -0.192134240863E+03   -0.15591E-01   -0.33395E+00  8160   0.386E+00    0.437E-01
DAV:   2    -0.192143854318E+03   -0.96135E-02   -0.12589E-01 12280   0.102E+00    0.410E-01
DAV:   3    -0.192144535785E+03   -0.68147E-03   -0.13407E-02 12520   0.931E-01    0.498E-01
DAV:   4    -0.192141549651E+03    0.29861E-02   -0.48435E-03 12600   0.631E-01    0.179E-01
DAV:   5    -0.192141395086E+03    0.15456E-03   -0.15774E-03 12400   0.274E-01    0.163E-01
DAV:   6    -0.192141584673E+03   -0.18959E-03   -0.14252E-03 11280   0.345E-01    0.192E-01
DAV:   7    -0.192141130104E+03    0.45457E-03   -0.63919E-04  9920   0.217E-01    0.356E-02
DAV:   8    -0.192141122254E+03    0.78501E-05   -0.75949E-05  6440   0.523E-02
  31 F= -.19214112E+03 E0= -.19207680E+03  d E =-.225003E-01
       N       E                     dE             d eps       ncg     rms          rms(c)
DAV:   1    -0.192152155007E+03   -0.11025E-01   -0.26952E+00  8160   0.349E+00    0.388E-01
DAV:   2    -0.192158895595E+03   -0.67406E-02   -0.99120E-02 12240   0.861E-01    0.278E-01
DAV:   3    -0.192160316302E+03   -0.14207E-02   -0.85514E-03 12600   0.716E-01    0.478E-01
DAV:   4    -0.192157758936E+03    0.25574E-02   -0.44561E-03 12640   0.613E-01    0.172E-01
DAV:   5    -0.192157486503E+03    0.27243E-03   -0.16053E-03 10840   0.225E-01    0.115E-01
DAV:   6    -0.192157618125E+03   -0.13162E-03   -0.10023E-03 11280   0.238E-01    0.152E-01
DAV:   7    -0.192157337941E+03    0.28018E-03   -0.42500E-04  9240   0.193E-01    0.388E-02
DAV:   8    -0.192157326968E+03    0.10973E-04   -0.58057E-05  6400   0.572E-02
  32 F= -.19215733E+03 E0= -.19209369E+03  d E =-.162047E-01
       N       E                     dE             d eps       ncg     rms          rms(c)
DAV:   1    -0.192161348041E+03   -0.40101E-02   -0.27132E-01  8240   0.111E+00    0.146E-01
DAV:   2    -0.192162441686E+03   -0.10936E-02   -0.11678E-02 12920   0.475E-01    0.240E-01
DAV:   3    -0.192161848577E+03    0.59311E-03   -0.17412E-03 12600   0.364E-01    0.109E-01
DAV:   4    -0.192161690237E+03    0.15834E-03   -0.38247E-04  8720   0.148E-01    0.645E-02
DAV:   5    -0.192161732328E+03   -0.42091E-04   -0.33268E-04  9200   0.142E-01
  33 F= -.19216173E+03 E0= -.19209848E+03  d E =-.440536E-02
       N       E                     dE             d eps       ncg     rms          rms(c)
DAV:   1    -0.192165866771E+03   -0.41765E-02   -0.33783E-01  8160   0.124E+00    0.140E-01
DAV:   2    -0.192166809164E+03   -0.94239E-03   -0.13176E-02 11880   0.355E-01    0.127E-01
DAV:   3    -0.192167046779E+03   -0.23761E-03   -0.14516E-03 12400   0.323E-01    0.194E-01
DAV:   4    -0.192166578076E+03    0.46870E-03   -0.58004E-04  9240   0.224E-01    0.458E-02
DAV:   5    -0.192166629567E+03   -0.51491E-04   -0.17571E-04  6920   0.890E-02
  34 F= -.19216663E+03 E0= -.19210363E+03  d E =-.489724E-02
       N       E                     dE             d eps       ncg     rms          rms(c)
DAV:   1    -0.192172861245E+03   -0.62832E-02   -0.16535E+00  8160   0.273E+00    0.302E-01
DAV:   2    -0.192177256170E+03   -0.43949E-02   -0.60796E-02 11760   0.711E-01    0.264E-01
DAV:   3    -0.192177918491E+03   -0.66232E-03   -0.59104E-03 11440   0.637E-01    0.383E-01
DAV:   4    -0.192176231995E+03    0.16865E-02   -0.24918E-03 10800   0.469E-01    0.131E-01
DAV:   5    -0.192176160871E+03    0.71124E-04   -0.98590E-04 10520   0.210E-01
  35 F= -.19217616E+03 E0= -.19211387E+03  d E =-.953130E-02
       N       E                     dE             d eps       ncg     rms          rms(c)
DAV:   1    -0.192180600668E+03   -0.43687E-02   -0.99571E-01  8160   0.213E+00    0.291E-01
DAV:   2    -0.192186278571E+03   -0.56779E-02   -0.42067E-02 12920   0.982E-01    0.577E-01
DAV:   3    -0.192182260226E+03    0.40183E-02   -0.76785E-03 12640   0.787E-01    0.181E-01
DAV:   4    -0.192181951471E+03    0.30876E-03   -0.10951E-03 10520   0.240E-01    0.134E-01
DAV:   5    -0.192182036290E+03   -0.84819E-04   -0.89935E-04 11600   0.283E-01
  36 F= -.19218204E+03 E0= -.19212031E+03  d E =-.587542E-02
       N       E                     dE             d eps       ncg     rms          rms(c)
DAV:   1    -0.192178017624E+03    0.39338E-02   -0.66278E+00  8160   0.547E+00    0.619E-01
DAV:   2    -0.192196904676E+03   -0.18887E-01   -0.25008E-01 12520   0.155E+00    0.603E-01
DAV:   3    -0.192198910390E+03   -0.20057E-02   -0.27239E-02 12520   0.139E+00    0.793E-01
DAV:   4    -0.192191774129E+03    0.71363E-02   -0.12599E-02 12600   0.993E-01    0.275E-01
DAV:   5    -0.192190903514E+03    0.87062E-03   -0.42819E-03 12200   0.361E-01    0.195E-01
DAV:   6    -0.192191568241E+03   -0.66473E-03   -0.29246E-03 12240   0.467E-01    0.297E-01
DAV:   7    -0.192190456543E+03    0.11117E-02   -0.14291E-03 11200   0.344E-01    0.548E-02
DAV:   8    -0.192190455098E+03    0.14454E-05   -0.14173E-04  7080   0.980E-02
  37 F= -.19219046E+03 E0= -.19212981E+03  d E =-.841881E-02
       N       E                     dE             d eps       ncg     rms          rms(c)
DAV:   1    -0.192189195052E+03    0.12615E-02   -0.46333E-01  8160   0.147E+00    0.172E-01
DAV:   2    -0.192190249864E+03   -0.10548E-02   -0.16178E-02 12000   0.431E-01    0.192E-01
DAV:   3    -0.192190202834E+03    0.47030E-04   -0.21268E-03 12640   0.395E-01    0.200E-01
DAV:   4    -0.192189704243E+03    0.49859E-03   -0.93683E-04 10720   0.259E-01    0.823E-02
DAV:   5    -0.192189696892E+03    0.73507E-05   -0.46526E-04  9240   0.153E-01
  38 F= -.19218970E+03 E0= -.19212866E+03  d E =0.758206E-03
