<?xml version="1.0" encoding="ISO-8859-1"?>
<modeling>
 <generator>
  <i name="program" type="string">vasp </i>
  <i name="version" type="string">5.4.1  </i>
  <i name="subversion" type="string">05Feb16 (build Jul 05 2020 17:13:04) complex                          parallel </i>
  <i name="platform" type="string">IFC91_ompi </i>
  <i name="date" type="string">2024 04 23 </i>
  <i name="time" type="string">19:06:55 </i>
 </generator>
 <incar>
  <i type="int" name="ISTART">     0</i>
  <i type="string" name="PREC">normal</i>
  <i type="string" name="ALGO"> Normal</i>
  <i type="int" name="ISPIN">     1</i>
  <i type="int" name="ICHARG">     2</i>
  <i type="int" name="IBRION">     1</i>
  <i type="int" name="NSW">   100</i>
  <i type="int" name="ISIF">     3</i>
  <i type="int" name="ISYM">     0</i>
  <i name="SYMPREC">      0.00000001</i>
  <i name="POTIM">      0.50000000</i>
  <i type="logical" name="LREAL"> F  </i>
  <i type="logical" name="LPLANE"> F  </i>
  <i type="int" name="ISMEAR">     0</i>
  <i type="logical" name="LWAVE"> F  </i>
  <i type="logical" name="LCHARG"> F  </i>
  <v type="int" name="KPOINT_BSE">    -1     0     0     0</v>
 </incar>
 <kpoints>
  <generation param="Gamma">
   <v type="int" name="divisions">       8        8        1 </v>
   <v name="usershift">      0.00000000       0.00000000       0.00000000 </v>
   <v name="genvec1">      0.12500000       0.00000000       0.00000000 </v>
   <v name="genvec2">     -0.00000000       0.12500000       0.00000000 </v>
   <v name="genvec3">      0.00000000       0.00000000       1.00000000 </v>
   <v name="shift">      0.00000000       0.00000000       0.00000000 </v>
  </generation>
  <varray name="kpointlist" >
   <v>       0.00000000       0.00000000       0.00000000 </v>
   <v>       0.12500000       0.00000000       0.00000000 </v>
   <v>       0.25000000       0.00000000       0.00000000 </v>
   <v>       0.37500000       0.00000000       0.00000000 </v>
   <v>       0.50000000       0.00000000       0.00000000 </v>
   <v>       0.00000000       0.12500000       0.00000000 </v>
   <v>       0.12500000       0.12500000       0.00000000 </v>
   <v>       0.25000000       0.12500000       0.00000000 </v>
   <v>       0.37500000       0.12500000       0.00000000 </v>
   <v>       0.50000000       0.12500000       0.00000000 </v>
   <v>      -0.37500000       0.12500000       0.00000000 </v>
   <v>      -0.25000000       0.12500000       0.00000000 </v>
   <v>      -0.12500000       0.12500000       0.00000000 </v>
   <v>       0.00000000       0.25000000       0.00000000 </v>
   <v>       0.12500000       0.25000000       0.00000000 </v>
   <v>       0.25000000       0.25000000       0.00000000 </v>
   <v>       0.37500000       0.25000000       0.00000000 </v>
   <v>       0.50000000       0.25000000       0.00000000 </v>
   <v>      -0.37500000       0.25000000       0.00000000 </v>
   <v>      -0.25000000       0.25000000       0.00000000 </v>
   <v>      -0.12500000       0.25000000       0.00000000 </v>
   <v>      -0.00000000       0.37500000       0.00000000 </v>
   <v>       0.12500000       0.37500000       0.00000000 </v>
   <v>       0.25000000       0.37500000       0.00000000 </v>
   <v>       0.37500000       0.37500000       0.00000000 </v>
   <v>       0.50000000       0.37500000       0.00000000 </v>
   <v>      -0.37500000       0.37500000       0.00000000 </v>
   <v>      -0.25000000       0.37500000       0.00000000 </v>
   <v>      -0.12500000       0.37500000       0.00000000 </v>
   <v>       0.00000000       0.50000000       0.00000000 </v>
   <v>       0.12500000       0.50000000       0.00000000 </v>
   <v>       0.25000000       0.50000000       0.00000000 </v>
   <v>       0.37500000       0.50000000       0.00000000 </v>
   <v>       0.50000000       0.50000000       0.00000000 </v>
  </varray>
  <varray name="weights" >
   <v>       0.01562500 </v>
   <v>       0.03125000 </v>
   <v>       0.03125000 </v>
   <v>       0.03125000 </v>
   <v>       0.01562500 </v>
   <v>       0.03125000 </v>
   <v>       0.03125000 </v>
   <v>       0.03125000 </v>
   <v>       0.03125000 </v>
   <v>       0.03125000 </v>
   <v>       0.03125000 </v>
   <v>       0.03125000 </v>
   <v>       0.03125000 </v>
   <v>       0.03125000 </v>
   <v>       0.03125000 </v>
   <v>       0.03125000 </v>
   <v>       0.03125000 </v>
   <v>       0.03125000 </v>
   <v>       0.03125000 </v>
   <v>       0.03125000 </v>
   <v>       0.03125000 </v>
   <v>       0.03125000 </v>
   <v>       0.03125000 </v>
   <v>       0.03125000 </v>
   <v>       0.03125000 </v>
   <v>       0.03125000 </v>
   <v>       0.03125000 </v>
   <v>       0.03125000 </v>
   <v>       0.03125000 </v>
   <v>       0.01562500 </v>
   <v>       0.03125000 </v>
   <v>       0.03125000 </v>
   <v>       0.03125000 </v>
   <v>       0.01562500 </v>
  </varray>
 </kpoints>
 <parameters>
  <separator name="general" >
   <i type="string" name="SYSTEM">unknown system</i>
   <i type="logical" name="LCOMPAT"> F  </i>
  </separator>
  <separator name="electronic" >
   <i type="string" name="PREC">normal</i>
   <i name="ENMAX">    280.00000000</i>
   <i name="ENAUG">    373.43800000</i>
   <i name="EDIFF">      0.00010000</i>
   <i type="int" name="IALGO">    38</i>
   <i type="int" name="IWAVPR">    11</i>
   <i type="int" name="NBANDS">   120</i>
   <i name="NELECT">    159.00000000</i>
   <i type="int" name="TURBO">     0</i>
   <i type="int" name="IRESTART">     0</i>
   <i type="int" name="NREBOOT">     0</i>
   <i type="int" name="NMIN">     0</i>
   <i name="EREF">      0.00000000</i>
   <separator name="electronic smearing" >
    <i type="int" name="ISMEAR">     0</i>
    <i name="SIGMA">      0.20000000</i>
    <i name="KSPACING">      0.50000000</i>
    <i type="logical" name="KGAMMA"> T  </i>
   </separator>
   <separator name="electronic projectors" >
    <i type="logical" name="LREAL"> F  </i>
    <v name="ROPT">      0.00000000      0.00000000      0.00000000      0.00000000</v>
    <i type="int" name="LMAXPAW">  -100</i>
    <i type="int" name="LMAXMIX">     2</i>
    <i type="logical" name="NLSPLINE"> F  </i>
   </separator>
   <separator name="electronic startup" >
    <i type="int" name="ISTART">     0</i>
    <i type="int" name="ICHARG">     2</i>
    <i type="int" name="INIWAV">     1</i>
   </separator>
   <separator name="electronic spin" >
    <i type="int" name="ISPIN">     1</i>
    <i type="logical" name="LNONCOLLINEAR"> F  </i>
    <v name="MAGMOM">      1.00000000      1.00000000      1.00000000      1.00000000      1.00000000      1.00000000      1.00000000      1.00000000      1.00000000      1.00000000      1.00000000      1.00000000      1.00000000      1.00000000      1.00000000      1.00000000      1.00000000      1.00000000      1.00000000      1.00000000
      1.00000000      1.00000000      1.00000000      1.00000000      1.00000000      1.00000000      1.00000000</v>
    <i name="NUPDOWN">     -1.00000000</i>
    <i type="logical" name="LSORBIT"> F  </i>
    <v name="SAXIS">      0.00000000      0.00000000      1.00000000</v>
    <i type="logical" name="LSPIRAL"> F  </i>
    <v name="QSPIRAL">      0.00000000      0.00000000      0.00000000</v>
    <i type="logical" name="LZEROZ"> F  </i>
   </separator>
   <separator name="electronic exchange-correlation" >
    <i type="logical" name="LASPH"> F  </i>
    <i type="logical" name="LMETAGGA"> F  </i>
   </separator>
   <separator name="electronic convergence" >
    <i type="int" name="NELM">    60</i>
    <i type="int" name="NELMDL">    -5</i>
    <i type="int" name="NELMIN">     2</i>
    <i name="ENINI">    280.00000000</i>
    <separator name="electronic convergence detail" >
     <i type="logical" name="LDIAG"> T  </i>
     <i type="logical" name="LSUBROT"> F  </i>
     <i name="WEIMIN">      0.00100000</i>
     <i name="EBREAK">      0.00000021</i>
     <i name="DEPER">      0.30000000</i>
     <i type="int" name="NRMM">     4</i>
     <i name="TIME">      0.40000000</i>
    </separator>
   </separator>
   <separator name="electronic mixer" >
    <i name="AMIX">      0.40000000</i>
    <i name="BMIX">      1.00000000</i>
    <i name="AMIN">      0.10000000</i>
    <i name="AMIX_MAG">      1.60000000</i>
    <i name="BMIX_MAG">      1.00000000</i>
    <separator name="electronic mixer details" >
     <i type="int" name="IMIX">     4</i>
     <i type="logical" name="MIXFIRST"> F  </i>
     <i type="int" name="MAXMIX">   -45</i>
     <i name="WC">    100.00000000</i>
     <i type="int" name="INIMIX">     1</i>
     <i type="int" name="MIXPRE">     1</i>
     <i type="int" name="MREMOVE">     5</i>
    </separator>
   </separator>
   <separator name="electronic dipolcorrection" >
    <i type="logical" name="LDIPOL"> F  </i>
    <i type="logical" name="LMONO"> F  </i>
    <i type="int" name="IDIPOL">     0</i>
    <i name="EPSILON">      1.00000000</i>
    <v name="DIPOL">   -100.00000000   -100.00000000   -100.00000000</v>
    <i name="EFIELD">      0.00000000</i>
   </separator>
  </separator>
  <separator name="grids" >
   <i type="int" name="NGX">    42</i>
   <i type="int" name="NGY">    42</i>
   <i type="int" name="NGZ">   126</i>
   <i type="int" name="NGXF">    84</i>
   <i type="int" name="NGYF">    84</i>
   <i type="int" name="NGZF">   252</i>
   <i type="logical" name="ADDGRID"> F  </i>
  </separator>
  <separator name="ionic" >
   <i type="int" name="NSW">   100</i>
   <i type="int" name="IBRION">     1</i>
   <i type="int" name="ISIF">     3</i>
   <i name="PSTRESS">      0.00000000</i>
   <i name="EDIFFG">      0.00100000</i>
   <i type="int" name="NFREE">     0</i>
   <i name="POTIM">      0.50000000</i>
   <i name="SMASS">     -3.00000000</i>
   <i name="SCALEE">      1.00000000</i>
  </separator>
  <separator name="ionic md" >
   <i name="TEBEG">      0.00010000</i>
   <i name="TEEND">      0.00010000</i>
   <i type="int" name="NBLOCK">     1</i>
   <i type="int" name="KBLOCK">   100</i>
   <i type="int" name="NPACO">   256</i>
   <i name="APACO">     16.00000000</i>
  </separator>
  <separator name="symmetry" >
   <i type="int" name="ISYM">     0</i>
   <i name="SYMPREC">      0.00000001</i>
  </separator>
  <separator name="dos" >
   <i type="logical" name="LORBIT"> F  </i>
   <v name="RWIGS">     -1.00000000     -1.00000000     -1.00000000     -1.00000000</v>
   <i type="int" name="NEDOS">   301</i>
   <i name="EMIN">     10.00000000</i>
   <i name="EMAX">    -10.00000000</i>
   <i name="EFERMI">      0.00000000</i>
  </separator>
  <separator name="writing" >
   <i type="int" name="NWRITE">     2</i>
   <i type="logical" name="LWAVE"> F  </i>
   <i type="logical" name="LCHARG"> F  </i>
   <i type="logical" name="LPARD"> F  </i>
   <i type="logical" name="LVTOT"> F  </i>
   <i type="logical" name="LVHAR"> F  </i>
   <i type="logical" name="LELF"> F  </i>
   <i type="logical" name="LOPTICS"> F  </i>
   <v name="STM">      0.00000000      0.00000000      0.00000000      0.00000000      0.00000000      0.00000000      0.00000000</v>
  </separator>
  <separator name="performance" >
   <i type="int" name="NPAR">    40</i>
   <i type="int" name="NSIM">     4</i>
   <i type="int" name="NBLK">    -1</i>
   <i type="logical" name="LPLANE"> F  </i>
   <i type="logical" name="LSCALAPACK"> T  </i>
   <i type="logical" name="LSCAAWARE"> F  </i>
   <i type="logical" name="LSCALU"> F  </i>
   <i type="logical" name="LASYNC"> F  </i>
   <i type="logical" name="LORBITALREAL"> F  </i>
  </separator>
  <separator name="miscellaneous" >
   <i type="int" name="IDIOT">     3</i>
   <i type="logical" name="LMUSIC"> F  </i>
   <v name="POMASS">     50.94100000     95.94000000    183.85000000     32.06600000</v>
   <v name="DARWINR">      0.00000000      0.00000000      0.00000000      0.00000000</v>
   <v name="DARWINV">      1.00000000      1.00000000      1.00000000      1.00000000</v>
   <i type="logical" name="LCORR"> T  </i>
  </separator>
  <i type="logical" name="GGA_COMPAT"> T  </i>
  <i type="logical" name="LBERRY"> F  </i>
  <i type="int" name="ICORELEVEL">     0</i>
  <i type="logical" name="LDAU"> F  </i>
  <i type="int" name="I_CONSTRAINED_M">     0</i>
  <separator name="electronic exchange-correlation" >
   <i type="string" name="GGA">--</i>
   <i type="int" name="VOSKOWN">     0</i>
   <i type="logical" name="LHFCALC"> F  </i>
   <i type="string" name="PRECFOCK"></i>
   <i type="logical" name="LSYMGRAD"> F  </i>
   <i type="logical" name="LHFONE"> F  </i>
   <i type="logical" name="LRHFCALC"> F  </i>
   <i type="logical" name="LTHOMAS"> F  </i>
   <i type="logical" name="LMODELHF"> F  </i>
   <i name="ENCUT4O">     -1.00000000</i>
   <i type="int" name="EXXOEP">     0</i>
   <i type="int" name="FOURORBIT">     0</i>
   <i name="AEXX">      0.00000000</i>
   <i name="HFALPHA">      0.00000000</i>
   <i name="MCALPHA">      0.00000000</i>
   <i name="ALDAX">      1.00000000</i>
   <i name="AGGAX">      1.00000000</i>
   <i name="ALDAC">      1.00000000</i>
   <i name="AGGAC">      1.00000000</i>
   <i type="int" name="NKREDX">     1</i>
   <i type="int" name="NKREDY">     1</i>
   <i type="int" name="NKREDZ">     1</i>
   <i type="logical" name="SHIFTRED"> F  </i>
   <i type="logical" name="ODDONLY"> F  </i>
   <i type="logical" name="EVENONLY"> F  </i>
   <i type="int" name="LMAXFOCK">     0</i>
   <i type="int" name="NMAXFOCKAE">     0</i>
   <i type="logical" name="LFOCKAEDFT"> F  </i>
   <i name="HFSCREEN">      0.00000000</i>
   <i name="HFSCREENC">      0.00000000</i>
   <i type="int" name="NBANDSGWLOW">     0</i>
  </separator>
  <separator name="vdW DFT" >
   <i type="logical" name="LUSE_VDW"> F  </i>
   <i name="Zab_VDW">     -0.84910000</i>
   <i name="PARAM1">      0.12340000</i>
   <i name="PARAM2">      1.00000000</i>
   <i name="PARAM3">      0.00000000</i>
  </separator>
  <separator name="model GW" >
   <i type="int" name="MODEL_GW">     0</i>
   <i name="MODEL_EPS0">     58.26239943</i>
   <i name="MODEL_ALPHA">      1.00000000</i>
  </separator>
  <separator name="linear response parameters" >
   <i type="logical" name="LEPSILON"> F  </i>
   <i type="logical" name="LRPA"> F  </i>
   <i type="logical" name="LNABLA"> F  </i>
   <i type="logical" name="LVEL"> F  </i>
   <i type="int" name="KINTER">     0</i>
   <i name="CSHIFT">      0.10000000</i>
   <i name="OMEGAMAX">     -1.00000000</i>
   <i name="DEG_THRESHOLD">      0.00200000</i>
  </separator>
  <separator name="orbital magnetization" >
   <i type="logical" name="NUCIND"> F  </i>
   <v name="MAGPOS">      0.00000000      0.00000000      0.00000000</v>
   <i type="logical" name="LNICSALL"> T  </i>
   <i type="logical" name="ORBITALMAG"> F  </i>
   <i type="logical" name="LMAGBLOCH"> F  </i>
   <i type="logical" name="LCHIMAG"> F  </i>
   <i type="logical" name="LGAUGE"> T  </i>
   <i type="int" name="MAGATOM">     0</i>
   <v name="MAGDIPOL">      0.00000000      0.00000000      0.00000000</v>
   <v name="AVECCONST">      0.00000000      0.00000000      0.00000000</v>
  </separator>
  <separator name="response functions" >
   <i type="logical" name="LADDER"> F  </i>
   <i type="logical" name="LFXC"> F  </i>
   <i type="logical" name="LHARTREE"> T  </i>
   <i type="int" name="IBSE">     0</i>
   <v type="int" name="KPOINT">    -1     0     0     0</v>
   <i type="logical" name="LTCTE"> F  </i>
   <i type="logical" name="LTETE"> F  </i>
   <i type="logical" name="LTRIPLET"> F  </i>
   <i type="logical" name="LFXCEPS"> F  </i>
   <i type="logical" name="LFXHEG"> F  </i>
   <i type="int" name="NATURALO">     0</i>
   <i type="logical" name="L2ORDER"> F  </i>
   <i type="logical" name="LUSEW"> F  </i>
   <i name="ENCUTGW">     -2.00000000</i>
   <i name="ENCUTGWSOFT">     -2.00000000</i>
   <i name="ENCUTLF">     -1.00000000</i>
   <i type="int" name="LMAXMP2">    -1</i>
   <i name="SCISSOR">      0.00000000</i>
   <i type="int" name="NOMEGA">     0</i>
   <i type="int" name="NOMEGAR">     0</i>
   <i type="int" name="NBANDSGW">    -1</i>
   <i type="int" name="NBANDSO">    -1</i>
   <i type="int" name="NBANDSV">    -1</i>
   <i type="int" name="NELM">     1</i>
   <i type="int" name="NELMHF">     1</i>
   <i type="int" name="DIM">     3</i>
   <i type="int" name="ANTIRES">     0</i>
   <i name="OMEGAMAX">    -30.00000000</i>
   <i name="OMEGAMIN">    -30.00000000</i>
   <i name="OMEGATL">   -200.00000000</i>
   <i type="int" name="OMEGAGRID">     0</i>
   <i name="CSHIFT">     -0.10000000</i>
   <i type="logical" name="SELFENERGY"> F  </i>
   <i type="logical" name="LSPECTRAL"> F  </i>
   <i type="logical" name="LSPECTRALGW"> F  </i>
   <i type="logical" name="LSINGLES"> F  </i>
   <i type="logical" name="LFERMIGW"> F  </i>
   <i type="logical" name="ODDONLYGW"> F  </i>
   <i type="logical" name="EVENONLYGW"> F  </i>
   <i type="int" name="NKREDLFX">     1</i>
   <i type="int" name="NKREDLFY">     1</i>
   <i type="int" name="NKREDLFZ">     1</i>
   <i type="int" name="MAXMEM">  1800</i>
   <i type="int" name="TELESCOPE">     0</i>
   <i type="int" name="TAUPAR">     1</i>
   <i type="int" name="OMEGAPAR">    -1</i>
   <i name="LAMBDA">      1.00000000</i>
  </separator>
  <separator name="External order field" >
   <i name="OFIELD_KAPPA">      0.00000000</i>
   <v name="OFIELD_K">      0.00000000      0.00000000      0.00000000</v>
   <i name="OFIELD_Q6_NEAR">      0.00000000</i>
   <i name="OFIELD_Q6_FAR">      0.00000000</i>
   <i name="OFIELD_A">      0.00000000</i>
  </separator>
 </parameters>
 <atominfo>
  <atoms>      27 </atoms>
  <types>       4 </types>
  <array name="atoms" >
   <dimension dim="1">ion</dimension>
   <field type="string">element</field>
   <field type="int">atomtype</field>
   <set>
    <rc><c>V </c><c>   1</c></rc>
    <rc><c>V </c><c>   1</c></rc>
    <rc><c>V </c><c>   1</c></rc>
    <rc><c>Mo</c><c>   2</c></rc>
    <rc><c>Mo</c><c>   2</c></rc>
    <rc><c>Mo</c><c>   2</c></rc>
    <rc><c>W </c><c>   3</c></rc>
    <rc><c>W </c><c>   3</c></rc>
    <rc><c>W </c><c>   3</c></rc>
    <rc><c>S </c><c>   4</c></rc>
    <rc><c>S </c><c>   4</c></rc>
    <rc><c>S </c><c>   4</c></rc>
    <rc><c>S </c><c>   4</c></rc>
    <rc><c>S </c><c>   4</c></rc>
    <rc><c>S </c><c>   4</c></rc>
    <rc><c>S </c><c>   4</c></rc>
    <rc><c>S </c><c>   4</c></rc>
    <rc><c>S </c><c>   4</c></rc>
    <rc><c>S </c><c>   4</c></rc>
    <rc><c>S </c><c>   4</c></rc>
    <rc><c>S </c><c>   4</c></rc>
    <rc><c>S </c><c>   4</c></rc>
    <rc><c>S </c><c>   4</c></rc>
    <rc><c>S </c><c>   4</c></rc>
    <rc><c>S </c><c>   4</c></rc>
    <rc><c>S </c><c>   4</c></rc>
    <rc><c>S </c><c>   4</c></rc>
   </set>
  </array>
  <array name="atomtypes" >
   <dimension dim="1">type</dimension>
   <field type="int">atomspertype</field>
   <field type="string">element</field>
   <field>mass</field>
   <field>valence</field>
   <field type="string">pseudopotential</field>
   <set>
    <rc><c>   3</c><c>V </c><c>     50.94100000</c><c>      5.00000000</c><c> PAW_PBE V 08Apr2002                    </c></rc>
    <rc><c>   3</c><c>Mo</c><c>     95.94000000</c><c>      6.00000000</c><c> PAW_PBE Mo 08Apr2002                   </c></rc>
    <rc><c>   3</c><c>W </c><c>    183.85000000</c><c>      6.00000000</c><c> PAW_PBE W 08Apr2002                    </c></rc>
    <rc><c>  18</c><c>S </c><c>     32.06600000</c><c>      6.00000000</c><c>  PAW_PBE S 17Jan2003                   </c></rc>
   </set>
  </array>
 </atominfo>
 <structure name="initialpos" >
  <crystal>
   <varray name="basis" >
    <v>       8.66999996       5.03999989       0.00000000 </v>
    <v>      -8.66999982       5.04000013       0.00000000 </v>
    <v>       0.00000000       0.00000000      30.00000000 </v>
   </varray>
   <i name="volume">   2621.80797419 </i>
   <varray name="rec_basis" >
    <v>       0.05767013       0.09920635       0.00000000 </v>
    <v>      -0.05767013       0.09920635       0.00000000 </v>
    <v>       0.00000000       0.00000000       0.03333333 </v>
   </varray>
  </crystal>
  <varray name="positions" >
   <v>       0.66666669       0.00000000       0.00000000 </v>
   <v>       0.00000000       0.66666669       0.00000000 </v>
   <v>       0.33333334       0.66666669       0.00000000 </v>
   <v>       0.66666669       0.66666669       0.00000000 </v>
   <v>       1.00000000       0.33333334       0.00000000 </v>
   <v>       0.00000000       0.00000000       0.00000000 </v>
   <v>       0.33333334       0.00000000       0.00000000 </v>
   <v>       0.33333334       0.33333334       0.00000000 </v>
   <v>       0.66666669       0.33333334       0.00000000 </v>
   <v>       0.11068511       0.22244981       0.95539999 </v>
   <v>       0.22244981       0.11068511       0.04460000 </v>
   <v>       0.11068511       0.55578315       0.95539999 </v>
   <v>       0.22244981       0.44401845       0.04460000 </v>
   <v>       0.11068511       0.88911647       0.95539999 </v>
   <v>       0.22244981       0.77735180       0.04460000 </v>
   <v>       0.44401845       0.22244981       0.95539999 </v>
   <v>       0.55578315       0.11068511       0.04460000 </v>
   <v>       0.44401845       0.55578315       0.95539999 </v>
   <v>       0.55578315       0.44401845       0.04460000 </v>
   <v>       0.44401845       0.88911647       0.95539999 </v>
   <v>       0.55578315       0.77735180       0.04460000 </v>
   <v>       0.77735180       0.22244981       0.95539999 </v>
   <v>       0.88911647       0.11068511       0.04460000 </v>
   <v>       0.77735180       0.55578315       0.95539999 </v>
   <v>       0.88911647       0.44401845       0.04460000 </v>
   <v>       0.77735180       0.88911647       0.95539999 </v>
   <v>       0.88911647       0.77735180       0.04460000 </v>
  </varray>
 </structure>
 <calculation>
  <scstep>
   <time name="dav">   21.90   22.03</time>
   <time name="total">   21.96   22.09</time>
   <energy>
    <i name="alphaZ">     81.65567618 </i>
    <i name="ewald">  41890.23009643 </i>
    <i name="hartreedc"> -47722.87376652 </i>
    <i name="XCdc">   -242.92719666 </i>
    <i name="pawpsdc">   3467.42045192 </i>
    <i name="pawaedc">  -2871.19716117 </i>
    <i name="eentropy">     -0.53648976 </i>
    <i name="bandstr">   -239.07603625 </i>
    <i name="atom">   6761.44252427 </i>
    <i name="e_fr_energy">   1124.13809843 </i>
    <i name="e_wo_entrp">   1124.67458820 </i>
    <i name="e_0_energy">   1124.40634331 </i>
   </energy>
  </scstep>
  <scstep>
   <time name="dav">   28.10   28.17</time>
   <time name="total">   28.10   28.18</time>
   <energy>
    <i name="e_fr_energy">     -1.71542168 </i>
    <i name="e_wo_entrp">     -1.53447909 </i>
    <i name="e_0_energy">     -1.62495038 </i>
   </energy>
  </scstep>
  <scstep>
   <time name="dav">   27.70   27.77</time>
   <time name="total">   27.70   27.77</time>
   <energy>
    <i name="e_fr_energy">   -199.52238594 </i>
    <i name="e_wo_entrp">   -199.26017587 </i>
    <i name="e_0_energy">   -199.39128090 </i>
   </energy>
  </scstep>
  <scstep>
   <time name="dav">   30.38   30.45</time>
   <time name="total">   30.38   30.46</time>
   <energy>
    <i name="e_fr_energy">   -208.99187429 </i>
    <i name="e_wo_entrp">   -208.69261217 </i>
    <i name="e_0_energy">   -208.84224323 </i>
   </energy>
  </scstep>
  <scstep>
   <time name="dav">   28.97   29.04</time>
   <time name="total">   29.44   29.51</time>
   <energy>
    <i name="e_fr_energy">   -209.32450793 </i>
    <i name="e_wo_entrp">   -209.02833951 </i>
    <i name="e_0_energy">   -209.17642372 </i>
   </energy>
  </scstep>
  <scstep>
   <time name="dav">   31.51   31.59</time>
   <time name="total">   32.02   32.11</time>
   <energy>
    <i name="e_fr_energy">   -236.76493819 </i>
    <i name="e_wo_entrp">   -236.48686383 </i>
    <i name="e_0_energy">   -236.62590101 </i>
   </energy>
  </scstep>
  <scstep>
   <time name="dav">   32.20   32.28</time>
   <time name="total">   32.71   32.80</time>
   <energy>
    <i name="e_fr_energy">   -196.50807453 </i>
    <i name="e_wo_entrp">   -196.18875094 </i>
    <i name="e_0_energy">   -196.34841273 </i>
   </energy>
  </scstep>
  <scstep>
   <time name="dav">   30.06   30.14</time>
   <time name="total">   30.58   30.66</time>
   <energy>
    <i name="e_fr_energy">   -189.38752324 </i>
    <i name="e_wo_entrp">   -189.09180800 </i>
    <i name="e_0_energy">   -189.23966562 </i>
   </energy>
  </scstep>
  <scstep>
   <time name="dav">   32.21   32.29</time>
   <time name="total">   32.73   32.82</time>
   <energy>
    <i name="e_fr_energy">   -188.12908678 </i>
    <i name="e_wo_entrp">   -187.79610470 </i>
    <i name="e_0_energy">   -187.96259574 </i>
   </energy>
  </scstep>
  <scstep>
   <time name="dav">   33.19   33.26</time>
   <time name="total">   33.72   33.81</time>
   <energy>
    <i name="e_fr_energy">   -187.01121291 </i>
    <i name="e_wo_entrp">   -186.66616922 </i>
    <i name="e_0_energy">   -186.83869107 </i>
   </energy>
  </scstep>
  <scstep>
   <time name="dav">   32.77   32.84</time>
   <time name="total">   33.30   33.39</time>
   <energy>
    <i name="e_fr_energy">   -186.96917595 </i>
    <i name="e_wo_entrp">   -186.61785599 </i>
    <i name="e_0_energy">   -186.79351597 </i>
   </energy>
  </scstep>
  <scstep>
   <time name="dav">   31.31   31.38</time>
   <time name="total">   31.84   31.93</time>
   <energy>
    <i name="e_fr_energy">   -187.10494234 </i>
    <i name="e_wo_entrp">   -186.76524671 </i>
    <i name="e_0_energy">   -186.93509452 </i>
   </energy>
  </scstep>
  <scstep>
   <time name="dav">   31.80   31.87</time>
   <time name="total">   32.34   32.42</time>
   <energy>
    <i name="e_fr_energy">   -186.88764139 </i>
    <i name="e_wo_entrp">   -186.55218429 </i>
    <i name="e_0_energy">   -186.71991284 </i>
   </energy>
  </scstep>
  <scstep>
   <time name="dav">   32.86   32.94</time>
   <time name="total">   33.40   33.49</time>
   <energy>
    <i name="e_fr_energy">   -186.86235089 </i>
    <i name="e_wo_entrp">   -186.51917960 </i>
    <i name="e_0_energy">   -186.69076524 </i>
   </energy>
  </scstep>
  <scstep>
   <time name="dav">   30.90   30.97</time>
   <time name="total">   31.44   31.52</time>
   <energy>
    <i name="e_fr_energy">   -186.83919654 </i>
    <i name="e_wo_entrp">   -186.49293508 </i>
    <i name="e_0_energy">   -186.66606581 </i>
   </energy>
  </scstep>
  <scstep>
   <time name="dav">   30.01   30.09</time>
   <time name="total">   30.56   30.64</time>
   <energy>
    <i name="e_fr_energy">   -186.83223005 </i>
    <i name="e_wo_entrp">   -186.48591635 </i>
    <i name="e_0_energy">   -186.65907320 </i>
   </energy>
  </scstep>
  <scstep>
   <time name="dav">   31.77   31.85</time>
   <time name="total">   32.31   32.40</time>
   <energy>
    <i name="e_fr_energy">   -186.83047289 </i>
    <i name="e_wo_entrp">   -186.48618909 </i>
    <i name="e_0_energy">   -186.65833099 </i>
   </energy>
  </scstep>
  <scstep>
   <time name="dav">   30.30   30.37</time>
   <time name="total">   30.84   30.92</time>
   <energy>
    <i name="e_fr_energy">   -186.82970692 </i>
    <i name="e_wo_entrp">   -186.48557141 </i>
    <i name="e_0_energy">   -186.65763917 </i>
   </energy>
  </scstep>
  <scstep>
   <time name="dav">   28.56   28.63</time>
   <time name="total">   29.10   29.18</time>
   <energy>
    <i name="e_fr_energy">   -186.82931323 </i>
    <i name="e_wo_entrp">   -186.48463534 </i>
    <i name="e_0_energy">   -186.65697428 </i>
   </energy>
  </scstep>
  <scstep>
   <time name="dav">   23.79   23.84</time>
   <time name="total">   24.33   24.39</time>
   <energy>
    <i name="e_fr_energy">   -186.83004871 </i>
    <i name="e_wo_entrp">   -186.48561284 </i>
    <i name="e_0_energy">   -186.65783078 </i>
   </energy>
  </scstep>
  <scstep>
   <time name="dav">   22.05   22.11</time>
   <time name="total">   22.60   22.66</time>
   <energy>
    <i name="e_fr_energy">   -186.83062862 </i>
    <i name="e_wo_entrp">   -186.48630208 </i>
    <i name="e_0_energy">   -186.65846535 </i>
   </energy>
  </scstep>
  <scstep>
   <time name="dav">   20.60   20.64</time>
   <time name="total">   21.14   21.20</time>
   <energy>
    <i name="e_fr_energy">   -186.83180139 </i>
    <i name="e_wo_entrp">   -186.48733538 </i>
    <i name="e_0_energy">   -186.65956839 </i>
   </energy>
  </scstep>
  <scstep>
   <time name="dav">   20.54   20.59</time>
   <time name="total">   21.09   21.14</time>
   <energy>
    <i name="e_fr_energy">   -186.83303431 </i>
    <i name="e_wo_entrp">   -186.48866657 </i>
    <i name="e_0_energy">   -186.66085044 </i>
   </energy>
  </scstep>
  <scstep>
   <time name="dav">   18.98   19.03</time>
   <time name="total">   19.52   19.58</time>
   <energy>
    <i name="e_fr_energy">   -186.83363470 </i>
    <i name="e_wo_entrp">   -186.48925056 </i>
    <i name="e_0_energy">   -186.66144263 </i>
   </energy>
  </scstep>
  <scstep>
   <time name="dav">   16.79   16.83</time>
   <time name="total">   17.33   17.38</time>
   <energy>
    <i name="e_fr_energy">   -186.83399675 </i>
    <i name="e_wo_entrp">   -186.48957515 </i>
    <i name="e_0_energy">   -186.66178595 </i>
   </energy>
  </scstep>
  <scstep>
   <time name="dav">   19.24   19.29</time>
   <time name="total">   19.78   19.84</time>
   <energy>
    <i name="e_fr_energy">   -186.83423280 </i>
    <i name="e_wo_entrp">   -186.48982706 </i>
    <i name="e_0_energy">   -186.66202993 </i>
   </energy>
  </scstep>
  <scstep>
   <time name="dav">   20.10   20.15</time>
   <time name="total">   20.14   20.19</time>
   <energy>
    <i name="alphaZ">     81.65567618 </i>
    <i name="ewald">  41890.23009643 </i>
    <i name="hartreedc"> -47832.83576118 </i>
    <i name="XCdc">   -231.61154181 </i>
    <i name="pawpsdc">   4192.05288107 </i>
    <i name="pawaedc">  -3610.05407606 </i>
    <i name="eentropy">     -0.34440809 </i>
    <i name="bandstr">  -1437.36972351 </i>
    <i name="atom">   6761.44252427 </i>
    <i name="e_fr_energy">   -186.83433269 </i>
    <i name="e_wo_entrp">   -186.48992460 </i>
    <i name="e_0_energy">   -186.66212865 </i>
   </energy>
  </scstep>
  <structure>
   <crystal>
    <varray name="basis" >
     <v>       8.66999996       5.03999989       0.00000000 </v>
     <v>      -8.66999982       5.04000013       0.00000000 </v>
     <v>       0.00000000       0.00000000      30.00000000 </v>
    </varray>
    <i name="volume">   2621.80797419 </i>
    <varray name="rec_basis" >
     <v>       0.05767013       0.09920635       0.00000000 </v>
     <v>      -0.05767013       0.09920635       0.00000000 </v>
     <v>       0.00000000       0.00000000       0.03333333 </v>
    </varray>
   </crystal>
   <varray name="positions" >
    <v>       0.66666669       0.00000000       0.00000000 </v>
    <v>       0.00000000       0.66666669       0.00000000 </v>
    <v>       0.33333334       0.66666669       0.00000000 </v>
    <v>       0.66666669       0.66666669       0.00000000 </v>
    <v>       1.00000000       0.33333334       0.00000000 </v>
    <v>       0.00000000       0.00000000       0.00000000 </v>
    <v>       0.33333334       0.00000000       0.00000000 </v>
    <v>       0.33333334       0.33333334       0.00000000 </v>
    <v>       0.66666669       0.33333334       0.00000000 </v>
    <v>       0.11068511       0.22244981       0.95539999 </v>
    <v>       0.22244981       0.11068511       0.04460000 </v>
    <v>       0.11068511       0.55578315       0.95539999 </v>
    <v>       0.22244981       0.44401845       0.04460000 </v>
    <v>       0.11068511       0.88911647       0.95539999 </v>
    <v>       0.22244981       0.77735180       0.04460000 </v>
    <v>       0.44401845       0.22244981       0.95539999 </v>
    <v>       0.55578315       0.11068511       0.04460000 </v>
    <v>       0.44401845       0.55578315       0.95539999 </v>
    <v>       0.55578315       0.44401845       0.04460000 </v>
    <v>       0.44401845       0.88911647       0.95539999 </v>
    <v>       0.55578315       0.77735180       0.04460000 </v>
    <v>       0.77735180       0.22244981       0.95539999 </v>
    <v>       0.88911647       0.11068511       0.04460000 </v>
    <v>       0.77735180       0.55578315       0.95539999 </v>
    <v>       0.88911647       0.44401845       0.04460000 </v>
    <v>       0.77735180       0.88911647       0.95539999 </v>
    <v>       0.88911647       0.77735180       0.04460000 </v>
   </varray>
  </structure>
  <varray name="forces" >
   <v>       0.44201888       0.15650324       0.11197641 </v>
   <v>      -0.13627552      -0.08549321      -0.12382153 </v>
   <v>       0.13062114      -0.07864842      -0.02248673 </v>
   <v>      -0.05366044       0.29798659       0.08444992 </v>
   <v>       0.21739393      -0.10395374      -0.06436735 </v>
   <v>      -0.26101095      -0.14547601       0.14050797 </v>
   <v>      -0.13679452      -0.22278306      -0.02949629 </v>
   <v>      -0.33653439      -0.15607182       0.00530520 </v>
   <v>       0.05899051       0.32918793      -0.12365792 </v>
   <v>       0.21246151       0.17116736      -2.89059204 </v>
   <v>      -0.06336571       0.13169690       2.91933440 </v>
   <v>      -0.33855762       0.66449763      -1.40265652 </v>
   <v>      -0.35318472       0.69883471       2.18720822 </v>
   <v>       0.64633855      -0.56982361      -2.14888754 </v>
   <v>       0.23814184      -0.51803791       1.41418140 </v>
   <v>       0.13171105       0.02918304      -2.92748790 </v>
   <v>       0.62814529      -0.00746357       2.11195715 </v>
   <v>      -0.64605866      -0.15304724      -2.11171410 </v>
   <v>      -0.07068832      -0.15078872       2.85839104 </v>
   <v>       0.73544377      -0.00048974      -1.43557680 </v>
   <v>      -0.90064923       0.02137148       1.47045954 </v>
   <v>       0.35025068      -0.69990105      -2.13880406 </v>
   <v>      -0.52182704      -0.72447347       2.20008729 </v>
   <v>       0.63916269       0.56108892      -2.20198632 </v>
   <v>      -0.60168325       0.55390394       2.15339268 </v>
   <v>      -0.74012186      -0.01033286      -2.13934747 </v>
   <v>       0.72973239       0.01136272       2.10363134 </v>
  </varray>
  <varray name="stress" >
   <v>       7.36787730       0.00084321      -1.55537029 </v>
   <v>       0.00084326       4.37200849       0.01977354 </v>
   <v>      -1.55537001       0.01977341      30.32855096 </v>
  </varray>
  <energy>
   <i name="e_fr_energy">   -186.83433269 </i>
   <i name="e_wo_entrp">   -186.66212865 </i>
   <i name="e_0_energy">     -0.34440809 </i>
  </energy>
  <time name="totalsc">  792.63  794.83</time>
 </calculation>
 <calculation>
  <scstep>
   <time name="dav">   21.90   21.96</time>
   <time name="total">   22.45   22.51</time>
   <energy>
    <i name="alphaZ">     78.92477962 </i>
    <i name="ewald">  39381.12208334 </i>
    <i name="hartreedc"> -45338.55296459 </i>
    <i name="XCdc">   -239.06874038 </i>
    <i name="pawpsdc">   4192.02580363 </i>
    <i name="pawaedc">  -3610.02736171 </i>
    <i name="eentropy">     -0.28569834 </i>
    <i name="bandstr">  -1413.03195962 </i>
    <i name="atom">   6761.44252427 </i>
    <i name="e_fr_energy">   -187.45153377 </i>
    <i name="e_wo_entrp">   -187.16583543 </i>
    <i name="e_0_energy">   -187.30868460 </i>
   </energy>
  </scstep>
  <scstep>
   <time name="dav">   30.47   30.54</time>
   <time name="total">   31.01   31.09</time>
   <energy>
    <i name="e_fr_energy">   -189.26119803 </i>
    <i name="e_wo_entrp">   -188.94629805 </i>
    <i name="e_0_energy">   -189.10374804 </i>
   </energy>
  </scstep>
  <scstep>
   <time name="dav">   30.80   30.87</time>
   <time name="total">   31.34   31.43</time>
   <energy>
    <i name="e_fr_energy">   -189.36297805 </i>
    <i name="e_wo_entrp">   -189.08530077 </i>
    <i name="e_0_energy">   -189.22413941 </i>
   </energy>
  </scstep>
  <scstep>
   <time name="dav">   31.26   31.33</time>
   <time name="total">   31.80   31.89</time>
   <energy>
    <i name="e_fr_energy">   -188.71982296 </i>
    <i name="e_wo_entrp">   -188.43413132 </i>
    <i name="e_0_energy">   -188.57697714 </i>
   </energy>
  </scstep>
  <scstep>
   <time name="dav">   28.73   28.80</time>
   <time name="total">   29.28   29.36</time>
   <energy>
    <i name="e_fr_energy">   -188.73894175 </i>
    <i name="e_wo_entrp">   -188.45155664 </i>
    <i name="e_0_energy">   -188.59524920 </i>
   </energy>
  </scstep>
  <scstep>
   <time name="dav">   31.65   31.73</time>
   <time name="total">   32.20   32.29</time>
   <energy>
    <i name="e_fr_energy">   -188.69991401 </i>
    <i name="e_wo_entrp">   -188.40904185 </i>
    <i name="e_0_energy">   -188.55447793 </i>
   </energy>
  </scstep>
  <scstep>
   <time name="dav">   29.96   30.03</time>
   <time name="total">   30.51   30.59</time>
   <energy>
    <i name="e_fr_energy">   -188.66282575 </i>
    <i name="e_wo_entrp">   -188.37808770 </i>
    <i name="e_0_energy">   -188.52045672 </i>
   </energy>
  </scstep>
  <scstep>
   <time name="dav">   31.65   31.72</time>
   <time name="total">   32.19   32.28</time>
   <energy>
    <i name="e_fr_energy">   -188.63171701 </i>
    <i name="e_wo_entrp">   -188.34632369 </i>
    <i name="e_0_energy">   -188.48902035 </i>
   </energy>
  </scstep>
  <scstep>
   <time name="dav">   31.91   31.98</time>
   <time name="total">   32.45   32.54</time>
   <energy>
    <i name="e_fr_energy">   -188.62967724 </i>
    <i name="e_wo_entrp">   -188.34528299 </i>
    <i name="e_0_energy">   -188.48748011 </i>
   </energy>
  </scstep>
  <scstep>
   <time name="dav">   33.38   33.46</time>
   <time name="total">   33.93   34.02</time>
   <energy>
    <i name="e_fr_energy">   -188.62797463 </i>
    <i name="e_wo_entrp">   -188.34345425 </i>
    <i name="e_0_energy">   -188.48571444 </i>
   </energy>
  </scstep>
  <scstep>
   <time name="dav">   31.26   31.34</time>
   <time name="total">   31.81   31.89</time>
   <energy>
    <i name="e_fr_energy">   -188.62749513 </i>
    <i name="e_wo_entrp">   -188.34321643 </i>
    <i name="e_0_energy">   -188.48535578 </i>
   </energy>
  </scstep>
  <scstep>
   <time name="dav">   27.88   27.94</time>
   <time name="total">   27.92   27.99</time>
   <energy>
    <i name="alphaZ">     78.92477962 </i>
    <i name="ewald">  39381.12208334 </i>
    <i name="hartreedc"> -45349.59413577 </i>
    <i name="XCdc">   -237.97599937 </i>
    <i name="pawpsdc">   3952.54193043 </i>
    <i name="pawaedc">  -3367.06827244 </i>
    <i name="eentropy">     -0.28386775 </i>
    <i name="bandstr">  -1407.73655261 </i>
    <i name="atom">   6761.44252427 </i>
    <i name="e_fr_energy">   -188.62751027 </i>
    <i name="e_wo_entrp">   -188.34364252 </i>
    <i name="e_0_energy">   -188.48557640 </i>
   </energy>
  </scstep>
  <structure>
   <crystal>
    <varray name="basis" >
     <v>       8.85678758       5.10444847       0.00000000 </v>
     <v>      -8.85676258       5.10440596       0.00000000 </v>
     <v>       0.00000000       0.00000000      30.00000000 </v>
    </varray>
    <i name="volume">   2712.52582468 </i>
    <varray name="rec_basis" >
     <v>       0.05645372       0.09795405       0.00000000 </v>
     <v>      -0.05645419       0.09795432       0.00000000 </v>
     <v>       0.00000000       0.00000000       0.03333333 </v>
    </varray>
   </crystal>
   <varray name="positions" >
    <v>       0.66864547      -0.00048075       0.00018007 </v>
    <v>      -0.00078831       0.66663666      -0.00019912 </v>
    <v>       0.33332034       0.66592687      -0.00003616 </v>
    <v>       0.66794355       0.66824214       0.00013580 </v>
    <v>       1.00010730       0.33223100      -0.00010351 </v>
    <v>      -0.00142242       0.00002993       0.00022595 </v>
    <v>       0.33188652      -0.00068565      -0.00004743 </v>
    <v>       0.33165009       0.33352268       0.00000853 </v>
    <v>       0.66840629       0.33474471      -0.00019885 </v>
    <v>       0.11209542       0.22267791       0.95075166 </v>
    <v>       0.22290381       0.11149170       0.04929455 </v>
    <v>       0.11292346       0.55990534       0.95314439 </v>
    <v>       0.22481180       0.44834568       0.04811722 </v>
    <v>       0.10975616       0.88459109       0.95194439 </v>
    <v>       0.22063304       0.77420993       0.04687413 </v>
    <v>       0.44452456       0.22222304       0.95069233 </v>
    <v>       0.55749503       0.10890179       0.04799621 </v>
    <v>       0.44148853       0.55684811       0.95200417 </v>
    <v>       0.55486481       0.44349345       0.04919654 </v>
    <v>       0.44606223       0.88706800       0.95309146 </v>
    <v>       0.55337969       0.77995983       0.04696463 </v>
    <v>       0.77497654       0.21812565       0.95196060 </v>
    <v>       0.88419735       0.10866960       0.04813793 </v>
    <v>       0.78181541       0.55669026       0.95185900 </v>
    <v>       0.89009346       0.44834340       0.04806284 </v>
    <v>       0.77524321       0.89112615       0.95195973 </v>
    <v>       0.89120108       0.77537595       0.04798282 </v>
   </varray>
  </structure>
  <varray name="forces" >
   <v>       0.39782086       0.18070212       0.04219507 </v>
   <v>      -0.16540110      -0.14844461      -0.04031803 </v>
   <v>       0.16303995      -0.09913857      -0.08923314 </v>
   <v>       0.11257041       0.20464933       0.08655282 </v>
   <v>       0.34617957      -0.13358110      -0.07642548 </v>
   <v>      -0.23395492       0.03997580       0.04657874 </v>
   <v>      -0.33558007      -0.02120396      -0.01155078 </v>
   <v>      -0.15457343      -0.24540753      -0.00694207 </v>
   <v>      -0.08435959       0.23854856       0.05180626 </v>
   <v>       0.06966536       0.08984405      -0.14627479 </v>
   <v>       0.06016187       0.09312644       0.04751133 </v>
   <v>       0.00045415       0.04368396       0.11281591 </v>
   <v>       0.08924641       0.05617396       0.05632583 </v>
   <v>       0.07363881       0.03344320       0.01439098 </v>
   <v>      -0.05972138       0.06497499      -0.14168888 </v>
   <v>      -0.03375450       0.01654723       0.10300541 </v>
   <v>      -0.08641779      -0.00426392      -0.20274533 </v>
   <v>       0.01100256      -0.08765222       0.03611919 </v>
   <v>       0.08740798      -0.11492484      -0.10980895 </v>
   <v>      -0.10256491      -0.00266164       0.24569863 </v>
   <v>      -0.03904450       0.00922082      -0.04499446 </v>
   <v>      -0.10333397      -0.07313615       0.02893984 </v>
   <v>      -0.03203928      -0.08638774       0.20754580 </v>
   <v>       0.08642575      -0.01743574      -0.10275260 </v>
   <v>      -0.07368236      -0.03659424      -0.07003310 </v>
   <v>      -0.06060607      -0.00787861      -0.12860567 </v>
   <v>       0.06742022       0.00782040       0.09188747 </v>
  </varray>
  <varray name="stress" >
   <v>     -19.98076022       0.01235795       0.07057720 </v>
   <v>       0.01235786     -19.54521306      -0.00390079 </v>
   <v>       0.07057725      -0.00390091      -1.79012547 </v>
  </varray>
  <energy>
   <i name="e_fr_energy">   -188.62751027 </i>
   <i name="e_wo_entrp">   -188.48557640 </i>
   <i name="e_0_energy">     -0.28386775 </i>
  </energy>
  <time name="totalsc">  409.40  410.48</time>
 </calculation>
 <calculation>
  <scstep>
   <time name="dav">   24.32   24.38</time>
   <time name="total">   24.86   24.92</time>
   <energy>
    <i name="alphaZ">     82.36016265 </i>
    <i name="ewald">  41310.39659212 </i>
    <i name="hartreedc"> -47309.50096560 </i>
    <i name="XCdc">   -233.84408413 </i>
    <i name="pawpsdc">   3950.38312214 </i>
    <i name="pawaedc">  -3364.88517512 </i>
    <i name="eentropy">     -0.23588701 </i>
    <i name="bandstr">  -1386.66217429 </i>
    <i name="atom">   6761.44252427 </i>
    <i name="e_fr_energy">   -190.54588496 </i>
    <i name="e_wo_entrp">   -190.30999795 </i>
    <i name="e_0_energy">   -190.42794146 </i>
   </energy>
  </scstep>
  <scstep>
   <time name="dav">   28.63   28.70</time>
   <time name="total">   29.16   29.23</time>
   <energy>
    <i name="e_fr_energy">   -190.56661127 </i>
    <i name="e_wo_entrp">   -190.32879556 </i>
    <i name="e_0_energy">   -190.44770342 </i>
   </energy>
  </scstep>
  <scstep>
   <time name="dav">   30.58   30.65</time>
   <time name="total">   31.11   31.19</time>
   <energy>
    <i name="e_fr_energy">   -190.01021890 </i>
    <i name="e_wo_entrp">   -189.76280055 </i>
    <i name="e_0_energy">   -189.88650973 </i>
   </energy>
  </scstep>
  <scstep>
   <time name="dav">   31.41   31.49</time>
   <time name="total">   31.95   32.03</time>
   <energy>
    <i name="e_fr_energy">   -189.81032304 </i>
    <i name="e_wo_entrp">   -189.57415078 </i>
    <i name="e_0_energy">   -189.69223691 </i>
   </energy>
  </scstep>
  <scstep>
   <time name="dav">   28.81   28.87</time>
   <time name="total">   29.35   29.43</time>
   <energy>
    <i name="e_fr_energy">   -189.73455136 </i>
    <i name="e_wo_entrp">   -189.49227147 </i>
    <i name="e_0_energy">   -189.61341141 </i>
   </energy>
  </scstep>
  <scstep>
   <time name="dav">   29.72   29.79</time>
   <time name="total">   30.25   30.33</time>
   <energy>
    <i name="e_fr_energy">   -189.71356545 </i>
    <i name="e_wo_entrp">   -189.47522424 </i>
    <i name="e_0_energy">   -189.59439484 </i>
   </energy>
  </scstep>
  <scstep>
   <time name="dav">   31.21   31.28</time>
   <time name="total">   31.75   31.83</time>
   <energy>
    <i name="e_fr_energy">   -189.70564571 </i>
    <i name="e_wo_entrp">   -189.46675988 </i>
    <i name="e_0_energy">   -189.58620280 </i>
   </energy>
  </scstep>
  <scstep>
   <time name="dav">   27.94   28.01</time>
   <time name="total">   28.48   28.56</time>
   <energy>
    <i name="e_fr_energy">   -189.70570870 </i>
    <i name="e_wo_entrp">   -189.46714386 </i>
    <i name="e_0_energy">   -189.58642628 </i>
   </energy>
  </scstep>
  <scstep>
   <time name="dav">   27.60   27.67</time>
   <time name="total">   28.14   28.21</time>
   <energy>
    <i name="e_fr_energy">   -189.70591073 </i>
    <i name="e_wo_entrp">   -189.46701547 </i>
    <i name="e_0_energy">   -189.58646310 </i>
   </energy>
  </scstep>
  <scstep>
   <time name="dav">   26.64   26.70</time>
   <time name="total">   27.18   27.25</time>
   <energy>
    <i name="e_fr_energy">   -189.70627364 </i>
    <i name="e_wo_entrp">   -189.46751599 </i>
    <i name="e_0_energy">   -189.58689481 </i>
   </energy>
  </scstep>
  <scstep>
   <time name="dav">   25.75   25.81</time>
   <time name="total">   26.29   26.36</time>
   <energy>
    <i name="e_fr_energy">   -189.70571652 </i>
    <i name="e_wo_entrp">   -189.46689180 </i>
    <i name="e_0_energy">   -189.58630416 </i>
   </energy>
  </scstep>
  <scstep>
   <time name="dav">   18.13   18.17</time>
   <time name="total">   18.16   18.21</time>
   <energy>
    <i name="alphaZ">     82.36016265 </i>
    <i name="ewald">  41310.39659212 </i>
    <i name="hartreedc"> -47282.75174886 </i>
    <i name="XCdc">   -235.24326651 </i>
    <i name="pawpsdc">   4038.89045525 </i>
    <i name="pawaedc">  -3454.59045582 </i>
    <i name="eentropy">     -0.23873639 </i>
    <i name="bandstr">  -1409.97127179 </i>
    <i name="atom">   6761.44252427 </i>
    <i name="e_fr_energy">   -189.70574507 </i>
    <i name="e_wo_entrp">   -189.46700868 </i>
    <i name="e_0_energy">   -189.58637688 </i>
   </energy>
  </scstep>
  <structure>
   <crystal>
    <varray name="basis" >
     <v>       8.66811467       4.99815938       0.00000000 </v>
     <v>      -8.66795565       4.99788429       0.00000000 </v>
     <v>       0.00000000       0.00000000      30.00000000 </v>
    </varray>
    <i name="volume">   2599.38174049 </i>
    <varray name="rec_basis" >
     <v>       0.05768161       0.10003866       0.00000000 </v>
     <v>      -0.05768479       0.10004050       0.00000000 </v>
     <v>       0.00000000       0.00000000       0.03333333 </v>
    </varray>
   </crystal>
   <varray name="positions" >
    <v>       0.66932854      -0.00056168       0.00020399 </v>
    <v>      -0.00119445       0.66654816      -0.00022197 </v>
    <v>       0.33331172       0.66560514      -0.00008675 </v>
    <v>       0.66839261       0.66847501       0.00018488 </v>
    <v>       1.00021715       0.33167603      -0.00014684 </v>
    <v>      -0.00158046       0.00032118       0.00025236 </v>
    <v>       0.33152897      -0.00039875      -0.00005398 </v>
    <v>       0.33109280       0.33326223       0.00000460 </v>
    <v>       0.66872273       0.33522316      -0.00016948 </v>
    <v>       0.11231200       0.22276071       0.95066873 </v>
    <v>       0.22311674       0.11158909       0.04932148 </v>
    <v>       0.11299668       0.55997769       0.95320836 </v>
    <v>       0.22499109       0.44835357       0.04814916 </v>
    <v>       0.10988259       0.88457610       0.95195255 </v>
    <v>       0.22068395       0.77437553       0.04679380 </v>
    <v>       0.44451972       0.22228302       0.95075073 </v>
    <v>       0.55740495       0.10897767       0.04788126 </v>
    <v>       0.44135306       0.55669151       0.95202465 </v>
    <v>       0.55475727       0.44321804       0.04913429 </v>
    <v>       0.44595931       0.88716205       0.95323076 </v>
    <v>       0.55335756       0.78001268       0.04693912 </v>
    <v>       0.77475546       0.21810302       0.95197701 </v>
    <v>       0.88402265       0.10855644       0.04825560 </v>
    <v>       0.78186935       0.55657822       0.95180074 </v>
    <v>       0.88996174       0.44835319       0.04802314 </v>
    <v>       0.77517188       0.89117122       0.95188682 </v>
    <v>       0.89127885       0.77532424       0.04803492 </v>
   </varray>
  </structure>
  <varray name="forces" >
   <v>       0.37388862       0.20991982       0.01276680 </v>
   <v>      -0.18899890      -0.17818388      -0.01297488 </v>
   <v>       0.18180980      -0.11837694      -0.08455901 </v>
   <v>       0.16591606       0.16581702       0.05814693 </v>
   <v>       0.38489505      -0.14939042      -0.05359497 </v>
   <v>      -0.22518508       0.12022744       0.01057648 </v>
   <v>      -0.40041346       0.04858744      -0.00733524 </v>
   <v>      -0.08092473      -0.28692730      -0.00694237 </v>
   <v>      -0.13403778       0.18855111       0.07812187 </v>
   <v>       0.03608620       0.00769386      -0.71179090 </v>
   <v>       0.01218476       0.02428719       0.62161426 </v>
   <v>      -0.03259449       0.10238647      -0.32718081 </v>
   <v>      -0.04379107       0.11462551       0.56403647 </v>
   <v>       0.04874840      -0.10108808      -0.48781579 </v>
   <v>       0.01978774      -0.06892494       0.30983970 </v>
   <v>      -0.03990921       0.02487457      -0.46156157 </v>
   <v>       0.06098036      -0.00537498       0.28643703 </v>
   <v>      -0.09307008      -0.00852896      -0.45218646 </v>
   <v>       0.04275043      -0.05761335       0.43276340 </v>
   <v>       0.05091784       0.00708909      -0.19455697 </v>
   <v>      -0.12285033       0.00442179       0.40767928 </v>
   <v>       0.02001769      -0.14198847      -0.46596890 </v>
   <v>      -0.07582112      -0.14396570       0.72153575 </v>
   <v>       0.07160133       0.12052610      -0.62929151 </v>
   <v>      -0.04846388       0.10466479       0.41863543 </v>
   <v>      -0.13154618      -0.00561516      -0.61512422 </v>
   <v>       0.14802201       0.02230596       0.58873020 </v>
  </varray>
  <varray name="stress" >
   <v>     -10.14343194      -0.00464700       0.06054828 </v>
   <v>      -0.00464694      -9.77714531      -0.00486083 </v>
   <v>       0.06054807      -0.00486071       6.53123017 </v>
  </varray>
  <energy>
   <i name="e_fr_energy">   -189.70574507 </i>
   <i name="e_wo_entrp">   -189.58637688 </i>
   <i name="e_0_energy">     -0.23873639 </i>
  </energy>
  <time name="totalsc">  379.51  380.52</time>
 </calculation>
 <calculation>
  <scstep>
   <time name="dav">   21.88   21.93</time>
   <time name="total">   22.41   22.46</time>
   <energy>
    <i name="alphaZ">     85.80222701 </i>
    <i name="ewald">  42821.70608254 </i>
    <i name="hartreedc"> -48838.29852239 </i>
    <i name="XCdc">   -232.99504656 </i>
    <i name="pawpsdc">   4038.96527791 </i>
    <i name="pawaedc">  -3454.66288946 </i>
    <i name="eentropy">     -0.19412188 </i>
    <i name="bandstr">  -1372.97620513 </i>
    <i name="atom">   6761.44252427 </i>
    <i name="e_fr_energy">   -191.21067367 </i>
    <i name="e_wo_entrp">   -191.01655180 </i>
    <i name="e_0_energy">   -191.11361274 </i>
   </energy>
  </scstep>
  <scstep>
   <time name="dav">   33.15   33.23</time>
   <time name="total">   33.67   33.76</time>
   <energy>
    <i name="e_fr_energy">   -191.15815190 </i>
    <i name="e_wo_entrp">   -190.95713665 </i>
    <i name="e_0_energy">   -191.05764427 </i>
   </energy>
  </scstep>
  <scstep>
   <time name="dav">   29.90   29.97</time>
   <time name="total">   30.41   30.50</time>
   <energy>
    <i name="e_fr_energy">   -191.08000622 </i>
    <i name="e_wo_entrp">   -190.86843957 </i>
    <i name="e_0_energy">   -190.97422290 </i>
   </energy>
  </scstep>
  <scstep>
   <time name="dav">   32.19   32.27</time>
   <time name="total">   32.72   32.80</time>
   <energy>
    <i name="e_fr_energy">   -190.76040068 </i>
    <i name="e_wo_entrp">   -190.56082096 </i>
    <i name="e_0_energy">   -190.66061082 </i>
   </energy>
  </scstep>
  <scstep>
   <time name="dav">   30.24   30.31</time>
   <time name="total">   30.76   30.84</time>
   <energy>
    <i name="e_fr_energy">   -190.74527316 </i>
    <i name="e_wo_entrp">   -190.54779393 </i>
    <i name="e_0_energy">   -190.64653355 </i>
   </energy>
  </scstep>
  <scstep>
   <time name="dav">   30.35   30.42</time>
   <time name="total">   30.87   30.95</time>
   <energy>
    <i name="e_fr_energy">   -190.64189756 </i>
    <i name="e_wo_entrp">   -190.44038931 </i>
    <i name="e_0_energy">   -190.54114344 </i>
   </energy>
  </scstep>
  <scstep>
   <time name="dav">   30.93   31.00</time>
   <time name="total">   31.45   31.54</time>
   <energy>
    <i name="e_fr_energy">   -190.63547230 </i>
    <i name="e_wo_entrp">   -190.43593853 </i>
    <i name="e_0_energy">   -190.53570542 </i>
   </energy>
  </scstep>
  <scstep>
   <time name="dav">   28.32   28.39</time>
   <time name="total">   28.84   28.92</time>
   <energy>
    <i name="e_fr_energy">   -190.63377401 </i>
    <i name="e_wo_entrp">   -190.43405563 </i>
    <i name="e_0_energy">   -190.53391482 </i>
   </energy>
  </scstep>
  <scstep>
   <time name="dav">   28.89   28.96</time>
   <time name="total">   29.41   29.49</time>
   <energy>
    <i name="e_fr_energy">   -190.63142461 </i>
    <i name="e_wo_entrp">   -190.43168781 </i>
    <i name="e_0_energy">   -190.53155621 </i>
   </energy>
  </scstep>
  <scstep>
   <time name="dav">   26.25   26.31</time>
   <time name="total">   26.77   26.84</time>
   <energy>
    <i name="e_fr_energy">   -190.63176196 </i>
    <i name="e_wo_entrp">   -190.43182074 </i>
    <i name="e_0_energy">   -190.53179135 </i>
   </energy>
  </scstep>
  <scstep>
   <time name="dav">   27.42   27.48</time>
   <time name="total">   27.95   28.02</time>
   <energy>
    <i name="e_fr_energy">   -190.63156619 </i>
    <i name="e_wo_entrp">   -190.43178134 </i>
    <i name="e_0_energy">   -190.53167376 </i>
   </energy>
  </scstep>
  <scstep>
   <time name="dav">   19.82   19.86</time>
   <time name="total">   19.85   19.91</time>
   <energy>
    <i name="alphaZ">     85.80222701 </i>
    <i name="ewald">  42821.70608254 </i>
    <i name="hartreedc"> -48809.96749375 </i>
    <i name="XCdc">   -234.32191456 </i>
    <i name="pawpsdc">   4062.15772559 </i>
    <i name="pawaedc">  -3478.00919670 </i>
    <i name="eentropy">     -0.19974682 </i>
    <i name="bandstr">  -1399.24177608 </i>
    <i name="atom">   6761.44252427 </i>
    <i name="e_fr_energy">   -190.63156849 </i>
    <i name="e_wo_entrp">   -190.43182167 </i>
    <i name="e_0_energy">   -190.53169508 </i>
   </energy>
  </scstep>
  <structure>
   <crystal>
    <varray name="basis" >
     <v>       8.48704436       4.89949255       0.00000000 </v>
     <v>      -8.48733583       4.89999839       0.00000000 </v>
     <v>       0.00000000       0.00000000      30.00000000 </v>
    </varray>
    <i name="volume">   2495.10426929 </i>
    <varray name="rec_basis" >
     <v>       0.05891535       0.10204787       0.00000000 </v>
     <v>      -0.05890927       0.10204437       0.00000000 </v>
     <v>       0.00000000       0.00000000       0.03333333 </v>
    </varray>
   </crystal>
   <varray name="positions" >
    <v>       0.67202724      -0.00049116       0.00020563 </v>
    <v>      -0.00309702       0.66607573      -0.00022580 </v>
    <v>       0.33320635       0.66413516      -0.00025750 </v>
    <v>       0.67000761       0.66874164       0.00028112 </v>
    <v>       1.00068699       0.32925990      -0.00023837 </v>
    <v>      -0.00143002       0.00207063       0.00024395 </v>
    <v>       0.33046907       0.00161357      -0.00006559 </v>
    <v>       0.32900934       0.33155266      -0.00000975 </v>
    <v>       0.66922412       0.33683263       0.00001402 </v>
    <v>       0.11223952       0.22252359       0.94872303 </v>
    <v>       0.22307421       0.11159528       0.05108812 </v>
    <v>       0.11361724       0.56092742       0.95216267 </v>
    <v>       0.22550486       0.44956191       0.04974105 </v>
    <v>       0.10905863       0.88347142       0.95052274 </v>
    <v>       0.22010683       0.77342934       0.04781335 </v>
    <v>       0.44454315       0.22261178       0.94932275 </v>
    <v>       0.55779829       0.10851161       0.04888412 </v>
    <v>       0.44101144       0.55731735       0.95068012 </v>
    <v>       0.55462918       0.44290878       0.05048430 </v>
    <v>       0.44642978       0.88682838       0.95245883 </v>
    <v>       0.55281110       0.78059076       0.04816175 </v>
    <v>       0.77394542       0.21679742       0.95059847 </v>
    <v>       0.88264462       0.10784982       0.05017813 </v>
    <v>       0.78320072       0.55743546       0.95005823 </v>
    <v>       0.89082617       0.44949534       0.04929866 </v>
    <v>       0.77456708       0.89171703       0.95020720 </v>
    <v>       0.89210254       0.77485099       0.04966869 </v>
   </varray>
  </structure>
  <varray name="forces" >
   <v>       0.35473173       0.20509326      -0.04549776 </v>
   <v>      -0.21853545      -0.20832338       0.04342216 </v>
   <v>       0.18451371      -0.12081267      -0.04648231 </v>
   <v>       0.22763359       0.14885934       0.00925403 </v>
   <v>       0.43573926      -0.14411156       0.00806088 </v>
   <v>      -0.19937461       0.22814610      -0.02823679 </v>
   <v>      -0.43335897       0.05894763      -0.01589107 </v>
   <v>      -0.01662582      -0.36883518      -0.00463649 </v>
   <v>      -0.20490192       0.17159743       0.05280875 </v>
   <v>       0.00916161      -0.03770163      -0.54998548 </v>
   <v>      -0.07354418      -0.03518156       0.50187487 </v>
   <v>       0.01652770      -0.01667423      -0.24408209 </v>
   <v>      -0.03264382       0.01275607       0.37942632 </v>
   <v>      -0.03779355      -0.04957015      -0.32082392 </v>
   <v>      -0.02325105      -0.01839239       0.15705889 </v>
   <v>      -0.04965747       0.04626887      -0.33769405 </v>
   <v>       0.03058750      -0.00305294       0.13939811 </v>
   <v>       0.00430510       0.01247235      -0.26433282 </v>
   <v>      -0.05092868      -0.01114282       0.27678013 </v>
   <v>      -0.00210387       0.02306486      -0.07908084 </v>
   <v>      -0.01503423       0.00918881       0.31686363 </v>
   <v>       0.02824157      -0.04138467      -0.27038538 </v>
   <v>      -0.01051809      -0.04369750       0.56682619 </v>
   <v>       0.01637865       0.06821712      -0.47647205 </v>
   <v>       0.04863352       0.06535979       0.22524637 </v>
   <v>      -0.01548834       0.00156814      -0.39563656 </v>
   <v>       0.02730610       0.04734093       0.40221730 </v>
  </varray>
  <varray name="stress" >
   <v>      -5.86672520       0.01241671      -0.06807400 </v>
   <v>       0.01241663      -5.92655240       0.01713662 </v>
   <v>      -0.06807389       0.01713666       4.44579889 </v>
  </varray>
  <energy>
   <i name="e_fr_energy">   -190.63156849 </i>
   <i name="e_wo_entrp">   -190.53169508 </i>
   <i name="e_0_energy">     -0.19974682 </i>
  </energy>
  <time name="totalsc">  387.99  389.01</time>
 </calculation>
 <calculation>
  <scstep>
   <time name="dav">   21.93   21.99</time>
   <time name="total">   22.45   22.50</time>
   <energy>
    <i name="alphaZ">     90.38537804 </i>
    <i name="ewald">  44761.75629015 </i>
    <i name="hartreedc"> -50807.93893321 </i>
    <i name="XCdc">   -231.68359600 </i>
    <i name="pawpsdc">   4062.10212769 </i>
    <i name="pawaedc">  -3477.94930136 </i>
    <i name="eentropy">     -0.17617714 </i>
    <i name="bandstr">  -1350.01959500 </i>
    <i name="atom">   6761.44252427 </i>
    <i name="e_fr_energy">   -192.08128256 </i>
    <i name="e_wo_entrp">   -191.90510542 </i>
    <i name="e_0_energy">   -191.99319399 </i>
   </energy>
  </scstep>
  <scstep>
   <time name="dav">   31.11   31.18</time>
   <time name="total">   31.62   31.70</time>
   <energy>
    <i name="e_fr_energy">   -191.88448696 </i>
    <i name="e_wo_entrp">   -191.69786887 </i>
    <i name="e_0_energy">   -191.79117792 </i>
   </energy>
  </scstep>
  <scstep>
   <time name="dav">   27.59   27.66</time>
   <time name="total">   28.11   28.18</time>
   <energy>
    <i name="e_fr_energy">   -192.16700410 </i>
    <i name="e_wo_entrp">   -191.96605962 </i>
    <i name="e_0_energy">   -192.06653186 </i>
   </energy>
  </scstep>
  <scstep>
   <time name="dav">   30.04   30.11</time>
   <time name="total">   30.55   30.64</time>
   <energy>
    <i name="e_fr_energy">   -191.53310340 </i>
    <i name="e_wo_entrp">   -191.34985419 </i>
    <i name="e_0_energy">   -191.44147879 </i>
   </energy>
  </scstep>
  <scstep>
   <time name="dav">   30.33   30.40</time>
   <time name="total">   30.84   30.93</time>
   <energy>
    <i name="e_fr_energy">   -191.45833898 </i>
    <i name="e_wo_entrp">   -191.27881291 </i>
    <i name="e_0_energy">   -191.36857594 </i>
   </energy>
  </scstep>
  <scstep>
   <time name="dav">   30.32   30.39</time>
   <time name="total">   30.83   30.92</time>
   <energy>
    <i name="e_fr_energy">   -191.26580065 </i>
    <i name="e_wo_entrp">   -191.08026501 </i>
    <i name="e_0_energy">   -191.17303283 </i>
   </energy>
  </scstep>
  <scstep>
   <time name="dav">   30.12   30.19</time>
   <time name="total">   30.63   30.72</time>
   <energy>
    <i name="e_fr_energy">   -191.25915215 </i>
    <i name="e_wo_entrp">   -191.07456279 </i>
    <i name="e_0_energy">   -191.16685747 </i>
   </energy>
  </scstep>
  <scstep>
   <time name="dav">   26.98   27.04</time>
   <time name="total">   27.49   27.57</time>
   <energy>
    <i name="e_fr_energy">   -191.25433580 </i>
    <i name="e_wo_entrp">   -191.06968806 </i>
    <i name="e_0_energy">   -191.16201193 </i>
   </energy>
  </scstep>
  <scstep>
   <time name="dav">   31.29   31.37</time>
   <time name="total">   31.81   31.89</time>
   <energy>
    <i name="e_fr_energy">   -191.25490702 </i>
    <i name="e_wo_entrp">   -191.07027324 </i>
    <i name="e_0_energy">   -191.16259013 </i>
   </energy>
  </scstep>
  <scstep>
   <time name="dav">   28.35   28.42</time>
   <time name="total">   28.87   28.95</time>
   <energy>
    <i name="e_fr_energy">   -191.25421339 </i>
    <i name="e_wo_entrp">   -191.06956703 </i>
    <i name="e_0_energy">   -191.16189021 </i>
   </energy>
  </scstep>
  <scstep>
   <time name="dav">   27.24   27.31</time>
   <time name="total">   27.28   27.35</time>
   <energy>
    <i name="alphaZ">     90.38537804 </i>
    <i name="ewald">  44761.75629015 </i>
    <i name="hartreedc"> -50771.65503891 </i>
    <i name="XCdc">   -233.32223953 </i>
    <i name="pawpsdc">   4083.80669462 </i>
    <i name="pawaedc">  -3499.73052328 </i>
    <i name="eentropy">     -0.18478373 </i>
    <i name="bandstr">  -1383.75242515 </i>
    <i name="atom">   6761.44252427 </i>
    <i name="e_fr_energy">   -191.25412351 </i>
    <i name="e_wo_entrp">   -191.06933978 </i>
    <i name="e_0_energy">   -191.16173165 </i>
   </energy>
  </scstep>
  <structure>
   <crystal>
    <varray name="basis" >
     <v>       8.27014880       4.77346785       0.00000000 </v>
     <v>      -8.27005776       4.77331167       0.00000000 </v>
     <v>       0.00000000       0.00000000      30.00000000 </v>
    </varray>
    <i name="volume">   2368.58557846 </i>
    <varray name="rec_basis" >
     <v>       0.06045775       0.10474679       0.00000000 </v>
     <v>      -0.06045973       0.10474794       0.00000000 </v>
     <v>       0.00000000       0.00000000       0.03333333 </v>
    </varray>
   </crystal>
   <varray name="positions" >
    <v>       0.67728699      -0.00036862       0.00002041 </v>
    <v>      -0.00737731       0.66501034      -0.00005022 </v>
    <v>       0.33300169       0.66117565      -0.00046557 </v>
    <v>       0.67349691       0.66884456       0.00031745 </v>
    <v>       1.00200575       0.32418140      -0.00021613 </v>
    <v>       0.00004354       0.00647779       0.00011232 </v>
    <v>       0.32816216       0.00579556      -0.00012203 </v>
    <v>       0.32430194       0.32696184      -0.00003015 </v>
    <v>       0.66976261       0.34039432       0.00027277 </v>
    <v>       0.11163005       0.22184272       0.94578681 </v>
    <v>       0.22199096       0.11158081       0.05381134 </v>
    <v>       0.11380371       0.56108544       0.95065990 </v>
    <v>       0.22553872       0.45055600       0.05192765 </v>
    <v>       0.10770508       0.88258279       0.94859319 </v>
    <v>       0.21939488       0.77269525       0.04900796 </v>
    <v>       0.44475285       0.22354863       0.94728387 </v>
    <v>       0.55826155       0.10795636       0.05004125 </v>
    <v>       0.44112422       0.55792303       0.94898607 </v>
    <v>       0.55422432       0.44321490       0.05226743 </v>
    <v>       0.44702688       0.88681806       0.95161802 </v>
    <v>       0.55254162       0.78104736       0.04998185 </v>
    <v>       0.77345192       0.21548039       0.94886840 </v>
    <v>       0.88152646       0.10716789       0.05312711 </v>
    <v>       0.78471868       0.55865487       0.94746997 </v>
    <v>       0.89244769       0.45051360       0.05083502 </v>
    <v>       0.77422893       0.89208353       0.94795602 </v>
    <v>       0.89316163       0.77498998       0.05193920 </v>
   </varray>
  </structure>
  <varray name="forces" >
   <v>       0.32318312       0.09707750       0.00837008 </v>
   <v>      -0.20229977      -0.18571306       0.02995223 </v>
   <v>       0.15662555      -0.08014386      -0.03100090 </v>
   <v>       0.20559405       0.09298224       0.01623979 </v>
   <v>       0.30133924      -0.03554232       0.02493362 </v>
   <v>      -0.03597607       0.24285769       0.01289843 </v>
   <v>      -0.37067902       0.01514885      -0.00287639 </v>
   <v>       0.05760822      -0.33441838      -0.02588660 </v>
   <v>      -0.29793129       0.10724792      -0.01387982 </v>
   <v>      -0.00923541      -0.02921792      -0.25628058 </v>
   <v>      -0.12334545      -0.06392190       0.26351919 </v>
   <v>       0.04619622      -0.15980705       0.05965390 </v>
   <v>       0.06134528      -0.08868137       0.08339174 </v>
   <v>      -0.10838544       0.02834942      -0.03854406 </v>
   <v>      -0.08370685       0.03585809      -0.10818961 </v>
   <v>      -0.08816700       0.07179561      -0.12719174 </v>
   <v>      -0.04319220       0.01279036      -0.16147365 </v>
   <v>       0.14870644      -0.03122411       0.05292838 </v>
   <v>      -0.15166933      -0.01574590       0.02579341 </v>
   <v>      -0.10110615       0.05680866       0.17568009 </v>
   <v>       0.10749341       0.03115420       0.02375596 </v>
   <v>      -0.00937434       0.08252782       0.09396473 </v>
   <v>       0.07496259       0.04435407       0.16624059 </v>
   <v>      -0.01846055      -0.00417327      -0.17879341 </v>
   <v>       0.14490884      -0.02034660      -0.06294918 </v>
   <v>       0.11327964       0.03814475      -0.09528727 </v>
   <v>      -0.09771374       0.09183855       0.06503107 </v>
  </varray>
  <varray name="stress" >
   <v>      -0.01708493      -0.11853719      -0.09588816 </v>
   <v>      -0.11853716      -0.08059757      -0.03084443 </v>
   <v>      -0.09588825      -0.03084452      -0.38457602 </v>
  </varray>
  <energy>
   <i name="e_fr_energy">   -191.25412351 </i>
   <i name="e_wo_entrp">   -191.16173165 </i>
   <i name="e_0_energy">     -0.18478373 </i>
  </energy>
  <time name="totalsc">  363.29  364.24</time>
 </calculation>
 <calculation>
  <scstep>
   <time name="dav">   21.90   21.96</time>
   <time name="total">   22.42   22.47</time>
   <energy>
    <i name="alphaZ">     90.41883422 </i>
    <i name="ewald">  44759.92801713 </i>
    <i name="hartreedc"> -50770.96251469 </i>
    <i name="XCdc">   -233.37158451 </i>
    <i name="pawpsdc">   4084.26636362 </i>
    <i name="pawaedc">  -3500.18790666 </i>
    <i name="eentropy">     -0.19016149 </i>
    <i name="bandstr">  -1382.65700396 </i>
    <i name="atom">   6761.44252427 </i>
    <i name="e_fr_energy">   -191.31343207 </i>
    <i name="e_wo_entrp">   -191.12327057 </i>
    <i name="e_0_energy">   -191.21835132 </i>
   </energy>
  </scstep>
  <scstep>
   <time name="dav">   33.14   33.22</time>
   <time name="total">   33.65   33.74</time>
   <energy>
    <i name="e_fr_energy">   -191.37204554 </i>
    <i name="e_wo_entrp">   -191.17446417 </i>
    <i name="e_0_energy">   -191.27325486 </i>
   </energy>
  </scstep>
  <scstep>
   <time name="dav">   29.48   29.55</time>
   <time name="total">   29.99   30.07</time>
   <energy>
    <i name="e_fr_energy">   -191.32293537 </i>
    <i name="e_wo_entrp">   -191.13205446 </i>
    <i name="e_0_energy">   -191.22749491 </i>
   </energy>
  </scstep>
  <scstep>
   <time name="dav">   28.78   28.85</time>
   <time name="total">   29.29   29.37</time>
   <energy>
    <i name="e_fr_energy">   -191.32268839 </i>
    <i name="e_wo_entrp">   -191.13188658 </i>
    <i name="e_0_energy">   -191.22728748 </i>
   </energy>
  </scstep>
  <scstep>
   <time name="dav">   28.45   28.52</time>
   <time name="total">   28.97   29.04</time>
   <energy>
    <i name="e_fr_energy">   -191.31985227 </i>
    <i name="e_wo_entrp">   -191.12843576 </i>
    <i name="e_0_energy">   -191.22414402 </i>
   </energy>
  </scstep>
  <scstep>
   <time name="dav">   27.89   27.95</time>
   <time name="total">   28.40   28.48</time>
   <energy>
    <i name="e_fr_energy">   -191.31938321 </i>
    <i name="e_wo_entrp">   -191.12800161 </i>
    <i name="e_0_energy">   -191.22369241 </i>
   </energy>
  </scstep>
  <scstep>
   <time name="dav">   29.17   29.24</time>
   <time name="total">   29.68   29.76</time>
   <energy>
    <i name="e_fr_energy">   -191.31978099 </i>
    <i name="e_wo_entrp">   -191.12838468 </i>
    <i name="e_0_energy">   -191.22408283 </i>
   </energy>
  </scstep>
  <scstep>
   <time name="dav">   25.18   25.24</time>
   <time name="total">   25.69   25.76</time>
   <energy>
    <i name="e_fr_energy">   -191.31924694 </i>
    <i name="e_wo_entrp">   -191.12784298 </i>
    <i name="e_0_energy">   -191.22354496 </i>
   </energy>
  </scstep>
  <scstep>
   <time name="dav">   17.90   17.94</time>
   <time name="total">   17.94   17.99</time>
   <energy>
    <i name="alphaZ">     90.41883422 </i>
    <i name="ewald">  44759.92801713 </i>
    <i name="hartreedc"> -50771.68672223 </i>
    <i name="XCdc">   -233.36531510 </i>
    <i name="pawpsdc">   4082.49246405 </i>
    <i name="pawaedc">  -3498.37990917 </i>
    <i name="eentropy">     -0.19137420 </i>
    <i name="bandstr">  -1381.97773421 </i>
    <i name="atom">   6761.44252427 </i>
    <i name="e_fr_energy">   -191.31921524 </i>
    <i name="e_wo_entrp">   -191.12784103 </i>
    <i name="e_0_energy">   -191.22352814 </i>
   </energy>
  </scstep>
  <structure>
   <crystal>
    <varray name="basis" >
     <v>       8.26781475       4.76957721       0.00000000 </v>
     <v>      -8.27073004       4.77462965       0.00000000 </v>
     <v>       0.00000000       0.00000000      30.00000000 </v>
    </varray>
    <i name="volume">   2367.70917021 </i>
    <varray name="rec_basis" >
     <v>       0.06049683       0.10479408       0.00000000 </v>
     <v>      -0.06043281       0.10475714       0.00000000 </v>
     <v>       0.00000000       0.00000000       0.03333333 </v>
    </varray>
   </crystal>
   <varray name="positions" >
    <v>       0.67874727      -0.00082262       0.00003329 </v>
    <v>      -0.00892994       0.66465607      -0.00000116 </v>
    <v>       0.33305305       0.66029815      -0.00051649 </v>
    <v>       0.67458486       0.66871412       0.00034384 </v>
    <v>       1.00271368       0.32309857      -0.00017574 </v>
    <v>       0.00117766       0.00783344       0.00013269 </v>
    <v>       0.32714383       0.00697542      -0.00012686 </v>
    <v>       0.32275474       0.32507675      -0.00007209 </v>
    <v>       0.66943531       0.34182583       0.00025133 </v>
    <v>       0.11145184       0.22171858       0.94536040 </v>
    <v>       0.22130016       0.11161748       0.05424867 </v>
    <v>       0.11312829       0.56013934       0.95074995 </v>
    <v>       0.22526833       0.44993016       0.05207167 </v>
    <v>       0.10752540       0.88304049       0.94852265 </v>
    <v>       0.21932835       0.77311896       0.04883844 </v>
    <v>       0.44485983       0.22417548       0.94706947 </v>
    <v>       0.55820212       0.10814545       0.04978549 </v>
    <v>       0.44140199       0.55733131       0.94906432 </v>
    <v>       0.55369817       0.44358107       0.05231691 </v>
    <v>       0.44702186       0.88740265       0.95189803 </v>
    <v>       0.55301372       0.78089249       0.05002788 </v>
    <v>       0.77384173       0.21592136       0.94901287 </v>
    <v>       0.88196674       0.10717053       0.05340781 </v>
    <v>       0.78464990       0.55869321       0.94717022 </v>
    <v>       0.89277611       0.44998992       0.05074001 </v>
    <v>       0.77475337       0.89194691       0.94779253 </v>
    <v>       0.89334610       0.77574332       0.05205379 </v>
   </varray>
  </structure>
  <varray name="forces" >
   <v>       0.37294743       0.05584418      -0.00951045 </v>
   <v>      -0.19177912      -0.18599033       0.03202156 </v>
   <v>       0.16721535      -0.07468483      -0.05419033 </v>
   <v>       0.19370382       0.11950595      -0.00105956 </v>
   <v>       0.33209982      -0.00813103       0.00362092 </v>
   <v>      -0.03599401       0.22476671      -0.02675207 </v>
   <v>      -0.39836053       0.01226914       0.00381464 </v>
   <v>       0.05418297      -0.33643052      -0.02427395 </v>
   <v>      -0.34952684       0.12091737       0.02425147 </v>
   <v>       0.00247943      -0.02401172      -0.20467120 </v>
   <v>      -0.08486777      -0.03523229       0.23776570 </v>
   <v>       0.01998992      -0.10961878       0.09974153 </v>
   <v>       0.05470895      -0.05325159       0.06873137 </v>
   <v>      -0.07130903       0.01508297      -0.03834284 </v>
   <v>      -0.07025899       0.02874677      -0.13264738 </v>
   <v>      -0.06588452       0.04137567      -0.10610339 </v>
   <v>      -0.04307737       0.01970270      -0.19825750 </v>
   <v>       0.11770424      -0.03049909       0.07264530 </v>
   <v>      -0.12440848      -0.02233269       0.00755939 </v>
   <v>      -0.08397749       0.04846376       0.21307849 </v>
   <v>       0.07364247       0.03051999       0.00957550 </v>
   <v>      -0.02435070       0.04204614       0.14266203 </v>
   <v>       0.05664379       0.02497714       0.14144253 </v>
   <v>      -0.01614411       0.00873220      -0.16968594 </v>
   <v>       0.08368269      -0.02393174      -0.09712759 </v>
   <v>       0.08682278       0.03546133      -0.05530087 </v>
   <v>      -0.05588469       0.07570259       0.06101264 </v>
  </varray>
  <varray name="stress" >
   <v>      -0.00303155      -0.02078270      -0.08517001 </v>
   <v>      -0.02078283      -0.04645054       0.01812868 </v>
   <v>      -0.08517010       0.01812869      -1.02649918 </v>
  </varray>
  <energy>
   <i name="e_fr_energy">   -191.31921524 </i>
   <i name="e_wo_entrp">   -191.22352814 </i>
   <i name="e_0_energy">     -0.19137420 </i>
  </energy>
  <time name="totalsc">  288.71  289.47</time>
 </calculation>
 <calculation>
  <scstep>
   <time name="dav">   21.91   21.96</time>
   <time name="total">   22.42   22.48</time>
   <energy>
    <i name="alphaZ">     90.42752752 </i>
    <i name="ewald">  44761.47640704 </i>
    <i name="hartreedc"> -50773.44816613 </i>
    <i name="XCdc">   -233.36965742 </i>
    <i name="pawpsdc">   4082.46579986 </i>
    <i name="pawaedc">  -3498.35317019 </i>
    <i name="eentropy">     -0.19435077 </i>
    <i name="bandstr">  -1381.80908339 </i>
    <i name="atom">   6761.44252427 </i>
    <i name="e_fr_energy">   -191.36216922 </i>
    <i name="e_wo_entrp">   -191.16781845 </i>
    <i name="e_0_energy">   -191.26499384 </i>
   </energy>
  </scstep>
  <scstep>
   <time name="dav">   33.29   33.37</time>
   <time name="total">   33.80   33.89</time>
   <energy>
    <i name="e_fr_energy">   -191.38619294 </i>
    <i name="e_wo_entrp">   -191.18546410 </i>
    <i name="e_0_energy">   -191.28582852 </i>
   </energy>
  </scstep>
  <scstep>
   <time name="dav">   29.89   29.96</time>
   <time name="total">   30.40   30.49</time>
   <energy>
    <i name="e_fr_energy">   -191.36577007 </i>
    <i name="e_wo_entrp">   -191.17088703 </i>
    <i name="e_0_energy">   -191.26832855 </i>
   </energy>
  </scstep>
  <scstep>
   <time name="dav">   28.27   28.33</time>
   <time name="total">   28.78   28.85</time>
   <energy>
    <i name="e_fr_energy">   -191.36583761 </i>
    <i name="e_wo_entrp">   -191.17100524 </i>
    <i name="e_0_energy">   -191.26842142 </i>
   </energy>
  </scstep>
  <scstep>
   <time name="dav">   27.84   27.91</time>
   <time name="total">   28.35   28.43</time>
   <energy>
    <i name="e_fr_energy">   -191.36445006 </i>
    <i name="e_wo_entrp">   -191.16902181 </i>
    <i name="e_0_energy">   -191.26673594 </i>
   </energy>
  </scstep>
  <scstep>
   <time name="dav">   26.72   26.78</time>
   <time name="total">   27.23   27.30</time>
   <energy>
    <i name="e_fr_energy">   -191.36425080 </i>
    <i name="e_wo_entrp">   -191.16885614 </i>
    <i name="e_0_energy">   -191.26655347 </i>
   </energy>
  </scstep>
  <scstep>
   <time name="dav">   26.58   26.65</time>
   <time name="total">   27.09   27.17</time>
   <energy>
    <i name="e_fr_energy">   -191.36439743 </i>
    <i name="e_wo_entrp">   -191.16900504 </i>
    <i name="e_0_energy">   -191.26670124 </i>
   </energy>
  </scstep>
  <scstep>
   <time name="dav">   23.35   23.41</time>
   <time name="total">   23.86   23.93</time>
   <energy>
    <i name="e_fr_energy">   -191.36418790 </i>
    <i name="e_wo_entrp">   -191.16877104 </i>
    <i name="e_0_energy">   -191.26647947 </i>
   </energy>
  </scstep>
  <scstep>
   <time name="dav">   18.10   18.14</time>
   <time name="total">   18.13   18.19</time>
   <energy>
    <i name="alphaZ">     90.42752752 </i>
    <i name="ewald">  44761.47640704 </i>
    <i name="hartreedc"> -50773.90715592 </i>
    <i name="XCdc">   -233.35833070 </i>
[...]
      <set comment="kpoint 31">
       <r>  -17.5993    1.0000 </r>
       <r>  -17.2634    1.0000 </r>
       <r>  -16.9162    1.0000 </r>
       <r>  -16.6979    1.0000 </r>
       <r>  -16.5384    1.0000 </r>
       <r>  -16.4705    1.0000 </r>
       <r>  -16.3375    1.0000 </r>
       <r>  -16.2247    1.0000 </r>
       <r>  -16.1756    1.0000 </r>
       <r>  -16.0476    1.0000 </r>
       <r>  -15.9239    1.0000 </r>
       <r>  -15.8367    1.0000 </r>
       <r>  -15.7585    1.0000 </r>
       <r>  -15.6106    1.0000 </r>
       <r>  -15.5427    1.0000 </r>
       <r>  -15.4352    1.0000 </r>
       <r>  -15.3541    1.0000 </r>
       <r>  -15.2290    1.0000 </r>
       <r>   -9.8056    1.0000 </r>
       <r>   -9.5210    1.0000 </r>
       <r>   -9.3971    1.0000 </r>
       <r>   -9.0728    1.0000 </r>
       <r>   -8.8498    1.0000 </r>
       <r>   -8.6652    1.0000 </r>
       <r>   -8.5872    1.0000 </r>
       <r>   -8.5357    1.0000 </r>
       <r>   -8.4252    1.0000 </r>
       <r>   -8.3408    1.0000 </r>
       <r>   -8.2853    1.0000 </r>
       <r>   -8.2047    1.0000 </r>
       <r>   -8.1420    1.0000 </r>
       <r>   -8.0519    1.0000 </r>
       <r>   -7.9544    1.0000 </r>
       <r>   -7.9010    1.0000 </r>
       <r>   -7.7747    1.0000 </r>
       <r>   -7.6986    1.0000 </r>
       <r>   -7.6115    1.0000 </r>
       <r>   -7.5082    1.0000 </r>
       <r>   -7.4049    1.0000 </r>
       <r>   -7.2460    1.0000 </r>
       <r>   -7.1485    1.0000 </r>
       <r>   -7.0664    1.0000 </r>
       <r>   -7.0421    1.0000 </r>
       <r>   -6.9387    1.0000 </r>
       <r>   -6.8852    1.0000 </r>
       <r>   -6.7622    1.0000 </r>
       <r>   -6.6541    1.0000 </r>
       <r>   -6.5524    1.0000 </r>
       <r>   -6.5209    1.0000 </r>
       <r>   -6.4336    1.0000 </r>
       <r>   -6.3558    1.0000 </r>
       <r>   -6.3300    1.0000 </r>
       <r>   -6.2468    1.0000 </r>
       <r>   -6.1714    1.0000 </r>
       <r>   -6.1097    1.0000 </r>
       <r>   -6.0606    1.0000 </r>
       <r>   -5.9829    1.0000 </r>
       <r>   -5.9413    1.0000 </r>
       <r>   -5.8596    1.0000 </r>
       <r>   -5.6962    1.0000 </r>
       <r>   -5.6296    1.0000 </r>
       <r>   -5.5458    1.0000 </r>
       <r>   -5.4835    1.0000 </r>
       <r>   -5.3854    1.0000 </r>
       <r>   -5.2556    1.0000 </r>
       <r>   -5.2369    1.0000 </r>
       <r>   -4.9437    1.0000 </r>
       <r>   -4.8756    1.0000 </r>
       <r>   -4.7852    1.0000 </r>
       <r>   -4.6913    1.0000 </r>
       <r>   -4.4790    1.0000 </r>
       <r>   -4.4441    1.0000 </r>
       <r>   -4.3281    1.0000 </r>
       <r>   -4.2084    1.0000 </r>
       <r>   -4.1502    1.0000 </r>
       <r>   -3.9844    1.0000 </r>
       <r>   -3.8953    1.0000 </r>
       <r>   -3.6920    0.9996 </r>
       <r>   -3.5733    0.9938 </r>
       <r>   -3.1419    0.2907 </r>
       <r>   -2.9638    0.0351 </r>
       <r>   -2.8907    0.0100 </r>
       <r>   -2.6666    0.0000 </r>
       <r>   -2.5496    0.0000 </r>
       <r>   -2.5256    0.0000 </r>
       <r>   -2.3940    0.0000 </r>
       <r>   -2.2145    0.0000 </r>
       <r>   -2.0637    0.0000 </r>
       <r>   -2.0065    0.0000 </r>
       <r>   -1.8873    0.0000 </r>
       <r>   -1.7613    0.0000 </r>
       <r>   -1.4827    0.0000 </r>
       <r>   -1.3496    0.0000 </r>
       <r>   -1.3123    0.0000 </r>
       <r>   -1.1898    0.0000 </r>
       <r>   -1.1425    0.0000 </r>
       <r>   -1.0713    0.0000 </r>
       <r>   -0.9802    0.0000 </r>
       <r>   -0.9385    0.0000 </r>
       <r>   -0.8467    0.0000 </r>
       <r>   -0.8036    0.0000 </r>
       <r>   -0.7733    0.0000 </r>
       <r>   -0.7208    0.0000 </r>
       <r>   -0.5843    0.0000 </r>
       <r>   -0.4694    0.0000 </r>
       <r>   -0.2406    0.0000 </r>
       <r>   -0.1814    0.0000 </r>
       <r>   -0.0473    0.0000 </r>
       <r>    0.0350    0.0000 </r>
       <r>    0.1602    0.0000 </r>
       <r>    0.4335    0.0000 </r>
       <r>    0.5562    0.0000 </r>
       <r>    0.7030    0.0000 </r>
       <r>    0.8433    0.0000 </r>
       <r>    1.1714    0.0000 </r>
       <r>    1.2470    0.0000 </r>
       <r>    1.5288    0.0000 </r>
       <r>    2.1389    0.0000 </r>
       <r>    2.3089    0.0000 </r>
       <r>    2.3969    0.0000 </r>
      </set>
      <set comment="kpoint 32">
       <r>  -17.6199    1.0000 </r>
       <r>  -17.1443    1.0000 </r>
       <r>  -17.0671    1.0000 </r>
       <r>  -16.7097    1.0000 </r>
       <r>  -16.4989    1.0000 </r>
       <r>  -16.3893    1.0000 </r>
       <r>  -16.2886    1.0000 </r>
       <r>  -16.2570    1.0000 </r>
       <r>  -16.2126    1.0000 </r>
       <r>  -16.0337    1.0000 </r>
       <r>  -15.9564    1.0000 </r>
       <r>  -15.8477    1.0000 </r>
       <r>  -15.7496    1.0000 </r>
       <r>  -15.6280    1.0000 </r>
       <r>  -15.5683    1.0000 </r>
       <r>  -15.4719    1.0000 </r>
       <r>  -15.3258    1.0000 </r>
       <r>  -15.1945    1.0000 </r>
       <r>   -9.7029    1.0000 </r>
       <r>   -9.5946    1.0000 </r>
       <r>   -9.5028    1.0000 </r>
       <r>   -9.1124    1.0000 </r>
       <r>   -8.7804    1.0000 </r>
       <r>   -8.5482    1.0000 </r>
       <r>   -8.5201    1.0000 </r>
       <r>   -8.4277    1.0000 </r>
       <r>   -8.3977    1.0000 </r>
       <r>   -8.3604    1.0000 </r>
       <r>   -8.3178    1.0000 </r>
       <r>   -8.2919    1.0000 </r>
       <r>   -8.1895    1.0000 </r>
       <r>   -8.0930    1.0000 </r>
       <r>   -7.9989    1.0000 </r>
       <r>   -7.9253    1.0000 </r>
       <r>   -7.7940    1.0000 </r>
       <r>   -7.7304    1.0000 </r>
       <r>   -7.6098    1.0000 </r>
       <r>   -7.4527    1.0000 </r>
       <r>   -7.3818    1.0000 </r>
       <r>   -7.2611    1.0000 </r>
       <r>   -7.1361    1.0000 </r>
       <r>   -7.0760    1.0000 </r>
       <r>   -7.0602    1.0000 </r>
       <r>   -6.9677    1.0000 </r>
       <r>   -6.8403    1.0000 </r>
       <r>   -6.7916    1.0000 </r>
       <r>   -6.6484    1.0000 </r>
       <r>   -6.5427    1.0000 </r>
       <r>   -6.4531    1.0000 </r>
       <r>   -6.4271    1.0000 </r>
       <r>   -6.3606    1.0000 </r>
       <r>   -6.3126    1.0000 </r>
       <r>   -6.2567    1.0000 </r>
       <r>   -6.1702    1.0000 </r>
       <r>   -6.1295    1.0000 </r>
       <r>   -6.0403    1.0000 </r>
       <r>   -5.9946    1.0000 </r>
       <r>   -5.8805    1.0000 </r>
       <r>   -5.8250    1.0000 </r>
       <r>   -5.7011    1.0000 </r>
       <r>   -5.6222    1.0000 </r>
       <r>   -5.5788    1.0000 </r>
       <r>   -5.4773    1.0000 </r>
       <r>   -5.4240    1.0000 </r>
       <r>   -5.3579    1.0000 </r>
       <r>   -5.2183    1.0000 </r>
       <r>   -5.1454    1.0000 </r>
       <r>   -4.8155    1.0000 </r>
       <r>   -4.7073    1.0000 </r>
       <r>   -4.6649    1.0000 </r>
       <r>   -4.4673    1.0000 </r>
       <r>   -4.3975    1.0000 </r>
       <r>   -4.3511    1.0000 </r>
       <r>   -4.2299    1.0000 </r>
       <r>   -4.1806    1.0000 </r>
       <r>   -4.0254    1.0000 </r>
       <r>   -3.9872    1.0000 </r>
       <r>   -3.6398    0.9985 </r>
       <r>   -3.5390    0.9880 </r>
       <r>   -3.1397    0.2855 </r>
       <r>   -2.9199    0.0170 </r>
       <r>   -2.8027    0.0016 </r>
       <r>   -2.6862    0.0001 </r>
       <r>   -2.5490    0.0000 </r>
       <r>   -2.4619    0.0000 </r>
       <r>   -2.3946    0.0000 </r>
       <r>   -2.1712    0.0000 </r>
       <r>   -2.0167    0.0000 </r>
       <r>   -1.9548    0.0000 </r>
       <r>   -1.9224    0.0000 </r>
       <r>   -1.7390    0.0000 </r>
       <r>   -1.5244    0.0000 </r>
       <r>   -1.4279    0.0000 </r>
       <r>   -1.3264    0.0000 </r>
       <r>   -1.2505    0.0000 </r>
       <r>   -1.2023    0.0000 </r>
       <r>   -1.0462    0.0000 </r>
       <r>   -1.0009    0.0000 </r>
       <r>   -0.9462    0.0000 </r>
       <r>   -0.8901    0.0000 </r>
       <r>   -0.8470    0.0000 </r>
       <r>   -0.7264    0.0000 </r>
       <r>   -0.6761    0.0000 </r>
       <r>   -0.5764    0.0000 </r>
       <r>   -0.3657    0.0000 </r>
       <r>   -0.2579    0.0000 </r>
       <r>   -0.1480    0.0000 </r>
       <r>   -0.0497    0.0000 </r>
       <r>    0.1146    0.0000 </r>
       <r>    0.2072    0.0000 </r>
       <r>    0.3959    0.0000 </r>
       <r>    0.5910    0.0000 </r>
       <r>    0.6850    0.0000 </r>
       <r>    0.8177    0.0000 </r>
       <r>    1.0772    0.0000 </r>
       <r>    1.2214    0.0000 </r>
       <r>    1.4171    0.0000 </r>
       <r>    2.0984    0.0000 </r>
       <r>    2.2794    0.0000 </r>
       <r>    2.5517    0.0000 </r>
      </set>
      <set comment="kpoint 33">
       <r>  -17.6237    1.0000 </r>
       <r>  -17.2158    1.0000 </r>
       <r>  -16.9343    1.0000 </r>
       <r>  -16.7190    1.0000 </r>
       <r>  -16.5370    1.0000 </r>
       <r>  -16.4261    1.0000 </r>
       <r>  -16.3489    1.0000 </r>
       <r>  -16.2739    1.0000 </r>
       <r>  -16.1177    1.0000 </r>
       <r>  -15.9866    1.0000 </r>
       <r>  -15.9437    1.0000 </r>
       <r>  -15.8502    1.0000 </r>
       <r>  -15.7472    1.0000 </r>
       <r>  -15.6500    1.0000 </r>
       <r>  -15.5880    1.0000 </r>
       <r>  -15.5317    1.0000 </r>
       <r>  -15.2773    1.0000 </r>
       <r>  -15.1948    1.0000 </r>
       <r>   -9.7569    1.0000 </r>
       <r>   -9.4690    1.0000 </r>
       <r>   -9.4438    1.0000 </r>
       <r>   -9.1387    1.0000 </r>
       <r>   -8.9497    1.0000 </r>
       <r>   -8.7144    1.0000 </r>
       <r>   -8.5163    1.0000 </r>
       <r>   -8.4105    1.0000 </r>
       <r>   -8.3793    1.0000 </r>
       <r>   -8.3185    1.0000 </r>
       <r>   -8.2705    1.0000 </r>
       <r>   -8.2130    1.0000 </r>
       <r>   -8.1887    1.0000 </r>
       <r>   -8.1059    1.0000 </r>
       <r>   -8.0254    1.0000 </r>
       <r>   -7.8481    1.0000 </r>
       <r>   -7.7772    1.0000 </r>
       <r>   -7.7064    1.0000 </r>
       <r>   -7.6604    1.0000 </r>
       <r>   -7.4107    1.0000 </r>
       <r>   -7.3131    1.0000 </r>
       <r>   -7.2830    1.0000 </r>
       <r>   -7.1581    1.0000 </r>
       <r>   -7.1045    1.0000 </r>
       <r>   -7.0406    1.0000 </r>
       <r>   -6.8784    1.0000 </r>
       <r>   -6.8410    1.0000 </r>
       <r>   -6.7316    1.0000 </r>
       <r>   -6.6544    1.0000 </r>
       <r>   -6.5821    1.0000 </r>
       <r>   -6.4846    1.0000 </r>
       <r>   -6.4260    1.0000 </r>
       <r>   -6.3883    1.0000 </r>
       <r>   -6.3336    1.0000 </r>
       <r>   -6.2604    1.0000 </r>
       <r>   -6.1625    1.0000 </r>
       <r>   -6.1306    1.0000 </r>
       <r>   -6.0629    1.0000 </r>
       <r>   -6.0268    1.0000 </r>
       <r>   -5.9216    1.0000 </r>
       <r>   -5.8363    1.0000 </r>
       <r>   -5.7715    1.0000 </r>
       <r>   -5.6990    1.0000 </r>
       <r>   -5.5791    1.0000 </r>
       <r>   -5.4955    1.0000 </r>
       <r>   -5.4079    1.0000 </r>
       <r>   -5.3287    1.0000 </r>
       <r>   -5.1982    1.0000 </r>
       <r>   -5.1124    1.0000 </r>
       <r>   -4.7904    1.0000 </r>
       <r>   -4.7417    1.0000 </r>
       <r>   -4.5709    1.0000 </r>
       <r>   -4.5371    1.0000 </r>
       <r>   -4.3792    1.0000 </r>
       <r>   -4.2895    1.0000 </r>
       <r>   -4.2557    1.0000 </r>
       <r>   -4.1389    1.0000 </r>
       <r>   -4.0668    1.0000 </r>
       <r>   -4.0346    1.0000 </r>
       <r>   -3.6657    0.9992 </r>
       <r>   -3.5679    0.9931 </r>
       <r>   -3.0796    0.1607 </r>
       <r>   -2.9538    0.0300 </r>
       <r>   -2.7139    0.0002 </r>
       <r>   -2.6862    0.0001 </r>
       <r>   -2.5524    0.0000 </r>
       <r>   -2.4069    0.0000 </r>
       <r>   -2.3767    0.0000 </r>
       <r>   -2.1399    0.0000 </r>
       <r>   -1.9903    0.0000 </r>
       <r>   -1.8980    0.0000 </r>
       <r>   -1.8639    0.0000 </r>
       <r>   -1.7089    0.0000 </r>
       <r>   -1.5576    0.0000 </r>
       <r>   -1.5345    0.0000 </r>
       <r>   -1.3647    0.0000 </r>
       <r>   -1.2820    0.0000 </r>
       <r>   -1.2431    0.0000 </r>
       <r>   -1.0726    0.0000 </r>
       <r>   -0.9910    0.0000 </r>
       <r>   -0.9750    0.0000 </r>
       <r>   -0.9200    0.0000 </r>
       <r>   -0.8668    0.0000 </r>
       <r>   -0.7262    0.0000 </r>
       <r>   -0.6608    0.0000 </r>
       <r>   -0.5381    0.0000 </r>
       <r>   -0.3406    0.0000 </r>
       <r>   -0.2635    0.0000 </r>
       <r>   -0.1043    0.0000 </r>
       <r>   -0.0376    0.0000 </r>
       <r>    0.1384    0.0000 </r>
       <r>    0.2497    0.0000 </r>
       <r>    0.3971    0.0000 </r>
       <r>    0.5768    0.0000 </r>
       <r>    0.7127    0.0000 </r>
       <r>    0.8549    0.0000 </r>
       <r>    0.9945    0.0000 </r>
       <r>    1.1908    0.0000 </r>
       <r>    1.3652    0.0000 </r>
       <r>    2.1150    0.0000 </r>
       <r>    2.3111    0.0000 </r>
       <r>    2.3753    0.0000 </r>
      </set>
      <set comment="kpoint 34">
       <r>  -17.6210    1.0000 </r>
       <r>  -17.2598    1.0000 </r>
       <r>  -16.7568    1.0000 </r>
       <r>  -16.7263    1.0000 </r>
       <r>  -16.6952    1.0000 </r>
       <r>  -16.4313    1.0000 </r>
       <r>  -16.3262    1.0000 </r>
       <r>  -16.3162    1.0000 </r>
       <r>  -16.0821    1.0000 </r>
       <r>  -15.9774    1.0000 </r>
       <r>  -15.9149    1.0000 </r>
       <r>  -15.8175    1.0000 </r>
       <r>  -15.7474    1.0000 </r>
       <r>  -15.6790    1.0000 </r>
       <r>  -15.6026    1.0000 </r>
       <r>  -15.5570    1.0000 </r>
       <r>  -15.2359    1.0000 </r>
       <r>  -15.2204    1.0000 </r>
       <r>   -9.7949    1.0000 </r>
       <r>   -9.3858    1.0000 </r>
       <r>   -9.3102    1.0000 </r>
       <r>   -9.1589    1.0000 </r>
       <r>   -9.0886    1.0000 </r>
       <r>   -8.8624    1.0000 </r>
       <r>   -8.5143    1.0000 </r>
       <r>   -8.4263    1.0000 </r>
       <r>   -8.3844    1.0000 </r>
       <r>   -8.2997    1.0000 </r>
       <r>   -8.2406    1.0000 </r>
       <r>   -8.2179    1.0000 </r>
       <r>   -8.1546    1.0000 </r>
       <r>   -8.0897    1.0000 </r>
       <r>   -7.9336    1.0000 </r>
       <r>   -7.8793    1.0000 </r>
       <r>   -7.8425    1.0000 </r>
       <r>   -7.7590    1.0000 </r>
       <r>   -7.4838    1.0000 </r>
       <r>   -7.3511    1.0000 </r>
       <r>   -7.3388    1.0000 </r>
       <r>   -7.2510    1.0000 </r>
       <r>   -7.1314    1.0000 </r>
       <r>   -7.0983    1.0000 </r>
       <r>   -7.0501    1.0000 </r>
       <r>   -7.0139    1.0000 </r>
       <r>   -6.8056    1.0000 </r>
       <r>   -6.6981    1.0000 </r>
       <r>   -6.6019    1.0000 </r>
       <r>   -6.5436    1.0000 </r>
       <r>   -6.5360    1.0000 </r>
       <r>   -6.4831    1.0000 </r>
       <r>   -6.4113    1.0000 </r>
       <r>   -6.3058    1.0000 </r>
       <r>   -6.2441    1.0000 </r>
       <r>   -6.2292    1.0000 </r>
       <r>   -6.1474    1.0000 </r>
       <r>   -6.0891    1.0000 </r>
       <r>   -6.0567    1.0000 </r>
       <r>   -5.8869    1.0000 </r>
       <r>   -5.8223    1.0000 </r>
       <r>   -5.7748    1.0000 </r>
       <r>   -5.7513    1.0000 </r>
       <r>   -5.6743    1.0000 </r>
       <r>   -5.4880    1.0000 </r>
       <r>   -5.3688    1.0000 </r>
       <r>   -5.2979    1.0000 </r>
       <r>   -5.2680    1.0000 </r>
       <r>   -4.9164    1.0000 </r>
       <r>   -4.8686    1.0000 </r>
       <r>   -4.7004    1.0000 </r>
       <r>   -4.6357    1.0000 </r>
       <r>   -4.5182    1.0000 </r>
       <r>   -4.3367    1.0000 </r>
       <r>   -4.3168    1.0000 </r>
       <r>   -4.2686    1.0000 </r>
       <r>   -4.1388    1.0000 </r>
       <r>   -4.0618    1.0000 </r>
       <r>   -3.9823    1.0000 </r>
       <r>   -3.7105    0.9997 </r>
       <r>   -3.5968    0.9962 </r>
       <r>   -3.0653    0.1372 </r>
       <r>   -2.9691    0.0381 </r>
       <r>   -2.6906    0.0001 </r>
       <r>   -2.6686    0.0000 </r>
       <r>   -2.5515    0.0000 </r>
       <r>   -2.4104    0.0000 </r>
       <r>   -2.3440    0.0000 </r>
       <r>   -2.1280    0.0000 </r>
       <r>   -1.9782    0.0000 </r>
       <r>   -1.8681    0.0000 </r>
       <r>   -1.8304    0.0000 </r>
       <r>   -1.6732    0.0000 </r>
       <r>   -1.5972    0.0000 </r>
       <r>   -1.5710    0.0000 </r>
       <r>   -1.3876    0.0000 </r>
       <r>   -1.2863    0.0000 </r>
       <r>   -1.2640    0.0000 </r>
       <r>   -1.0830    0.0000 </r>
       <r>   -1.0070    0.0000 </r>
       <r>   -0.9764    0.0000 </r>
       <r>   -0.9248    0.0000 </r>
       <r>   -0.8755    0.0000 </r>
       <r>   -0.7461    0.0000 </r>
       <r>   -0.6441    0.0000 </r>
       <r>   -0.5291    0.0000 </r>
       <r>   -0.3502    0.0000 </r>
       <r>   -0.2487    0.0000 </r>
       <r>   -0.0979    0.0000 </r>
       <r>   -0.0253    0.0000 </r>
       <r>    0.1125    0.0000 </r>
       <r>    0.2850    0.0000 </r>
       <r>    0.4094    0.0000 </r>
       <r>    0.6241    0.0000 </r>
       <r>    0.6598    0.0000 </r>
       <r>    0.8832    0.0000 </r>
       <r>    0.9780    0.0000 </r>
       <r>    1.1819    0.0000 </r>
       <r>    1.3612    0.0000 </r>
       <r>    2.1579    0.0000 </r>
       <r>    2.2605    0.0000 </r>
       <r>    2.3994    0.0000 </r>
      </set>
     </set>
    </set>
   </array>
  </eigenvalues>
  <separator name="orbital magnetization" >
   <v name="MAGDIPOLOUT">      0.00000000      0.00000000      0.00000000</v>
  </separator>
 </calculation>
 <structure name="finalpos" >
  <crystal>
   <varray name="basis" >
    <v>       8.34458156       4.79167886       0.00000000 </v>
    <v>      -8.34086145       4.78517657       0.00000000 </v>
    <v>       0.00000000       0.00000000      30.00000000 </v>
   </varray>
   <i name="volume">   2396.91076906 </i>
   <varray name="rec_basis" >
    <v>       0.05989180       0.10439514       0.00000000 </v>
    <v>      -0.05997318       0.10444170       0.00000000 </v>
    <v>       0.00000000       0.00000000       0.03333333 </v>
   </varray>
  </crystal>
  <varray name="positions" >
   <v>       0.68953305      -0.01202855       0.00189923 </v>
   <v>      -0.01624375       0.68362759      -0.00193722 </v>
   <v>       0.34640229       0.64424138       0.00140124 </v>
   <v>       0.68782751       0.68127509       0.00045355 </v>
   <v>       1.01702626       0.31212534       0.00173307 </v>
   <v>       0.00114496       0.00312641       0.00022823 </v>
   <v>       0.31362957       0.01441956      -0.00106664 </v>
   <v>       0.31538295       0.31363948      -0.00001417 </v>
   <v>       0.64864795       0.35614135      -0.00264544 </v>
   <v>       0.11116189       0.21641800       0.94380088 </v>
   <v>       0.21718887       0.11096152       0.05671799 </v>
   <v>       0.11239066       0.55777830       0.95686307 </v>
   <v>       0.22604304       0.44409912       0.05507918 </v>
   <v>       0.10709218       0.88427111       0.94503059 </v>
   <v>       0.21947935       0.77322431       0.04385530 </v>
   <v>       0.43962770       0.22241493       0.94343598 </v>
   <v>       0.55866995       0.11311389       0.04332894 </v>
   <v>       0.44639193       0.55265872       0.94972762 </v>
   <v>       0.54984177       0.45119457       0.05244742 </v>
   <v>       0.44493907       0.88688269       0.95797714 </v>
   <v>       0.55688689       0.78136456       0.05263757 </v>
   <v>       0.77429675       0.22037639       0.95554851 </v>
   <v>       0.88496934       0.10484252       0.05586459 </v>
   <v>       0.78375986       0.56433005       0.94395230 </v>
   <v>       0.88952460       0.44650626       0.04290299 </v>
   <v>       0.77790172       0.89268705       0.94627914 </v>
   <v>       0.89469812       0.77852281       0.05449885 </v>
  </varray>
 </structure>
</modeling>
