unknown system                          
           1
     8.856788    5.104448    0.000000
    -8.856763    5.104406    0.000000
     0.000000    0.000000   30.000000
   V    Mo   W    S 
   3   3   3  18
Direct configuration=     1
   0.66666669  0.00000000  0.00000000
   0.00000000  0.66666669  0.00000000
   0.33333334  0.66666669  0.00000000
   0.66666669  0.66666669  0.00000000
   1.00000000  0.33333334  0.00000000
   0.00000000  0.00000000  0.00000000
   0.33333334  0.00000000  0.00000000
   0.33333334  0.33333334  0.00000000
   0.66666669  0.33333334  0.00000000
   0.11068511  0.22244981  0.95539999
   0.22244981  0.11068511  0.04460000
   0.11068511  0.55578315  0.95539999
   0.22244981  0.44401845  0.04460000
   0.11068511  0.88911647  0.95539999
   0.22244981  0.77735180  0.04460000
   0.44401845  0.22244981  0.95539999
   0.55578315  0.11068511  0.04460000
   0.44401845  0.55578315  0.95539999
   0.55578315  0.44401845  0.04460000
   0.44401845  0.88911647  0.95539999
   0.55578315  0.77735180  0.04460000
   0.77735180  0.22244981  0.95539999
   0.88911647  0.11068511  0.04460000
   0.77735180  0.55578315  0.95539999
   0.88911647  0.44401845  0.04460000
   0.77735180  0.88911647  0.95539999
   0.88911647  0.77735180  0.04460000
unknown system                          
           1
     8.668115    4.998159    0.000000
    -8.667956    4.997884    0.000000
     0.000000    0.000000   30.000000
   V    Mo   W    S 
   3   3   3  18
Direct configuration=     2
   0.66864547 -0.00048075  0.00018007
  -0.00078831  0.66663666 -0.00019912
   0.33332034  0.66592687 -0.00003616
   0.66794355  0.66824214  0.00013580
   1.00010730  0.33223100 -0.00010351
  -0.00142242  0.00002993  0.00022595
   0.33188652 -0.00068565 -0.00004743
   0.33165009  0.33352268  0.00000853
   0.66840629  0.33474471 -0.00019885
   0.11209542  0.22267791  0.95075166
   0.22290381  0.11149170  0.04929455
   0.11292346  0.55990534  0.95314439
   0.22481180  0.44834568  0.04811722
   0.10975616  0.88459109  0.95194439
   0.22063304  0.77420993  0.04687413
   0.44452456  0.22222304  0.95069233
   0.55749503  0.10890179  0.04799621
   0.44148853  0.55684811  0.95200417
   0.55486481  0.44349345  0.04919654
   0.44606223  0.88706800  0.95309146
   0.55337969  0.77995983  0.04696463
   0.77497654  0.21812565  0.95196060
   0.88419735  0.10866960  0.04813793
   0.78181541  0.55669026  0.95185900
   0.89009346  0.44834340  0.04806284
   0.77524321  0.89112615  0.95195973
   0.89120108  0.77537595  0.04798282
unknown system                          
           1
     8.487044    4.899493    0.000000
    -8.487336    4.899998    0.000000
     0.000000    0.000000   30.000000
   V    Mo   W    S 
   3   3   3  18
Direct configuration=     3
   0.66932854 -0.00056168  0.00020399
  -0.00119445  0.66654816 -0.00022197
   0.33331172  0.66560514 -0.00008675
   0.66839261  0.66847501  0.00018488
   1.00021715  0.33167603 -0.00014684
  -0.00158046  0.00032118  0.00025236
   0.33152897 -0.00039875 -0.00005398
   0.33109280  0.33326223  0.00000460
   0.66872273  0.33522316 -0.00016948
   0.11231200  0.22276071  0.95066873
   0.22311674  0.11158909  0.04932148
   0.11299668  0.55997769  0.95320836
   0.22499109  0.44835357  0.04814916
   0.10988259  0.88457610  0.95195255
   0.22068395  0.77437553  0.04679380
   0.44451972  0.22228302  0.95075073
   0.55740495  0.10897767  0.04788126
   0.44135306  0.55669151  0.95202465
   0.55475727  0.44321804  0.04913429
   0.44595931  0.88716205  0.95323076
   0.55335756  0.78001268  0.04693912
   0.77475546  0.21810302  0.95197701
   0.88402265  0.10855644  0.04825560
   0.78186935  0.55657822  0.95180074
   0.88996174  0.44835319  0.04802314
   0.77517188  0.89117122  0.95188682
   0.89127885  0.77532424  0.04803492
unknown system                          
           1
     8.270149    4.773468    0.000000
    -8.270058    4.773312    0.000000
     0.000000    0.000000   30.000000
   V    Mo   W    S 
   3   3   3  18
Direct configuration=     4
   0.67202724 -0.00049116  0.00020563
  -0.00309702  0.66607573 -0.00022580
   0.33320635  0.66413516 -0.00025750
   0.67000761  0.66874164  0.00028112
   1.00068699  0.32925990 -0.00023837
  -0.00143002  0.00207063  0.00024395
   0.33046907  0.00161357 -0.00006559
   0.32900934  0.33155266 -0.00000975
   0.66922412  0.33683263  0.00001402
   0.11223952  0.22252359  0.94872303
   0.22307421  0.11159528  0.05108812
   0.11361724  0.56092742  0.95216267
   0.22550486  0.44956191  0.04974105
   0.10905863  0.88347142  0.95052274
   0.22010683  0.77342934  0.04781335
   0.44454315  0.22261178  0.94932275
   0.55779829  0.10851161  0.04888412
   0.44101144  0.55731735  0.95068012
   0.55462918  0.44290878  0.05048430
   0.44642978  0.88682838  0.95245883
   0.55281110  0.78059076  0.04816175
   0.77394542  0.21679742  0.95059847
   0.88264462  0.10784982  0.05017813
   0.78320072  0.55743546  0.95005823
   0.89082617  0.44949534  0.04929866
   0.77456708  0.89171703  0.95020720
   0.89210254  0.77485099  0.04966869
unknown system                          
           1
     8.267815    4.769577    0.000000
    -8.270730    4.774630    0.000000
     0.000000    0.000000   30.000000
   V    Mo   W    S 
   3   3   3  18
Direct configuration=     5
   0.67728699 -0.00036862  0.00002041
  -0.00737731  0.66501034 -0.00005022
   0.33300169  0.66117565 -0.00046557
   0.67349691  0.66884456  0.00031745
   1.00200575  0.32418140 -0.00021613
   0.00004354  0.00647779  0.00011232
   0.32816216  0.00579556 -0.00012203
   0.32430194  0.32696184 -0.00003015
   0.66976261  0.34039432  0.00027277
   0.11163005  0.22184272  0.94578681
   0.22199096  0.11158081  0.05381134
   0.11380371  0.56108544  0.95065990
   0.22553872  0.45055600  0.05192765
   0.10770508  0.88258279  0.94859319
   0.21939488  0.77269525  0.04900796
   0.44475285  0.22354863  0.94728387
   0.55826155  0.10795636  0.05004125
   0.44112422  0.55792303  0.94898607
   0.55422432  0.44321490  0.05226743
   0.44702688  0.88681806  0.95161802
   0.55254162  0.78104736  0.04998185
   0.77345192  0.21548039  0.94886840
   0.88152646  0.10716789  0.05312711
   0.78471868  0.55865487  0.94746997
   0.89244769  0.45051360  0.05083502
   0.77422893  0.89208353  0.94795602
   0.89316163  0.77498998  0.05193920
unknown system                          
           1
     8.267566    4.768839    0.000000
    -8.270848    4.774527    0.000000
     0.000000    0.000000   30.000000
   V    Mo   W    S 
   3   3   3  18
Direct configuration=     6
   0.67874727 -0.00082262  0.00003329
  -0.00892994  0.66465607 -0.00000116
   0.33305305  0.66029815 -0.00051649
   0.67458486  0.66871412  0.00034384
   1.00271368  0.32309857 -0.00017574
   0.00117766  0.00783344  0.00013269
   0.32714383  0.00697542 -0.00012686
   0.32275474  0.32507675 -0.00007209
   0.66943531  0.34182583  0.00025133
   0.11145184  0.22171858  0.94536040
   0.22130016  0.11161748  0.05424867
   0.11312829  0.56013934  0.95074995
   0.22526833  0.44993016  0.05207167
   0.10752540  0.88304049  0.94852265
   0.21932835  0.77311896  0.04883844
   0.44485983  0.22417548  0.94706947
   0.55820212  0.10814545  0.04978549
   0.44140199  0.55733131  0.94906432
   0.55369817  0.44358107  0.05231691
   0.44702186  0.88740265  0.95189803
   0.55301372  0.78089249  0.05002788
   0.77384173  0.21592136  0.94901287
   0.88196674  0.10717053  0.05340781
   0.78464990  0.55869321  0.94717022
   0.89277611  0.44998992  0.05074001
   0.77475337  0.89194691  0.94779253
   0.89334610  0.77574332  0.05205379
unknown system                          
           1
     8.266276    4.768515    0.000000
    -8.269348    4.773839    0.000000
     0.000000    0.000000   30.000000
   V    Mo   W    S 
   3   3   3  18
Direct configuration=     7
   0.67970672 -0.00138552  0.00002258
  -0.00997960  0.66438959  0.00003487
   0.33313024  0.65969281 -0.00057745
   0.67540323  0.66874151  0.00034266
   1.00336290  0.32239194 -0.00017166
   0.00189911  0.00870191  0.00010260
   0.32637383  0.00783163 -0.00012258
   0.32167517  0.32377654 -0.00009939
   0.66914951  0.34296630  0.00027863
   0.11137188  0.22162855  0.94512970
   0.22100214  0.11166597  0.05451654
   0.11278154  0.55971115  0.95086182
   0.22519169  0.44963057  0.05214936
   0.10743293  0.88323904  0.94847918
   0.21928645  0.77336365  0.04868951
   0.44487169  0.22445624  0.94694977
   0.55818395  0.10830279  0.04956278
   0.44153443  0.55698365  0.94914569
   0.55336523  0.44375588  0.05232575
   0.44702192  0.88774514  0.95213746
   0.55327189  0.78085028  0.05003898
   0.77394065  0.21611940  0.94917297
   0.88217047  0.10714320  0.05356739
   0.78464809  0.55875720  0.94697894
   0.89286263  0.44973489  0.05063109
   0.77505590  0.89189528  0.94772992
   0.89349986  0.77612486  0.05212281
unknown system                          
           1
     8.266882    4.769451    0.000000
    -8.270567    4.775838    0.000000
     0.000000    0.000000   30.000000
   V    Mo   W    S 
   3   3   3  18
Direct configuration=     8
   0.67947154 -0.00116093  0.00001767
  -0.00970716  0.66445453  0.00002598
   0.33309636  0.65988192 -0.00055980
   0.67516352  0.66869542  0.00033618
   1.00314404  0.32253624 -0.00017714
   0.00175367  0.00854039  0.00010023
   0.32659331  0.00762027 -0.00012262
   0.32192664  0.32406555 -0.00009413
   0.66925669  0.34261479  0.00027586
   0.11137284  0.22164412  0.94519202
   0.22106473  0.11165536  0.05444856
   0.11284236  0.55977235  0.95082755
   0.22519266  0.44967813  0.05213115
   0.10744318  0.88321942  0.94849679
   0.21929772  0.77332071  0.04873292
   0.44487817  0.22441090  0.94697937
   0.55818525  0.10826752  0.04963033
   0.44150937  0.55706191  0.94912670
   0.55345999  0.44370257  0.05231881
   0.44702356  0.88766864  0.95206861
   0.55322810  0.78085191  0.05003520
   0.77394929  0.21608510  0.94911366
   0.88213194  0.10714991  0.05353827
   0.78463578  0.55872970  0.94702962
   0.89285913  0.44978653  0.05066513
   0.77498501  0.89190483  0.94775743
   0.89345678  0.77605666  0.05210553
unknown system                          
           1
     8.265174    4.767657    0.000000
    -8.268971    4.774237    0.000000
     0.000000    0.000000   30.000000
   V    Mo   W    S 
   3   3   3  18
Direct configuration=     9
   0.67929421  0.00002297  0.00001833
  -0.00953815  0.66437010  0.00001074
   0.33287417  0.66078350 -0.00047956
   0.67510047  0.66847714  0.00033560
   1.00192382  0.32241085 -0.00013418
   0.00156853  0.00843651  0.00014034
   0.32698685  0.00716707 -0.00013655
   0.32227616  0.32419536 -0.00007101
   0.67014363  0.34196703  0.00028810
   0.11136144  0.22174740  0.94516378
   0.22105613  0.11164268  0.05442917
   0.11263324  0.55968890  0.95073495
   0.22508458  0.44953796  0.05211389
   0.10729680  0.88310375  0.94854452
   0.21907645  0.77323401  0.04886693
   0.44495315  0.22450261  0.94698175
   0.55820961  0.10809901  0.04985211
   0.44143400  0.55701866  0.94908278
   0.55351711  0.44346306  0.05229944
   0.44720403  0.88771390  0.95185692
   0.55333074  0.78088624  0.05000335
   0.77414682  0.21599842  0.94883273
   0.88200849  0.10709168  0.05354455
   0.78479574  0.55867420  0.94708930
   0.89313903  0.45001432  0.05077473
   0.77486556  0.89195381  0.94780538
   0.89347184  0.77601333  0.05205181
unknown system                          
           1
     8.266687    4.768156    0.000000
    -8.270604    4.774944    0.000000
     0.000000    0.000000   30.000000
   V    Mo   W    S 
   3   3   3  18
Direct configuration=    10
   0.68041145 -0.00057642  0.00001293
  -0.01080226  0.66396486  0.00002537
   0.33295548  0.66018272 -0.00059601
   0.67608511  0.66848148  0.00032776
   1.00270247  0.32150235 -0.00017761
   0.00262968  0.00969972  0.00006392
   0.32595222  0.00812968 -0.00014766
   0.32061167  0.32252298 -0.00013792
   0.67008585  0.34334975  0.00030647
   0.11126912  0.22167670  0.94497800
   0.22074917  0.11163741  0.05472498
   0.11229689  0.55925972  0.95094395
   0.22502406  0.44922577  0.05210905
   0.10722836  0.88336010  0.94852273
   0.21903266  0.77353913  0.04867644
   0.44506478  0.22477713  0.94693837
   0.55814053  0.10832101  0.04954568
   0.44151392  0.55664769  0.94931461
   0.55313891  0.44357568  0.05223003
   0.44717219  0.88812189  0.95219613
   0.55361098  0.78083530  0.04993324
   0.77417426  0.21620760  0.94900445
   0.88219007  0.10700353  0.05374654
   0.78481222  0.55866215  0.94685368
   0.89323519  0.44975622  0.05069136
   0.77524081  0.89188411  0.94777141
   0.89368865  0.77646622  0.05214200
unknown system                          
           1
     8.254165    4.763211    0.000000
    -8.260192    4.773658    0.000000
     0.000000    0.000000   30.000000
   V    Mo   W    S 
   3   3   3  18
Direct configuration=    11
   0.68058847 -0.00096320  0.00001661
  -0.01099576  0.66395588  0.00004120
   0.33302411  0.65987996 -0.00061305
   0.67625208  0.66856638  0.00033605
   1.00305918  0.32146070 -0.00016819
   0.00270236  0.00975617  0.00007248
   0.32576111  0.00834264 -0.00014098
   0.32046797  0.32235780 -0.00013518
   0.66981348  0.34369508  0.00030868
   0.11127308  0.22164319  0.94492427
   0.22070871  0.11165695  0.05477201
   0.11229093  0.55923523  0.95096763
   0.22504004  0.44922132  0.05213957
   0.10724603  0.88338367  0.94849471
   0.21906736  0.77357459  0.04862722
   0.44502709  0.22479185  0.94690328
   0.55814426  0.10836608  0.04946796
   0.44155728  0.55660252  0.94930795
   0.55306395  0.44366787  0.05225059
   0.44714415  0.88816007  0.95226831
   0.55361767  0.78083155  0.04995658
   0.77413899  0.21624286  0.94909958
   0.88224700  0.10702259  0.05375473
   0.78478668  0.55870595  0.94681258
   0.89318129  0.44967588  0.05064045
   0.77530115  0.89187256  0.94773610
   0.89370577  0.77650831  0.05215875
unknown system                          
           1
     8.270235    4.770747    0.000000
    -8.275551    4.779959    0.000000
     0.000000    0.000000   30.000000
   V    Mo   W    S 
   3   3   3  18
Direct configuration=    12
   0.68071923  0.00155578  0.00001959
  -0.01103654  0.66340363  0.00004526
   0.33261497  0.66190500 -0.00052692
   0.67644751  0.66802267  0.00035653
   1.00053408  0.32062256 -0.00006510
   0.00296871  0.01053633  0.00018235
   0.32613380  0.00763782 -0.00014957
   0.31982090  0.32174887 -0.00005681
   0.67223489  0.34279548  0.00036069
   0.11108173  0.22181051  0.94481429
   0.22074102  0.11146041  0.05475481
   0.11189571  0.55902604  0.95085426
   0.22472456  0.44891499  0.05198364
   0.10707108  0.88337216  0.94854633
   0.21875412  0.77358476  0.04889129
   0.44544927  0.22492731  0.94704424
   0.55807121  0.10818647  0.04976848
   0.44146037  0.55658527  0.94939863
   0.55322829  0.44295581  0.05202100
   0.44746512  0.88842895  0.95197267
   0.55384223  0.78096688  0.04979314
   0.77434519  0.21603370  0.94852030
   0.88203758  0.10686402  0.05381592
   0.78498073  0.55835440  0.94677791
   0.89366486  0.44999819  0.05093492
   0.77516292  0.89198118  0.94785092
   0.89380090  0.77653529  0.05209111
unknown system                          
           1
     8.268049    4.769297    0.000000
    -8.273624    4.778958    0.000000
     0.000000    0.000000   30.000000
   V    Mo   W    S 
   3   3   3  18
Direct configuration=    13
   0.68173556 -0.00029331  0.00000431
  -0.01226538  0.66316055  0.00005275
   0.33295210  0.66064540 -0.00069514
   0.67754062  0.66840114  0.00033098
   1.00223349  0.32020032 -0.00015349
   0.00384604  0.01129658  0.00005244
   0.32474916  0.00863459 -0.00019308
   0.31832895  0.32037832 -0.00018022
   0.67157120  0.34479097  0.00031421
   0.11105481  0.22169002  0.94461149
   0.22043424  0.11154707  0.05513735
   0.11175992  0.55875498  0.95107770
   0.22479623  0.44880968  0.05208352
   0.10707166  0.88358815  0.94847363
   0.21884462  0.77381856  0.04863987
   0.44531070  0.22513485  0.94696258
   0.55807772  0.10844896  0.04934471
   0.44156951  0.55616937  0.94956927
   0.55263315  0.44331098  0.05205828
   0.44735735  0.88876094  0.95241463
   0.55399302  0.78090901  0.04982627
   0.77420439  0.21622296  0.94892357
   0.88227280  0.10685558  0.05402228
   0.78492885  0.55851665  0.94653451
   0.89360376  0.44961976  0.05079832
   0.77559580  0.89189055  0.94774848
   0.89401417  0.77695182  0.05224068
unknown system                          
           1
     8.271041    4.770316    0.000000
    -8.276556    4.779871    0.000000
     0.000000    0.000000   30.000000
   V    Mo   W    S 
   3   3   3  18
Direct configuration=    14
   0.68238502 -0.00081033  0.00003243
  -0.01300707  0.66287965  0.00009315
   0.33303598  0.66039319 -0.00075318
   0.67834441  0.66857055  0.00036541
   1.00254595  0.31978791 -0.00012524
   0.00431915  0.01182393  0.00008178
   0.32397000  0.00895594 -0.00017335
   0.31731662  0.31947465 -0.00017211
   0.67190774  0.34586516  0.00035190
   0.11097913  0.22165269  0.94445055
   0.22028748  0.11156403  0.05527255
   0.11157938  0.55858004  0.95118391
   0.22475012  0.44865491  0.05207148
   0.10702859  0.88366886  0.94844567
   0.21881485  0.77395397  0.04852904
   0.44530634  0.22527026  0.94697302
   0.55805131  0.10856408  0.04911528
   0.44163926  0.55592392  0.94968481
   0.55236338  0.44334569  0.05196267
   0.44737422  0.88903385  0.95260578
   0.55414571  0.78091062  0.04978778
   0.77414987  0.21625811  0.94904770
   0.88238757  0.10683343  0.05406777
   0.78496533  0.55855904  0.94640623
   0.89363664  0.44950078  0.05073258
   0.77580067  0.89185817  0.94770969
   0.89413682  0.77714136  0.05225264
unknown system                          
           1
     8.266618    4.768825    0.000000
    -8.272537    4.779083    0.000000
     0.000000    0.000000   30.000000
   V    Mo   W    S 
   3   3   3  18
Direct configuration=    15
   0.68316816 -0.00197351  0.00006631
  -0.01390355  0.66268853  0.00014111
   0.33322212  0.65962735 -0.00083933
   0.67930580  0.66890606  0.00039796
   1.00342139  0.31945871 -0.00011094
   0.00476246  0.01222550  0.00009394
   0.32295618  0.00950028 -0.00015150
   0.31629135  0.31854333 -0.00018125
   0.67177000  0.34737787  0.00038086
   0.11091578  0.22155948  0.94425610
   0.22008268  0.11162681  0.05546632
   0.11142117  0.55839632  0.95132396
   0.22475053  0.44852587  0.05211604
   0.10700116  0.88375044  0.94837964
   0.21883372  0.77410702  0.04834916
   0.44521343  0.22540931  0.94693984
   0.55804783  0.10873429  0.04877529
   0.44176745  0.55562547  0.94978374
   0.55199504  0.44356531  0.05191704
   0.44733085  0.88932004  0.95289488
   0.55429294  0.78088198  0.04979773
   0.77403609  0.21634087  0.94932294
   0.88258518  0.10685194  0.05412241
   0.78498232  0.55870199  0.94623785
   0.89359876  0.44929065  0.05059896
   0.77607792  0.89179429  0.94761515
   0.89428769  0.77737824  0.05230567
unknown system                          
           1
     8.284152    4.776385    0.000000
    -8.289019    4.784813    0.000000
     0.000000    0.000000   30.000000
   V    Mo   W    S 
   3   3   3  18
Direct configuration=    16
   0.68288107 -0.00128482  0.00004530
  -0.01355020  0.66263932  0.00012703
   0.33313849  0.66025174 -0.00080171
   0.67887111  0.66863683  0.00038775
   1.00280320  0.31949182 -0.00010643
   0.00470922  0.01224284  0.00010704
   0.32341228  0.00929910 -0.00015799
   0.31659690  0.31873865 -0.00016914
   0.67206081  0.34667654  0.00037981
   0.11092870  0.22164400  0.94430910
   0.22018075  0.11157496  0.05539537
   0.11145217  0.55841086  0.95125213
   0.22471574  0.44852764  0.05207031
   0.10702002  0.88377468  0.94840587
   0.21882092  0.77407595  0.04845610
   0.44528825  0.22538086  0.94696845
   0.55801558  0.10866469  0.04894819
   0.44169695  0.55571950  0.94976968
   0.55214284  0.44337600  0.05189656
   0.44737800  0.88925320  0.95274680
   0.55425935  0.78089778  0.04977411
   0.77411547  0.21631191  0.94914005
   0.88249888  0.10682641  0.05411711
   0.78494985  0.55857872  0.94629065
   0.89365693  0.44936494  0.05069589
   0.77596194  0.89183621  0.94767118
   0.89420922  0.77730412  0.05228071
unknown system                          
           1
     8.285467    4.776274    0.000000
    -8.289686    4.783576    0.000000
     0.000000    0.000000   30.000000
   V    Mo   W    S 
   3   3   3  18
Direct configuration=    17
   0.68416848 -0.00352692  0.00010740
  -0.01505874  0.66253287  0.00017003
   0.33344958  0.65851815 -0.00097053
   0.68070826  0.66949237  0.00040781
   1.00455245  0.31907680 -0.00014252
   0.00520700  0.01257739  0.00003712
   0.32151197  0.01000761 -0.00016152
   0.31491620  0.31747533 -0.00024692
   0.67174295  0.34945133  0.00037447
   0.11079005  0.22139074  0.94403118
   0.21977431  0.11171472  0.05577851
   0.11119912  0.55818815  0.95151451
   0.22474963  0.44840112  0.05221969
   0.10691338  0.88377830  0.94828991
   0.21881866  0.77425223  0.04812903
   0.44508670  0.22558228  0.94691472
   0.55810097  0.10893503  0.04831782
   0.44194942  0.55523342  0.94990828
   0.55147260  0.44389858  0.05189502
   0.44728707  0.88969147  0.95328189
   0.55449331  0.78085407  0.04983527
   0.77384154  0.21639211  0.94969730
   0.88281826  0.10687860  0.05423957
   0.78508235  0.55894222  0.94600650
   0.89361724  0.44907425  0.05046374
   0.77644971  0.89169598  0.94747217
   0.89457198  0.77770626  0.05242948
unknown system                          
           1
     8.287727    4.776695    0.000000
    -8.291361    4.782982    0.000000
     0.000000    0.000000   30.000000
   V    Mo   W    S 
   3   3   3  18
Direct configuration=    18
   0.68471900 -0.00436257  0.00016298
  -0.01567025  0.66253105  0.00020215
   0.33356210  0.65779604 -0.00103092
   0.68155869  0.66986676  0.00044013
   1.00518964  0.31887671 -0.00013287
   0.00540438  0.01270452  0.00003871
   0.32064065  0.01020476 -0.00014358
   0.31410947  0.31693957 -0.00024507
   0.67178023  0.35063862  0.00039521
   0.11070247  0.22126977  0.94391434
   0.21960767  0.11179251  0.05588510
   0.11109273  0.55807738  0.95163040
   0.22473526  0.44831752  0.05224924
   0.10686409  0.88378487  0.94824214
   0.21882872  0.77435018  0.04798282
   0.44500913  0.22566924  0.94693017
   0.55814295  0.10906340  0.04801771
   0.44207061  0.55501934  0.94998165
   0.55122274  0.44410106  0.05183980
   0.44723063  0.88989034  0.95351423
   0.55461922  0.78082243  0.04983308
   0.77370562  0.21640976  0.94992325
   0.88297748  0.10691448  0.05426049
   0.78515082  0.55909159  0.94588546
   0.89358935  0.44895148  0.05036048
   0.77664923  0.89161243  0.94738870
   0.89472181  0.77788120  0.05247411
unknown system                          
           1
     8.283801    4.775495    0.000000
    -8.287656    4.782166    0.000000
     0.000000    0.000000   30.000000
   V    Mo   W    S 
   3   3   3  18
Direct configuration=    19
   0.68517695 -0.00515116  0.00020359
  -0.01615218  0.66259523  0.00022584
   0.33367378  0.65704523 -0.00108262
   0.68221449  0.67020923  0.00046217
   1.00583758  0.31874311 -0.00013219
   0.00548456  0.01272259  0.00003260
   0.31996664  0.01042885 -0.00013182
   0.31356700  0.31658430 -0.00025042
   0.67158782  0.35160681  0.00040739
   0.11064677  0.22115540  0.94382535
   0.21947442  0.11186533  0.05597401
   0.11102145  0.55799804  0.95173001
   0.22473807  0.44827011  0.05229729
   0.10683933  0.88378009  0.94819626
   0.21885101  0.77442491  0.04784868
   0.44492329  0.22572657  0.94692464
   0.55818777  0.10916999  0.04776292
   0.44218702  0.55486270  0.95002048
   0.55103238  0.44432241  0.05182186
   0.44717012  0.89002742  0.95372029
   0.55471528  0.78080449  0.04984839
   0.77358665  0.21643375  0.95014606
   0.88311106  0.10695163  0.05427491
   0.78519321  0.55923585  0.94579007
   0.89353701  0.44883745  0.05025113
   0.77680070  0.89154566  0.94731209
   0.89484228  0.77801848  0.05252090
unknown system                          
           1
     8.243508    4.765801    0.000000
    -8.248634    4.774699    0.000000
     0.000000    0.000000   30.000000
   V    Mo   W    S 
   3   3   3  18
Direct configuration=    20
   0.68482172 -0.00474675  0.00016986
  -0.01602280  0.66241373  0.00022017
   0.33358221  0.65764312 -0.00107136
   0.68197652  0.66989473  0.00044747
   1.00543978  0.31888097 -0.00013827
   0.00562589  0.01278093  0.00003947
   0.32022126  0.01026191 -0.00013291
   0.31367094  0.31662003 -0.00025115
   0.67203384  0.35127748  0.00041822
   0.11063866  0.22124889  0.94385249
   0.21954742  0.11180054  0.05595078
   0.11103903  0.55801465  0.95168562
   0.22471156  0.44827269  0.05225326
   0.10684190  0.88381226  0.94822114
   0.21882417  0.77440004  0.04792831
   0.44498090  0.22569632  0.94696085
   0.55810986  0.10915830  0.04789523
   0.44210724  0.55492712  0.95005045
   0.55112657  0.44415047  0.05178271
   0.44718212  0.88998730  0.95360495
   0.55465598  0.78075486  0.04983476
   0.77366312  0.21645380  0.94999211
   0.88309618  0.10695474  0.05428918
   0.78517921  0.55913811  0.94582099
   0.89360177  0.44891655  0.05033803
   0.77676377  0.89155316  0.94734448
   0.89479562  0.77794849  0.05249308
unknown system                          
           1
     8.305393    4.784103    0.000000
    -8.307179    4.787180    0.000000
     0.000000    0.000000   30.000000
   V    Mo   W    S 
   3   3   3  18
Direct configuration=    21
   0.68128145 -0.00196177 -0.00008387
  -0.01456842  0.66046274  0.00018998
   0.33262210  0.66324606 -0.00093067
   0.67992248  0.66719553  0.00030597
   1.00213092  0.32040578 -0.00010093
   0.00768428  0.01410563  0.00014407
   0.32159381  0.00821049 -0.00006024
   0.31318099  0.31672206 -0.00021225
   0.67745926  0.34904346  0.00042326
   0.11024720  0.22204205  0.94388467
   0.22017778  0.11116646  0.05597411
   0.11148565  0.55847907  0.95118180
   0.22471961  0.44870844  0.05179482
   0.10670464  0.88398570  0.94828168
   0.21857904  0.77393101  0.04872577
   0.44571986  0.22556649  0.94736012
   0.55750340  0.10930034  0.04901816
   0.44126125  0.55547470  0.95047545
   0.55141437  0.44237545  0.05145535
   0.44711965  0.88943878  0.95255638
   0.55385269  0.77994129  0.04960510
   0.77418614  0.21661383  0.94857962
   0.88294234  0.10696569  0.05424732
   0.78519538  0.55816612  0.94572251
   0.89455081  0.44956054  0.05149336
   0.77662083  0.89151482  0.94756747
   0.89462694  0.77755369  0.05240088
unknown system                          
           1
     8.303449    4.781972    0.000000
    -8.304379    4.783564    0.000000
     0.000000    0.000000   30.000000
   V    Mo   W    S 
   3   3   3  18
Direct configuration=    22
   0.68620698 -0.00674815  0.00029411
  -0.01705911  0.66310345  0.00025032
   0.33398419  0.65488622 -0.00119673
   0.68356647  0.67110095  0.00047946
   1.00740764  0.31849706 -0.00015099
   0.00529565  0.01234498 -0.00002478
   0.31858522  0.01087411 -0.00013665
   0.31275334  0.31626614 -0.00029793
   0.67069952  0.35349815  0.00039110
   0.11053813  0.22081565  0.94363991
   0.21912093  0.11204368  0.05619560
   0.11088126  0.55781281  0.95197490
   0.22474797  0.44821116  0.05246685
   0.10674432  0.88370748  0.94806095
   0.21894414  0.77455738  0.04752708
   0.44470673  0.22585419  0.94685754
   0.55835686  0.10934877  0.04720042
   0.44250401  0.55457328  0.95004307
   0.55061417  0.44497160  0.05187344
   0.44701428  0.89025400  0.95421640
   0.55489787  0.78075518  0.04992645
   0.77328966  0.21645941  0.95066558
   0.88342828  0.10706256  0.05437775
   0.78530838  0.55962617  0.94558443
   0.89340969  0.44857734  0.04997163
   0.77708879  0.89138206  0.94710622
   0.89517908  0.77837880  0.05270378
unknown system                          
           1
     8.310856    4.783676    0.000000
    -8.310705    4.783387    0.000000
     0.000000    0.000000   30.000000
   V    Mo   W    S 
   3   3   3  18
Direct configuration=    23
   0.68628728 -0.00716042  0.00036096
  -0.01737992  0.66318481  0.00026489
   0.33399248  0.65478551 -0.00117884
   0.68441938  0.67131972  0.00050193
   1.00758591  0.31844850 -0.00013628
   0.00563721  0.01244734 -0.00002403
   0.31763496  0.01047521 -0.00012541
   0.31177237  0.31573474 -0.00029062
   0.67146036  0.35447740  0.00035650
   0.11034859  0.22068269  0.94353942
   0.21902020  0.11217698  0.05628307
   0.11089147  0.55780549  0.95202279
   0.22474462  0.44825521  0.05250459
   0.10664379  0.88364112  0.94799039
   0.21893326  0.77456491  0.04746928
   0.44472584  0.22595550  0.94698456
   0.55840776  0.10954622  0.04695938
   0.44263960  0.55438104  0.95010743
   0.55039759  0.44501896  0.05178158
   0.44684640  0.89033614  0.95433731
   0.55493899  0.78053699  0.04989657
   0.77319278  0.21651171  0.95079053
   0.88358367  0.10712337  0.05434919
   0.78547027  0.55972004  0.94545092
   0.89346201  0.44852494  0.04999777
   0.77725817  0.89121601  0.94705492
   0.89529940  0.77850431  0.05275110
unknown system                          
           1
     8.321652    4.784569    0.000000
    -8.319884    4.781469    0.000000
     0.000000    0.000000   30.000000
   V    Mo   W    S 
   3   3   3  18
Direct configuration=    24
   0.68705773 -0.00808145  0.00043040
  -0.01783371  0.66379910  0.00027670
   0.33425781  0.65304298 -0.00123319
   0.68514752  0.67197825  0.00052556
   1.00876323  0.31822698 -0.00013937
   0.00525454  0.01200528 -0.00005318
   0.31692052  0.01088524 -0.00012610
   0.31160210  0.31574687 -0.00030478
   0.67025019  0.35544152  0.00035860
   0.11034388  0.22040758  0.94346963
   0.21880551  0.11233637  0.05634010
   0.11082323  0.55767674  0.95220465
   0.22475030  0.44819186  0.05263117
   0.10661750  0.88358554  0.94791111
   0.21904150  0.77467006  0.04721975
   0.44453416  0.22600901  0.94690538
   0.55853754  0.10962016  0.04658128
   0.44290110  0.55423856  0.95005916
   0.55023859  0.44554709  0.05183961
   0.44673225  0.89042139  0.95468837