   27   27  100    1
  0.9710400E+02  0.1002848E-08  0.1002848E-08  0.3000000E-08  0.5000000E-15
  1.000000000000000E-004
  CAR 
 unknown system                          
    159     34    120
 
  0.0000000E+00  0.0000000E+00  0.0000000E+00  0.1562500E-01
    1      -17.787408   1.000000
    2      -16.695104   1.000000
    3      -16.597091   1.000000
    4      -16.584413   1.000000
    5      -16.492159   1.000000
    6      -16.478037   1.000000
    7      -16.414317   1.000000
    8      -16.348619   1.000000
    9      -16.132739   1.000000
   10      -16.126107   1.000000
   11      -16.098182   1.000000
   12      -16.014024   1.000000
   13      -15.885602   1.000000
   14      -15.661116   1.000000
   15      -15.635289   1.000000
   16      -15.527781   1.000000
   17      -15.316841   1.000000
   18      -15.269668   1.000000
   19       -9.214911   1.000000
   20       -8.964044   1.000000
   21       -8.936210   1.000000
   22       -8.825140   1.000000
   23       -8.744691   1.000000
   24       -8.713358   1.000000
   25       -8.649045   1.000000
   26       -8.603124   1.000000
   27       -8.499294   1.000000
   28       -8.443860   1.000000
   29       -8.384284   1.000000
   30       -8.349036   1.000000
   31       -8.315862   1.000000
   32       -8.171346   1.000000
   33       -7.992915   1.000000
   34       -7.977368   1.000000
   35       -7.859745   1.000000
   36       -7.795392   1.000000
   37       -7.778300   1.000000
   38       -7.538576   1.000000
   39       -7.406563   1.000000
   40       -7.391546   1.000000
   41       -7.344097   1.000000
   42       -7.276121   1.000000
   43       -7.099549   1.000000
   44       -6.960981   1.000000
   45       -6.831620   1.000000
   46       -6.793794   1.000000
   47       -6.736620   1.000000
   48       -6.584587   1.000000
   49       -6.568667   1.000000
   50       -6.501355   1.000000
   51       -6.424976   1.000000
   52       -6.381671   1.000000
   53       -6.291624   1.000000
   54       -6.284925   1.000000
   55       -6.227036   1.000000
   56       -6.199221   1.000000
   57       -6.045401   1.000000
   58       -5.931213   1.000000
   59       -5.707277   1.000000
   60       -5.561635   1.000000
   61       -5.526112   1.000000
   62       -5.430221   1.000000
   63       -5.320495   1.000000
   64       -5.182901   1.000000
   65       -5.116869   1.000000
   66       -5.021820   1.000000
   67       -4.995843   1.000000
   68       -4.839532   1.000000
   69       -4.812044   1.000000
   70       -4.735482   1.000000
   71       -4.651928   1.000000
   72       -4.577562   1.000000
   73       -4.479251   1.000000
   74       -4.189724   1.000000
   75       -4.160091   1.000000
   76       -4.054481   1.000000
   77       -3.723596   0.999588
   78       -3.535742   0.978098
   79       -3.522910   0.972900
   80       -3.418578   0.882483
   81       -3.318618   0.684623
   82       -2.877002   0.004121
   83       -2.628229   0.000005
   84       -2.580786   0.000001
   85       -2.437591   0.000000
   86       -2.420478   0.000000
   87       -2.245893   0.000000
   88       -2.171373   0.000000
   89       -2.137467   0.000000
   90       -2.031630   0.000000
   91       -1.964736   0.000000
   92       -1.874058   0.000000
   93       -1.465379   0.000000
   94       -1.216514   0.000000
   95       -1.112522   0.000000
   96       -1.046054   0.000000
   97       -0.996714   0.000000
   98       -0.850394   0.000000
   99       -0.714699   0.000000
  100       -0.672575   0.000000
  101       -0.651973   0.000000
  102       -0.439235   0.000000
  103       -0.403139   0.000000
  104       -0.383812   0.000000
  105       -0.265588   0.000000
  106       -0.104601   0.000000
  107       -0.077831   0.000000
  108        0.027559   0.000000
  109        0.058958   0.000000
  110        0.193099   0.000000
  111        0.317574   0.000000
  112        0.412828   0.000000
  113        0.726525   0.000000
  114        0.869876   0.000000
  115        0.994183   0.000000
  116        1.096626   0.000000
  117        1.152281   0.000000
  118        1.630363   0.000000
  119        1.824029   0.000000
  120        2.134659   0.000000
 
  0.1250000E+00  0.2775558E-16  0.0000000E+00  0.3125000E-01
    1      -17.762287   1.000000
    2      -16.772200   1.000000
    3      -16.675653   1.000000
    4      -16.602093   1.000000
    5      -16.516850   1.000000
    6      -16.434163   1.000000
    7      -16.370560   1.000000
    8      -16.292443   1.000000
    9      -16.195894   1.000000
   10      -16.110660   1.000000
   11      -16.031997   1.000000
   12      -15.982138   1.000000
   13      -15.861357   1.000000
   14      -15.677690   1.000000
   15      -15.636398   1.000000
   16      -15.533668   1.000000
   17      -15.323504   1.000000
   18      -15.274331   1.000000
   19       -9.213286   1.000000
   20       -9.133155   1.000000
   21       -8.995427   1.000000
   22       -8.931618   1.000000
   23       -8.776147   1.000000
   24       -8.719484   1.000000
   25       -8.684587   1.000000
   26       -8.548914   1.000000
   27       -8.487648   1.000000
   28       -8.447805   1.000000
   29       -8.395048   1.000000
   30       -8.264583   1.000000
   31       -8.202263   1.000000
   32       -8.063277   1.000000
   33       -7.976438   1.000000
   34       -7.887960   1.000000
   35       -7.821524   1.000000
   36       -7.748303   1.000000
   37       -7.709915   1.000000
   38       -7.570776   1.000000
   39       -7.479238   1.000000
   40       -7.384503   1.000000
   41       -7.295072   1.000000
   42       -7.238625   1.000000
   43       -7.139103   1.000000
   44       -7.008599   1.000000
   45       -6.875082   1.000000
   46       -6.824068   1.000000
   47       -6.752811   1.000000
   48       -6.622569   1.000000
   49       -6.546050   1.000000
   50       -6.447851   1.000000
   51       -6.431012   1.000000
   52       -6.385694   1.000000
   53       -6.331313   1.000000
   54       -6.264360   1.000000
   55       -6.209355   1.000000
   56       -6.170224   1.000000
   57       -5.968858   1.000000
   58       -5.942686   1.000000
   59       -5.712126   1.000000
   60       -5.566813   1.000000
   61       -5.549791   1.000000
   62       -5.437922   1.000000
   63       -5.304180   1.000000
   64       -5.295461   1.000000
   65       -5.202829   1.000000
   66       -5.083351   1.000000
   67       -5.014072   1.000000
   68       -4.853703   1.000000
   69       -4.813595   1.000000
   70       -4.709864   1.000000
   71       -4.600351   1.000000
   72       -4.491056   1.000000
   73       -4.451108   1.000000
   74       -4.169505   1.000000
   75       -4.075657   1.000000
   76       -4.040947   1.000000
   77       -3.891644   0.999997
   78       -3.695687   0.999175
   79       -3.467537   0.937446
   80       -3.413371   0.875066
   81       -3.182037   0.313801
   82       -2.846676   0.002142
   83       -2.621513   0.000004
   84       -2.584988   0.000001
   85       -2.425341   0.000000
   86       -2.409343   0.000000
   87       -2.230210   0.000000
   88       -2.154802   0.000000
   89       -2.130342   0.000000
   90       -2.022663   0.000000
   91       -1.963842   0.000000
   92       -1.875501   0.000000
   93       -1.464632   0.000000
   94       -1.227581   0.000000
   95       -1.104625   0.000000
   96       -1.045178   0.000000
   97       -0.987829   0.000000
   98       -0.862556   0.000000
   99       -0.762572   0.000000
  100       -0.727493   0.000000
  101       -0.661730   0.000000
  102       -0.508292   0.000000
  103       -0.478382   0.000000
  104       -0.431252   0.000000
  105       -0.306214   0.000000
  106       -0.177787   0.000000
  107       -0.133745   0.000000
  108       -0.011496   0.000000
  109        0.099107   0.000000
  110        0.206901   0.000000
  111        0.391447   0.000000
  112        0.493203   0.000000
  113        0.694639   0.000000
  114        0.862452   0.000000
  115        1.023984   0.000000
  116        1.101008   0.000000
  117        1.193883   0.000000
  118        1.674402   0.000000
  119        1.863439   0.000000
  120        2.169622   0.000000
 
  0.2500000E+00  0.5551115E-16  0.0000000E+00  0.3125000E-01
    1      -17.687956   1.000000
    2      -16.981909   1.000000
    3      -16.702618   1.000000
    4      -16.640875   1.000000
    5      -16.576688   1.000000
    6      -16.370768   1.000000
    7      -16.330896   1.000000
    8      -16.248789   1.000000
    9      -16.174073   1.000000
   10      -16.072658   1.000000
   11      -16.013585   1.000000
   12      -15.910154   1.000000
   13      -15.796428   1.000000
   14      -15.713166   1.000000
   15      -15.629819   1.000000
   16      -15.551007   1.000000
   17      -15.341365   1.000000
   18      -15.285305   1.000000
   19       -9.456055   1.000000
   20       -9.190299   1.000000
   21       -9.100667   1.000000
   22       -9.029557   1.000000
   23       -8.856997   1.000000
   24       -8.779942   1.000000
   25       -8.637374   1.000000
   26       -8.514493   1.000000
   27       -8.487375   1.000000
   28       -8.383807   1.000000
   29       -8.301083   1.000000
   30       -8.184865   1.000000
   31       -8.134217   1.000000
   32       -8.074900   1.000000
   33       -7.881483   1.000000
   34       -7.777597   1.000000
   35       -7.738181   1.000000
   36       -7.689305   1.000000
   37       -7.592629   1.000000
   38       -7.492695   1.000000
   39       -7.466886   1.000000
   40       -7.378978   1.000000
   41       -7.306961   1.000000
   42       -7.175750   1.000000
   43       -7.148027   1.000000
   44       -7.020872   1.000000
   45       -6.905106   1.000000
   46       -6.866632   1.000000
   47       -6.778258   1.000000
   48       -6.642896   1.000000
   49       -6.571537   1.000000
   50       -6.464885   1.000000
   51       -6.433171   1.000000
   52       -6.377180   1.000000
   53       -6.292278   1.000000
   54       -6.232392   1.000000
   55       -6.152950   1.000000
   56       -6.076878   1.000000
   57       -5.973313   1.000000
   58       -5.893404   1.000000
   59       -5.744428   1.000000
   60       -5.666609   1.000000
   61       -5.629312   1.000000
   62       -5.583911   1.000000
   63       -5.531405   1.000000
   64       -5.308066   1.000000
   65       -5.207696   1.000000
   66       -5.096339   1.000000
   67       -5.044226   1.000000
   68       -4.896806   1.000000
   69       -4.792731   1.000000
   70       -4.637571   1.000000
   71       -4.506410   1.000000
   72       -4.379802   1.000000
   73       -4.370937   1.000000
   74       -4.267847   1.000000
   75       -4.098998   1.000000
   76       -4.028657   1.000000
   77       -3.967639   1.000000
   78       -3.832052   0.999980
   79       -3.437567   0.906877
   80       -3.375077   0.810541
   81       -3.032835   0.061765
   82       -2.778671   0.000423
   83       -2.616583   0.000004
   84       -2.573275   0.000001
   85       -2.406221   0.000000
   86       -2.390978   0.000000
   87       -2.233582   0.000000
   88       -2.123226   0.000000
   89       -2.062740   0.000000
   90       -2.015525   0.000000
   91       -1.934192   0.000000
   92       -1.858118   0.000000
   93       -1.469526   0.000000
   94       -1.251600   0.000000
   95       -1.097409   0.000000
   96       -1.044597   0.000000
   97       -1.002938   0.000000
   98       -0.948348   0.000000
   99       -0.850571   0.000000
  100       -0.813326   0.000000
  101       -0.689889   0.000000
  102       -0.661969   0.000000
  103       -0.595708   0.000000
  104       -0.524130   0.000000
  105       -0.432314   0.000000
  106       -0.256721   0.000000
  107       -0.223883   0.000000
  108       -0.098970   0.000000
  109        0.119256   0.000000
  110        0.253408   0.000000
  111        0.398911   0.000000
  112        0.576201   0.000000
  113        0.716313   0.000000
  114        0.917127   0.000000
  115        1.037957   0.000000
  116        1.134181   0.000000
  117        1.313438   0.000000
  118        1.796975   0.000000
  119        1.974946   0.000000
  120        2.273271   0.000000
 
  0.3750000E+00  0.0000000E+00  0.0000000E+00  0.3125000E-01
    1      -17.568258   1.000000
    2      -17.197707   1.000000
    3      -16.739226   1.000000
    4      -16.655354   1.000000
    5      -16.597322   1.000000
    6      -16.384992   1.000000
    7      -16.315811   1.000000
    8      -16.199475   1.000000
    9      -16.120645   1.000000
   10      -16.012539   1.000000
   11      -15.979622   1.000000
   12      -15.888907   1.000000
   13      -15.780033   1.000000
   14      -15.758009   1.000000
   15      -15.584542   1.000000
   16      -15.555835   1.000000
   17      -15.370508   1.000000
   18      -15.292804   1.000000
   19       -9.669114   1.000000
   20       -9.277896   1.000000
   21       -9.177880   1.000000
   22       -9.003151   1.000000
   23       -8.914516   1.000000
   24       -8.820323   1.000000
   25       -8.570128   1.000000
   26       -8.473611   1.000000
   27       -8.420330   1.000000
   28       -8.317394   1.000000
   29       -8.287084   1.000000
   30       -8.199078   1.000000
   31       -8.145161   1.000000
   32       -8.022013   1.000000
   33       -7.941280   1.000000
   34       -7.797852   1.000000
   35       -7.723530   1.000000
   36       -7.654935   1.000000
   37       -7.572260   1.000000
   38       -7.463940   1.000000
   39       -7.386514   1.000000
   40       -7.258942   1.000000
   41       -7.211563   1.000000
   42       -7.146140   1.000000
   43       -7.071700   1.000000
   44       -7.029668   1.000000
   45       -6.871886   1.000000
   46       -6.819127   1.000000
   47       -6.693930   1.000000
   48       -6.596560   1.000000
   49       -6.580403   1.000000
   50       -6.509315   1.000000
   51       -6.410029   1.000000
   52       -6.341789   1.000000
   53       -6.262789   1.000000
   54       -6.179421   1.000000
   55       -6.150789   1.000000
   56       -6.075554   1.000000
   57       -5.994113   1.000000
   58       -5.941541   1.000000
   59       -5.864029   1.000000
   60       -5.824362   1.000000
   61       -5.757970   1.000000
   62       -5.673737   1.000000
   63       -5.593458   1.000000
   64       -5.383806   1.000000
   65       -5.189368   1.000000
   66       -5.020469   1.000000
   67       -5.002905   1.000000
   68       -4.904955   1.000000
   69       -4.836771   1.000000
   70       -4.709733   1.000000
   71       -4.517107   1.000000
   72       -4.438271   1.000000
   73       -4.299650   1.000000
   74       -4.229952   1.000000
   75       -4.153493   1.000000
   76       -4.069815   1.000000
   77       -3.944935   1.000000
   78       -3.727607   0.999628
   79       -3.473652   0.942593
   80       -3.326429   0.703987
   81       -2.927973   0.011256
   82       -2.724221   0.000099
   83       -2.626469   0.000005
   84       -2.541828   0.000000
   85       -2.396310   0.000000
   86       -2.362145   0.000000
   87       -2.264132   0.000000
   88       -2.090141   0.000000
   89       -2.015906   0.000000
   90       -1.973188   0.000000
   91       -1.896160   0.000000
   92       -1.796093   0.000000
   93       -1.482800   0.000000
   94       -1.269982   0.000000
   95       -1.173249   0.000000
   96       -1.080372   0.000000
   97       -1.054595   0.000000
   98       -0.972735   0.000000
   99       -0.898129   0.000000
  100       -0.892672   0.000000
  101       -0.822314   0.000000
  102       -0.746520   0.000000
  103       -0.675160   0.000000
  104       -0.593591   0.000000
  105       -0.489763   0.000000
  106       -0.319984   0.000000
  107       -0.284731   0.000000
  108       -0.187192   0.000000
  109        0.065806   0.000000
  110        0.237573   0.000000
  111        0.417529   0.000000
  112        0.605295   0.000000
  113        0.741981   0.000000
  114        0.979769   0.000000
  115        1.080194   0.000000
  116        1.201428   0.000000
  117        1.415899   0.000000
  118        1.980299   0.000000
  119        2.146186   0.000000
  120        2.441987   0.000000
 
  0.5000000E+00  0.1110223E-15  0.0000000E+00  0.1562500E-01
    1      -17.440797   1.000000
    2      -17.358991   1.000000
    3      -16.753506   1.000000
    4      -16.664379   1.000000
    5      -16.595650   1.000000
    6      -16.400888   1.000000
    7      -16.308882   1.000000
    8      -16.183272   1.000000
    9      -16.091914   1.000000
   10      -15.996111   1.000000
   11      -15.929549   1.000000
   12      -15.895716   1.000000
   13      -15.801334   1.000000
   14      -15.777458   1.000000
   15      -15.591318   1.000000
   16      -15.512159   1.000000
   17      -15.394639   1.000000
   18      -15.293903   1.000000
   19       -9.745715   1.000000
   20       -9.314874   1.000000
   21       -9.210685   1.000000
   22       -8.994936   1.000000
   23       -8.925646   1.000000
   24       -8.805769   1.000000
   25       -8.540094   1.000000
   26       -8.472951   1.000000
   27       -8.421355   1.000000
   28       -8.291287   1.000000
   29       -8.256384   1.000000
   30       -8.199207   1.000000
   31       -8.107233   1.000000
   32       -8.058703   1.000000
   33       -7.928082   1.000000
   34       -7.876107   1.000000
   35       -7.765810   1.000000
   36       -7.647856   1.000000
   37       -7.579896   1.000000
   38       -7.436887   1.000000
   39       -7.380015   1.000000
   40       -7.198284   1.000000
   41       -7.162193   1.000000
   42       -7.114421   1.000000
   43       -7.046808   1.000000
   44       -6.965698   1.000000
   45       -6.867537   1.000000
   46       -6.732394   1.000000
   47       -6.635781   1.000000
   48       -6.597510   1.000000
   49       -6.545492   1.000000
   50       -6.472988   1.000000
   51       -6.387749   1.000000
   52       -6.355859   1.000000
   53       -6.286250   1.000000
   54       -6.270281   1.000000
   55       -6.230386   1.000000
   56       -6.128264   1.000000
   57       -5.991555   1.000000
   58       -5.930182   1.000000
   59       -5.872579   1.000000
   60       -5.809307   1.000000
   61       -5.763656   1.000000
   62       -5.653639   1.000000
   63       -5.603772   1.000000
   64       -5.467353   1.000000
   65       -5.253423   1.000000
   66       -5.045576   1.000000
   67       -4.973059   1.000000
   68       -4.957396   1.000000
   69       -4.889021   1.000000
   70       -4.682643   1.000000
   71       -4.513374   1.000000
   72       -4.413784   1.000000
   73       -4.279178   1.000000
   74       -4.236360   1.000000
   75       -4.199524   1.000000
   76       -4.056984   1.000000
   77       -3.912561   0.999999
   78       -3.652023   0.997732
   79       -3.518042   0.970675
   80       -3.308279   0.658201
   81       -2.884748   0.004837
   82       -2.717362   0.000081
   83       -2.617221   0.000004
   84       -2.537632   0.000000
   85       -2.392133   0.000000
   86       -2.336888   0.000000
   87       -2.282059   0.000000
   88       -2.085269   0.000000
   89       -1.992692   0.000000
   90       -1.954882   0.000000
   91       -1.881245   0.000000
   92       -1.751304   0.000000
   93       -1.490970   0.000000
   94       -1.259748   0.000000
   95       -1.247103   0.000000
   96       -1.088521   0.000000
   97       -1.071904   0.000000
   98       -1.021210   0.000000
   99       -0.915501   0.000000
  100       -0.892530   0.000000
  101       -0.882256   0.000000
  102       -0.777555   0.000000
  103       -0.709812   0.000000
  104       -0.607729   0.000000
  105       -0.509664   0.000000
  106       -0.347842   0.000000
  107       -0.302732   0.000000
  108       -0.223765   0.000000
  109        0.033425   0.000000
  110        0.223282   0.000000
  111        0.429949   0.000000
  112        0.620604   0.000000
  113        0.737713   0.000000
  114        1.000607   0.000000
  115        1.111664   0.000000
  116        1.228730   0.000000
  117        1.455502   0.000000
  118        2.201404   0.000000
  119        2.222404   0.000000
  120        2.362861   0.000000
 
  0.0000000E+00  0.1250000E+00  0.0000000E+00  0.3125000E-01
    1      -17.763066   1.000000
    2      -16.741397   1.000000
    3      -16.695495   1.000000
    4      -16.612466   1.000000
    5      -16.534641   1.000000
    6      -16.427870   1.000000
    7      -16.368881   1.000000
    8      -16.287201   1.000000
    9      -16.169230   1.000000
   10      -16.120692   1.000000
   11      -16.054899   1.000000
   12      -15.969959   1.000000
   13      -15.862695   1.000000
   14      -15.675566   1.000000
   15      -15.636747   1.000000
   16      -15.535893   1.000000
   17      -15.321879   1.000000
   18      -15.275477   1.000000
   19       -9.232652   1.000000
   20       -9.067194   1.000000
   21       -9.001384   1.000000
   22       -8.937559   1.000000
   23       -8.794204   1.000000
   24       -8.746907   1.000000
   25       -8.678685   1.000000
   26       -8.590053   1.000000
   27       -8.490608   1.000000
   28       -8.439130   1.000000
   29       -8.392911   1.000000
   30       -8.245012   1.000000
   31       -8.184296   1.000000
   32       -8.058021   1.000000
   33       -7.972287   1.000000
   34       -7.881800   1.000000
   35       -7.826065   1.000000
   36       -7.753441   1.000000
   37       -7.701645   1.000000
   38       -7.571676   1.000000
   39       -7.474666   1.000000
   40       -7.410631   1.000000
   41       -7.309197   1.000000
   42       -7.224693   1.000000
   43       -7.126669   1.000000
   44       -7.006968   1.000000
   45       -6.875372   1.000000
   46       -6.828156   1.000000
   47       -6.749888   1.000000
   48       -6.619792   1.000000
   49       -6.550233   1.000000
   50       -6.447911   1.000000
   51       -6.425145   1.000000
   52       -6.392932   1.000000
   53       -6.325542   1.000000
   54       -6.267237   1.000000
   55       -6.203410   1.000000
   56       -6.181917   1.000000
   57       -5.970828   1.000000
   58       -5.937787   1.000000
   59       -5.710451   1.000000
   60       -5.575289   1.000000
   61       -5.539705   1.000000
   62       -5.439295   1.000000
   63       -5.307766   1.000000
   64       -5.288284   1.000000
   65       -5.211544   1.000000
   66       -5.078070   1.000000
   67       -5.026407   1.000000
   68       -4.859701   1.000000
   69       -4.793177   1.000000
   70       -4.712310   1.000000
   71       -4.595913   1.000000
   72       -4.497086   1.000000
   73       -4.451851   1.000000
   74       -4.162716   1.000000
   75       -4.072964   1.000000
   76       -4.053092   1.000000
   77       -3.892985   0.999997
   78       -3.698060   0.999221
   79       -3.469985   0.939548
   80       -3.397270   0.850090
   81       -3.192234   0.339803
   82       -2.850276   0.002320
   83       -2.620983   0.000004
   84       -2.575677   0.000001
   85       -2.432033   0.000000
   86       -2.402555   0.000000
   87       -2.231601   0.000000
   88       -2.152590   0.000000
   89       -2.129821   0.000000
   90       -2.018758   0.000000
   91       -1.963358   0.000000
   92       -1.883215   0.000000
   93       -1.464747   0.000000
   94       -1.216340   0.000000
   95       -1.106887   0.000000
   96       -1.052942   0.000000
   97       -0.991310   0.000000
   98       -0.846361   0.000000
   99       -0.786062   0.000000
  100       -0.722965   0.000000
  101       -0.678022   0.000000
  102       -0.518941   0.000000
  103       -0.465503   0.000000
  104       -0.439319   0.000000
  105       -0.307085   0.000000
  106       -0.194757   0.000000
  107       -0.123887   0.000000
  108        0.025531   0.000000
  109        0.146789   0.000000
  110        0.239985   0.000000
  111        0.368560   0.000000
  112        0.435068   0.000000
  113        0.658713   0.000000
  114        0.873538   0.000000
  115        0.987349   0.000000
  116        1.157424   0.000000
  117        1.195253   0.000000
  118        1.674306   0.000000
  119        1.863010   0.000000
  120        2.169560   0.000000
 
  0.1250000E+00  0.1250000E+00  0.0000000E+00  0.3125000E-01
    1      -17.714160   1.000000
    2      -16.879339   1.000000
    3      -16.775949   1.000000
    4      -16.654584   1.000000
    5      -16.455778   1.000000
    6      -16.415588   1.000000
    7      -16.346749   1.000000
    8      -16.265399   1.000000
    9      -16.171740   1.000000
   10      -16.110797   1.000000
   11      -15.988014   1.000000
   12      -15.946765   1.000000
   13      -15.801594   1.000000
   14      -15.711941   1.000000
   15      -15.622941   1.000000
   16      -15.560147   1.000000
   17      -15.337903   1.000000
   18      -15.277051   1.000000
   19       -9.307321   1.000000
   20       -9.265751   1.000000
   21       -9.094538   1.000000
   22       -9.000347   1.000000
   23       -8.825865   1.000000
   24       -8.695088   1.000000
   25       -8.666975   1.000000
   26       -8.570676   1.000000
   27       -8.494467   1.000000
   28       -8.383293   1.000000
   29       -8.297121   1.000000
   30       -8.268936   1.000000
   31       -8.125931   1.000000
   32       -8.071469   1.000000
   33       -7.858053   1.000000
   34       -7.829930   1.000000
   35       -7.785235   1.000000
   36       -7.726144   1.000000
   37       -7.586874   1.000000
   38       -7.506476   1.000000
   39       -7.461931   1.000000
   40       -7.330108   1.000000
   41       -7.301153   1.000000
   42       -7.214250   1.000000
   43       -7.184574   1.000000
   44       -7.061845   1.000000
   45       -6.869782   1.000000
   46       -6.857508   1.000000
   47       -6.785422   1.000000
   48       -6.698414   1.000000
   49       -6.550060   1.000000
   50       -6.462913   1.000000
   51       -6.417026   1.000000
   52       -6.371470   1.000000
   53       -6.335436   1.000000
   54       -6.237572   1.000000
   55       -6.160010   1.000000
   56       -6.088075   1.000000
   57       -5.934997   1.000000
   58       -5.912934   1.000000
   59       -5.689737   1.000000
   60       -5.644633   1.000000
   61       -5.604838   1.000000
   62       -5.586005   1.000000
   63       -5.394272   1.000000
   64       -5.324817   1.000000
   65       -5.214637   1.000000
   66       -5.174738   1.000000
   67       -5.048993   1.000000
   68       -4.838951   1.000000
   69       -4.800251   1.000000
   70       -4.678843   1.000000
   71       -4.492625   1.000000
   72       -4.414862   1.000000
   73       -4.355496   1.000000
   74       -4.172461   1.000000
   75       -4.103640   1.000000
   76       -4.040438   1.000000
   77       -3.997086   1.000000
   78       -3.851960   0.999989
   79       -3.409286   0.869023
   80       -3.373183   0.806892
   81       -3.120468   0.178664
   82       -2.798722   0.000698
   83       -2.614899   0.000003
   84       -2.556157   0.000000
   85       -2.411553   0.000000
   86       -2.391984   0.000000
   87       -2.188770   0.000000
   88       -2.181469   0.000000
   89       -2.072004   0.000000
   90       -2.003087   0.000000
   91       -1.926244   0.000000
   92       -1.895429   0.000000
   93       -1.475939   0.000000
   94       -1.243660   0.000000
   95       -1.086608   0.000000
   96       -1.059835   0.000000
   97       -0.987529   0.000000
   98       -0.915400   0.000000
   99       -0.839083   0.000000
  100       -0.772973   0.000000
  101       -0.701332   0.000000
  102       -0.603734   0.000000
  103       -0.578104   0.000000
  104       -0.547334   0.000000
  105       -0.325383   0.000000
  106       -0.290704   0.000000
  107       -0.243376   0.000000
  108       -0.016937   0.000000
  109        0.160725   0.000000
  110        0.267583   0.000000
  111        0.385735   0.000000
  112        0.524726   0.000000
  113        0.609230   0.000000
  114        0.890089   0.000000
  115        1.035386   0.000000
  116        1.184174   0.000000
  117        1.314977   0.000000
  118        1.757102   0.000000
  119        1.939497   0.000000
  120        2.238637   0.000000
 
  0.2500000E+00  0.1250000E+00  0.0000000E+00  0.3125000E-01
    1      -17.618022   1.000000
    2      -17.076726   1.000000
    3      -16.869454   1.000000
    4      -16.637170   1.000000
    5      -16.458388   1.000000
    6      -16.382302   1.000000
    7      -16.323954   1.000000
    8      -16.250901   1.000000
    9      -16.126240   1.000000
   10      -16.069506   1.000000
   11      -15.973995   1.000000
   12      -15.895577   1.000000
   13      -15.762380   1.000000
   14      -15.753515   1.000000
   15      -15.597728   1.000000
   16      -15.570278   1.000000
   17      -15.359939   1.000000
   18      -15.283919   1.000000
   19       -9.550213   1.000000
   20       -9.371026   1.000000
   21       -9.206692   1.000000
   22       -8.995114   1.000000
   23       -8.841821   1.000000
   24       -8.688972   1.000000
   25       -8.580703   1.000000
   26       -8.472577   1.000000
   27       -8.427922   1.000000
   28       -8.367251   1.000000
   29       -8.267425   1.000000
   30       -8.215862   1.000000
   31       -8.179386   1.000000
   32       -8.091693   1.000000
   33       -7.945817   1.000000
   34       -7.855401   1.000000
   35       -7.772753   1.000000
   36       -7.592376   1.000000
   37       -7.537864   1.000000
   38       -7.428588   1.000000
   39       -7.366262   1.000000
   40       -7.313036   1.000000
   41       -7.220626   1.000000
   42       -7.155316   1.000000
   43       -7.097874   1.000000
   44       -7.045313   1.000000
   45       -6.907628   1.000000
   46       -6.818345   1.000000
   47       -6.783764   1.000000