       N       E                     dE             d eps       ncg     rms          rms(c)
DAV:   1     0.112647308677E+04    0.11265E+04   -0.35980E+04  8160   0.577E+02
DAV:   2    -0.568114665239E-01   -0.11265E+04   -0.10834E+04 11080   0.173E+02
DAV:   3    -0.199554574904E+03   -0.19950E+03   -0.19151E+03 10920   0.824E+01
DAV:   4    -0.208874321793E+03   -0.93197E+01   -0.90252E+01 11960   0.262E+01
DAV:   5    -0.209220575305E+03   -0.34625E+00   -0.34533E+00 11480   0.377E+00    0.274E+01
DAV:   6    -0.236286187496E+03   -0.27066E+02   -0.11208E+02 12680   0.601E+01    0.592E+01
DAV:   7    -0.196856567309E+03    0.39430E+02   -0.17560E+02 13240   0.151E+02    0.206E+01
DAV:   8    -0.190315474898E+03    0.65411E+01   -0.21183E+01 11640   0.135E+01    0.140E+01
DAV:   9    -0.188298719441E+03    0.20168E+01   -0.37548E+00 12240   0.646E+00    0.936E+00
DAV:  10    -0.187095878654E+03    0.12028E+01   -0.17499E+00 13240   0.773E+00    0.320E+00
DAV:  11    -0.187020197238E+03    0.75681E-01   -0.64224E-01 12400   0.243E+00    0.252E+00
DAV:  12    -0.187047648779E+03   -0.27452E-01   -0.51841E-01 12280   0.366E+00    0.372E+00
DAV:  13    -0.186924233608E+03    0.12342E+00   -0.28043E-01 13120   0.327E+00    0.176E+00
DAV:  14    -0.186896309962E+03    0.27924E-01   -0.91114E-02 12760   0.169E+00    0.942E-01
DAV:  15    -0.186892518619E+03    0.37913E-02   -0.33571E-02 12560   0.989E-01    0.835E-01
DAV:  16    -0.186887540014E+03    0.49786E-02   -0.12223E-02 13280   0.565E-01    0.394E-01
DAV:  17    -0.186885928690E+03    0.16113E-02   -0.68441E-03 12680   0.318E-01    0.207E-01
DAV:  18    -0.186885103242E+03    0.82545E-03   -0.22159E-03 12200   0.165E-01    0.175E-01
DAV:  19    -0.186884914349E+03    0.18889E-03   -0.86443E-04 11240   0.146E-01    0.485E-02
DAV:  20    -0.186885760373E+03   -0.84602E-03   -0.80219E-04  9080   0.590E-02    0.464E-02
DAV:  21    -0.186886613831E+03   -0.85346E-03   -0.24017E-04  8120   0.514E-02    0.345E-02
DAV:  22    -0.186887429131E+03   -0.81530E-03   -0.11700E-04  7160   0.314E-02    0.364E-02
DAV:  23    -0.186888636442E+03   -0.12073E-02   -0.14402E-04  7520   0.454E-02    0.206E-02
DAV:  24    -0.186889181398E+03   -0.54496E-03   -0.28353E-05  6760   0.221E-02    0.476E-03
DAV:  25    -0.186889568003E+03   -0.38660E-03   -0.18648E-05  5480   0.961E-03    0.464E-03
DAV:  26    -0.186889806228E+03   -0.23823E-03   -0.90704E-06  6840   0.760E-03    0.156E-03
DAV:  27    -0.186889886892E+03   -0.80664E-04   -0.30018E-06  7360   0.380E-03
   1 F= -.18688989E+03 E0= -.18671861E+03  d E =-.186890E+03
       N       E                     dE             d eps       ncg     rms          rms(c)
DAV:   1    -0.187544125275E+03   -0.65432E+00   -0.27361E+02  8160   0.352E+01    0.466E+00
DAV:   2    -0.189533187023E+03   -0.19891E+01   -0.20374E+01 12360   0.156E+01    0.942E+00
DAV:   3    -0.189376931495E+03    0.15626E+00   -0.42515E+00 12400   0.123E+01    0.643E+00
DAV:   4    -0.188803961654E+03    0.57297E+00   -0.61053E-01 12440   0.452E+00    0.181E+00
DAV:   5    -0.188953483593E+03   -0.14952E+00   -0.51624E-01 12480   0.361E+00    0.591E+00
DAV:   6    -0.188772234747E+03    0.18125E+00   -0.85937E-01 12760   0.447E+00    0.201E+00
DAV:   7    -0.188743712152E+03    0.28523E-01   -0.14451E-01 10960   0.142E+00    0.126E+00
DAV:   8    -0.188719742500E+03    0.23970E-01   -0.54909E-02 12080   0.939E-01    0.764E-01
DAV:   9    -0.188716977016E+03    0.27655E-02   -0.13385E-02 11440   0.647E-01    0.435E-01
DAV:  10    -0.188715873589E+03    0.11034E-02   -0.39597E-03 13520   0.295E-01    0.203E-01
DAV:  11    -0.188715247569E+03    0.62602E-03   -0.23129E-03 11960   0.158E-01    0.103E-01
DAV:  12    -0.188715395850E+03   -0.14828E-03   -0.76118E-04 10680   0.814E-02    0.811E-02
DAV:  13    -0.188715332668E+03    0.63182E-04   -0.24184E-04  8160   0.588E-02
   2 F= -.18871533E+03 E0= -.18857570E+03  d E =-.182545E+01
       N       E                     dE             d eps       ncg     rms          rms(c)
DAV:   1    -0.190640340641E+03   -0.19249E+01   -0.31519E+01  9040   0.143E+01    0.441E+00
DAV:   2    -0.190558029543E+03    0.82311E-01   -0.27337E+00 11120   0.924E+00    0.702E+00
DAV:   3    -0.190133284524E+03    0.42475E+00   -0.13597E+00 12320   0.853E+00    0.426E+00
DAV:   4    -0.189920524194E+03    0.21276E+00   -0.75790E-01 12800   0.436E+00    0.251E+00
DAV:   5    -0.189895731753E+03    0.24792E-01   -0.37369E-01 12240   0.306E+00    0.277E+00
DAV:   6    -0.189823609172E+03    0.72123E-01   -0.14978E-01 12560   0.246E+00    0.808E-01
DAV:   7    -0.189815804859E+03    0.78043E-02   -0.16318E-02 11560   0.588E-01    0.237E-01
DAV:   8    -0.189816861198E+03   -0.10563E-02   -0.48697E-03 12400   0.391E-01    0.406E-01
DAV:   9    -0.189815659242E+03    0.12020E-02   -0.26113E-03 11160   0.326E-01    0.120E-01
DAV:  10    -0.189815987895E+03   -0.32865E-03   -0.76313E-04  9720   0.103E-01    0.114E-01
DAV:  11    -0.189815765262E+03    0.22263E-03   -0.38772E-04  8960   0.672E-02    0.234E-02
DAV:  12    -0.189815785670E+03   -0.20409E-04   -0.65081E-05  6960   0.271E-02
   3 F= -.18981579E+03 E0= -.18969624E+03  d E =-.110045E+01
       N       E                     dE             d eps       ncg     rms          rms(c)
DAV:   1    -0.191420062831E+03   -0.16043E+01   -0.82671E+01  8160   0.207E+01    0.460E+00
DAV:   2    -0.191226548767E+03    0.19351E+00   -0.54642E+00 13160   0.748E+00    0.438E+00
DAV:   3    -0.191378824232E+03   -0.15228E+00   -0.16074E+00 12240   0.896E+00    0.657E+00
DAV:   4    -0.190997665857E+03    0.38116E+00   -0.13848E+00 12400   0.778E+00    0.295E+00
DAV:   5    -0.190905947591E+03    0.91718E-01   -0.36852E-01 12400   0.316E+00    0.221E+00
DAV:   6    -0.190873680021E+03    0.32268E-01   -0.19610E-01 12400   0.291E+00    0.176E+00
DAV:   7    -0.190847374804E+03    0.26305E-01   -0.68621E-02 12640   0.151E+00    0.421E-01
DAV:   8    -0.190844677471E+03    0.26973E-02   -0.68289E-03 10160   0.329E-01    0.154E-01
DAV:   9    -0.190845457280E+03   -0.77981E-03   -0.22525E-03 12680   0.283E-01    0.293E-01
DAV:  10    -0.190845060754E+03    0.39653E-03   -0.23873E-03 10560   0.319E-01    0.161E-01
DAV:  11    -0.190844796933E+03    0.26382E-03   -0.74365E-04  9880   0.138E-01    0.476E-02
DAV:  12    -0.190844802197E+03   -0.52646E-05   -0.11124E-04  6560   0.429E-02
   4 F= -.19084480E+03 E0= -.19073676E+03  d E =-.102902E+01
       N       E                     dE             d eps       ncg     rms          rms(c)
DAV:   1    -0.192150674186E+03   -0.13059E+01   -0.17644E+02  8160   0.294E+01    0.552E+00
DAV:   2    -0.191934131688E+03    0.21654E+00   -0.93615E+00 10880   0.778E+00    0.343E+00
DAV:   3    -0.191798416467E+03    0.13572E+00   -0.14731E+00 11720   0.602E+00    0.360E+00
DAV:   4    -0.191826942120E+03   -0.28526E-01   -0.10662E+00 12400   0.748E+00    0.437E+00
DAV:   5    -0.191556371395E+03    0.27057E+00   -0.44551E-01 12360   0.459E+00    0.838E-01
DAV:   6    -0.191546765001E+03    0.96064E-02   -0.82943E-02 11640   0.120E+00    0.590E-01
DAV:   7    -0.191552390820E+03   -0.56258E-02   -0.40635E-02 12040   0.123E+00    0.111E+00
DAV:   8    -0.191541492433E+03    0.10898E-01   -0.20619E-02 11640   0.909E-01    0.177E-01
DAV:   9    -0.191542366597E+03   -0.87416E-03   -0.33165E-03 11520   0.305E-01    0.305E-01
DAV:  10    -0.191541797498E+03    0.56910E-03   -0.33286E-03 11800   0.364E-01    0.174E-01
DAV:  11    -0.191541553574E+03    0.24392E-03   -0.95867E-04 10000   0.162E-01    0.546E-02
DAV:  12    -0.191541520073E+03    0.33501E-04   -0.12082E-04  6480   0.458E-02
   5 F= -.19154152E+03 E0= -.19143076E+03  d E =-.696718E+00
       N       E                     dE             d eps       ncg     rms          rms(c)
DAV:   1    -0.191618552891E+03   -0.76999E-01   -0.58939E+00  8160   0.512E+00    0.657E-01
DAV:   2    -0.191676294111E+03   -0.57741E-01   -0.30625E-01 13600   0.287E+00    0.215E+00
DAV:   3    -0.191631662374E+03    0.44632E-01   -0.10860E-01 12480   0.215E+00    0.486E-01
DAV:   4    -0.191634494353E+03   -0.28320E-02   -0.22867E-02 10280   0.945E-01    0.773E-01
DAV:   5    -0.191628416558E+03    0.60778E-02   -0.13539E-02 11320   0.748E-01    0.235E-01
DAV:   6    -0.191629522240E+03   -0.11057E-02   -0.59122E-03 11160   0.426E-01    0.432E-01
DAV:   7    -0.191628195698E+03    0.13265E-02   -0.53744E-03 11160   0.472E-01    0.210E-01
DAV:   8    -0.191627687797E+03    0.50790E-03   -0.10193E-03  9920   0.169E-01    0.338E-02
DAV:   9    -0.191627700717E+03   -0.12920E-04   -0.10506E-04  6560   0.346E-02
   6 F= -.19162770E+03 E0= -.19151609E+03  d E =-.861806E-01
       N       E                     dE             d eps       ncg     rms          rms(c)
DAV:   1    -0.191697456696E+03   -0.69769E-01   -0.47764E+00  8160   0.460E+00    0.510E-01
DAV:   2    -0.191730255989E+03   -0.32799E-01   -0.16258E-01 12760   0.187E+00    0.168E+00
DAV:   3    -0.191703780083E+03    0.26476E-01   -0.72915E-02 12520   0.170E+00    0.444E-01
DAV:   4    -0.191704512720E+03   -0.73264E-03   -0.13478E-02 11240   0.705E-01    0.533E-01
DAV:   5    -0.191701597558E+03    0.29152E-02   -0.69925E-03 11320   0.565E-01    0.187E-01
DAV:   6    -0.191701874774E+03   -0.27722E-03   -0.30132E-03 11120   0.301E-01    0.284E-01
DAV:   7    -0.191701577200E+03    0.29757E-03   -0.31943E-03 10080   0.364E-01    0.215E-01
DAV:   8    -0.191701091157E+03    0.48604E-03   -0.88637E-04  8720   0.174E-01    0.241E-02
DAV:   9    -0.191701113901E+03   -0.22744E-04   -0.81432E-05  6040   0.312E-02
   7 F= -.19170111E+03 E0= -.19158983E+03  d E =-.734132E-01
       N       E                     dE             d eps       ncg     rms          rms(c)
DAV:   1    -0.191756798798E+03   -0.55708E-01   -0.28541E+00  8160   0.359E+00    0.451E-01
DAV:   2    -0.191786305180E+03   -0.29506E-01   -0.12934E-01 12040   0.193E+00    0.167E+00
DAV:   3    -0.191760443048E+03    0.25862E-01   -0.62109E-02 12400   0.157E+00    0.324E-01
DAV:   4    -0.191761489368E+03   -0.10463E-02   -0.91120E-03 11320   0.616E-01    0.467E-01
DAV:   5    -0.191759225145E+03    0.22642E-02   -0.55025E-03 10920   0.501E-01    0.180E-01
DAV:   6    -0.191759705381E+03   -0.48024E-03   -0.29721E-03 11680   0.322E-01    0.313E-01
DAV:   7    -0.191759017688E+03    0.68769E-03   -0.24782E-03  9880   0.322E-01    0.127E-01
DAV:   8    -0.191758804620E+03    0.21307E-03   -0.40587E-04  8080   0.103E-01    0.170E-02
DAV:   9    -0.191758815839E+03   -0.11220E-04   -0.54357E-05  6800   0.252E-02
   8 F= -.19175882E+03 E0= -.19164857E+03  d E =-.577019E-01
       N       E                     dE             d eps       ncg     rms          rms(c)
DAV:   1    -0.191888307278E+03   -0.12950E+00   -0.24028E+01  8160   0.104E+01    0.121E+00
DAV:   2    -0.192094684321E+03   -0.20638E+00   -0.94886E-01 11600   0.487E+00    0.454E+00
DAV:   3    -0.191924267274E+03    0.17042E+00   -0.50492E-01 12360   0.431E+00    0.911E-01
DAV:   4    -0.191933124925E+03   -0.88577E-02   -0.65566E-02 12120   0.164E+00    0.146E+00
DAV:   5    -0.191913438304E+03    0.19687E-01   -0.47440E-02 11560   0.143E+00    0.569E-01
DAV:   6    -0.191914569239E+03   -0.11309E-02   -0.16968E-02 11680   0.884E-01    0.687E-01
DAV:   7    -0.191910923524E+03    0.36457E-02   -0.13994E-02 11520   0.866E-01    0.306E-01
DAV:   8    -0.191909319277E+03    0.16042E-02   -0.27065E-03 10960   0.283E-01    0.497E-02
DAV:   9    -0.191909346206E+03   -0.26928E-04   -0.37826E-04  9560   0.586E-02
   9 F= -.19190935E+03 E0= -.19180450E+03  d E =-.150530E+00
       N       E                     dE             d eps       ncg     rms          rms(c)
DAV:   1    -0.191965712778E+03   -0.56394E-01   -0.46359E+00  8160   0.462E+00    0.644E-01
DAV:   2    -0.192010488386E+03   -0.44776E-01   -0.22676E-01 12200   0.241E+00    0.211E+00
DAV:   3    -0.191971842905E+03    0.38645E-01   -0.97300E-02 12280   0.204E+00    0.467E-01
DAV:   4    -0.191974343029E+03   -0.25001E-02   -0.17126E-02 12240   0.899E-01    0.759E-01
DAV:   5    -0.191969350658E+03    0.49924E-02   -0.14608E-02 11080   0.822E-01    0.383E-01
DAV:   6    -0.191969856103E+03   -0.50545E-03   -0.64232E-03 11480   0.566E-01    0.437E-01
DAV:   7    -0.191968041867E+03    0.18142E-02   -0.40105E-03 11320   0.453E-01    0.965E-02
DAV:   8    -0.191967880278E+03    0.16159E-03   -0.40119E-04  9160   0.902E-02    0.269E-02
DAV:   9    -0.191967873464E+03    0.68144E-05   -0.67607E-05  8160   0.281E-02
  10 F= -.19196787E+03 E0= -.19186497E+03  d E =-.585273E-01
       N       E                     dE             d eps       ncg     rms          rms(c)
DAV:   1    -0.192029766159E+03   -0.61886E-01   -0.99223E+00  8160   0.664E+00    0.721E-01
DAV:   2    -0.192091072057E+03   -0.61306E-01   -0.32649E-01 11840   0.264E+00    0.231E+00
DAV:   3    -0.192045381892E+03    0.45690E-01   -0.12125E-01 12360   0.232E+00    0.582E-01
DAV:   4    -0.192048727361E+03   -0.33455E-02   -0.20244E-02 11320   0.937E-01    0.912E-01
DAV:   5    -0.192041354328E+03    0.73730E-02   -0.15428E-02 10800   0.873E-01    0.306E-01
DAV:   6    -0.192041345677E+03    0.86515E-05   -0.42370E-03 12200   0.360E-01    0.259E-01
DAV:   7    -0.192040791694E+03    0.55398E-03   -0.28843E-03 11920   0.413E-01    0.186E-01
DAV:   8    -0.192040339129E+03    0.45257E-03   -0.79357E-04  9800   0.204E-01    0.334E-02
DAV:   9    -0.192040336863E+03    0.22654E-05   -0.11218E-04  6640   0.411E-02
  11 F= -.19204034E+03 E0= -.19194074E+03  d E =-.724634E-01
       N       E                     dE             d eps       ncg     rms          rms(c)
DAV:   1    -0.192058932230E+03   -0.18593E-01   -0.79201E-01  8160   0.189E+00    0.205E-01
DAV:   2    -0.192060374405E+03   -0.14422E-02   -0.21147E-02 13520   0.513E-01    0.279E-01
DAV:   3    -0.192060065820E+03    0.30858E-03   -0.37036E-03 12360   0.446E-01    0.236E-01
DAV:   4    -0.192059615233E+03    0.45059E-03   -0.16899E-03  9920   0.285E-01    0.166E-01
DAV:   5    -0.192059534445E+03    0.80788E-04   -0.11926E-03  9920   0.259E-01    0.152E-01
DAV:   6    -0.192059369164E+03    0.16528E-03   -0.70334E-04  8920   0.179E-01    0.923E-02
DAV:   7    -0.192059380934E+03   -0.11770E-04   -0.41668E-04  8600   0.145E-01
  12 F= -.19205938E+03 E0= -.19196068E+03  d E =-.190441E-01
       N       E                     dE             d eps       ncg     rms          rms(c)
DAV:   1    -0.192093031590E+03   -0.33662E-01   -0.23077E+00  8160   0.321E+00    0.330E-01
DAV:   2    -0.192100077432E+03   -0.70458E-02   -0.61485E-02 11600   0.957E-01    0.688E-01
DAV:   3    -0.192096331969E+03    0.37455E-02   -0.14068E-02 12480   0.845E-01    0.322E-01
DAV:   4    -0.192095690163E+03    0.64181E-03   -0.31442E-03 11520   0.383E-01    0.246E-01
DAV:   5    -0.192095410393E+03    0.27977E-03   -0.24437E-03 10720   0.377E-01    0.222E-01
DAV:   6    -0.192095541487E+03   -0.13109E-03   -0.19833E-03 10000   0.299E-01    0.248E-01
DAV:   7    -0.192095039736E+03    0.50175E-03   -0.12168E-03  9920   0.267E-01    0.869E-02
DAV:   8    -0.192094935239E+03    0.10450E-03   -0.15532E-04  6080   0.808E-02    0.148E-02
DAV:   9    -0.192094938210E+03   -0.29708E-05   -0.54432E-05  7520   0.238E-02
  13 F= -.19209494E+03 E0= -.19199802E+03  d E =-.355573E-01
       N       E                     dE             d eps       ncg     rms          rms(c)
DAV:   1    -0.192119332949E+03   -0.24398E-01   -0.10899E+00  8160   0.221E+00    0.210E-01
DAV:   2    -0.192121170332E+03   -0.18374E-02   -0.25154E-02 11840   0.477E-01    0.266E-01
DAV:   3    -0.192121484742E+03   -0.31441E-03   -0.42898E-03 12520   0.477E-01    0.331E-01
DAV:   4    -0.192120531515E+03    0.95323E-03   -0.19041E-03 10200   0.312E-01    0.146E-01
DAV:   5    -0.192120608459E+03   -0.76944E-04   -0.11084E-03  9760   0.231E-01    0.183E-01
DAV:   6    -0.192120381629E+03    0.22683E-03   -0.80350E-04  9120   0.189E-01    0.751E-02
DAV:   7    -0.192120358200E+03    0.23429E-04   -0.25667E-04  7800   0.117E-01
  14 F= -.19212036E+03 E0= -.19202521E+03  d E =-.254200E-01
       N       E                     dE             d eps       ncg     rms          rms(c)
DAV:   1    -0.192109845445E+03    0.10536E-01   -0.19640E-01  8160   0.952E-01    0.109E-01
DAV:   2    -0.192110670570E+03   -0.82512E-03   -0.61851E-03 11840   0.323E-01    0.252E-01
DAV:   3    -0.192110140918E+03    0.52965E-03   -0.16368E-03 10200   0.290E-01    0.114E-01
DAV:   4    -0.192110206424E+03   -0.65505E-04   -0.53542E-04  8320   0.167E-01
  15 F= -.19211021E+03 E0= -.19201390E+03  d E =0.101518E-01
       N       E                     dE             d eps       ncg     rms          rms(c)
DAV:   1    -0.192092368728E+03    0.17772E-01   -0.75200E-01  8160   0.187E+00    0.227E-01
DAV:   2    -0.192094094729E+03   -0.17260E-02   -0.20282E-02 12320   0.516E-01    0.396E-01
DAV:   3    -0.192093517703E+03    0.57703E-03   -0.62423E-03 11960   0.525E-01    0.313E-01
DAV:   4    -0.192092837952E+03    0.67975E-03   -0.22151E-03 10240   0.304E-01    0.185E-01
DAV:   5    -0.192092783620E+03    0.54332E-04   -0.14381E-03  9960   0.283E-01    0.185E-01
DAV:   6    -0.192092512094E+03    0.27153E-03   -0.83504E-04  9040   0.198E-01    0.824E-02
DAV:   7    -0.192092498334E+03    0.13761E-04   -0.33560E-04  8880   0.144E-01
  16 F= -.19209250E+03 E0= -.19199482E+03  d E =0.177081E-01
       N       E                     dE             d eps       ncg     rms          rms(c)
DAV:   1    -0.192126741855E+03   -0.34230E-01   -0.28379E+00  8160   0.355E+00    0.330E-01
DAV:   2    -0.192131354412E+03   -0.46126E-02   -0.70959E-02 12040   0.747E-01    0.276E-01
DAV:   3    -0.192133436869E+03   -0.20825E-02   -0.91086E-03 11320   0.661E-01    0.552E-01
DAV:   4    -0.192130443423E+03    0.29934E-02   -0.49052E-03 10800   0.531E-01    0.195E-01
DAV:   5    -0.192130852920E+03   -0.40950E-03   -0.23724E-03  9640   0.355E-01    0.296E-01
DAV:   6    -0.192130245161E+03    0.60776E-03   -0.20830E-03  9840   0.309E-01    0.147E-01
DAV:   7    -0.192130179746E+03    0.65415E-04   -0.86532E-04  9560   0.229E-01
  17 F= -.19213018E+03 E0= -.19203446E+03  d E =-.376814E-01
       N       E                     dE             d eps       ncg     rms          rms(c)
DAV:   1    -0.192138157775E+03   -0.79126E-02   -0.11587E-01  8160   0.749E-01    0.919E-02
DAV:   2    -0.192138372145E+03   -0.21437E-03   -0.37346E-03 11640   0.196E-01    0.117E-01
DAV:   3    -0.192138435705E+03   -0.63561E-04   -0.83044E-04 10720   0.206E-01
  18 F= -.19213844E+03 E0= -.19204352E+03  d E =-.825596E-02
       N       E                     dE             d eps       ncg     rms          rms(c)
DAV:   1    -0.192118628311E+03    0.19744E-01   -0.69085E-01  8160   0.179E+00    0.230E-01
DAV:   2    -0.192127271290E+03   -0.86430E-02   -0.28912E-02 12640   0.942E-01    0.935E-01
DAV:   3    -0.192119211774E+03    0.80595E-02   -0.11720E-02 11240   0.797E-01    0.142E-01
DAV:   4    -0.192119825672E+03   -0.61390E-03   -0.20345E-03 10000   0.321E-01    0.289E-01
DAV:   5    -0.192118994088E+03    0.83158E-03   -0.13937E-03  9520   0.285E-01    0.719E-02
DAV:   6    -0.192119021068E+03   -0.26980E-04   -0.32434E-04  8160   0.108E-01
  19 F= -.19211902E+03 E0= -.19202251E+03  d E =0.194146E-01
       N       E                     dE             d eps       ncg     rms          rms(c)
DAV:   1    -0.192126942731E+03   -0.79486E-02   -0.31500E-01  8160   0.122E+00    0.228E-01
DAV:   2    -0.192130124191E+03   -0.31815E-02   -0.18982E-02 10760   0.773E-01    0.610E-01
DAV:   3    -0.192126920232E+03    0.32040E-02   -0.77856E-03 11280   0.644E-01    0.234E-01
DAV:   4    -0.192127102448E+03   -0.18222E-03   -0.27273E-03 10120   0.378E-01    0.286E-01
DAV:   5    -0.192126298188E+03    0.80426E-03   -0.16807E-03  9560   0.302E-01    0.997E-02
DAV:   6    -0.192126205101E+03    0.93087E-04   -0.57716E-04  9360   0.129E-01
  20 F= -.19212621E+03 E0= -.19202978E+03  d E =-.718403E-02
       N       E                     dE             d eps       ncg     rms          rms(c)
DAV:   1    -0.192158177081E+03   -0.31879E-01   -0.22166E+00  8160   0.316E+00    0.327E-01
DAV:   2    -0.192165342731E+03   -0.71656E-02   -0.61840E-02 11880   0.970E-01    0.725E-01
DAV:   3    -0.192161943960E+03    0.33988E-02   -0.13303E-02 12400   0.824E-01    0.371E-01
DAV:   4    -0.192161149212E+03    0.79475E-03   -0.37673E-03 10960   0.402E-01    0.273E-01
DAV:   5    -0.192160792903E+03    0.35631E-03   -0.25017E-03 10400   0.393E-01    0.217E-01
DAV:   6    -0.192160458098E+03    0.33481E-03   -0.13318E-03 11400   0.242E-01    0.107E-01
DAV:   7    -0.192160438062E+03    0.20036E-04   -0.59674E-04  9280   0.197E-01
  21 F= -.19216044E+03 E0= -.19206598E+03  d E =-.342330E-01
       N       E                     dE             d eps       ncg     rms          rms(c)
DAV:   1    -0.192175211248E+03   -0.14753E-01   -0.42651E-01  8160   0.139E+00    0.148E-01
DAV:   2    -0.192176086160E+03   -0.87491E-03   -0.11991E-02 11560   0.328E-01    0.190E-01
DAV:   3    -0.192176367600E+03   -0.28144E-03   -0.23087E-03 12160   0.341E-01    0.268E-01
DAV:   4    -0.192175765601E+03    0.60200E-03   -0.11280E-03  9440   0.233E-01    0.819E-02
DAV:   5    -0.192175767145E+03   -0.15443E-05   -0.32444E-04  8040   0.122E-01
  22 F= -.19217577E+03 E0= -.19208235E+03  d E =-.153291E-01
       N       E                     dE             d eps       ncg     rms          rms(c)
DAV:   1    -0.192151660633E+03    0.24105E-01   -0.94369E-01  8160   0.208E+00    0.231E-01
DAV:   2    -0.192156800319E+03   -0.51397E-02   -0.30372E-02 12280   0.770E-01    0.656E-01
DAV:   3    -0.192153201707E+03    0.35986E-02   -0.97320E-03 11280   0.694E-01    0.233E-01
DAV:   4    -0.192153231474E+03   -0.29767E-04   -0.21804E-03  9840   0.304E-01    0.258E-01
DAV:   5    -0.192152682582E+03    0.54889E-03   -0.13304E-03  9560   0.280E-01    0.118E-01
DAV:   6    -0.192152548622E+03    0.13396E-03   -0.45642E-04  9680   0.121E-01    0.508E-02
DAV:   7    -0.192152522194E+03    0.26429E-04   -0.12609E-04  6760   0.538E-02
  23 F= -.19215252E+03 E0= -.19205779E+03  d E =0.232450E-01
       N       E                     dE             d eps       ncg     rms          rms(c)
DAV:   1    -0.192130254520E+03    0.22294E-01   -0.12503E+00  8160   0.242E+00    0.308E-01
DAV:   2    -0.192135171379E+03   -0.49169E-02   -0.40999E-02 12000   0.793E-01    0.644E-01
DAV:   3    -0.192132429789E+03    0.27416E-02   -0.13184E-02 11760   0.792E-01    0.364E-01
DAV:   4    -0.192132202633E+03    0.22716E-03   -0.42102E-03 11400   0.431E-01    0.354E-01
DAV:   5    -0.192131077737E+03    0.11249E-02   -0.24826E-03 10120   0.370E-01    0.142E-01
DAV:   6    -0.192131137611E+03   -0.59874E-04   -0.97543E-04 10080   0.212E-01
  24 F= -.19213114E+03 E0= -.19203460E+03  d E =0.213846E-01
       N       E                     dE             d eps       ncg     rms          rms(c)
DAV:   1    -0.192170448598E+03   -0.39371E-01   -0.33695E+00  8160   0.396E+00    0.496E-01
DAV:   2    -0.192180662748E+03   -0.10214E-01   -0.11636E-01 11480   0.138E+00    0.852E-01
DAV:   3    -0.192176177467E+03    0.44853E-02   -0.25885E-02 12240   0.121E+00    0.589E-01
DAV:   4    -0.192176077929E+03    0.99537E-04   -0.13948E-02 11640   0.827E-01    0.643E-01
DAV:   5    -0.192172303588E+03    0.37743E-02   -0.74333E-03 11280   0.668E-01    0.239E-01
DAV:   6    -0.192171831166E+03    0.47242E-03   -0.28337E-03 10600   0.302E-01    0.143E-01
DAV:   7    -0.192171904926E+03   -0.73760E-04   -0.13303E-03 11080   0.276E-01    0.193E-01
DAV:   8    -0.192171504206E+03    0.40072E-03   -0.59039E-04  8520   0.194E-01    0.347E-02
DAV:   9    -0.192171494981E+03    0.92252E-05   -0.52133E-05  5840   0.350E-02
  25 F= -.19217149E+03 E0= -.19207735E+03  d E =-.403574E-01
       N       E                     dE             d eps       ncg     rms          rms(c)
DAV:   1    -0.192182876807E+03   -0.11373E-01   -0.30512E-01  8160   0.117E+00    0.130E-01
DAV:   2    -0.192183881230E+03   -0.10044E-02   -0.10077E-02 11080   0.385E-01    0.249E-01
DAV:   3    -0.192183558151E+03    0.32308E-03   -0.19959E-03 11480   0.323E-01    0.175E-01
DAV:   4    -0.192183376825E+03    0.18133E-03   -0.73451E-04  8200   0.193E-01    0.111E-01
DAV:   5    -0.192183296489E+03    0.80335E-04   -0.39014E-04  8640   0.163E-01
  26 F= -.19218330E+03 E0= -.19209010E+03  d E =-.118015E-01
       N       E                     dE             d eps       ncg     rms          rms(c)
DAV:   1    -0.192215455231E+03   -0.32078E-01   -0.21364E+00  8160   0.312E+00    0.338E-01
DAV:   2    -0.192221715815E+03   -0.62606E-02   -0.60350E-02 11680   0.869E-01    0.650E-01
DAV:   3    -0.192219392600E+03    0.23232E-02   -0.12544E-02 12400   0.803E-01    0.417E-01
DAV:   4    -0.192217696870E+03    0.16957E-02   -0.29211E-03 11080   0.355E-01    0.139E-01
DAV:   5    -0.192218154727E+03   -0.45786E-03   -0.17571E-03 12000   0.326E-01    0.250E-01
DAV:   6    -0.192217593306E+03    0.56142E-03   -0.14915E-03 10520   0.305E-01    0.107E-01
DAV:   7    -0.192217497915E+03    0.95392E-04   -0.38388E-04  8760   0.149E-01
  27 F= -.19221750E+03 E0= -.19212699E+03  d E =-.342014E-01
       N       E                     dE             d eps       ncg     rms          rms(c)
DAV:   1    -0.192220985431E+03   -0.33921E-02   -0.20317E-02  8160   0.319E-01    0.502E-02
DAV:   2    -0.192221151074E+03   -0.16564E-03   -0.10032E-03 11520   0.146E-01    0.126E-01
DAV:   3    -0.192221009943E+03    0.14113E-03   -0.36779E-04  8640   0.146E-01    0.541E-02
DAV:   4    -0.192221013808E+03   -0.38646E-05   -0.88670E-05  6080   0.723E-02
  28 F= -.19222101E+03 E0= -.19213081E+03  d E =-.351589E-02
       N       E                     dE             d eps       ncg     rms          rms(c)
DAV:   1    -0.192264595452E+03   -0.43586E-01   -0.32823E+00  8160   0.391E+00    0.465E-01
DAV:   2    -0.192276426058E+03   -0.11831E-01   -0.10200E-01 11600   0.127E+00    0.944E-01
DAV:   3    -0.192269927677E+03    0.64984E-02   -0.23818E-02 12360   0.116E+00    0.516E-01
DAV:   4    -0.192268086145E+03    0.18415E-02   -0.64592E-03 12240   0.545E-01    0.351E-01
DAV:   5    -0.192267525015E+03    0.56113E-03   -0.41629E-03 11360   0.540E-01    0.301E-01
DAV:   6    -0.192266842592E+03    0.68242E-03   -0.23540E-03 11200   0.352E-01    0.139E-01
DAV:   7    -0.192266715626E+03    0.12697E-03   -0.86895E-04 10600   0.213E-01    0.124E-01
DAV:   8    -0.192266523488E+03    0.19214E-03   -0.27608E-04  9320   0.140E-01    0.259E-02
DAV:   9    -0.192266518067E+03    0.54215E-05   -0.39686E-05  6360   0.326E-02
  29 F= -.19226652E+03 E0= -.19217961E+03  d E =-.455043E-01
       N       E                     dE             d eps       ncg     rms          rms(c)
DAV:   1    -0.192281033792E+03   -0.14510E-01   -0.31147E-01  8160   0.120E+00    0.150E-01
DAV:   2    -0.192282802070E+03   -0.17683E-02   -0.10607E-02 11240   0.459E-01    0.377E-01
DAV:   3    -0.192281528771E+03    0.12733E-02   -0.28461E-03 12200   0.413E-01    0.143E-01
DAV:   4    -0.192281589355E+03   -0.60584E-04   -0.81527E-04  8920   0.218E-01
  30 F= -.19228159E+03 E0= -.19219571E+03  d E =-.150713E-01
       N       E                     dE             d eps       ncg     rms          rms(c)
DAV:   1    -0.192296465338E+03   -0.14937E-01   -0.37082E-01  8160   0.134E+00    0.207E-01
DAV:   2    -0.192299704960E+03   -0.32396E-02   -0.16054E-02 11320   0.655E-01    0.573E-01
DAV:   3    -0.192296749458E+03    0.29555E-02   -0.55563E-03 11840   0.585E-01    0.177E-01
DAV:   4    -0.192296626705E+03    0.12275E-03   -0.11947E-03  9640   0.238E-01    0.146E-01
DAV:   5    -0.192296519540E+03    0.10716E-03   -0.81310E-04 10400   0.240E-01    0.130E-01
DAV:   6    -0.192296365832E+03    0.15371E-03   -0.45945E-04  8880   0.154E-01    0.602E-02
DAV:   7    -0.192296381493E+03   -0.15660E-04   -0.19936E-04  7840   0.116E-01
  31 F= -.19229638E+03 E0= -.19221217E+03  d E =-.147921E-01
       N       E                     dE             d eps       ncg     rms          rms(c)
DAV:   1    -0.192324483699E+03   -0.28118E-01   -0.10862E+00  8160   0.231E+00    0.355E-01
DAV:   2    -0.192325648476E+03   -0.11648E-02   -0.36384E-02 11120   0.647E-01    0.440E-01
DAV:   3    -0.192326316936E+03   -0.66846E-03   -0.11537E-02 11680   0.840E-01    0.569E-01
DAV:   4    -0.192323354275E+03    0.29627E-02   -0.57029E-03 11320   0.562E-01    0.222E-01
DAV:   5    -0.192323554658E+03   -0.20038E-03   -0.27802E-03 10560   0.414E-01    0.297E-01
DAV:   6    -0.192322708362E+03    0.84630E-03   -0.16033E-03  9600   0.312E-01    0.861E-02
DAV:   7    -0.192322643954E+03    0.64408E-04   -0.34357E-04  8640   0.126E-01
  32 F= -.19232264E+03 E0= -.19223973E+03  d E =-.262625E-01
       N       E                     dE             d eps       ncg     rms          rms(c)
DAV:   1    -0.192354605099E+03   -0.31897E-01   -0.15666E+00  8160   0.269E+00    0.351E-01
DAV:   2    -0.192365663693E+03   -0.11059E-01   -0.57376E-02 11240   0.119E+00    0.940E-01
DAV:   3    -0.192356589547E+03    0.90741E-02   -0.16102E-02 12080   0.103E+00    0.271E-01
DAV:   4    -0.192356677107E+03   -0.87560E-04   -0.33613E-03 11080   0.421E-01    0.308E-01
DAV:   5    -0.192355888895E+03    0.78821E-03   -0.22534E-03 10520   0.391E-01    0.176E-01
DAV:   6    -0.192355728860E+03    0.16004E-03   -0.10393E-03 10400   0.239E-01    0.128E-01
DAV:   7    -0.192355718695E+03    0.10166E-04   -0.70349E-04 10600   0.228E-01
  33 F= -.19235572E+03 E0= -.19227493E+03  d E =-.330747E-01
       N       E                     dE             d eps       ncg     rms          rms(c)
DAV:   1    -0.192383381158E+03   -0.27652E-01   -0.12498E+00  8160   0.241E+00    0.322E-01
DAV:   2    -0.192391230547E+03   -0.78494E-02   -0.43641E-02 11240   0.102E+00    0.788E-01
DAV:   3    -0.192384848672E+03    0.63819E-02   -0.12814E-02 11840   0.930E-01    0.268E-01
DAV:   4    -0.192384833766E+03    0.14907E-04   -0.29549E-03 11480   0.387E-01    0.281E-01
DAV:   5    -0.192384089413E+03    0.74435E-03   -0.18058E-03 10360   0.351E-01    0.144E-01
DAV:   6    -0.192384016025E+03    0.73388E-04   -0.77568E-04 10200   0.207E-01
  34 F= -.19238402E+03 E0= -.19230487E+03  d E =-.282973E-01
       N       E                     dE             d eps       ncg     rms          rms(c)
DAV:   1    -0.192430232048E+03   -0.46143E-01   -0.46543E+00  8160   0.465E+00    0.614E-01
DAV:   2    -0.192463467527E+03   -0.33235E-01   -0.16617E-01 11240   0.216E+00    0.155E+00
DAV:   3    -0.192435214074E+03    0.28253E-01   -0.43981E-02 11760   0.179E+00    0.399E-01
DAV:   4    -0.192436311970E+03   -0.10979E-02   -0.91297E-03 11440   0.752E-01    0.550E-01
DAV:   5    -0.192433150089E+03    0.31619E-02   -0.61398E-03 11600   0.675E-01    0.215E-01
DAV:   6    -0.192433388079E+03   -0.23799E-03   -0.25253E-03 11440   0.360E-01    0.264E-01
DAV:   7    -0.192432921156E+03    0.46692E-03   -0.19757E-03 11480   0.384E-01    0.168E-01
DAV:   8    -0.192432551342E+03    0.36981E-03   -0.50397E-04  9080   0.161E-01    0.254E-02
DAV:   9    -0.192432553058E+03   -0.17156E-05   -0.70656E-05  6760   0.309E-02
  35 F= -.19243255E+03 E0= -.19235564E+03  d E =-.485370E-01
       N       E                     dE             d eps       ncg     rms          rms(c)
DAV:   1    -0.192459564400E+03   -0.27013E-01   -0.22011E+00  8160   0.323E+00    0.442E-01
DAV:   2    -0.192469236610E+03   -0.96722E-02   -0.82925E-02 11360   0.119E+00    0.827E-01
DAV:   3    -0.192463186624E+03    0.60500E-02   -0.21025E-02 12000   0.119E+00    0.473E-01
DAV:   4    -0.192461260990E+03    0.19256E-02   -0.58319E-03 11440   0.544E-01    0.277E-01
DAV:   5    -0.192460766779E+03    0.49421E-03   -0.30924E-03 11400   0.452E-01    0.237E-01
DAV:   6    -0.192460333140E+03    0.43364E-03   -0.17904E-03 10840   0.312E-01    0.146E-01
DAV:   7    -0.192460290422E+03    0.42718E-04   -0.96713E-04 10680   0.252E-01
  36 F= -.19246029E+03 E0= -.19238369E+03  d E =-.277374E-01
       N       E                     dE             d eps       ncg     rms          rms(c)
DAV:   1    -0.192473975071E+03   -0.13642E-01   -0.88283E-01  8160   0.202E+00    0.293E-01
DAV:   2    -0.192480663778E+03   -0.66887E-02   -0.41005E-02 10880   0.108E+00    0.688E-01
DAV:   3    -0.192475287203E+03    0.53766E-02   -0.10434E-02 11960   0.863E-01    0.210E-01
DAV:   4    -0.192475145006E+03    0.14220E-03   -0.21037E-03 11280   0.341E-01    0.209E-01
DAV:   5    -0.192474829919E+03    0.31509E-03   -0.13541E-03 10040   0.319E-01    0.150E-01
DAV:   6    -0.192474624139E+03    0.20578E-03   -0.66980E-04 10560   0.171E-01    0.729E-02
DAV:   7    -0.192474691387E+03   -0.67248E-04   -0.37146E-04  8920   0.157E-01
  37 F= -.19247469E+03 E0= -.19239889E+03  d E =-.144010E-01
       N       E                     dE             d eps       ncg     rms          rms(c)
DAV:   1    -0.192482852017E+03   -0.82279E-02   -0.35206E-01  8160   0.130E+00    0.201E-01
DAV:   2    -0.192484488699E+03   -0.16367E-02   -0.16078E-02 10840   0.544E-01    0.362E-01
DAV:   3    -0.192483430791E+03    0.10579E-02   -0.45927E-03 12080   0.555E-01    0.219E-01
DAV:   4    -0.192482882599E+03    0.54819E-03   -0.10876E-03  9880   0.237E-01    0.820E-02
DAV:   5    -0.192482875411E+03    0.71886E-05   -0.50427E-04  9400   0.153E-01
  38 F= -.19248288E+03 E0= -.19240716E+03  d E =-.818402E-02
       N       E                     dE             d eps       ncg     rms          rms(c)
DAV:   1    -0.192492798628E+03   -0.99160E-02   -0.97248E-01  8160   0.211E+00    0.278E-01
DAV:   2    -0.192500128293E+03   -0.73297E-02   -0.39999E-02 11080   0.988E-01    0.713E-01
DAV:   3    -0.192494463623E+03    0.56647E-02   -0.11181E-02 12280   0.876E-01    0.192E-01
DAV:   4    -0.192494372198E+03    0.91425E-04   -0.15142E-03 10080   0.296E-01    0.183E-01
DAV:   5    -0.192494049672E+03    0.32253E-03   -0.88811E-04 10440   0.275E-01    0.108E-01
DAV:   6    -0.192493985962E+03    0.63710E-04   -0.43720E-04  9360   0.138E-01
  39 F= -.19249399E+03 E0= -.19241845E+03  d E =-.111106E-01
       N       E                     dE             d eps       ncg     rms          rms(c)
DAV:   1    -0.192500898095E+03   -0.68484E-02   -0.80356E-01  8160   0.195E+00    0.279E-01
DAV:   2    -0.192505846562E+03   -0.49485E-02   -0.37228E-02 11360   0.795E-01    0.571E-01
DAV:   3    -0.192502585981E+03    0.32606E-02   -0.98957E-03 12160   0.779E-01    0.275E-01
DAV:   4    -0.192502025364E+03    0.56062E-03   -0.20129E-03 11160   0.328E-01    0.184E-01
DAV:   5    -0.192501707093E+03    0.31827E-03   -0.99678E-04 10520   0.283E-01    0.117E-01
DAV:   6    -0.192501610371E+03    0.96722E-04   -0.50465E-04  9800   0.152E-01
  40 F= -.19250161E+03 E0= -.19242615E+03  d E =-.762441E-02
       N       E                     dE             d eps       ncg     rms          rms(c)
DAV:   1    -0.192503741512E+03   -0.20344E-02   -0.38878E+00  8160   0.421E+00    0.499E-01
DAV:   2    -0.192520922905E+03   -0.17181E-01   -0.14826E-01 11200   0.150E+00    0.891E-01
DAV:   3    -0.192512877024E+03    0.80459E-02   -0.28412E-02 12200   0.135E+00    0.452E-01
DAV:   4    -0.192511257637E+03    0.16194E-02   -0.66391E-03 12360   0.601E-01    0.319E-01
DAV:   5    -0.192510445946E+03    0.81169E-03   -0.31745E-03 10760   0.494E-01    0.226E-01
DAV:   6    -0.192510050339E+03    0.39561E-03   -0.16990E-03 11520   0.286E-01    0.120E-01
DAV:   7    -0.192509882593E+03    0.16775E-03   -0.72966E-04 10160   0.154E-01    0.854E-02
DAV:   8    -0.192509816519E+03    0.66074E-04   -0.21700E-04  9400   0.120E-01
  41 F= -.19250982E+03 E0= -.19243507E+03  d E =-.820615E-02
       N       E                     dE             d eps       ncg     rms          rms(c)
DAV:   1    -0.192510243995E+03   -0.36140E-03   -0.60746E-02  8160   0.530E-01    0.795E-02
DAV:   2    -0.192511186896E+03   -0.94290E-03   -0.30849E-03 11920   0.359E-01    0.277E-01
DAV:   3    -0.192510286923E+03    0.89997E-03   -0.12385E-03 10040   0.304E-01    0.389E-02
DAV:   4    -0.192510301091E+03   -0.14169E-04   -0.78093E-05  5560   0.708E-02
  42 F= -.19251030E+03 E0= -.19243571E+03  d E =-.484573E-03
