<?xml version="1.0" encoding="ISO-8859-1"?>
<modeling>
 <generator>
  <i name="program" type="string">vasp </i>
  <i name="version" type="string">5.4.1  </i>
  <i name="subversion" type="string">05Feb16 (build Jul 05 2020 17:13:04) complex                          parallel </i>
  <i name="platform" type="string">IFC91_ompi </i>
  <i name="date" type="string">2024 04 27 </i>
  <i name="time" type="string">19:27:55 </i>
 </generator>
 <incar>
  <i type="int" name="ISTART">     0</i>
  <i type="string" name="PREC">normal</i>
  <i type="string" name="ALGO"> Normal</i>
  <i type="int" name="ISPIN">     1</i>
  <i type="int" name="ICHARG">     2</i>
  <i type="int" name="IBRION">     1</i>
  <i type="int" name="NSW">   100</i>
  <i type="int" name="ISIF">     3</i>
  <i type="int" name="ISYM">     0</i>
  <i name="SYMPREC">      0.00000001</i>
  <i name="POTIM">      0.50000000</i>
  <i type="logical" name="LREAL"> F  </i>
  <i type="logical" name="LPLANE"> F  </i>
  <i type="int" name="ISMEAR">     0</i>
  <i type="logical" name="LWAVE"> F  </i>
  <i type="logical" name="LCHARG"> F  </i>
  <v type="int" name="KPOINT_BSE">    -1     0     0     0</v>
 </incar>
 <kpoints>
  <generation param="Gamma">
   <v type="int" name="divisions">       8        8        1 </v>
   <v name="usershift">      0.00000000       0.00000000       0.00000000 </v>
   <v name="genvec1">      0.12500000       0.00000000       0.00000000 </v>
   <v name="genvec2">     -0.00000000       0.12500000       0.00000000 </v>
   <v name="genvec3">      0.00000000       0.00000000       1.00000000 </v>
   <v name="shift">      0.00000000       0.00000000       0.00000000 </v>
  </generation>
  <varray name="kpointlist" >
   <v>       0.00000000       0.00000000       0.00000000 </v>
   <v>       0.12500000       0.00000000       0.00000000 </v>
   <v>       0.25000000       0.00000000       0.00000000 </v>
   <v>       0.37500000       0.00000000       0.00000000 </v>
   <v>       0.50000000       0.00000000       0.00000000 </v>
   <v>       0.00000000       0.12500000       0.00000000 </v>
   <v>       0.12500000       0.12500000       0.00000000 </v>
   <v>       0.25000000       0.12500000       0.00000000 </v>
   <v>       0.37500000       0.12500000       0.00000000 </v>
   <v>       0.50000000       0.12500000       0.00000000 </v>
   <v>      -0.37500000       0.12500000       0.00000000 </v>
   <v>      -0.25000000       0.12500000       0.00000000 </v>
   <v>      -0.12500000       0.12500000       0.00000000 </v>
   <v>       0.00000000       0.25000000       0.00000000 </v>
   <v>       0.12500000       0.25000000       0.00000000 </v>
   <v>       0.25000000       0.25000000       0.00000000 </v>
   <v>       0.37500000       0.25000000       0.00000000 </v>
   <v>       0.50000000       0.25000000       0.00000000 </v>
   <v>      -0.37500000       0.25000000       0.00000000 </v>
   <v>      -0.25000000       0.25000000       0.00000000 </v>
   <v>      -0.12500000       0.25000000       0.00000000 </v>
   <v>      -0.00000000       0.37500000       0.00000000 </v>
   <v>       0.12500000       0.37500000       0.00000000 </v>
   <v>       0.25000000       0.37500000       0.00000000 </v>
   <v>       0.37500000       0.37500000       0.00000000 </v>
   <v>       0.50000000       0.37500000       0.00000000 </v>
   <v>      -0.37500000       0.37500000       0.00000000 </v>
   <v>      -0.25000000       0.37500000       0.00000000 </v>
   <v>      -0.12500000       0.37500000       0.00000000 </v>
   <v>       0.00000000       0.50000000       0.00000000 </v>
   <v>       0.12500000       0.50000000       0.00000000 </v>
   <v>       0.25000000       0.50000000       0.00000000 </v>
   <v>       0.37500000       0.50000000       0.00000000 </v>
   <v>       0.50000000       0.50000000       0.00000000 </v>
  </varray>
  <varray name="weights" >
   <v>       0.01562500 </v>
   <v>       0.03125000 </v>
   <v>       0.03125000 </v>
   <v>       0.03125000 </v>
   <v>       0.01562500 </v>
   <v>       0.03125000 </v>
   <v>       0.03125000 </v>
   <v>       0.03125000 </v>
   <v>       0.03125000 </v>
   <v>       0.03125000 </v>
   <v>       0.03125000 </v>
   <v>       0.03125000 </v>
   <v>       0.03125000 </v>
   <v>       0.03125000 </v>
   <v>       0.03125000 </v>
   <v>       0.03125000 </v>
   <v>       0.03125000 </v>
   <v>       0.03125000 </v>
   <v>       0.03125000 </v>
   <v>       0.03125000 </v>
   <v>       0.03125000 </v>
   <v>       0.03125000 </v>
   <v>       0.03125000 </v>
   <v>       0.03125000 </v>
   <v>       0.03125000 </v>
   <v>       0.03125000 </v>
   <v>       0.03125000 </v>
   <v>       0.03125000 </v>
   <v>       0.03125000 </v>
   <v>       0.01562500 </v>
   <v>       0.03125000 </v>
   <v>       0.03125000 </v>
   <v>       0.03125000 </v>
   <v>       0.01562500 </v>
  </varray>
 </kpoints>
 <parameters>
  <separator name="general" >
   <i type="string" name="SYSTEM">unknown system</i>
   <i type="logical" name="LCOMPAT"> F  </i>
  </separator>
  <separator name="electronic" >
   <i type="string" name="PREC">normal</i>
   <i name="ENMAX">    280.00000000</i>
   <i name="ENAUG">    373.43800000</i>
   <i name="EDIFF">      0.00010000</i>
   <i type="int" name="IALGO">    38</i>
   <i type="int" name="IWAVPR">    11</i>
   <i type="int" name="NBANDS">   120</i>
   <i name="NELECT">    159.00000000</i>
   <i type="int" name="TURBO">     0</i>
   <i type="int" name="IRESTART">     0</i>
   <i type="int" name="NREBOOT">     0</i>
   <i type="int" name="NMIN">     0</i>
   <i name="EREF">      0.00000000</i>
   <separator name="electronic smearing" >
    <i type="int" name="ISMEAR">     0</i>
    <i name="SIGMA">      0.20000000</i>
    <i name="KSPACING">      0.50000000</i>
    <i type="logical" name="KGAMMA"> T  </i>
   </separator>
   <separator name="electronic projectors" >
    <i type="logical" name="LREAL"> F  </i>
    <v name="ROPT">      0.00000000      0.00000000      0.00000000      0.00000000</v>
    <i type="int" name="LMAXPAW">  -100</i>
    <i type="int" name="LMAXMIX">     2</i>
    <i type="logical" name="NLSPLINE"> F  </i>
   </separator>
   <separator name="electronic startup" >
    <i type="int" name="ISTART">     0</i>
    <i type="int" name="ICHARG">     2</i>
    <i type="int" name="INIWAV">     1</i>
   </separator>
   <separator name="electronic spin" >
    <i type="int" name="ISPIN">     1</i>
    <i type="logical" name="LNONCOLLINEAR"> F  </i>
    <v name="MAGMOM">      1.00000000      1.00000000      1.00000000      1.00000000      1.00000000      1.00000000      1.00000000      1.00000000      1.00000000      1.00000000      1.00000000      1.00000000      1.00000000      1.00000000      1.00000000      1.00000000      1.00000000      1.00000000      1.00000000      1.00000000
      1.00000000      1.00000000      1.00000000      1.00000000      1.00000000      1.00000000      1.00000000</v>
    <i name="NUPDOWN">     -1.00000000</i>
    <i type="logical" name="LSORBIT"> F  </i>
    <v name="SAXIS">      0.00000000      0.00000000      1.00000000</v>
    <i type="logical" name="LSPIRAL"> F  </i>
    <v name="QSPIRAL">      0.00000000      0.00000000      0.00000000</v>
    <i type="logical" name="LZEROZ"> F  </i>
   </separator>
   <separator name="electronic exchange-correlation" >
    <i type="logical" name="LASPH"> F  </i>
    <i type="logical" name="LMETAGGA"> F  </i>
   </separator>
   <separator name="electronic convergence" >
    <i type="int" name="NELM">    60</i>
    <i type="int" name="NELMDL">    -5</i>
    <i type="int" name="NELMIN">     2</i>
    <i name="ENINI">    280.00000000</i>
    <separator name="electronic convergence detail" >
     <i type="logical" name="LDIAG"> T  </i>
     <i type="logical" name="LSUBROT"> F  </i>
     <i name="WEIMIN">      0.00100000</i>
     <i name="EBREAK">      0.00000021</i>
     <i name="DEPER">      0.30000000</i>
     <i type="int" name="NRMM">     4</i>
     <i name="TIME">      0.40000000</i>
    </separator>
   </separator>
   <separator name="electronic mixer" >
    <i name="AMIX">      0.40000000</i>
    <i name="BMIX">      1.00000000</i>
    <i name="AMIN">      0.10000000</i>
    <i name="AMIX_MAG">      1.60000000</i>
    <i name="BMIX_MAG">      1.00000000</i>
    <separator name="electronic mixer details" >
     <i type="int" name="IMIX">     4</i>
     <i type="logical" name="MIXFIRST"> F  </i>
     <i type="int" name="MAXMIX">   -45</i>
     <i name="WC">    100.00000000</i>
     <i type="int" name="INIMIX">     1</i>
     <i type="int" name="MIXPRE">     1</i>
     <i type="int" name="MREMOVE">     5</i>
    </separator>
   </separator>
   <separator name="electronic dipolcorrection" >
    <i type="logical" name="LDIPOL"> F  </i>
    <i type="logical" name="LMONO"> F  </i>
    <i type="int" name="IDIPOL">     0</i>
    <i name="EPSILON">      1.00000000</i>
    <v name="DIPOL">   -100.00000000   -100.00000000   -100.00000000</v>
    <i name="EFIELD">      0.00000000</i>
   </separator>
  </separator>
  <separator name="grids" >
   <i type="int" name="NGX">    42</i>
   <i type="int" name="NGY">    42</i>
   <i type="int" name="NGZ">   126</i>
   <i type="int" name="NGXF">    84</i>
   <i type="int" name="NGYF">    84</i>
   <i type="int" name="NGZF">   252</i>
   <i type="logical" name="ADDGRID"> F  </i>
  </separator>
  <separator name="ionic" >
   <i type="int" name="NSW">   100</i>
   <i type="int" name="IBRION">     1</i>
   <i type="int" name="ISIF">     3</i>
   <i name="PSTRESS">      0.00000000</i>
   <i name="EDIFFG">      0.00100000</i>
   <i type="int" name="NFREE">     0</i>
   <i name="POTIM">      0.50000000</i>
   <i name="SMASS">     -3.00000000</i>
   <i name="SCALEE">      1.00000000</i>
  </separator>
  <separator name="ionic md" >
   <i name="TEBEG">      0.00010000</i>
   <i name="TEEND">      0.00010000</i>
   <i type="int" name="NBLOCK">     1</i>
   <i type="int" name="KBLOCK">   100</i>
   <i type="int" name="NPACO">   256</i>
   <i name="APACO">     16.00000000</i>
  </separator>
  <separator name="symmetry" >
   <i type="int" name="ISYM">     0</i>
   <i name="SYMPREC">      0.00000001</i>
  </separator>
  <separator name="dos" >
   <i type="logical" name="LORBIT"> F  </i>
   <v name="RWIGS">     -1.00000000     -1.00000000     -1.00000000     -1.00000000</v>
   <i type="int" name="NEDOS">   301</i>
   <i name="EMIN">     10.00000000</i>
   <i name="EMAX">    -10.00000000</i>
   <i name="EFERMI">      0.00000000</i>
  </separator>
  <separator name="writing" >
   <i type="int" name="NWRITE">     2</i>
   <i type="logical" name="LWAVE"> F  </i>
   <i type="logical" name="LCHARG"> F  </i>
   <i type="logical" name="LPARD"> F  </i>
   <i type="logical" name="LVTOT"> F  </i>
   <i type="logical" name="LVHAR"> F  </i>
   <i type="logical" name="LELF"> F  </i>
   <i type="logical" name="LOPTICS"> F  </i>
   <v name="STM">      0.00000000      0.00000000      0.00000000      0.00000000      0.00000000      0.00000000      0.00000000</v>
  </separator>
  <separator name="performance" >
   <i type="int" name="NPAR">    40</i>
   <i type="int" name="NSIM">     4</i>
   <i type="int" name="NBLK">    -1</i>
   <i type="logical" name="LPLANE"> F  </i>
   <i type="logical" name="LSCALAPACK"> T  </i>
   <i type="logical" name="LSCAAWARE"> F  </i>
   <i type="logical" name="LSCALU"> F  </i>
   <i type="logical" name="LASYNC"> F  </i>
   <i type="logical" name="LORBITALREAL"> F  </i>
  </separator>
  <separator name="miscellaneous" >
   <i type="int" name="IDIOT">     3</i>
   <i type="logical" name="LMUSIC"> F  </i>
   <v name="POMASS">     50.94100000     95.94000000    183.85000000     32.06600000</v>
   <v name="DARWINR">      0.00000000      0.00000000      0.00000000      0.00000000</v>
   <v name="DARWINV">      1.00000000      1.00000000      1.00000000      1.00000000</v>
   <i type="logical" name="LCORR"> T  </i>
  </separator>
  <i type="logical" name="GGA_COMPAT"> T  </i>
  <i type="logical" name="LBERRY"> F  </i>
  <i type="int" name="ICORELEVEL">     0</i>
  <i type="logical" name="LDAU"> F  </i>
  <i type="int" name="I_CONSTRAINED_M">     0</i>
  <separator name="electronic exchange-correlation" >
   <i type="string" name="GGA">--</i>
   <i type="int" name="VOSKOWN">     0</i>
   <i type="logical" name="LHFCALC"> F  </i>
   <i type="string" name="PRECFOCK"></i>
   <i type="logical" name="LSYMGRAD"> F  </i>
   <i type="logical" name="LHFONE"> F  </i>
   <i type="logical" name="LRHFCALC"> F  </i>
   <i type="logical" name="LTHOMAS"> F  </i>
   <i type="logical" name="LMODELHF"> F  </i>
   <i name="ENCUT4O">     -1.00000000</i>
   <i type="int" name="EXXOEP">     0</i>
   <i type="int" name="FOURORBIT">     0</i>
   <i name="AEXX">      0.00000000</i>
   <i name="HFALPHA">      0.00000000</i>
   <i name="MCALPHA">      0.00000000</i>
   <i name="ALDAX">      1.00000000</i>
   <i name="AGGAX">      1.00000000</i>
   <i name="ALDAC">      1.00000000</i>
   <i name="AGGAC">      1.00000000</i>
   <i type="int" name="NKREDX">     1</i>
   <i type="int" name="NKREDY">     1</i>
   <i type="int" name="NKREDZ">     1</i>
   <i type="logical" name="SHIFTRED"> F  </i>
   <i type="logical" name="ODDONLY"> F  </i>
   <i type="logical" name="EVENONLY"> F  </i>
   <i type="int" name="LMAXFOCK">     0</i>
   <i type="int" name="NMAXFOCKAE">     0</i>
   <i type="logical" name="LFOCKAEDFT"> F  </i>
   <i name="HFSCREEN">      0.00000000</i>
   <i name="HFSCREENC">      0.00000000</i>
   <i type="int" name="NBANDSGWLOW">     0</i>
  </separator>
  <separator name="vdW DFT" >
   <i type="logical" name="LUSE_VDW"> F  </i>
   <i name="Zab_VDW">     -0.84910000</i>
   <i name="PARAM1">      0.12340000</i>
   <i name="PARAM2">      1.00000000</i>
   <i name="PARAM3">      0.00000000</i>
  </separator>
  <separator name="model GW" >
   <i type="int" name="MODEL_GW">     0</i>
   <i name="MODEL_EPS0">     58.26239943</i>
   <i name="MODEL_ALPHA">      1.00000000</i>
  </separator>
  <separator name="linear response parameters" >
   <i type="logical" name="LEPSILON"> F  </i>
   <i type="logical" name="LRPA"> F  </i>
   <i type="logical" name="LNABLA"> F  </i>
   <i type="logical" name="LVEL"> F  </i>
   <i type="int" name="KINTER">     0</i>
   <i name="CSHIFT">      0.10000000</i>
   <i name="OMEGAMAX">     -1.00000000</i>
   <i name="DEG_THRESHOLD">      0.00200000</i>
  </separator>
  <separator name="orbital magnetization" >
   <i type="logical" name="NUCIND"> F  </i>
   <v name="MAGPOS">      0.00000000      0.00000000      0.00000000</v>
   <i type="logical" name="LNICSALL"> T  </i>
   <i type="logical" name="ORBITALMAG"> F  </i>
   <i type="logical" name="LMAGBLOCH"> F  </i>
   <i type="logical" name="LCHIMAG"> F  </i>
   <i type="logical" name="LGAUGE"> T  </i>
   <i type="int" name="MAGATOM">     0</i>
   <v name="MAGDIPOL">      0.00000000      0.00000000      0.00000000</v>
   <v name="AVECCONST">      0.00000000      0.00000000      0.00000000</v>
  </separator>
  <separator name="response functions" >
   <i type="logical" name="LADDER"> F  </i>
   <i type="logical" name="LFXC"> F  </i>
   <i type="logical" name="LHARTREE"> T  </i>
   <i type="int" name="IBSE">     0</i>
   <v type="int" name="KPOINT">    -1     0     0     0</v>
   <i type="logical" name="LTCTE"> F  </i>
   <i type="logical" name="LTETE"> F  </i>
   <i type="logical" name="LTRIPLET"> F  </i>
   <i type="logical" name="LFXCEPS"> F  </i>
   <i type="logical" name="LFXHEG"> F  </i>
   <i type="int" name="NATURALO">     0</i>
   <i type="logical" name="L2ORDER"> F  </i>
   <i type="logical" name="LUSEW"> F  </i>
   <i name="ENCUTGW">     -2.00000000</i>
   <i name="ENCUTGWSOFT">     -2.00000000</i>
   <i name="ENCUTLF">     -1.00000000</i>
   <i type="int" name="LMAXMP2">    -1</i>
   <i name="SCISSOR">      0.00000000</i>
   <i type="int" name="NOMEGA">     0</i>
   <i type="int" name="NOMEGAR">     0</i>
   <i type="int" name="NBANDSGW">    -1</i>
   <i type="int" name="NBANDSO">    -1</i>
   <i type="int" name="NBANDSV">    -1</i>
   <i type="int" name="NELM">     1</i>
   <i type="int" name="NELMHF">     1</i>
   <i type="int" name="DIM">     3</i>
   <i type="int" name="ANTIRES">     0</i>
   <i name="OMEGAMAX">    -30.00000000</i>
   <i name="OMEGAMIN">    -30.00000000</i>
   <i name="OMEGATL">   -200.00000000</i>
   <i type="int" name="OMEGAGRID">     0</i>
   <i name="CSHIFT">     -0.10000000</i>
   <i type="logical" name="SELFENERGY"> F  </i>
   <i type="logical" name="LSPECTRAL"> F  </i>
   <i type="logical" name="LSPECTRALGW"> F  </i>
   <i type="logical" name="LSINGLES"> F  </i>
   <i type="logical" name="LFERMIGW"> F  </i>
   <i type="logical" name="ODDONLYGW"> F  </i>
   <i type="logical" name="EVENONLYGW"> F  </i>
   <i type="int" name="NKREDLFX">     1</i>
   <i type="int" name="NKREDLFY">     1</i>
   <i type="int" name="NKREDLFZ">     1</i>
   <i type="int" name="MAXMEM">  1800</i>
   <i type="int" name="TELESCOPE">     0</i>
   <i type="int" name="TAUPAR">     1</i>
   <i type="int" name="OMEGAPAR">    -1</i>
   <i name="LAMBDA">      1.00000000</i>
  </separator>
  <separator name="External order field" >
   <i name="OFIELD_KAPPA">      0.00000000</i>
   <v name="OFIELD_K">      0.00000000      0.00000000      0.00000000</v>
   <i name="OFIELD_Q6_NEAR">      0.00000000</i>
   <i name="OFIELD_Q6_FAR">      0.00000000</i>
   <i name="OFIELD_A">      0.00000000</i>
  </separator>
 </parameters>
 <atominfo>
  <atoms>      27 </atoms>
  <types>       4 </types>
  <array name="atoms" >
   <dimension dim="1">ion</dimension>
   <field type="string">element</field>
   <field type="int">atomtype</field>
   <set>
    <rc><c>V </c><c>   1</c></rc>
    <rc><c>V </c><c>   1</c></rc>
    <rc><c>V </c><c>   1</c></rc>
    <rc><c>Mo</c><c>   2</c></rc>
    <rc><c>Mo</c><c>   2</c></rc>
    <rc><c>Mo</c><c>   2</c></rc>
    <rc><c>W </c><c>   3</c></rc>
    <rc><c>W </c><c>   3</c></rc>
    <rc><c>W </c><c>   3</c></rc>
    <rc><c>S </c><c>   4</c></rc>
    <rc><c>S </c><c>   4</c></rc>
    <rc><c>S </c><c>   4</c></rc>
    <rc><c>S </c><c>   4</c></rc>
    <rc><c>S </c><c>   4</c></rc>
    <rc><c>S </c><c>   4</c></rc>
    <rc><c>S </c><c>   4</c></rc>
    <rc><c>S </c><c>   4</c></rc>
    <rc><c>S </c><c>   4</c></rc>
    <rc><c>S </c><c>   4</c></rc>
    <rc><c>S </c><c>   4</c></rc>
    <rc><c>S </c><c>   4</c></rc>
    <rc><c>S </c><c>   4</c></rc>
    <rc><c>S </c><c>   4</c></rc>
    <rc><c>S </c><c>   4</c></rc>
    <rc><c>S </c><c>   4</c></rc>
    <rc><c>S </c><c>   4</c></rc>
    <rc><c>S </c><c>   4</c></rc>
   </set>
  </array>
  <array name="atomtypes" >
   <dimension dim="1">type</dimension>
   <field type="int">atomspertype</field>
   <field type="string">element</field>
   <field>mass</field>
   <field>valence</field>
   <field type="string">pseudopotential</field>
   <set>
    <rc><c>   3</c><c>V </c><c>     50.94100000</c><c>      5.00000000</c><c> PAW_PBE V 08Apr2002                    </c></rc>
    <rc><c>   3</c><c>Mo</c><c>     95.94000000</c><c>      6.00000000</c><c> PAW_PBE Mo 08Apr2002                   </c></rc>
    <rc><c>   3</c><c>W </c><c>    183.85000000</c><c>      6.00000000</c><c> PAW_PBE W 08Apr2002                    </c></rc>
    <rc><c>  18</c><c>S </c><c>     32.06600000</c><c>      6.00000000</c><c>  PAW_PBE S 17Jan2003                   </c></rc>
   </set>
  </array>
 </atominfo>
 <structure name="initialpos" >
  <crystal>
   <varray name="basis" >
    <v>       8.66999996       5.03999989       0.00000000 </v>
    <v>      -8.66999982       5.04000013       0.00000000 </v>
    <v>       0.00000000       0.00000000      30.00000000 </v>
   </varray>
   <i name="volume">   2621.80797419 </i>
   <varray name="rec_basis" >
    <v>       0.05767013       0.09920635       0.00000000 </v>
    <v>      -0.05767013       0.09920635       0.00000000 </v>
    <v>       0.00000000       0.00000000       0.03333333 </v>
   </varray>
  </crystal>
  <varray name="positions" >
   <v>       0.00000000       0.00000000       0.00000000 </v>
   <v>       0.33333334       0.66666669       0.00000000 </v>
   <v>       0.33333334       0.00000000       0.00000000 </v>
   <v>       0.00000000       0.66666669       0.00000000 </v>
   <v>       0.66666669       0.66666669       0.00000000 </v>
   <v>       0.66666669       0.33333334       0.00000000 </v>
   <v>       1.00000000       0.33333334       0.00000000 </v>
   <v>       0.33333334       0.33333334       0.00000000 </v>
   <v>       0.66666669       0.00000000       0.00000000 </v>
   <v>       0.11068511       0.22244981       0.95539999 </v>
   <v>       0.22244981       0.11068511       0.04460000 </v>
   <v>       0.11068511       0.55578315       0.95539999 </v>
   <v>       0.22244981       0.44401845       0.04460000 </v>
   <v>       0.11068511       0.88911647       0.95539999 </v>
   <v>       0.22244981       0.77735180       0.04460000 </v>
   <v>       0.44401845       0.22244981       0.95539999 </v>
   <v>       0.55578315       0.11068511       0.04460000 </v>
   <v>       0.44401845       0.55578315       0.95539999 </v>
   <v>       0.55578315       0.44401845       0.04460000 </v>
   <v>       0.44401845       0.88911647       0.95539999 </v>
   <v>       0.55578315       0.77735180       0.04460000 </v>
   <v>       0.77735180       0.22244981       0.95539999 </v>
   <v>       0.88911647       0.11068511       0.04460000 </v>
   <v>       0.77735180       0.55578315       0.95539999 </v>
   <v>       0.88911647       0.44401845       0.04460000 </v>
   <v>       0.77735180       0.88911647       0.95539999 </v>
   <v>       0.88911647       0.77735180       0.04460000 </v>
  </varray>
 </structure>
 <calculation>
  <scstep>
   <time name="dav">   21.94   21.99</time>
   <time name="total">   21.98   22.04</time>
   <energy>
    <i name="alphaZ">     81.65567618 </i>
    <i name="ewald">  41890.25210248 </i>
    <i name="hartreedc"> -47722.88013612 </i>
    <i name="XCdc">   -242.92957556 </i>
    <i name="pawpsdc">   3467.42045192 </i>
    <i name="pawaedc">  -2871.19716117 </i>
    <i name="eentropy">     -0.52758587 </i>
    <i name="bandstr">   -236.76320936 </i>
    <i name="atom">   6761.44252427 </i>
    <i name="e_fr_energy">   1126.47308677 </i>
    <i name="e_wo_entrp">   1127.00067263 </i>
    <i name="e_0_energy">   1126.73687970 </i>
   </energy>
  </scstep>
  <scstep>
   <time name="dav">   28.10   28.17</time>
   <time name="total">   28.11   28.18</time>
   <energy>
    <i name="e_fr_energy">     -0.05681147 </i>
    <i name="e_wo_entrp">      0.12143855 </i>
    <i name="e_0_energy">      0.03231354 </i>
   </energy>
  </scstep>
  <scstep>
   <time name="dav">   27.76   27.82</time>
   <time name="total">   27.76   27.83</time>
   <energy>
    <i name="e_fr_energy">   -199.55457490 </i>
    <i name="e_wo_entrp">   -199.26692278 </i>
    <i name="e_0_energy">   -199.41074884 </i>
   </energy>
  </scstep>
  <scstep>
   <time name="dav">   29.96   30.03</time>
   <time name="total">   29.96   30.04</time>
   <energy>
    <i name="e_fr_energy">   -208.87432179 </i>
    <i name="e_wo_entrp">   -208.54992236 </i>
    <i name="e_0_energy">   -208.71212208 </i>
   </energy>
  </scstep>
  <scstep>
   <time name="dav">   28.88   28.95</time>
   <time name="total">   29.35   29.42</time>
   <energy>
    <i name="e_fr_energy">   -209.22057530 </i>
    <i name="e_wo_entrp">   -208.89961494 </i>
    <i name="e_0_energy">   -209.06009512 </i>
   </energy>
  </scstep>
  <scstep>
   <time name="dav">   31.34   31.42</time>
   <time name="total">   31.85   31.93</time>
   <energy>
    <i name="e_fr_energy">   -236.28618750 </i>
    <i name="e_wo_entrp">   -236.00968637 </i>
    <i name="e_0_energy">   -236.14793693 </i>
   </energy>
  </scstep>
  <scstep>
   <time name="dav">   32.60   32.68</time>
   <time name="total">   33.11   33.20</time>
   <energy>
    <i name="e_fr_energy">   -196.85656731 </i>
    <i name="e_wo_entrp">   -196.52426389 </i>
    <i name="e_0_energy">   -196.69041560 </i>
   </energy>
  </scstep>
  <scstep>
   <time name="dav">   29.19   29.26</time>
   <time name="total">   29.70   29.78</time>
   <energy>
    <i name="e_fr_energy">   -190.31547490 </i>
    <i name="e_wo_entrp">   -190.04790693 </i>
    <i name="e_0_energy">   -190.18169092 </i>
   </energy>
  </scstep>
  <scstep>
   <time name="dav">   30.53   30.61</time>
   <time name="total">   31.06   31.14</time>
   <energy>
    <i name="e_fr_energy">   -188.29871944 </i>
    <i name="e_wo_entrp">   -187.96267636 </i>
    <i name="e_0_energy">   -188.13069790 </i>
   </energy>
  </scstep>
  <scstep>
   <time name="dav">   32.56   32.63</time>
   <time name="total">   33.09   33.18</time>
   <energy>
    <i name="e_fr_energy">   -187.09587865 </i>
    <i name="e_wo_entrp">   -186.74987332 </i>
    <i name="e_0_energy">   -186.92287599 </i>
   </energy>
  </scstep>
  <scstep>
   <time name="dav">   30.86   30.94</time>
   <time name="total">   31.40   31.48</time>
   <energy>
    <i name="e_fr_energy">   -187.02019724 </i>
    <i name="e_wo_entrp">   -186.67355506 </i>
    <i name="e_0_energy">   -186.84687615 </i>
   </energy>
  </scstep>
  <scstep>
   <time name="dav">   30.55   30.63</time>
   <time name="total">   31.09   31.17</time>
   <energy>
    <i name="e_fr_energy">   -187.04764878 </i>
    <i name="e_wo_entrp">   -186.71221288 </i>
    <i name="e_0_energy">   -186.87993083 </i>
   </energy>
  </scstep>
  <scstep>
   <time name="dav">   32.38   32.46</time>
   <time name="total">   32.92   33.01</time>
   <energy>
    <i name="e_fr_energy">   -186.92423361 </i>
    <i name="e_wo_entrp">   -186.58617933 </i>
    <i name="e_0_energy">   -186.75520647 </i>
   </energy>
  </scstep>
  <scstep>
   <time name="dav">   31.59   31.67</time>
   <time name="total">   32.13   32.21</time>
   <energy>
    <i name="e_fr_energy">   -186.89630996 </i>
    <i name="e_wo_entrp">   -186.55323726 </i>
    <i name="e_0_energy">   -186.72477361 </i>
   </energy>
  </scstep>
  <scstep>
   <time name="dav">   31.20   31.27</time>
   <time name="total">   31.73   31.82</time>
   <energy>
    <i name="e_fr_energy">   -186.89251862 </i>
    <i name="e_wo_entrp">   -186.54850001 </i>
    <i name="e_0_energy">   -186.72050932 </i>
   </energy>
  </scstep>
  <scstep>
   <time name="dav">   32.63   32.71</time>
   <time name="total">   33.17   33.26</time>
   <energy>
    <i name="e_fr_energy">   -186.88754001 </i>
    <i name="e_wo_entrp">   -186.54362427 </i>
    <i name="e_0_energy">   -186.71558214 </i>
   </energy>
  </scstep>
  <scstep>
   <time name="dav">   31.32   31.40</time>
   <time name="total">   31.86   31.94</time>
   <energy>
    <i name="e_fr_energy">   -186.88592869 </i>
    <i name="e_wo_entrp">   -186.54305985 </i>
    <i name="e_0_energy">   -186.71449427 </i>
   </energy>
  </scstep>
  <scstep>
   <time name="dav">   30.39   30.46</time>
   <time name="total">   30.93   31.01</time>
   <energy>
    <i name="e_fr_energy">   -186.88510324 </i>
    <i name="e_wo_entrp">   -186.54273397 </i>
    <i name="e_0_energy">   -186.71391861 </i>
   </energy>
  </scstep>
  <scstep>
   <time name="dav">   28.34   28.41</time>
   <time name="total">   28.88   28.96</time>
   <energy>
    <i name="e_fr_energy">   -186.88491435 </i>
    <i name="e_wo_entrp">   -186.54206129 </i>
    <i name="e_0_energy">   -186.71348782 </i>
   </energy>
  </scstep>
  <scstep>
   <time name="dav">   23.76   23.82</time>
   <time name="total">   24.30   24.36</time>
   <energy>
    <i name="e_fr_energy">   -186.88576037 </i>
    <i name="e_wo_entrp">   -186.54323704 </i>
    <i name="e_0_energy">   -186.71449870 </i>
   </energy>
  </scstep>
  <scstep>
   <time name="dav">   21.91   21.96</time>
   <time name="total">   22.44   22.51</time>
   <energy>
    <i name="e_fr_energy">   -186.88661383 </i>
    <i name="e_wo_entrp">   -186.54398233 </i>
    <i name="e_0_energy">   -186.71529808 </i>
   </energy>
  </scstep>
  <scstep>
   <time name="dav">   19.90   19.94</time>
   <time name="total">   20.43   20.49</time>
   <energy>
    <i name="e_fr_energy">   -186.88742913 </i>
    <i name="e_wo_entrp">   -186.54482032 </i>
    <i name="e_0_energy">   -186.71612473 </i>
   </energy>
  </scstep>
  <scstep>
   <time name="dav">   20.62   20.67</time>
   <time name="total">   21.16   21.22</time>
   <energy>
    <i name="e_fr_energy">   -186.88863644 </i>
    <i name="e_wo_entrp">   -186.54614371 </i>
    <i name="e_0_energy">   -186.71739008 </i>
   </energy>
  </scstep>
  <scstep>
   <time name="dav">   19.16   19.21</time>
   <time name="total">   19.70   19.75</time>
   <energy>
    <i name="e_fr_energy">   -186.88918140 </i>
    <i name="e_wo_entrp">   -186.54661779 </i>
    <i name="e_0_energy">   -186.71789959 </i>
   </energy>
  </scstep>
  <scstep>
   <time name="dav">   16.49   16.53</time>
   <time name="total">   17.03   17.08</time>
   <energy>
    <i name="e_fr_energy">   -186.88956800 </i>
    <i name="e_wo_entrp">   -186.54698864 </i>
    <i name="e_0_energy">   -186.71827832 </i>
   </energy>
  </scstep>
  <scstep>
   <time name="dav">   19.35   19.40</time>
   <time name="total">   19.89   19.94</time>
   <energy>
    <i name="e_fr_energy">   -186.88980623 </i>
    <i name="e_wo_entrp">   -186.54724426 </i>
    <i name="e_0_energy">   -186.71852524 </i>
   </energy>
  </scstep>
  <scstep>
   <time name="dav">   20.43   20.48</time>
   <time name="total">   20.47   20.52</time>
   <energy>
    <i name="alphaZ">     81.65567618 </i>
    <i name="ewald">  41890.25210248 </i>
    <i name="hartreedc"> -47833.16907693 </i>
    <i name="XCdc">   -231.59828101 </i>
    <i name="pawpsdc">   4192.18881800 </i>
    <i name="pawaedc">  -3610.21445413 </i>
    <i name="eentropy">     -0.34256256 </i>
    <i name="bandstr">  -1437.10463318 </i>
    <i name="atom">   6761.44252427 </i>
    <i name="e_fr_energy">   -186.88988689 </i>
    <i name="e_wo_entrp">   -186.54732433 </i>
    <i name="e_0_energy">   -186.71860561 </i>
   </energy>
  </scstep>
  <structure>
   <crystal>
    <varray name="basis" >
     <v>       8.66999996       5.03999989       0.00000000 </v>
     <v>      -8.66999982       5.04000013       0.00000000 </v>
     <v>       0.00000000       0.00000000      30.00000000 </v>
    </varray>
    <i name="volume">   2621.80797419 </i>
    <varray name="rec_basis" >
     <v>       0.05767013       0.09920635       0.00000000 </v>
     <v>      -0.05767013       0.09920635       0.00000000 </v>
     <v>       0.00000000       0.00000000       0.03333333 </v>
    </varray>
   </crystal>
   <varray name="positions" >
    <v>       0.00000000       0.00000000       0.00000000 </v>
    <v>       0.33333334       0.66666669       0.00000000 </v>
    <v>       0.33333334       0.00000000       0.00000000 </v>
    <v>       0.00000000       0.66666669       0.00000000 </v>
    <v>       0.66666669       0.66666669       0.00000000 </v>
    <v>       0.66666669       0.33333334       0.00000000 </v>
    <v>       1.00000000       0.33333334       0.00000000 </v>
    <v>       0.33333334       0.33333334       0.00000000 </v>
    <v>       0.66666669       0.00000000       0.00000000 </v>
    <v>       0.11068511       0.22244981       0.95539999 </v>
    <v>       0.22244981       0.11068511       0.04460000 </v>
    <v>       0.11068511       0.55578315       0.95539999 </v>
    <v>       0.22244981       0.44401845       0.04460000 </v>
    <v>       0.11068511       0.88911647       0.95539999 </v>
    <v>       0.22244981       0.77735180       0.04460000 </v>
    <v>       0.44401845       0.22244981       0.95539999 </v>
    <v>       0.55578315       0.11068511       0.04460000 </v>
    <v>       0.44401845       0.55578315       0.95539999 </v>
    <v>       0.55578315       0.44401845       0.04460000 </v>
    <v>       0.44401845       0.88911647       0.95539999 </v>
    <v>       0.55578315       0.77735180       0.04460000 </v>
    <v>       0.77735180       0.22244981       0.95539999 </v>
    <v>       0.88911647       0.11068511       0.04460000 </v>
    <v>       0.77735180       0.55578315       0.95539999 </v>
    <v>       0.88911647       0.44401845       0.04460000 </v>
    <v>       0.77735180       0.88911647       0.95539999 </v>
    <v>       0.88911647       0.77735180       0.04460000 </v>
   </varray>
  </structure>
  <varray name="forces" >
   <v>       0.28215487      -0.32223356       0.05544179 </v>
   <v>      -0.07506949       0.02942364      -0.05433446 </v>
   <v>      -0.00952374      -0.09251894       0.02655937 </v>
   <v>      -0.25881237      -0.33883197       0.02986498 </v>
   <v>       0.52990045      -0.01520450      -0.09058210 </v>
   <v>      -0.25770439       0.44224752       0.00815929 </v>
   <v>      -0.55095983       0.00757151       0.07119854 </v>
   <v>       0.32425834       0.42129830      -0.03119929 </v>
   <v>      -0.01752220      -0.06184045       0.01363239 </v>
   <v>       0.47320274      -0.57286099      -2.07846338 </v>
   <v>       0.22786332      -0.54778156       1.43102308 </v>
   <v>       0.63315467       0.57724122      -2.16691629 </v>
   <v>      -0.46641117       0.54641983       2.14655533 </v>
   <v>      -0.32171841       0.66734576      -1.41886772 </v>
   <v>       0.32252047       0.66794522       1.38919916 </v>
   <v>       0.36406093      -0.69347974      -2.15461098 </v>
   <v>      -0.36173835      -0.68260801       2.11569490 </v>
   <v>      -0.68443351      -0.14893807      -2.13464844 </v>
   <v>      -0.19524471      -0.16804484       2.91733432 </v>
   <v>      -0.22531036      -0.54523094      -1.45077614 </v>
   <v>      -0.61961718      -0.54357174       2.09462030 </v>
   <v>       0.25716816      -0.01759832      -2.89366236 </v>
   <v>       0.62678703       0.01174820       2.15135110 </v>
   <v>       0.09653595      -0.00875680      -2.94886062 </v>
   <v>       0.07074999      -0.01692342       2.93750969 </v>
   <v>       0.36358695       0.67989884      -2.14518685 </v>
   <v>      -0.52787816       0.72528380       2.17996441 </v>
  </varray>
  <varray name="stress" >
   <v>       7.26127961       0.04318052      -1.53355520 </v>
   <v>       0.04318071       4.52125142       0.04483813 </v>
   <v>      -1.53355534       0.04483830      30.27507302 </v>
  </varray>
  <energy>
   <i name="e_fr_energy">   -186.88988689 </i>
   <i name="e_wo_entrp">   -186.71860561 </i>
   <i name="e_0_energy">     -0.34256256 </i>
  </energy>
  <time name="totalsc">  788.02  790.13</time>
 </calculation>
 <calculation>
  <scstep>
   <time name="dav">   21.89   21.94</time>
   <time name="total">   22.44   22.49</time>
   <energy>
    <i name="alphaZ">     78.91486726 </i>
    <i name="ewald">  39377.21392313 </i>
    <i name="hartreedc"> -45334.76001517 </i>
    <i name="XCdc">   -239.05805994 </i>
    <i name="pawpsdc">   4192.17315205 </i>
    <i name="pawaedc">  -3610.19885656 </i>
    <i name="eentropy">     -0.28311744 </i>
    <i name="bandstr">  -1412.98854289 </i>
    <i name="atom">   6761.44252427 </i>
    <i name="e_fr_energy">   -187.54412527 </i>
    <i name="e_wo_entrp">   -187.26100783 </i>
    <i name="e_0_energy">   -187.40256655 </i>
   </energy>
  </scstep>
  <scstep>
   <time name="dav">   30.76   30.84</time>
   <time name="total">   31.30   31.39</time>
   <energy>
    <i name="e_fr_energy">   -189.53318702 </i>
    <i name="e_wo_entrp">   -189.20073890 </i>
    <i name="e_0_energy">   -189.36696296 </i>
   </energy>
  </scstep>
  <scstep>
   <time name="dav">   30.69   30.76</time>
   <time name="total">   31.24   31.33</time>
   <energy>
    <i name="e_fr_energy">   -189.37693149 </i>
    <i name="e_wo_entrp">   -189.10110882 </i>
    <i name="e_0_energy">   -189.23902016 </i>
   </energy>
  </scstep>
  <scstep>
   <time name="dav">   30.76   30.83</time>
   <time name="total">   31.31   31.39</time>
   <energy>
    <i name="e_fr_energy">   -188.80396165 </i>
    <i name="e_wo_entrp">   -188.52272503 </i>
    <i name="e_0_energy">   -188.66334334 </i>
   </energy>
  </scstep>
  <scstep>
   <time name="dav">   30.93   31.00</time>
   <time name="total">   31.47   31.55</time>
   <energy>
    <i name="e_fr_energy">   -188.95348359 </i>
    <i name="e_wo_entrp">   -188.66009557 </i>
    <i name="e_0_energy">   -188.80678958 </i>
   </energy>
  </scstep>
  <scstep>
   <time name="dav">   31.46   31.53</time>
   <time name="total">   32.01   32.09</time>
   <energy>
    <i name="e_fr_energy">   -188.77223475 </i>
    <i name="e_wo_entrp">   -188.49243449 </i>
    <i name="e_0_energy">   -188.63233462 </i>
   </energy>
  </scstep>
  <scstep>
   <time name="dav">   27.75   27.82</time>
   <time name="total">   28.30   28.38</time>
   <energy>
    <i name="e_fr_energy">   -188.74371215 </i>
    <i name="e_wo_entrp">   -188.46287525 </i>
    <i name="e_0_energy">   -188.60329370 </i>
   </energy>
  </scstep>
  <scstep>
   <time name="dav">   30.10   30.18</time>
   <time name="total">   30.65   30.73</time>
   <energy>
    <i name="e_fr_energy">   -188.71974250 </i>
    <i name="e_wo_entrp">   -188.43950242 </i>
    <i name="e_0_energy">   -188.57962246 </i>
   </energy>
  </scstep>
  <scstep>
   <time name="dav">   28.75   28.82</time>
   <time name="total">   29.30   29.38</time>
   <energy>
    <i name="e_fr_energy">   -188.71697702 </i>
    <i name="e_wo_entrp">   -188.43711049 </i>
    <i name="e_0_energy">   -188.57704376 </i>
   </energy>
  </scstep>
  <scstep>
   <time name="dav">   33.18   33.26</time>
   <time name="total">   33.73   33.82</time>
   <energy>
    <i name="e_fr_energy">   -188.71587359 </i>
    <i name="e_wo_entrp">   -188.43627241 </i>
    <i name="e_0_energy">   -188.57607300 </i>
   </energy>
  </scstep>
  <scstep>
   <time name="dav">   29.80   29.87</time>
   <time name="total">   30.35   30.43</time>
   <energy>
    <i name="e_fr_energy">   -188.71524757 </i>
    <i name="e_wo_entrp">   -188.43608418 </i>
    <i name="e_0_energy">   -188.57566587 </i>
   </energy>
  </scstep>
  <scstep>
   <time name="dav">   27.18   27.24</time>
   <time name="total">   27.73   27.80</time>
   <energy>
    <i name="e_fr_energy">   -188.71539585 </i>
    <i name="e_wo_entrp">   -188.43612249 </i>
    <i name="e_0_energy">   -188.57575917 </i>
   </energy>
  </scstep>
  <scstep>
   <time name="dav">   22.23   22.28</time>
   <time name="total">   22.27   22.33</time>
   <energy>
    <i name="alphaZ">     78.91486726 </i>
    <i name="ewald">  39377.21392313 </i>
    <i name="hartreedc"> -45345.50005453 </i>
    <i name="XCdc">   -237.96759881 </i>
    <i name="pawpsdc">   3950.57524898 </i>
    <i name="pawaedc">  -3365.09823691 </i>
    <i name="eentropy">     -0.27927322 </i>
    <i name="bandstr">  -1408.01673286 </i>
    <i name="atom">   6761.44252427 </i>
    <i name="e_fr_energy">   -188.71533267 </i>
    <i name="e_wo_entrp">   -188.43605945 </i>
    <i name="e_0_energy">   -188.57569606 </i>
   </energy>
  </scstep>
  <structure>
   <crystal>
    <varray name="basis" >
     <v>       8.85470924       5.10772100       0.00000000 </v>
     <v>      -8.85343645       5.10553200       0.00000000 </v>
     <v>       0.00000000       0.00000000      30.00000000 </v>
    </varray>
    <i name="volume">   2712.86654038 </i>
    <varray name="rec_basis" >
     <v>       0.05645908       0.09790496       0.00000000 </v>
     <v>      -0.05648329       0.09791904       0.00000000 </v>
     <v>       0.00000000       0.00000000       0.03333333 </v>
    </varray>
   </crystal>
   <varray name="positions" >
    <v>      -0.00075720      -0.00232720       0.00008916 </v>
    <v>       0.33326531       0.66701636      -0.00008737 </v>
    <v>       0.33286405      -0.00041630       0.00004271 </v>
    <v>      -0.00234170       0.66576510       0.00004803 </v>
    <v>       0.66806819       0.66511965      -0.00014566 </v>
    <v>       0.66806630       0.33616690       0.00001312 </v>
    <v>       0.99850338       0.33490244       0.00011449 </v>
    <v>       0.33625181       0.33444753      -0.00005017 </v>
    <v>       0.66632197      -0.00024722       0.00002192 </v>
    <v>       0.10925994       0.21839158       0.95205764 </v>
    <v>       0.22046209       0.10742949       0.04690121 </v>
    <v>       0.11520931       0.55678428       0.95191540 </v>
    <v>       0.22376733       0.44793124       0.04805185 </v>
    <v>       0.11298394       0.89320544       0.95311833 </v>
    <v>       0.22654388       0.77965126       0.04683395 </v>
    <v>       0.44171235       0.21811796       0.95193518 </v>
    <v>       0.55150979       0.10842458       0.04800222 </v>
    <v>       0.44140144       0.55697454       0.95196729 </v>
    <v>       0.55443569       0.44375740       0.04929133 </v>
    <v>       0.44078214       0.88713385       0.95306701 </v>
    <v>       0.55145776       0.77647415       0.04796833 </v>
    <v>       0.77798305       0.22165010       0.95074672 </v>
    <v>       0.89091651       0.10899751       0.04805956 </v>
    <v>       0.77757847       0.55547266       0.95065796 </v>
    <v>       0.88923231       0.44374062       0.04932377 </v>
    <v>       0.78161733       0.89135889       0.95195034 </v>
    <v>       0.89111902       0.78229163       0.04810557 </v>
   </varray>
  </structure>
  <varray name="forces" >
   <v>       0.17549520      -0.29566037      -0.06611974 </v>
   <v>      -0.02632069       0.01768822       0.07457128 </v>
   <v>       0.00287215      -0.05130851       0.08869512 </v>
   <v>      -0.17892121      -0.62958743       0.00196859 </v>
   <v>       0.59028196      -0.14520555      -0.03536470 </v>
   <v>      -0.24877603       0.57807152      -0.00729905 </v>
   <v>      -0.56169834      -0.10970169      -0.06578552 </v>
   <v>       0.28256730       0.48447180      -0.12065472 </v>
   <v>       0.00307874       0.08900153       0.11254902 </v>
   <v>      -0.05941719       0.07204003       0.38503274 </v>
   <v>      -0.05394414       0.07482481      -0.12820329 </v>
   <v>       0.06700085      -0.04946018       0.02447466 </v>
   <v>       0.05417676      -0.07116638      -0.17618958 </v>
   <v>       0.00366053       0.03791070       0.07598980 </v>
   <v>      -0.01043726       0.03753988      -0.15725568 </v>
   <v>      -0.11060621      -0.04298043       0.03900356 </v>
   <v>       0.11133047      -0.04202907      -0.14354000 </v>
   <v>       0.03504936      -0.09867795      -0.02115795 </v>
   <v>      -0.04761349      -0.10028472       0.24411330 </v>
   <v>       0.05267670       0.05804476       0.03981227 </v>
   <v>      -0.06682557       0.06023869      -0.16702878 </v>
   <v>       0.08712604      -0.00028583      -0.00206471 </v>
   <v>      -0.08587794       0.00880672      -0.09501004 </v>
   <v>      -0.01000719       0.01060362      -0.40099240 </v>
   <v>       0.12539533      -0.00481469       0.28127753 </v>
   <v>      -0.10524491       0.04239975       0.05088068 </v>
   <v>      -0.02502121       0.06952076       0.16829764 </v>
  </varray>
  <varray name="stress" >
   <v>     -19.88132559      -0.00744842       0.02786895 </v>
   <v>      -0.00744824     -19.47924374      -0.00192610 </v>
   <v>       0.02786891      -0.00192621      -1.75928648 </v>
  </varray>
  <energy>
   <i name="e_fr_energy">   -188.71533267 </i>
   <i name="e_wo_entrp">   -188.57569606 </i>
   <i name="e_0_energy">     -0.27927322 </i>
  </energy>
  <time name="totalsc">  424.50  425.63</time>
 </calculation>
 <calculation>
  <scstep>
   <time name="dav">   23.69   23.75</time>
   <time name="total">   24.23   24.29</time>
   <energy>
    <i name="alphaZ">     82.32727967 </i>
    <i name="ewald">  41293.93219664 </i>
    <i name="hartreedc"> -47292.64311469 </i>
    <i name="XCdc">   -233.85826101 </i>
    <i name="pawpsdc">   3950.03063378 </i>
    <i name="pawaedc">  -3364.54860962 </i>
    <i name="eentropy">     -0.23668339 </i>
    <i name="bandstr">  -1387.08630629 </i>
    <i name="atom">   6761.44252427 </i>
    <i name="e_fr_energy">   -190.64034064 </i>
    <i name="e_wo_entrp">   -190.40365725 </i>
    <i name="e_0_energy">   -190.52199895 </i>
   </energy>
  </scstep>
  <scstep>
   <time name="dav">   28.05   28.11</time>
   <time name="total">   28.57   28.65</time>
   <energy>
    <i name="e_fr_energy">   -190.55802954 </i>
    <i name="e_wo_entrp">   -190.32041726 </i>
    <i name="e_0_energy">   -190.43922340 </i>
   </energy>
  </scstep>
  <scstep>
   <time name="dav">   30.46   30.54</time>
   <time name="total">   30.99   31.07</time>
   <energy>
    <i name="e_fr_energy">   -190.13328452 </i>
    <i name="e_wo_entrp">   -189.88111032 </i>
    <i name="e_0_energy">   -190.00719742 </i>
   </energy>
  </scstep>
  <scstep>
   <time name="dav">   31.57   31.65</time>
   <time name="total">   32.11   32.19</time>
   <energy>
    <i name="e_fr_energy">   -189.92052419 </i>
    <i name="e_wo_entrp">   -189.68436157 </i>
    <i name="e_0_energy">   -189.80244288 </i>
   </energy>
  </scstep>
  <scstep>
   <time name="dav">   30.26   30.34</time>
   <time name="total">   30.80   30.88</time>
   <energy>
    <i name="e_fr_energy">   -189.89573175 </i>
    <i name="e_wo_entrp">   -189.65602704 </i>
    <i name="e_0_energy">   -189.77587940 </i>
   </energy>
  </scstep>
  <scstep>
   <time name="dav">   31.01   31.08</time>
   <time name="total">   31.54   31.63</time>
   <energy>
    <i name="e_fr_energy">   -189.82360917 </i>
    <i name="e_wo_entrp">   -189.58433303 </i>
    <i name="e_0_energy">   -189.70397110 </i>
   </energy>
  </scstep>
  <scstep>
   <time name="dav">   28.92   28.99</time>
   <time name="total">   29.46   29.54</time>
   <energy>
    <i name="e_fr_energy">   -189.81580486 </i>
    <i name="e_wo_entrp">   -189.57687432 </i>
    <i name="e_0_energy">   -189.69633959 </i>
   </energy>
  </scstep>
  <scstep>
   <time name="dav">   30.74   30.81</time>
   <time name="total">   31.27   31.35</time>
   <energy>
    <i name="e_fr_energy">   -189.81686120 </i>
    <i name="e_wo_entrp">   -189.57786329 </i>
    <i name="e_0_energy">   -189.69736224 </i>
   </energy>
  </scstep>
  <scstep>
   <time name="dav">   28.13   28.20</time>
   <time name="total">   28.67   28.75</time>
   <energy>
    <i name="e_fr_energy">   -189.81565924 </i>
    <i name="e_wo_entrp">   -189.57669435 </i>
    <i name="e_0_energy">   -189.69617680 </i>
   </energy>
  </scstep>
  <scstep>
   <time name="dav">   25.12   25.18</time>
   <time name="total">   25.65   25.72</time>
   <energy>
    <i name="e_fr_energy">   -189.81598789 </i>
    <i name="e_wo_entrp">   -189.57693132 </i>
    <i name="e_0_energy">   -189.69645961 </i>
   </energy>
  </scstep>
  <scstep>
   <time name="dav">   23.66   23.72</time>
   <time name="total">   24.20   24.26</time>
   <energy>
    <i name="e_fr_energy">   -189.81576526 </i>
    <i name="e_wo_entrp">   -189.57669181 </i>
    <i name="e_0_energy">   -189.69622854 </i>
   </energy>
  </scstep>
  <scstep>
   <time name="dav">   19.61   19.66</time>
   <time name="total">   19.65   19.71</time>
   <energy>
    <i name="alphaZ">     82.32727967 </i>
    <i name="ewald">  41293.93219664 </i>
    <i name="hartreedc"> -47266.16572754 </i>
    <i name="XCdc">   -235.24459066 </i>
    <i name="pawpsdc">   4038.73942012 </i>
    <i name="pawaedc">  -3454.45496982 </i>
    <i name="eentropy">     -0.23908689 </i>
    <i name="bandstr">  -1410.15283147 </i>
    <i name="atom">   6761.44252427 </i>
    <i name="e_fr_energy">   -189.81578567 </i>
    <i name="e_wo_entrp">   -189.57669878 </i>
    <i name="e_0_energy">   -189.69624223 </i>
   </energy>
  </scstep>
  <structure>
   <crystal>
    <varray name="basis" >
     <v>       8.66732145       5.00176761       0.00000000 </v>
     <v>      -8.66615655       4.99976435       0.00000000 </v>
     <v>       0.00000000       0.00000000      30.00000000 </v>
    </varray>
    <i name="volume">   2600.41997967 </i>
    <varray name="rec_basis" >
     <v>       0.05768027       0.09997796       0.00000000 </v>
     <v>      -0.05770338       0.09999140       0.00000000 </v>
     <v>       0.00000000       0.00000000       0.03333333 </v>
    </varray>
   </crystal>
   <varray name="positions" >
    <v>      -0.00108028      -0.00298670       0.00005175 </v>
    <v>       0.33326948       0.66707098      -0.00004519 </v>
    <v>       0.33278156      -0.00050431       0.00009288 </v>
    <v>      -0.00355913       0.66489044       0.00004914 </v>
    <v>       0.66839248       0.66431258      -0.00016567 </v>
    <v>       0.66878837       0.33736591       0.00000899 </v>
    <v>       0.99778296       0.33525854       0.00007728 </v>
    <v>       0.33732744       0.33498171      -0.00011842 </v>
    <v>       0.66647279      -0.00010228       0.00008559 </v>
    <v>       0.10932270       0.21856824       0.95227543 </v>
    <v>       0.22053472       0.10760553       0.04682869 </v>
    <v>       0.11519133       0.55663787       0.95192924 </v>
    <v>       0.22370100       0.44776105       0.04795219 </v>
    <v>       0.11305043       0.89326493       0.95316131 </v>
    <v>       0.22659625       0.77972365       0.04674500 </v>
    <v>       0.44153497       0.21815255       0.95195725 </v>
    <v>       0.55154663       0.10824803       0.04792103 </v>
    <v>       0.44127107       0.55677698       0.95195532 </v>
    <v>       0.55422346       0.44363640       0.04942941 </v>
    <v>       0.44092905       0.88717981       0.95308953 </v>
    <v>       0.55149381       0.77663830       0.04787385 </v>
    <v>       0.77806605       0.22156612       0.95074556 </v>
    <v>       0.89084887       0.10909446       0.04800582 </v>
    <v>       0.77758649       0.55549988       0.95043114 </v>
    <v>       0.88934445       0.44361243       0.04948288 </v>
    <v>       0.78158694       0.89153022       0.95197912 </v>
    <v>       0.89121055       0.78243113       0.04820077 </v>
   </varray>
  </structure>
  <varray name="forces" >
   <v>       0.12908530      -0.29922839      -0.07853198 </v>
   <v>       0.00286563       0.00498619       0.08651417 </v>
   <v>       0.00686181      -0.03114857       0.08342224 </v>
   <v>      -0.14511514      -0.70731986      -0.00371454 </v>
   <v>       0.59747221      -0.18687814      -0.00900447 </v>
   <v>      -0.23714020       0.61892042      -0.00544262 </v>
   <v>      -0.57176845      -0.15096155      -0.08263824 </v>
   <v>       0.26381566       0.50193540      -0.10834244 </v>
   <v>       0.00937404       0.14182578       0.10733907 </v>
   <v>       0.00590031      -0.03965507      -0.07543776 </v>
   <v>       0.01110697      -0.04737066       0.32265222 </v>
   <v>       0.03841440       0.08858715      -0.47350158 </v>
   <v>      -0.00929201       0.04306584       0.30829634 </v>
   <v>      -0.01611420       0.08185672      -0.35812243 </v>
   <v>       0.00853627       0.07431562       0.27069623 </v>
   <v>       0.03482089      -0.09034251      -0.46121045 </v>
   <v>      -0.02411493      -0.08010381       0.33484530 </v>
   <v>      -0.07834756      -0.00251296      -0.52814235 </v>
   <v>      -0.00353338      -0.01863032       0.81263405 </v>
   <v>      -0.02541587      -0.06932722      -0.42146779 </v>
   <v>      -0.03341195      -0.06668917       0.30632985 </v>
   <v>      -0.00323257      -0.01433852      -0.55926819 </v>
   <v>       0.06434150       0.02391203       0.41130304 </v>
   <v>      -0.00292941       0.01921198      -0.97502635 </v>
   <v>       0.02147936       0.00029361       0.86778701 </v>
   <v>       0.01423444       0.08689023      -0.43445395 </v>
   <v>      -0.05789312       0.11870577       0.66248563 </v>
  </varray>
  <varray name="stress" >
   <v>     -10.15692308      -0.02224209       0.00229166 </v>
   <v>      -0.02224205      -9.84400594      -0.01425345 </v>
   <v>       0.00229165      -0.01425332       6.45716206 </v>
  </varray>
  <energy>
   <i name="e_fr_energy">   -189.81578567 </i>
   <i name="e_wo_entrp">   -189.69624223 </i>
   <i name="e_0_energy">     -0.23908689 </i>
  </energy>
  <time name="totalsc">  379.59  380.60</time>
 </calculation>
 <calculation>
  <scstep>
   <time name="dav">   21.86   21.92</time>
   <time name="total">   22.39   22.44</time>
   <energy>
    <i name="alphaZ">     85.80467913 </i>
    <i name="ewald">  42827.08808480 </i>
    <i name="hartreedc"> -48843.69094064 </i>
    <i name="XCdc">   -232.95187139 </i>
    <i name="pawpsdc">   4038.86889223 </i>
    <i name="pawaedc">  -3454.58270588 </i>
    <i name="eentropy">     -0.21092882 </i>
    <i name="bandstr">  -1373.18779654 </i>
    <i name="atom">   6761.44252427 </i>
    <i name="e_fr_energy">   -191.42006283 </i>
    <i name="e_wo_entrp">   -191.20913401 </i>
    <i name="e_0_energy">   -191.31459842 </i>
   </energy>
  </scstep>
  <scstep>
   <time name="dav">   32.39   32.47</time>
   <time name="total">   32.91   32.99</time>
   <energy>
    <i name="e_fr_energy">   -191.22654877 </i>
    <i name="e_wo_entrp">   -191.01588222 </i>
    <i name="e_0_energy">   -191.12121550 </i>
   </energy>
  </scstep>
  <scstep>
   <time name="dav">   30.28   30.35</time>
   <time name="total">   30.80   30.88</time>
   <energy>
    <i name="e_fr_energy">   -191.37882423 </i>
    <i name="e_wo_entrp">   -191.14650651 </i>
    <i name="e_0_energy">   -191.26266537 </i>
   </energy>
  </scstep>
  <scstep>
   <time name="dav">   30.73   30.80</time>
   <time name="total">   31.24   31.33</time>
   <energy>
    <i name="e_fr_energy">   -190.99766586 </i>
    <i name="e_wo_entrp">   -190.78465002 </i>
    <i name="e_0_energy">   -190.89115794 </i>
   </energy>
  </scstep>
  <scstep>
   <time name="dav">   30.65   30.72</time>
   <time name="total">   31.16   31.25</time>
   <energy>
    <i name="e_fr_energy">   -190.90594759 </i>
    <i name="e_wo_entrp">   -190.69284452 </i>
    <i name="e_0_energy">   -190.79939605 </i>
   </energy>
  </scstep>
  <scstep>
   <time name="dav">   30.67   30.74</time>
   <time name="total">   31.19   31.27</time>
   <energy>
    <i name="e_fr_energy">   -190.87368002 </i>
    <i name="e_wo_entrp">   -190.65557923 </i>
    <i name="e_0_energy">   -190.76462963 </i>
   </energy>
  </scstep>
  <scstep>
   <time name="dav">   31.22   31.29</time>
   <time name="total">   31.74   31.82</time>
   <energy>
    <i name="e_fr_energy">   -190.84737480 </i>
    <i name="e_wo_entrp">   -190.63137910 </i>
    <i name="e_0_energy">   -190.73937695 </i>
   </energy>
  </scstep>
  <scstep>
   <time name="dav">   26.02   26.08</time>
   <time name="total">   26.54   26.61</time>
   <energy>
    <i name="e_fr_energy">   -190.84467747 </i>
    <i name="e_wo_entrp">   -190.62863596 </i>
    <i name="e_0_energy">   -190.73665672 </i>
   </energy>
  </scstep>
  <scstep>
   <time name="dav">   31.30   31.37</time>
   <time name="total">   31.82   31.90</time>
   <energy>
    <i name="e_fr_energy">   -190.84545728 </i>
    <i name="e_wo_entrp">   -190.62942804 </i>
    <i name="e_0_energy">   -190.73744266 </i>
   </energy>
  </scstep>
  <scstep>
   <time name="dav">   26.82   26.89</time>
   <time name="total">   27.34   27.42</time>
   <energy>
    <i name="e_fr_energy">   -190.84506075 </i>
    <i name="e_wo_entrp">   -190.62906709 </i>
    <i name="e_0_energy">   -190.73706392 </i>
   </energy>
  </scstep>
  <scstep>
   <time name="dav">   25.38   25.44</time>
   <time name="total">   25.90   25.97</time>
   <energy>
    <i name="e_fr_energy">   -190.84479693 </i>
    <i name="e_wo_entrp">   -190.62873259 </i>
    <i name="e_0_energy">   -190.73676476 </i>
   </energy>
  </scstep>
  <scstep>
   <time name="dav">   18.77   18.82</time>
   <time name="total">   18.81   18.86</time>
   <energy>
    <i name="alphaZ">     85.80467913 </i>
    <i name="ewald">  42827.08808480 </i>
    <i name="hartreedc"> -48815.15212649 </i>
    <i name="XCdc">   -234.27339941 </i>
    <i name="pawpsdc">   4064.77921107 </i>
    <i name="pawaedc">  -3480.69184717 </i>
    <i name="eentropy">     -0.21607975 </i>
    <i name="bandstr">  -1399.62584866 </i>
    <i name="atom">   6761.44252427 </i>
    <i name="e_fr_energy">   -190.84480220 </i>
    <i name="e_wo_entrp">   -190.62872245 </i>
    <i name="e_0_energy">   -190.73676232 </i>
   </energy>
  </scstep>
  <structure>
   <crystal>
    <varray name="basis" >
     <v>       8.48511853       4.90090142       0.00000000 </v>
     <v>      -8.48502639       4.90075506       0.00000000 </v>
     <v>       0.00000000       0.00000000      30.00000000 </v>
    </varray>
    <i name="volume">   2495.03296443 </i>
    <varray name="rec_basis" >
     <v>       0.05892614       0.10202302       0.00000000 </v>
     <v>      -0.05892790       0.10202413       0.00000000 </v>
     <v>       0.00000000       0.00000000       0.03333333 </v>
    </varray>
   </crystal>
   <varray name="positions" >
    <v>      -0.00256422      -0.00527020      -0.00012148 </v>
    <v>       0.33332142       0.66701784       0.00014417 </v>
    <v>       0.33266751      -0.00067953       0.00026115 </v>
    <v>      -0.00866079       0.66073982       0.00003660 </v>
    <v>       0.66928755       0.66086619      -0.00016183 </v>
    <v>       0.67192764       0.34218691      -0.00000070 </v>
    <v>       0.99465238       0.33629156      -0.00010824 </v>
    <v>       0.34144226       0.33724342      -0.00033229 </v>
    <v>       0.66753663       0.00087572       0.00030344 </v>
    <v>       0.10891011       0.21792411       0.95172637 </v>
    <v>       0.22006592       0.10686829       0.04788153 </v>
    <v>       0.11618977       0.55744128       0.95052379 </v>
    <v>       0.22413173       0.44844251       0.04900399 </v>
    <v>       0.11358653       0.89397479       0.95204929 </v>
    <v>       0.22721224       0.78022314       0.04767070 </v>
    <v>       0.44118634       0.21713167       0.95057534 </v>
    <v>       0.55066651       0.10793372       0.04902261 </v>
    <v>       0.44104921       0.55744948       0.95042902 </v>
    <v>       0.55436227       0.44367335       0.05159739 </v>
    <v>       0.43997086       0.88663104       0.95182315 </v>
    <v>       0.55068548       0.77597489       0.04891209 </v>
    <v>       0.77779877       0.22158337       0.94911196 </v>
    <v>       0.89148617       0.10883230       0.04928957 </v>
    <v>       0.77772806       0.55564218       0.94792214 </v>
    <v>       0.88928658       0.44369961       0.05178043 </v>
    <v>       0.78246687       0.89196194       0.95066532 </v>
    <v>       0.89182067       0.78355503       0.04999438 </v>
   </varray>
  </structure>
  <varray name="forces" >
   <v>       0.12054814      -0.32696709      -0.07690047 </v>
   <v>       0.02852081       0.00407996       0.07703827 </v>
   <v>       0.00619791      -0.06138402       0.04581561 </v>
   <v>      -0.09410604      -0.67321547      -0.00790560 </v>
   <v>       0.55164832      -0.22059372       0.02532962 </v>
   <v>      -0.20038890       0.61181749      -0.01077019 </v>
   <v>      -0.64884653      -0.19787898      -0.05629208 </v>
   <v>       0.31045472       0.54710553      -0.06494037 </v>
   <v>       0.01033092       0.16960195       0.07071228 </v>
   <v>      -0.02750275       0.04125007       0.08422856 </v>
   <v>      -0.01335130       0.01592024       0.21506593 </v>
   <v>      -0.07081285       0.02454585      -0.32294966 </v>
   <v>       0.00151416      -0.01637589       0.12046009 </v>
   <v>       0.04767951      -0.05515797      -0.25365133 </v>
   <v>      -0.06474907      -0.06852904       0.19368351 </v>
   <v>       0.07099838       0.04918282      -0.30752400 </v>
   <v>      -0.06907617       0.05613057       0.19586931 </v>
   <v>       0.00117938       0.08710668      -0.39973795 </v>
   <v>       0.04484360       0.04451980       0.60249427 </v>
   <v>      -0.00983721      -0.01426879      -0.28983077 </v>
   <v>       0.07903734      -0.00331998       0.15747087 </v>
   <v>      -0.10196601      -0.02867263      -0.40198064 </v>
   <v>       0.02727766       0.06219281       0.28972127 </v>
   <v>      -0.00362827       0.01379750      -0.78493811 </v>
   <v>      -0.05841741      -0.00072137       0.69724757 </v>
   <v>       0.04146882      -0.04019022      -0.27738160 </v>
   <v>       0.02098283      -0.01997609       0.47966561 </v>
  </varray>
  <varray name="stress" >
   <v>      -5.70024250       0.00303950       0.02312252 </v>
   <v>       0.00303976      -5.55262179      -0.00702727 </v>
   <v>       0.02312244      -0.00702709       4.47829578 </v>
  </varray>
  <energy>
   <i name="e_fr_energy">   -190.84480220 </i>
   <i name="e_wo_entrp">   -190.73676232 </i>
   <i name="e_0_energy">     -0.21607975 </i>
  </energy>
  <time name="totalsc">  384.11  385.13</time>
 </calculation>
 <calculation>
  <scstep>
   <time name="dav">   21.83   21.88</time>
   <time name="total">   22.34   22.39</time>
   <energy>
    <i name="alphaZ">     89.96788289 </i>
    <i name="ewald">  44571.88044693 </i>
    <i name="hartreedc"> -50613.00081509 </i>
    <i name="XCdc">   -231.96129375 </i>
    <i name="pawpsdc">   4064.76457276 </i>
    <i name="pawaedc">  -3480.67317492 </i>
    <i name="eentropy">     -0.21471745 </i>
    <i name="bandstr">  -1354.35609983 </i>
    <i name="atom">   6761.44252427 </i>
    <i name="e_fr_energy">   -192.15067419 </i>
    <i name="e_wo_entrp">   -191.93595673 </i>
    <i name="e_0_energy">   -192.04331546 </i>
   </energy>
  </scstep>
  <scstep>
   <time name="dav">   27.49   27.55</time>
   <time name="total">   27.99   28.07</time>
   <energy>
    <i name="e_fr_energy">   -191.93413169 </i>
    <i name="e_wo_entrp">   -191.71743449 </i>
    <i name="e_0_energy">   -191.82578309 </i>
   </energy>
  </scstep>
  <scstep>
   <time name="dav">   29.25   29.32</time>
   <time name="total">   29.76   29.84</time>
   <energy>
    <i name="e_fr_energy">   -191.79841647 </i>
    <i name="e_wo_entrp">   -191.57175856 </i>
    <i name="e_0_energy">   -191.68508751 </i>
   </energy>
  </scstep>
  <scstep>
   <time name="dav">   30.67   30.75</time>
   <time name="total">   31.18   31.26</time>
   <energy>
    <i name="e_fr_energy">   -191.82694212 </i>
    <i name="e_wo_entrp">   -191.62187361 </i>
    <i name="e_0_energy">   -191.72440786 </i>
   </energy>
  </scstep>
  <scstep>
   <time name="dav">   30.58   30.65</time>
   <time name="total">   31.08   31.17</time>
   <energy>
    <i name="e_fr_energy">   -191.55637140 </i>
    <i name="e_wo_entrp">   -191.33396949 </i>
    <i name="e_0_energy">   -191.44517044 </i>
   </energy>
  </scstep>
  <scstep>
   <time name="dav">   29.08   29.15</time>
   <time name="total">   29.59   29.67</time>
   <energy>
    <i name="e_fr_energy">   -191.54676500 </i>
    <i name="e_wo_entrp">   -191.32553553 </i>
    <i name="e_0_energy">   -191.43615027 </i>
   </energy>
  </scstep>
  <scstep>
   <time name="dav">   29.96   30.03</time>
   <time name="total">   30.46   30.54</time>
   <energy>
    <i name="e_fr_energy">   -191.55239082 </i>
    <i name="e_wo_entrp">   -191.32971549 </i>
    <i name="e_0_energy">   -191.44105316 </i>
   </energy>
  </scstep>
  <scstep>
   <time name="dav">   29.13   29.20</time>
   <time name="total">   29.64   29.72</time>
   <energy>
    <i name="e_fr_energy">   -191.54149243 </i>
    <i name="e_wo_entrp">   -191.32021896 </i>
    <i name="e_0_energy">   -191.43085570 </i>
   </energy>
  </scstep>
  <scstep>
   <time name="dav">   28.83   28.90</time>
   <time name="total">   29.34   29.41</time>
   <energy>
    <i name="e_fr_energy">   -191.54236660 </i>
    <i name="e_wo_entrp">   -191.32079841 </i>
    <i name="e_0_energy">   -191.43158250 </i>
   </energy>
  </scstep>
  <scstep>
   <time name="dav">   29.47   29.54</time>
   <time name="total">   29.98   30.06</time>
   <energy>
    <i name="e_fr_energy">   -191.54179750 </i>
    <i name="e_wo_entrp">   -191.32044752 </i>
    <i name="e_0_energy">   -191.43112251 </i>
   </energy>
  </scstep>
  <scstep>
   <time name="dav">   25.72   25.78</time>
   <time name="total">   26.23   26.30</time>
   <energy>
    <i name="e_fr_energy">   -191.54155357 </i>
    <i name="e_wo_entrp">   -191.32007050 </i>
    <i name="e_0_energy">   -191.43081204 </i>
   </energy>
  </scstep>
  <scstep>
   <time name="dav">   18.59   18.63</time>
   <time name="total">   18.63   18.68</time>
   <energy>
    <i name="alphaZ">     89.96788289 </i>
    <i name="ewald">  44571.88044693 </i>
    <i name="hartreedc"> -50581.12500111 </i>
    <i name="XCdc">   -233.39531152 </i>
    <i name="pawpsdc">   4086.83064846 </i>
    <i name="pawaedc">  -3502.85786766 </i>
    <i name="eentropy">     -0.22151338 </i>
    <i name="bandstr">  -1384.06332896 </i>
    <i name="atom">   6761.44252427 </i>
    <i name="e_fr_energy">   -191.54152007 </i>
    <i name="e_wo_entrp">   -191.32000670 </i>
    <i name="e_0_energy">   -191.43076338 </i>
   </energy>
  </scstep>
  <structure>
   <crystal>
    <varray name="basis" >
     <v>       8.28235834       4.78823666       0.00000000 </v>
     <v>      -8.28253286       4.78855219       0.00000000 </v>
     <v>       0.00000000       0.00000000      30.00000000 </v>
    </varray>
    <i name="volume">   2379.57697856 </i>
    <varray name="rec_basis" >
     <v>       0.06037063       0.10442023       0.00000000 </v>
     <v>      -0.06036665       0.10441803       0.00000000 </v>
     <v>       0.00000000       0.00000000       0.03333333 </v>
    </varray>
   </crystal>
   <varray name="positions" >
    <v>      -0.00569086      -0.00993744      -0.00043556 </v>
    <v>       0.33355772       0.66681150       0.00046240 </v>
    <v>       0.33208453      -0.00136270       0.00045514 </v>
    <v>      -0.01767435       0.65301885       0.00000237 </v>
    <v>       0.67045792       0.65426590      -0.00005519 </v>
    <v>       0.67800296       0.35107652      -0.00003839 </v>
    <v>       0.98778251       0.33832318      -0.00035854 </v>
    <v>       0.35007937       0.34171574      -0.00059754 </v>
    <v>       0.66976002       0.00293714       0.00059457 </v>
    <v>       0.10890894       0.21803210       0.95153557 </v>
    <v>       0.21984869       0.10658113       0.04920939 </v>
    <v>       0.11653762       0.55866203       0.94870600 </v>
    <v>       0.22424804       0.44876269       0.05003451 </v>
    <v>       0.11350661       0.89341498       0.95058775 </v>
    <v>       0.22636993       0.78008280       0.04887714 </v>
    <v>       0.44211477       0.21667197       0.94881427 </v>
    <v>       0.55035938       0.10893945       0.05031765 </v>
    <v>       0.44197279       0.55887035       0.94831312 </v>
    <v>       0.55536191       0.44399785       0.05460885 </v>
    <v>       0.43914575       0.88622340       0.95017989 </v>
    <v>       0.55068694       0.77497964       0.05005695 </v>
    <v>       0.77667564       0.22198456       0.94692452 </v>
    <v>       0.89268078       0.10909453       0.05097008 </v>
    <v>       0.77791362       0.55585401       0.94420069 </v>
    <v>       0.88879477       0.44420599       0.05515995 </v>
    <v>       0.78276787       0.89135212       0.94903481 </v>
    <v>       0.89196058       0.78365616       0.05243950 </v>
   </varray>
  </structure>
  <varray name="forces" >
   <v>       0.19015956      -0.42735263      -0.00302639 </v>
   <v>       0.05366887       0.02959699       0.02079877 </v>
   <v>      -0.02234396      -0.13931046       0.04351585 </v>
   <v>       0.00503700      -0.04440865      -0.03413404 </v>
   <v>       0.06269455      -0.06810047      -0.08027458 </v>
   <v>       0.05198589       0.01480076      -0.02644849 </v>
   <v>      -0.51463878      -0.18741853       0.07860550 </v>
   <v>       0.32133751       0.48483433      -0.02685773 </v>
   <v>      -0.04796041       0.20293442       0.05428131 </v>
   <v>      -0.12118790       0.18409446       0.43124989 </v>
   <v>      -0.06578079       0.07863110      -0.09595753 </v>
   <v>      -0.15959226      -0.09045183      -0.02187674 </v>
   <v>       0.04036110      -0.12832264      -0.21520421 </v>
   <v>       0.09641468      -0.19414741      -0.00955173 </v>
   <v>      -0.10361275      -0.20581864      -0.03952157 </v>
   <v>       0.09047938       0.21851210      -0.02093979 </v>
   <v>      -0.06020691       0.19136437      -0.09761289 </v>
   <v>       0.08402323       0.14196642      -0.09021885 </v>
   <v>       0.12796502       0.06784665       0.24332552 </v>
   <v>       0.02184469       0.03890901       0.01639268 </v>
   <v>       0.18030121       0.09860018      -0.10127141 </v>
   <v>      -0.21670837      -0.05059848      -0.16664609 </v>
   <v>      -0.03022835       0.11919233      -0.00791375 </v>
   <v>      -0.03455921       0.00509803      -0.26190028 </v>
   <v>      -0.07803186      -0.02386580       0.27810434 </v>
   <v>       0.03389328      -0.17619195       0.01605348 </v>
   <v>       0.09468561      -0.14039367       0.11702874 </v>
  </varray>
  <varray name="stress" >
   <v>       0.06696629       0.01022967       0.33720585 </v>
   <v>       0.01022966       0.65638816      -0.01349343 </v>
   <v>       0.33720577      -0.01349361      -0.88009229 </v>
  </varray>
  <energy>
   <i name="e_fr_energy">   -191.54152007 </i>
   <i name="e_wo_entrp">   -191.43076338 </i>
   <i name="e_0_energy">     -0.22151338 </i>
  </energy>
  <time name="totalsc">  378.82  379.83</time>
 </calculation>
 <calculation>
  <scstep>
   <time name="dav">   21.84   21.90</time>
   <time name="total">   22.35   22.41</time>
   <energy>
    <i name="alphaZ">     89.74672910 </i>
    <i name="ewald">  44459.88641970 </i>
    <i name="hartreedc"> -50467.20467951 </i>
    <i name="XCdc">   -233.60012054 </i>
    <i name="pawpsdc">   4086.68804815 </i>
    <i name="pawaedc">  -3502.70995915 </i>
    <i name="eentropy">     -0.22205390 </i>
    <i name="bandstr">  -1385.64546101 </i>
    <i name="atom">   6761.44252427 </i>
    <i name="e_fr_energy">   -191.61855289 </i>
    <i name="e_wo_entrp">   -191.39649899 </i>
    <i name="e_0_energy">   -191.50752594 </i>
   </energy>
  </scstep>
  <scstep>
   <time name="dav">   33.34   33.42</time>
   <time name="total">   33.86   33.94</time>
   <energy>
    <i name="e_fr_energy">   -191.67629411 </i>
    <i name="e_wo_entrp">   -191.44693895 </i>
    <i name="e_0_energy">   -191.56161653 </i>
   </energy>
  </scstep>
  <scstep>
   <time name="dav">   30.81   30.88</time>
   <time name="total">   31.32   31.40</time>
   <energy>
    <i name="e_fr_energy">   -191.63166237 </i>
    <i name="e_wo_entrp">   -191.40891024 </i>
    <i name="e_0_energy">   -191.52028630 </i>
   </energy>
  </scstep>
  <scstep>
   <time name="dav">   26.27   26.33</time>
   <time name="total">   26.77   26.85</time>
   <energy>
    <i name="e_fr_energy">   -191.63449435 </i>
    <i name="e_wo_entrp">   -191.41252372 </i>
    <i name="e_0_energy">   -191.52350904 </i>
   </energy>
  </scstep>
  <scstep>
   <time name="dav">   28.42   28.49</time>
   <time name="total">   28.93   29.00</time>
   <energy>
    <i name="e_fr_energy">   -191.62841656 </i>
    <i name="e_wo_entrp">   -191.40440778 </i>
    <i name="e_0_energy">   -191.51641217 </i>
   </energy>
  </scstep>
  <scstep>
   <time name="dav">   28.11   28.18</time>
   <time name="total">   28.62   28.70</time>
   <energy>
    <i name="e_fr_energy">   -191.62952224 </i>
    <i name="e_wo_entrp">   -191.40647500 </i>
    <i name="e_0_energy">   -191.51799862 </i>
   </energy>
  </scstep>
  <scstep>
   <time name="dav">   28.09   28.16</time>
   <time name="total">   28.60   28.67</time>
   <energy>
    <i name="e_fr_energy">   -191.62819570 </i>
    <i name="e_wo_entrp">   -191.40504394 </i>
    <i name="e_0_energy">   -191.51661982 </i>
   </energy>
  </scstep>
  <scstep>
   <time name="dav">   25.52   25.58</time>
   <time name="total">   26.02   26.10</time>
   <energy>
    <i name="e_fr_energy">   -191.62768780 </i>
    <i name="e_wo_entrp">   -191.40451810 </i>
    <i name="e_0_energy">   -191.51610295 </i>
   </energy>
  </scstep>
  <scstep>
   <time name="dav">   18.77   18.82</time>
   <time name="total">   18.81   18.86</time>
   <energy>
    <i name="alphaZ">     89.74672910 </i>
    <i name="ewald">  44459.88641970 </i>
    <i name="hartreedc"> -50470.03827200 </i>
    <i name="XCdc">   -233.50572013 </i>
    <i name="pawpsdc">   4083.51128125 </i>
    <i name="pawaedc">  -3499.49003978 </i>
    <i name="eentropy">     -0.22321451 </i>
    <i name="bandstr">  -1382.95740862 </i>
    <i name="atom">   6761.44252427 </i>
    <i name="e_fr_energy">   -191.62770072 </i>
    <i name="e_wo_entrp">   -191.40448621 </i>
    <i name="e_0_energy">   -191.51609346 </i>
   </energy>
  </scstep>
  <structure>
   <crystal>
    <varray name="basis" >
     <v>       8.28655382       4.79790972       0.00000000 </v>
     <v>      -8.28646495       4.79777011       0.00000000 </v>
     <v>       0.00000000       0.00000000      30.00000000 </v>
    </varray>
    <i name="volume">   2385.44072941 </i>
    <varray name="rec_basis" >
     <v>       0.06033816       0.10421301       0.00000000 </v>
     <v>      -0.06033992       0.10421412       0.00000000 </v>
     <v>       0.00000000       0.00000000       0.03333333 </v>
    </varray>
   </crystal>
   <varray name="positions" >
    <v>      -0.00715516      -0.01243290      -0.00043282 </v>
    <v>       0.33384597       0.66681023       0.00048697 </v>
    <v>       0.33135915      -0.00196046       0.00051771 </v>
    <v>      -0.01766375       0.65297176      -0.00004955 </v>
    <v>       0.67027692       0.65391437      -0.00018182 </v>
    <v>       0.67807866       0.35079600      -0.00007847 </v>
    <v>       0.98559238       0.33881103      -0.00023084 </v>
    <v>       0.35312902       0.34305994      -0.00063278 </v>
    <v>       0.67055534       0.00400494       0.00067155 </v>
    <v>       0.10946591       0.21926928       0.95221476 </v>
    <v>       0.22005528       0.10716163       0.04902286 </v>
    <v>       0.11563633       0.55863582       0.94872275 </v>
    <v>       0.22373226       0.44801271       0.04966934 </v>
    <v>       0.11283435       0.89221116       0.95061401 </v>
    <v>       0.22509596       0.77937587       0.04878122 </v>
    <v>       0.44340707       0.21749607       0.94883122 </v>
    <v>       0.55113240       0.11001366       0.05012864 </v>
    <v>       0.44287615       0.55928372       0.94823104 </v>
    <v>       0.55602314       0.44395910       0.05490538 </v>
    <v>       0.43942357       0.88636485       0.95025106 </v>
    <v>       0.55167703       0.77498171       0.04986572 </v>
    <v>       0.77585104       0.22233631       0.94672697 </v>
    <v>       0.89314165       0.10975487       0.05091056 </v>
    <v>       0.77783658       0.55597022       0.94389167 </v>
    <v>       0.88847335       0.44429547       0.05550183 </v>
    <v>       0.78199490       0.89041572       0.94910574 </v>
    <v>       0.89153896       0.78270138       0.05255520 </v>
   </varray>
  </structure>
  <varray name="forces" >
   <v>       0.25498458      -0.49159551      -0.00156847 </v>
   <v>       0.05241810       0.01245950       0.03276234 </v>
   <v>      -0.03858836      -0.16385804       0.05808744 </v>
   <v>      -0.04005998      -0.12844173      -0.03016368 </v>
   <v>       0.15403998      -0.10027688      -0.01395336 </v>
   <v>       0.02467037       0.12024002      -0.02877225 </v>
   <v>      -0.54574861      -0.19279539      -0.00404413 </v>
   <v>       0.33531165       0.52670497      -0.02520344 </v>
   <v>      -0.09381771       0.25202666       0.04554378 </v>
   <v>      -0.07497386       0.13796151       0.49732903 </v>
   <v>      -0.06004322       0.05476296      -0.13606162 </v>
   <v>      -0.07665485      -0.07283843      -0.00318403 </v>
   <v>       0.03524979      -0.09196262      -0.22585950 </v>
   <v>       0.04871634      -0.11234977      -0.03090195 </v>
   <v>      -0.04332544      -0.10254218      -0.04458233 </v>
   <v>       0.07899439       0.12060272      -0.04359921 </v>
   <v>      -0.04014581       0.07984678      -0.07443056 </v>
   <v>       0.04114174       0.09139525      -0.09480686 </v>
   <v>       0.07765918       0.08099838       0.17438756 </v>
   <v>       0.01807425       0.02752474       0.05254808 </v>
   <v>       0.08020318       0.08607208      -0.11597210 </v>
   <v>      -0.11399271      -0.03346479      -0.14722156 </v>
   <v>      -0.01361887       0.08768858      -0.03103732 </v>
   <v>      -0.00462084       0.00014905      -0.13819521 </v>
   <v>      -0.09519364      -0.00513581       0.21801466 </v>
   <v>       0.00704521      -0.10208718       0.00128144 </v>
   <v>       0.03227512      -0.08108487       0.10960325 </v>
  </varray>
  <varray name="stress" >
   <v>      -0.05301264       0.10336053       0.04332021 </v>
   <v>       0.10336045      -0.09748983       0.06369534 </v>
   <v>       0.04332004       0.06369510      -1.46150333 </v>
  </varray>
  <energy>
   <i name="e_fr_energy">   -191.62770072 </i>
   <i name="e_wo_entrp">   -191.51609346 </i>
   <i name="e_0_energy">     -0.22321451 </i>
  </energy>
  <time name="totalsc">  287.65  288.42</time>
 </calculation>
 <calculation>
  <scstep>
   <time name="dav">   21.94   21.99</time>
   <time name="total">   22.45   22.50</time>
   <energy>
    <i name="alphaZ">     89.78367585 </i>
    <i name="ewald">  44482.02748681 </i>
    <i name="hartreedc"> -50492.28477017 </i>
    <i name="XCdc">   -233.46275793 </i>
    <i name="pawpsdc">   4083.22120979 </i>
    <i name="pawaedc">  -3499.19711265 </i>
    <i name="eentropy">     -0.22141268 </i>
    <i name="bandstr">  -1383.00629999 </i>
    <i name="atom">   6761.44252427 </i>
    <i name="e_fr_energy">   -191.69745670 </i>
    <i name="e_wo_entrp">   -191.47604401 </i>
    <i name="e_0_energy">   -191.58675035 </i>
   </energy>
  </scstep>
  <scstep>
   <time name="dav">   31.54   31.62</time>
   <time name="total">   32.05   32.13</time>
   <energy>
    <i name="e_fr_energy">   -191.73025599 </i>
    <i name="e_wo_entrp">   -191.50204850 </i>
    <i name="e_0_energy">   -191.61615225 </i>
   </energy>
  </scstep>
  <scstep>
   <time name="dav">   30.94   31.01</time>
   <time name="total">   31.45   31.53</time>
   <energy>
    <i name="e_fr_energy">   -191.70378008 </i>
    <i name="e_wo_entrp">   -191.48184413 </i>
    <i name="e_0_energy">   -191.59281210 </i>
   </energy>
  </scstep>
  <scstep>
   <time name="dav">   28.26   28.33</time>
   <time name="total">   28.77   28.85</time>
   <energy>
    <i name="e_fr_energy">   -191.70451272 </i>
    <i name="e_wo_entrp">   -191.48361345 </i>
    <i name="e_0_energy">   -191.59406308 </i>
   </energy>
  </scstep>
  <scstep>
   <time name="dav">   28.42   28.49</time>
   <time name="total">   28.93   29.01</time>
   <energy>
    <i name="e_fr_energy">   -191.70159756 </i>
    <i name="e_wo_entrp">   -191.47860509 </i>
    <i name="e_0_energy">   -191.59010132 </i>
   </energy>
  </scstep>
  <scstep>
   <time name="dav">   28.00   28.06</time>
   <time name="total">   28.50   28.58</time>
   <energy>
    <i name="e_fr_energy">   -191.70187477 </i>
    <i name="e_wo_entrp">   -191.47944844 </i>
    <i name="e_0_energy">   -191.59066161 </i>
   </energy>
  </scstep>
  <scstep>
   <time name="dav">   25.87   25.93</time>
   <time name="total">   26.38   26.45</time>
   <energy>
    <i name="e_fr_energy">   -191.70157720 </i>
    <i name="e_wo_entrp">   -191.47908411 </i>
    <i name="e_0_energy">   -191.59033066 </i>
   </energy>
  </scstep>
  <scstep>
[...]
      <set comment="kpoint 31">
       <r>  -17.5075    1.0000 </r>
       <r>  -17.2274    1.0000 </r>
       <r>  -16.9327    1.0000 </r>
       <r>  -16.6141    1.0000 </r>
       <r>  -16.5038    1.0000 </r>
       <r>  -16.3989    1.0000 </r>
       <r>  -16.3111    1.0000 </r>
       <r>  -16.1636    1.0000 </r>
       <r>  -16.0932    1.0000 </r>
       <r>  -16.0302    1.0000 </r>
       <r>  -15.9450    1.0000 </r>
       <r>  -15.9241    1.0000 </r>
       <r>  -15.7970    1.0000 </r>
       <r>  -15.7522    1.0000 </r>
       <r>  -15.5925    1.0000 </r>
       <r>  -15.5230    1.0000 </r>
       <r>  -15.3810    1.0000 </r>
       <r>  -15.2931    1.0000 </r>
       <r>   -9.6856    1.0000 </r>
       <r>   -9.4331    1.0000 </r>
       <r>   -9.2787    1.0000 </r>
       <r>   -8.9346    1.0000 </r>
       <r>   -8.8557    1.0000 </r>
       <r>   -8.7640    1.0000 </r>
       <r>   -8.5467    1.0000 </r>
       <r>   -8.4169    1.0000 </r>
       <r>   -8.3745    1.0000 </r>
       <r>   -8.3325    1.0000 </r>
       <r>   -8.3023    1.0000 </r>
       <r>   -8.2001    1.0000 </r>
       <r>   -8.1161    1.0000 </r>
       <r>   -8.0599    1.0000 </r>
       <r>   -7.9983    1.0000 </r>
       <r>   -7.8395    1.0000 </r>
       <r>   -7.8083    1.0000 </r>
       <r>   -7.6459    1.0000 </r>
       <r>   -7.6010    1.0000 </r>
       <r>   -7.4794    1.0000 </r>
       <r>   -7.2861    1.0000 </r>
       <r>   -7.2475    1.0000 </r>
       <r>   -7.1458    1.0000 </r>
       <r>   -7.1196    1.0000 </r>
       <r>   -7.0147    1.0000 </r>
       <r>   -6.9784    1.0000 </r>
       <r>   -6.8440    1.0000 </r>
       <r>   -6.7774    1.0000 </r>
       <r>   -6.6377    1.0000 </r>
       <r>   -6.5782    1.0000 </r>
       <r>   -6.5391    1.0000 </r>
       <r>   -6.4857    1.0000 </r>
       <r>   -6.4108    1.0000 </r>
       <r>   -6.3552    1.0000 </r>
       <r>   -6.3091    1.0000 </r>
       <r>   -6.2338    1.0000 </r>
       <r>   -6.2026    1.0000 </r>
       <r>   -6.0729    1.0000 </r>
       <r>   -5.9987    1.0000 </r>
       <r>   -5.9364    1.0000 </r>
       <r>   -5.8666    1.0000 </r>
       <r>   -5.7897    1.0000 </r>
       <r>   -5.7432    1.0000 </r>
       <r>   -5.6545    1.0000 </r>
       <r>   -5.5756    1.0000 </r>
       <r>   -5.3960    1.0000 </r>
       <r>   -5.2785    1.0000 </r>
       <r>   -5.1743    1.0000 </r>
       <r>   -5.0517    1.0000 </r>
       <r>   -4.9268    1.0000 </r>
       <r>   -4.7999    1.0000 </r>
       <r>   -4.7493    1.0000 </r>
       <r>   -4.5568    1.0000 </r>
       <r>   -4.4368    1.0000 </r>
       <r>   -4.3321    1.0000 </r>
       <r>   -4.2401    1.0000 </r>
       <r>   -4.1597    1.0000 </r>
       <r>   -4.0439    1.0000 </r>
       <r>   -3.9026    1.0000 </r>
       <r>   -3.6419    0.9972 </r>
       <r>   -3.4949    0.9579 </r>
       <r>   -3.2620    0.5321 </r>
       <r>   -2.9133    0.0085 </r>
       <r>   -2.7434    0.0002 </r>
       <r>   -2.5822    0.0000 </r>
       <r>   -2.5118    0.0000 </r>
       <r>   -2.4017    0.0000 </r>
       <r>   -2.3235    0.0000 </r>
       <r>   -2.2692    0.0000 </r>
       <r>   -2.0984    0.0000 </r>
       <r>   -2.0055    0.0000 </r>
       <r>   -1.9464    0.0000 </r>
       <r>   -1.9001    0.0000 </r>
       <r>   -1.7510    0.0000 </r>
       <r>   -1.4951    0.0000 </r>
       <r>   -1.2695    0.0000 </r>
       <r>   -1.2076    0.0000 </r>
       <r>   -1.1321    0.0000 </r>
       <r>   -1.1120    0.0000 </r>
       <r>   -1.0080    0.0000 </r>
       <r>   -0.9585    0.0000 </r>
       <r>   -0.9231    0.0000 </r>
       <r>   -0.8489    0.0000 </r>
       <r>   -0.7719    0.0000 </r>
       <r>   -0.7056    0.0000 </r>
       <r>   -0.6140    0.0000 </r>
       <r>   -0.5076    0.0000 </r>
       <r>   -0.3823    0.0000 </r>
       <r>   -0.2258    0.0000 </r>
       <r>   -0.0962    0.0000 </r>
       <r>    0.1146    0.0000 </r>
       <r>    0.1833    0.0000 </r>
       <r>    0.4072    0.0000 </r>
       <r>    0.6178    0.0000 </r>
       <r>    0.6749    0.0000 </r>
       <r>    0.9667    0.0000 </r>
       <r>    1.0028    0.0000 </r>
       <r>    1.2896    0.0000 </r>
       <r>    1.4513    0.0000 </r>
       <r>    2.1170    0.0000 </r>
       <r>    2.2749    0.0000 </r>
       <r>    2.3719    0.0000 </r>
      </set>
      <set comment="kpoint 32">
       <r>  -17.5137    1.0000 </r>
       <r>  -17.1196    1.0000 </r>
       <r>  -17.0879    1.0000 </r>
       <r>  -16.6144    1.0000 </r>
       <r>  -16.4006    1.0000 </r>
       <r>  -16.3559    1.0000 </r>
       <r>  -16.3162    1.0000 </r>
       <r>  -16.2233    1.0000 </r>
       <r>  -16.1109    1.0000 </r>
       <r>  -16.0675    1.0000 </r>
       <r>  -15.9596    1.0000 </r>
       <r>  -15.9122    1.0000 </r>
       <r>  -15.7943    1.0000 </r>
       <r>  -15.7188    1.0000 </r>
       <r>  -15.6076    1.0000 </r>
       <r>  -15.5145    1.0000 </r>
       <r>  -15.3967    1.0000 </r>
       <r>  -15.2742    1.0000 </r>
       <r>   -9.6223    1.0000 </r>
       <r>   -9.5623    1.0000 </r>
       <r>   -9.3474    1.0000 </r>
       <r>   -8.9117    1.0000 </r>
       <r>   -8.7540    1.0000 </r>
       <r>   -8.5983    1.0000 </r>
       <r>   -8.5266    1.0000 </r>
       <r>   -8.4463    1.0000 </r>
       <r>   -8.4022    1.0000 </r>
       <r>   -8.3536    1.0000 </r>
       <r>   -8.2825    1.0000 </r>
       <r>   -8.2503    1.0000 </r>
       <r>   -8.1392    1.0000 </r>
       <r>   -8.0818    1.0000 </r>
       <r>   -8.0227    1.0000 </r>
       <r>   -7.9133    1.0000 </r>
       <r>   -7.7692    1.0000 </r>
       <r>   -7.7186    1.0000 </r>
       <r>   -7.5423    1.0000 </r>
       <r>   -7.4500    1.0000 </r>
       <r>   -7.3228    1.0000 </r>
       <r>   -7.2469    1.0000 </r>
       <r>   -7.1975    1.0000 </r>
       <r>   -7.0757    1.0000 </r>
       <r>   -7.0069    1.0000 </r>
       <r>   -6.8947    1.0000 </r>
       <r>   -6.8653    1.0000 </r>
       <r>   -6.7539    1.0000 </r>
       <r>   -6.6888    1.0000 </r>
       <r>   -6.6033    1.0000 </r>
       <r>   -6.5071    1.0000 </r>
       <r>   -6.4605    1.0000 </r>
       <r>   -6.4330    1.0000 </r>
       <r>   -6.3643    1.0000 </r>
       <r>   -6.2851    1.0000 </r>
       <r>   -6.2568    1.0000 </r>
       <r>   -6.1867    1.0000 </r>
       <r>   -6.0589    1.0000 </r>
       <r>   -5.9643    1.0000 </r>
       <r>   -5.9261    1.0000 </r>
       <r>   -5.8806    1.0000 </r>
       <r>   -5.7565    1.0000 </r>
       <r>   -5.6623    1.0000 </r>
       <r>   -5.6221    1.0000 </r>
       <r>   -5.5582    1.0000 </r>
       <r>   -5.4676    1.0000 </r>
       <r>   -5.3171    1.0000 </r>
       <r>   -5.2056    1.0000 </r>
       <r>   -5.0804    1.0000 </r>
       <r>   -4.9463    1.0000 </r>
       <r>   -4.9048    1.0000 </r>
       <r>   -4.6724    1.0000 </r>
       <r>   -4.5771    1.0000 </r>
       <r>   -4.4706    1.0000 </r>
       <r>   -4.3939    1.0000 </r>
       <r>   -4.2149    1.0000 </r>
       <r>   -4.1671    1.0000 </r>
       <r>   -4.0201    1.0000 </r>
       <r>   -3.8978    1.0000 </r>
       <r>   -3.6308    0.9964 </r>
       <r>   -3.4915    0.9558 </r>
       <r>   -3.1293    0.1954 </r>
       <r>   -2.9331    0.0124 </r>
       <r>   -2.7497    0.0002 </r>
       <r>   -2.5945    0.0000 </r>
       <r>   -2.4885    0.0000 </r>
       <r>   -2.4298    0.0000 </r>
       <r>   -2.3621    0.0000 </r>
       <r>   -2.2526    0.0000 </r>
       <r>   -2.1271    0.0000 </r>
       <r>   -2.0237    0.0000 </r>
       <r>   -1.9766    0.0000 </r>
       <r>   -1.9024    0.0000 </r>
       <r>   -1.7195    0.0000 </r>
       <r>   -1.4915    0.0000 </r>
       <r>   -1.2770    0.0000 </r>
       <r>   -1.2005    0.0000 </r>
       <r>   -1.1557    0.0000 </r>
       <r>   -1.0851    0.0000 </r>
       <r>   -1.0050    0.0000 </r>
       <r>   -0.9799    0.0000 </r>
       <r>   -0.9320    0.0000 </r>
       <r>   -0.8374    0.0000 </r>
       <r>   -0.7385    0.0000 </r>
       <r>   -0.6909    0.0000 </r>
       <r>   -0.5833    0.0000 </r>
       <r>   -0.5353    0.0000 </r>
       <r>   -0.3323    0.0000 </r>
       <r>   -0.1668    0.0000 </r>
       <r>   -0.0993    0.0000 </r>
       <r>    0.0642    0.0000 </r>
       <r>    0.2208    0.0000 </r>
       <r>    0.4416    0.0000 </r>
       <r>    0.6408    0.0000 </r>
       <r>    0.7414    0.0000 </r>
       <r>    0.9286    0.0000 </r>
       <r>    0.9804    0.0000 </r>
       <r>    1.2018    0.0000 </r>
       <r>    1.3604    0.0000 </r>
       <r>    2.0855    0.0000 </r>
       <r>    2.2451    0.0000 </r>
       <r>    2.5440    0.0000 </r>
      </set>
      <set comment="kpoint 33">
       <r>  -17.4895    1.0000 </r>
       <r>  -17.2601    1.0000 </r>
       <r>  -16.9171    1.0000 </r>
       <r>  -16.6170    1.0000 </r>
       <r>  -16.5015    1.0000 </r>
       <r>  -16.3739    1.0000 </r>
       <r>  -16.3097    1.0000 </r>
       <r>  -16.2157    1.0000 </r>
       <r>  -16.0959    1.0000 </r>
       <r>  -16.0442    1.0000 </r>
       <r>  -15.9776    1.0000 </r>
       <r>  -15.8712    1.0000 </r>
       <r>  -15.7965    1.0000 </r>
       <r>  -15.6858    1.0000 </r>
       <r>  -15.6240    1.0000 </r>
       <r>  -15.5085    1.0000 </r>
       <r>  -15.4382    1.0000 </r>
       <r>  -15.2597    1.0000 </r>
       <r>   -9.7301    1.0000 </r>
       <r>   -9.4342    1.0000 </r>
       <r>   -9.2769    1.0000 </r>
       <r>   -8.9488    1.0000 </r>
       <r>   -8.8402    1.0000 </r>
       <r>   -8.7084    1.0000 </r>
       <r>   -8.5691    1.0000 </r>
       <r>   -8.4716    1.0000 </r>
       <r>   -8.3809    1.0000 </r>
       <r>   -8.3158    1.0000 </r>
       <r>   -8.2627    1.0000 </r>
       <r>   -8.2035    1.0000 </r>
       <r>   -8.1550    1.0000 </r>
       <r>   -8.0812    1.0000 </r>
       <r>   -7.9084    1.0000 </r>
       <r>   -7.8657    1.0000 </r>
       <r>   -7.7984    1.0000 </r>
       <r>   -7.7549    1.0000 </r>
       <r>   -7.5412    1.0000 </r>
       <r>   -7.4215    1.0000 </r>
       <r>   -7.3242    1.0000 </r>
       <r>   -7.2618    1.0000 </r>
       <r>   -7.1253    1.0000 </r>
       <r>   -7.0708    1.0000 </r>
       <r>   -6.9954    1.0000 </r>
       <r>   -6.8812    1.0000 </r>
       <r>   -6.8663    1.0000 </r>
       <r>   -6.7821    1.0000 </r>
       <r>   -6.7350    1.0000 </r>
       <r>   -6.5985    1.0000 </r>
       <r>   -6.5324    1.0000 </r>
       <r>   -6.4425    1.0000 </r>
       <r>   -6.4012    1.0000 </r>
       <r>   -6.3105    1.0000 </r>
       <r>   -6.2667    1.0000 </r>
       <r>   -6.2276    1.0000 </r>
       <r>   -6.1785    1.0000 </r>
       <r>   -6.0933    1.0000 </r>
       <r>   -6.0142    1.0000 </r>
       <r>   -5.9505    1.0000 </r>
       <r>   -5.8829    1.0000 </r>
       <r>   -5.8331    1.0000 </r>
       <r>   -5.7576    1.0000 </r>
       <r>   -5.6786    1.0000 </r>
       <r>   -5.6012    1.0000 </r>
       <r>   -5.3549    1.0000 </r>
       <r>   -5.2813    1.0000 </r>
       <r>   -5.1534    1.0000 </r>
       <r>   -5.0902    1.0000 </r>
       <r>   -4.9493    1.0000 </r>
       <r>   -4.9095    1.0000 </r>
       <r>   -4.6490    1.0000 </r>
       <r>   -4.5460    1.0000 </r>
       <r>   -4.4855    1.0000 </r>
       <r>   -4.4077    1.0000 </r>
       <r>   -4.2232    1.0000 </r>
       <r>   -4.1921    1.0000 </r>
       <r>   -4.0336    1.0000 </r>
       <r>   -3.8838    1.0000 </r>
       <r>   -3.6290    0.9963 </r>
       <r>   -3.5281    0.9751 </r>
       <r>   -2.9859    0.0306 </r>
       <r>   -2.9264    0.0109 </r>
       <r>   -2.7726    0.0004 </r>
       <r>   -2.5932    0.0000 </r>
       <r>   -2.5199    0.0000 </r>
       <r>   -2.4614    0.0000 </r>
       <r>   -2.4104    0.0000 </r>
       <r>   -2.2332    0.0000 </r>
       <r>   -2.1556    0.0000 </r>
       <r>   -2.0410    0.0000 </r>
       <r>   -1.9822    0.0000 </r>
       <r>   -1.9182    0.0000 </r>
       <r>   -1.6238    0.0000 </r>
       <r>   -1.4743    0.0000 </r>
       <r>   -1.2971    0.0000 </r>
       <r>   -1.2061    0.0000 </r>
       <r>   -1.1523    0.0000 </r>
       <r>   -1.1166    0.0000 </r>
       <r>   -1.0515    0.0000 </r>
       <r>   -0.9699    0.0000 </r>
       <r>   -0.9157    0.0000 </r>
       <r>   -0.8320    0.0000 </r>
       <r>   -0.7399    0.0000 </r>
       <r>   -0.6740    0.0000 </r>
       <r>   -0.5565    0.0000 </r>
       <r>   -0.4913    0.0000 </r>
       <r>   -0.2523    0.0000 </r>
       <r>   -0.1868    0.0000 </r>
       <r>   -0.1308    0.0000 </r>
       <r>   -0.0044    0.0000 </r>
       <r>    0.2545    0.0000 </r>
       <r>    0.5315    0.0000 </r>
       <r>    0.6486    0.0000 </r>
       <r>    0.8055    0.0000 </r>
       <r>    0.8852    0.0000 </r>
       <r>    0.9933    0.0000 </r>
       <r>    1.1168    0.0000 </r>
       <r>    1.3148    0.0000 </r>
       <r>    2.1153    0.0000 </r>
       <r>    2.2773    0.0000 </r>
       <r>    2.3796    0.0000 </r>
      </set>
      <set comment="kpoint 34">
       <r>  -17.4586    1.0000 </r>
       <r>  -17.3327    1.0000 </r>
       <r>  -16.7429    1.0000 </r>
       <r>  -16.6825    1.0000 </r>
       <r>  -16.6146    1.0000 </r>
       <r>  -16.3820    1.0000 </r>
       <r>  -16.2686    1.0000 </r>
       <r>  -16.2490    1.0000 </r>
       <r>  -16.0700    1.0000 </r>
       <r>  -16.0291    1.0000 </r>
       <r>  -15.9914    1.0000 </r>
       <r>  -15.8227    1.0000 </r>
       <r>  -15.8130    1.0000 </r>
       <r>  -15.6698    1.0000 </r>
       <r>  -15.6290    1.0000 </r>
       <r>  -15.5050    1.0000 </r>
       <r>  -15.4699    1.0000 </r>
       <r>  -15.2551    1.0000 </r>
       <r>   -9.7712    1.0000 </r>
       <r>   -9.3424    1.0000 </r>
       <r>   -9.1653    1.0000 </r>
       <r>   -9.0646    1.0000 </r>
       <r>   -8.8711    1.0000 </r>
       <r>   -8.8239    1.0000 </r>
       <r>   -8.5881    1.0000 </r>
       <r>   -8.4929    1.0000 </r>
       <r>   -8.3800    1.0000 </r>
       <r>   -8.3413    1.0000 </r>
       <r>   -8.2385    1.0000 </r>
       <r>   -8.1502    1.0000 </r>
       <r>   -8.1292    1.0000 </r>
       <r>   -8.0424    1.0000 </r>
       <r>   -7.8933    1.0000 </r>
       <r>   -7.8163    1.0000 </r>
       <r>   -7.8066    1.0000 </r>
       <r>   -7.7829    1.0000 </r>
       <r>   -7.5150    1.0000 </r>
       <r>   -7.4445    1.0000 </r>
       <r>   -7.2705    1.0000 </r>
       <r>   -7.2582    1.0000 </r>
       <r>   -7.1197    1.0000 </r>
       <r>   -7.0235    1.0000 </r>
       <r>   -7.0062    1.0000 </r>
       <r>   -6.9100    1.0000 </r>
       <r>   -6.8923    1.0000 </r>
       <r>   -6.7971    1.0000 </r>
       <r>   -6.7439    1.0000 </r>
       <r>   -6.5717    1.0000 </r>
       <r>   -6.5387    1.0000 </r>
       <r>   -6.4297    1.0000 </r>
       <r>   -6.3725    1.0000 </r>
       <r>   -6.3465    1.0000 </r>
       <r>   -6.2686    1.0000 </r>
       <r>   -6.1583    1.0000 </r>
       <r>   -6.1448    1.0000 </r>
       <r>   -6.1109    1.0000 </r>
       <r>   -6.1002    1.0000 </r>
       <r>   -5.9817    1.0000 </r>
       <r>   -5.9149    1.0000 </r>
       <r>   -5.8472    1.0000 </r>
       <r>   -5.8290    1.0000 </r>
       <r>   -5.7131    1.0000 </r>
       <r>   -5.5631    1.0000 </r>
       <r>   -5.3559    1.0000 </r>
       <r>   -5.3003    1.0000 </r>
       <r>   -5.1025    1.0000 </r>
       <r>   -5.0810    1.0000 </r>
       <r>   -4.9418    1.0000 </r>
       <r>   -4.7829    1.0000 </r>
       <r>   -4.7482    1.0000 </r>
       <r>   -4.5129    1.0000 </r>
       <r>   -4.4653    1.0000 </r>
       <r>   -4.3818    1.0000 </r>
       <r>   -4.2673    1.0000 </r>
       <r>   -4.2091    1.0000 </r>
       <r>   -4.0436    1.0000 </r>
       <r>   -3.8744    1.0000 </r>
       <r>   -3.6307    0.9964 </r>
       <r>   -3.5506    0.9830 </r>
       <r>   -2.9323    0.0122 </r>
       <r>   -2.8936    0.0058 </r>
       <r>   -2.8017    0.0008 </r>
       <r>   -2.5768    0.0000 </r>
       <r>   -2.5581    0.0000 </r>
       <r>   -2.4648    0.0000 </r>
       <r>   -2.4482    0.0000 </r>
       <r>   -2.2234    0.0000 </r>
       <r>   -2.1657    0.0000 </r>
       <r>   -2.0406    0.0000 </r>
       <r>   -1.9840    0.0000 </r>
       <r>   -1.9256    0.0000 </r>
       <r>   -1.5698    0.0000 </r>
       <r>   -1.4555    0.0000 </r>
       <r>   -1.3039    0.0000 </r>
       <r>   -1.2465    0.0000 </r>
       <r>   -1.1425    0.0000 </r>
       <r>   -1.1234    0.0000 </r>
       <r>   -1.0766    0.0000 </r>
       <r>   -0.9425    0.0000 </r>
       <r>   -0.9229    0.0000 </r>
       <r>   -0.8181    0.0000 </r>
       <r>   -0.7718    0.0000 </r>
       <r>   -0.6677    0.0000 </r>
       <r>   -0.5227    0.0000 </r>
       <r>   -0.4639    0.0000 </r>
       <r>   -0.2326    0.0000 </r>
       <r>   -0.2163    0.0000 </r>
       <r>   -0.1396    0.0000 </r>
       <r>   -0.0294    0.0000 </r>
       <r>    0.2627    0.0000 </r>
       <r>    0.5832    0.0000 </r>
       <r>    0.6546    0.0000 </r>
       <r>    0.8062    0.0000 </r>
       <r>    0.8712    0.0000 </r>
       <r>    1.0341    0.0000 </r>
       <r>    1.0624    0.0000 </r>
       <r>    1.3134    0.0000 </r>
       <r>    2.1839    0.0000 </r>
       <r>    2.2469    0.0000 </r>
       <r>    2.3689    0.0000 </r>
      </set>
     </set>
    </set>
   </array>
  </eigenvalues>
  <separator name="orbital magnetization" >
   <v name="MAGDIPOLOUT">      0.00000000      0.00000000      0.00000000</v>
  </separator>
 </calculation>
 <structure name="finalpos" >
  <crystal>
   <varray name="basis" >
    <v>       8.36755380       4.84209615       0.00000000 </v>
    <v>      -8.36980696       4.84590026       0.00000000 </v>
    <v>       0.00000000       0.00000000      30.00000000 </v>
   </varray>
   <i name="volume">   2432.27223657 </i>
   <varray name="rec_basis" >
    <v>       0.05977004       0.10323442       0.00000000 </v>
    <v>      -0.05972312       0.10320663       0.00000000 </v>
    <v>       0.00000000       0.00000000       0.03333333 </v>
   </varray>
  </crystal>
  <varray name="positions" >
   <v>      -0.01860762      -0.03693742      -0.00060068 </v>
   <v>       0.29901309       0.64845170       0.00067919 </v>
   <v>       0.30914111      -0.02476173      -0.00034553 </v>
   <v>      -0.00784604       0.66025940      -0.00000545 </v>
   <v>       0.68022850       0.64661212       0.00024557 </v>
   <v>       0.68598190       0.35425149      -0.00002022 </v>
   <v>       0.98133985       0.34756018      -0.00004212 </v>
   <v>       0.37268812       0.35008294      -0.00160766 </v>
   <v>       0.68339561       0.03961943       0.00177799 </v>
   <v>       0.11201957       0.21981488       0.95970215 </v>
   <v>       0.21756960       0.10532101       0.04585264 </v>
   <v>       0.11266658       0.55724830       0.94576251 </v>
   <v>       0.22318916       0.44362780       0.04864311 </v>
   <v>       0.10821071       0.88924681       0.94831007 </v>
   <v>       0.22352127       0.77573637       0.05118194 </v>
   <v>       0.44797845       0.21423912       0.95032787 </v>
   <v>       0.54613733       0.11427440       0.04940421 </v>
   <v>       0.44781125       0.56261058       0.95013181 </v>
   <v>       0.56149695       0.44514028       0.05625194 </v>
   <v>       0.44032013       0.88493959       0.95377263 </v>
   <v>       0.55372102       0.78018883       0.04047657 </v>
   <v>       0.78030417       0.23015450       0.94403143 </v>
   <v>       0.89735742       0.11545700       0.04980717 </v>
   <v>       0.78350107       0.55722486       0.94316250 </v>
   <v>       0.89028085       0.44994246       0.05688877 </v>
   <v>       0.77659261       0.88978501       0.95168893 </v>
   <v>       0.89020180       0.77812453       0.05452253 </v>
  </varray>
 </structure>
</modeling>
