unknown system                          
           1
     8.854709    5.107721    0.000000
    -8.853436    5.105532    0.000000
     0.000000    0.000000   30.000000
   V    Mo   W    S 
   3   3   3  18
Direct configuration=     1
   0.00000000  0.00000000  0.00000000
   0.33333334  0.66666669  0.00000000
   0.33333334  0.00000000  0.00000000
   0.00000000  0.66666669  0.00000000
   0.66666669  0.66666669  0.00000000
   0.66666669  0.33333334  0.00000000
   1.00000000  0.33333334  0.00000000
   0.33333334  0.33333334  0.00000000
   0.66666669  0.00000000  0.00000000
   0.11068511  0.22244981  0.95539999
   0.22244981  0.11068511  0.04460000
   0.11068511  0.55578315  0.95539999
   0.22244981  0.44401845  0.04460000
   0.11068511  0.88911647  0.95539999
   0.22244981  0.77735180  0.04460000
   0.44401845  0.22244981  0.95539999
   0.55578315  0.11068511  0.04460000
   0.44401845  0.55578315  0.95539999
   0.55578315  0.44401845  0.04460000
   0.44401845  0.88911647  0.95539999
   0.55578315  0.77735180  0.04460000
   0.77735180  0.22244981  0.95539999
   0.88911647  0.11068511  0.04460000
   0.77735180  0.55578315  0.95539999
   0.88911647  0.44401845  0.04460000
   0.77735180  0.88911647  0.95539999
   0.88911647  0.77735180  0.04460000
unknown system                          
           1
     8.667321    5.001768    0.000000
    -8.666157    4.999764    0.000000
     0.000000    0.000000   30.000000
   V    Mo   W    S 
   3   3   3  18
Direct configuration=     2
  -0.00075720 -0.00232720  0.00008916
   0.33326531  0.66701636 -0.00008737
   0.33286405 -0.00041630  0.00004271
  -0.00234170  0.66576510  0.00004803
   0.66806819  0.66511965 -0.00014566
   0.66806630  0.33616690  0.00001312
   0.99850338  0.33490244  0.00011449
   0.33625181  0.33444753 -0.00005017
   0.66632197 -0.00024722  0.00002192
   0.10925994  0.21839158  0.95205764
   0.22046209  0.10742949  0.04690121
   0.11520931  0.55678428  0.95191540
   0.22376733  0.44793124  0.04805185
   0.11298394  0.89320544  0.95311833
   0.22654388  0.77965126  0.04683395
   0.44171235  0.21811796  0.95193518
   0.55150979  0.10842458  0.04800222
   0.44140144  0.55697454  0.95196729
   0.55443569  0.44375740  0.04929133
   0.44078214  0.88713385  0.95306701
   0.55145776  0.77647415  0.04796833
   0.77798305  0.22165010  0.95074672
   0.89091651  0.10899751  0.04805956
   0.77757847  0.55547266  0.95065796
   0.88923231  0.44374062  0.04932377
   0.78161733  0.89135889  0.95195034
   0.89111902  0.78229163  0.04810557
unknown system                          
           1
     8.485119    4.900901    0.000000
    -8.485026    4.900755    0.000000
     0.000000    0.000000   30.000000
   V    Mo   W    S 
   3   3   3  18
Direct configuration=     3
  -0.00108028 -0.00298670  0.00005175
   0.33326948  0.66707098 -0.00004519
   0.33278156 -0.00050431  0.00009288
  -0.00355913  0.66489044  0.00004914
   0.66839248  0.66431258 -0.00016567
   0.66878837  0.33736591  0.00000899
   0.99778296  0.33525854  0.00007728
   0.33732744  0.33498171 -0.00011842
   0.66647279 -0.00010228  0.00008559
   0.10932270  0.21856824  0.95227543
   0.22053472  0.10760553  0.04682869
   0.11519133  0.55663787  0.95192924
   0.22370100  0.44776105  0.04795219
   0.11305043  0.89326493  0.95316131
   0.22659625  0.77972365  0.04674500
   0.44153497  0.21815255  0.95195725
   0.55154663  0.10824803  0.04792103
   0.44127107  0.55677698  0.95195532
   0.55422346  0.44363640  0.04942941
   0.44092905  0.88717981  0.95308953
   0.55149381  0.77663830  0.04787385
   0.77806605  0.22156612  0.95074556
   0.89084887  0.10909446  0.04800582
   0.77758649  0.55549988  0.95043114
   0.88934445  0.44361243  0.04948288
   0.78158694  0.89153022  0.95197912
   0.89121055  0.78243113  0.04820077
unknown system                          
           1
     8.282358    4.788237    0.000000
    -8.282533    4.788552    0.000000
     0.000000    0.000000   30.000000
   V    Mo   W    S 
   3   3   3  18
Direct configuration=     4
  -0.00256422 -0.00527020 -0.00012148
   0.33332142  0.66701784  0.00014417
   0.33266751 -0.00067953  0.00026115
  -0.00866079  0.66073982  0.00003660
   0.66928755  0.66086619 -0.00016183
   0.67192764  0.34218691 -0.00000070
   0.99465238  0.33629156 -0.00010824
   0.34144226  0.33724342 -0.00033229
   0.66753663  0.00087572  0.00030344
   0.10891011  0.21792411  0.95172637
   0.22006592  0.10686829  0.04788153
   0.11618977  0.55744128  0.95052379
   0.22413173  0.44844251  0.04900399
   0.11358653  0.89397479  0.95204929
   0.22721224  0.78022314  0.04767070
   0.44118634  0.21713167  0.95057534
   0.55066651  0.10793372  0.04902261
   0.44104921  0.55744948  0.95042902
   0.55436227  0.44367335  0.05159739
   0.43997086  0.88663104  0.95182315
   0.55068548  0.77597489  0.04891209
   0.77779877  0.22158337  0.94911196
   0.89148617  0.10883230  0.04928957
   0.77772806  0.55564218  0.94792214
   0.88928658  0.44369961  0.05178043
   0.78246687  0.89196194  0.95066532
   0.89182067  0.78355503  0.04999438
unknown system                          
           1
     8.286554    4.797910    0.000000
    -8.286465    4.797770    0.000000
     0.000000    0.000000   30.000000
   V    Mo   W    S 
   3   3   3  18
Direct configuration=     5
  -0.00569086 -0.00993744 -0.00043556
   0.33355772  0.66681150  0.00046240
   0.33208453 -0.00136270  0.00045514
  -0.01767435  0.65301885  0.00000237
   0.67045792  0.65426590 -0.00005519
   0.67800296  0.35107652 -0.00003839
   0.98778251  0.33832318 -0.00035854
   0.35007937  0.34171574 -0.00059754
   0.66976002  0.00293714  0.00059457
   0.10890894  0.21803210  0.95153557
   0.21984869  0.10658113  0.04920939
   0.11653762  0.55866203  0.94870600
   0.22424804  0.44876269  0.05003451
   0.11350661  0.89341498  0.95058775
   0.22636993  0.78008280  0.04887714
   0.44211477  0.21667197  0.94881427
   0.55035938  0.10893945  0.05031765
   0.44197279  0.55887035  0.94831312
   0.55536191  0.44399785  0.05460885
   0.43914575  0.88622340  0.95017989
   0.55068694  0.77497964  0.05005695
   0.77667564  0.22198456  0.94692452
   0.89268078  0.10909453  0.05097008
   0.77791362  0.55585401  0.94420069
   0.88879477  0.44420599  0.05515995
   0.78276787  0.89135212  0.94903481
   0.89196058  0.78365616  0.05243950
unknown system                          
           1
     8.286240    4.798552    0.000000
    -8.284039    4.794765    0.000000
     0.000000    0.000000   30.000000
   V    Mo   W    S 
   3   3   3  18
Direct configuration=     6
  -0.00715516 -0.01243290 -0.00043282
   0.33384597  0.66681023  0.00048697
   0.33135915 -0.00196046  0.00051771
  -0.01766375  0.65297176 -0.00004955
   0.67027692  0.65391437 -0.00018182
   0.67807866  0.35079600 -0.00007847
   0.98559238  0.33881103 -0.00023084
   0.35312902  0.34305994 -0.00063278
   0.67055534  0.00400494  0.00067155
   0.10946591  0.21926928  0.95221476
   0.22005528  0.10716163  0.04902286
   0.11563633  0.55863582  0.94872275
   0.22373226  0.44801271  0.04966934
   0.11283435  0.89221116  0.95061401
   0.22509596  0.77937587  0.04878122
   0.44340707  0.21749607  0.94883122
   0.55113240  0.11001366  0.05012864
   0.44287615  0.55928372  0.94823104
   0.55602314  0.44395910  0.05490538
   0.43942357  0.88636485  0.95025106
   0.55167703  0.77498171  0.04986572
   0.77585104  0.22233631  0.94672697
   0.89314165  0.10975487  0.05091056
   0.77783658  0.55597022  0.94389167
   0.88847335  0.44429547  0.05550183
   0.78199490  0.89041572  0.94910574
   0.89153896  0.78270138  0.05255520
unknown system                          
           1
     8.291553    4.803851    0.000000
    -8.287633    4.797094    0.000000
     0.000000    0.000000   30.000000
   V    Mo   W    S 
   3   3   3  18
Direct configuration=     7
  -0.00856235 -0.01504155 -0.00043611
   0.33402117  0.66673722  0.00053064
   0.33060265 -0.00253667  0.00059374
  -0.01831095  0.65251605 -0.00008889
   0.67023572  0.65312251 -0.00020019
   0.67864535  0.35125664 -0.00011593
   0.98350192  0.33931815 -0.00023626
   0.35608586  0.34442587 -0.00066657
   0.67136584  0.00525394  0.00073192
   0.10984946  0.22000663  0.95285752
   0.22013544  0.10752323  0.04885306
   0.11516124  0.55852719  0.94870995
   0.22344202  0.44755800  0.04938172
   0.11249145  0.89163613  0.95056725
   0.22457137  0.77905935  0.04872924
   0.44408873  0.21779965  0.94876660
   0.55136287  0.11043956  0.05003817
   0.44334942  0.55956531  0.94809842
   0.55653913  0.44410547  0.05514579
   0.43957345  0.88643201  0.95031122
   0.55221577  0.77513617  0.04972114
   0.77544035  0.22247139  0.94652561
   0.89347153  0.11014432  0.05087843
   0.77782676  0.55598328  0.94369495
   0.88822644  0.44449961  0.05580018
   0.78159770  0.88997998  0.94909983
   0.89128612  0.78229501  0.05270846
unknown system                          
           1
     8.298712    4.813781    0.000000
    -8.289896    4.798564    0.000000
     0.000000    0.000000   30.000000
   V    Mo   W    S 
   3   3   3  18
Direct configuration=     8
  -0.00972046 -0.01729162 -0.00045300
   0.33416215  0.66663768  0.00057742
   0.32989793 -0.00306144  0.00065608
  -0.01863148  0.65240728 -0.00010584
   0.67021299  0.65261374 -0.00022726
   0.67896866  0.35137418 -0.00013073
   0.98205171  0.33970844 -0.00022527
   0.35827159  0.34544892 -0.00073216
   0.67201599  0.00643477  0.00079118
   0.11013839  0.22052200  0.95344115
   0.22016039  0.10778859  0.04869324
   0.11482156  0.55844993  0.94869579
   0.22322863  0.44718378  0.04913178
   0.11223782  0.89126725  0.95051274
   0.22428469  0.77884091  0.04868689
   0.44454856  0.21797114  0.94871791
   0.55143799  0.11065122  0.04996817
   0.44370453  0.55979276  0.94799826
   0.55700934  0.44424420  0.05535112
   0.43967035  0.88649049  0.95037738
   0.55261062  0.77532671  0.04958451
   0.77512188  0.22254679  0.94633028
   0.89374581  0.11044977  0.05082463
   0.77780927  0.55599569  0.94355470
   0.88804784  0.44469476  0.05601893
   0.78130006  0.88969733  0.94910872
   0.89110764  0.78202918  0.05285325
unknown system                          
           1
     8.312785    4.824277    0.000000
    -8.302798    4.807036    0.000000
     0.000000    0.000000   30.000000
   V    Mo   W    S 
   3   3   3  18
Direct configuration=     9
  -0.01303819 -0.02411604 -0.00051311
   0.33445399  0.66615264  0.00071862
   0.32751129 -0.00484159  0.00082445
  -0.01941337  0.65248148 -0.00014292
   0.67030135  0.65105037 -0.00027132
   0.67990268  0.35148427 -0.00016949
   0.97835163  0.34094302 -0.00022123
   0.36423211  0.34829120 -0.00094010
   0.67392399  0.01062666  0.00094518
   0.11091928  0.22174554  0.95530082
   0.22014285  0.10853121  0.04812534
   0.11387590  0.55818466  0.94872003
   0.22269971  0.44611847  0.04834871
   0.11150856  0.89034023  0.95033119
   0.22374810  0.77826192  0.04854642
   0.44569639  0.21829462  0.94863211
   0.55135813  0.11097914  0.04975976
   0.44471593  0.56044795  0.94776140
   0.55839508  0.44472534  0.05582565
   0.43996356  0.88669136  0.95066753
   0.55374106  0.77613716  0.04907624
   0.77440383  0.22273332  0.94579918
   0.89448640  0.11129278  0.05055797
   0.77776766  0.55595239  0.94329055
   0.88759994  0.44538184  0.05653679
   0.78041771  0.88901118  0.94922287
   0.89054889  0.78131333  0.05326725
unknown system                          
           1
     8.314434    4.828027    0.000000
    -8.303347    4.808878    0.000000
     0.000000    0.000000   30.000000
   V    Mo   W    S 
   3   3   3  18
Direct configuration=    10
  -0.01408639 -0.02657481 -0.00055804
   0.33436497  0.66560795  0.00078257
   0.32608068 -0.00594507  0.00085144
  -0.01949815  0.65288397 -0.00011996
   0.67051280  0.65031053 -0.00026011
   0.68023608  0.35114192 -0.00015959
   0.97764326  0.34153931 -0.00019819
   0.36583337  0.34905681 -0.00103771
   0.67482596  0.01346806  0.00097621
   0.11114117  0.22190469  0.95617422
   0.21998442  0.10875585  0.04785376
   0.11356172  0.55815863  0.94869063
   0.22256583  0.44569315  0.04803698
   0.11116153  0.88993334  0.95015301
   0.22367511  0.77796507  0.04854395
   0.44610864  0.21821965  0.94858445
   0.55096100  0.11099346  0.04976205
   0.44526182  0.56085530  0.94764128
   0.55910675  0.44498098  0.05601710
   0.44004782  0.88679656  0.95081988
   0.55432896  0.77674610  0.04877150
   0.77421807  0.22285128  0.94547947
   0.89485116  0.11163747  0.05041619
   0.77778812  0.55585474  0.94318441
   0.88744590  0.44583736  0.05673830
   0.77991674  0.88868612  0.94932774
   0.89017713  0.78085603  0.05352837
unknown system                          
           1
     8.318315    4.829925    0.000000
    -8.308559    4.813071    0.000000
     0.000000    0.000000   30.000000
   V    Mo   W    S 
   3   3   3  18
Direct configuration=    11
  -0.01556456 -0.03007003 -0.00061024
   0.33399639  0.66464605  0.00086093
   0.32397602 -0.00762154  0.00086054
  -0.01973250  0.65341722 -0.00010042
   0.67085691  0.64899387 -0.00023820
   0.68079324  0.35077958 -0.00016162
   0.97642769  0.34248939 -0.00018635
   0.36846883  0.35028860 -0.00117717
   0.67619331  0.01779310  0.00102833
   0.11142978  0.22209488  0.95736469
   0.21976877  0.10901026  0.04745187
   0.11313007  0.55811405  0.94870011
   0.22245484  0.44515697  0.04760982
   0.11062360  0.88933263  0.94996333
   0.22356305  0.77753722  0.04849964
   0.44662097  0.21819373  0.94861364
   0.55042188  0.11102277  0.04972733
   0.44601921  0.56129195  0.94756819
   0.55991732  0.44523731  0.05616681
   0.44021399  0.88696756  0.95109240
   0.55525307  0.77771782  0.04823354
   0.77418492  0.22314905  0.94512123
   0.89522133  0.11209323  0.05017330
   0.77783996  0.55567223  0.94314117
   0.88729736  0.44641555  0.05692515
   0.77918226  0.88825523  0.94958195
   0.88965674  0.78023576  0.05378994
unknown system                          
           1
     8.321672    4.832310    0.000000
    -8.312880    4.817114    0.000000
     0.000000    0.000000   30.000000
   V    Mo   W    S 
   3   3   3  18
Direct configuration=    12
  -0.01541611 -0.02997044 -0.00061625
   0.33338213  0.66396992  0.00086725
   0.32336109 -0.00821541  0.00079451
  -0.01953907  0.65374998 -0.00007782
   0.67106508  0.64867089 -0.00020659
   0.68080260  0.35049061 -0.00014300
   0.97688518  0.34273060 -0.00018037
   0.36821351  0.35011049 -0.00118462
   0.67652996  0.01926713  0.00101765
   0.11135050  0.22183134  0.95746890
   0.21962422  0.10887900  0.04740714
   0.11323000  0.55823209  0.94865832
   0.22258052  0.44516615  0.04763867
   0.11049845  0.88920701  0.94988786
   0.22360866  0.77742014  0.04853635
   0.44659050  0.21804710  0.94864513
   0.55008268  0.11102731  0.04980341
   0.44620650  0.56135948  0.94758955
   0.55994616  0.44516830  0.05614640
   0.44025635  0.88702491  0.95116508
   0.55555905  0.77815497  0.04800647
   0.77445922  0.22339963  0.94501921
   0.89522965  0.11214408  0.05014050
   0.77792531  0.55554927  0.94315293
   0.88734514  0.44655934  0.05691181
   0.77894573  0.88818453  0.94972232
   0.88949144  0.78005604  0.05382909
unknown system                          
           1
     8.321852    4.832484    0.000000
    -8.314118    4.819110    0.000000
     0.000000    0.000000   30.000000
   V    Mo   W    S 
   3   3   3  18
Direct configuration=    13
  -0.01570228 -0.03091090 -0.00062903
   0.33243067  0.66295128  0.00089241
   0.32225445 -0.00923552  0.00073304
  -0.01934315  0.65420233 -0.00005899
   0.67134158  0.64795135 -0.00017882
   0.68094552  0.35015808 -0.00012723
   0.97690690  0.34324109 -0.00017305
   0.36881494  0.35030627 -0.00123538
   0.67722431  0.02178934  0.00103765
   0.11137890  0.22170794  0.95784797
   0.21944603  0.10880186  0.04726995
   0.11324330  0.55834692  0.94860324
   0.22265796  0.44500099  0.04758081
   0.11024487  0.88895270  0.94977289
   0.22362081  0.77722949  0.04856286
   0.44668309  0.21790244  0.94869175
   0.54964328  0.11107115  0.04985783
   0.44657802  0.56149611  0.94760330
   0.56014511  0.44513405  0.05618110
   0.44036009  0.88714138  0.95130822
   0.55610305  0.77882837  0.04762126
   0.77476028  0.22378002  0.94482593
   0.89534460  0.11236799  0.05005610
   0.77802811  0.55538725  0.94314834
   0.88736365  0.44682207  0.05695151
   0.77851594  0.88802007  0.94992860
   0.88922443  0.77977031  0.05392762
unknown system                          
           1
     8.321145    4.832530    0.000000
    -8.312493    4.817573    0.000000
     0.000000    0.000000   30.000000
   V    Mo   W    S 
   3   3   3  18
Direct configuration=    14
  -0.01582896 -0.03137987 -0.00063168
   0.33137123  0.66200095  0.00090485
   0.32153590 -0.00997588  0.00067207
  -0.01908376  0.65454829 -0.00004804
   0.67158698  0.64748058 -0.00015461
   0.68101506  0.34993275 -0.00011344
   0.97709332  0.34362086 -0.00017639
   0.36904023  0.35036047 -0.00126260
   0.67771851  0.02350057  0.00105908
   0.11136748  0.22158353  0.95802117
   0.21931207  0.10869456  0.04719855
   0.11334812  0.55846187  0.94854874
   0.22275917  0.44493170  0.04759680
   0.11005853  0.88881218  0.94970049
   0.22364411  0.77710113  0.04859820
   0.44669595  0.21779356  0.94873874
   0.54934770  0.11113099  0.04990479
   0.44679634  0.56153369  0.94764472
   0.56018469  0.44505085  0.05618678
   0.44046405  0.88721680  0.95141464
   0.55645233  0.77932022  0.04730581
   0.77508256  0.22413072  0.94471224
   0.89540003  0.11253021  0.05000689
   0.77813136  0.55526870  0.94315854
   0.88740750  0.44697543  0.05695222
   0.77824094  0.88795785  0.95009574
   0.88907300  0.77963173  0.05396559
unknown system                          
           1
     8.325127    4.836317    0.000000
    -8.314683    4.818270    0.000000
     0.000000    0.000000   30.000000
   V    Mo   W    S 
   3   3   3  18
Direct configuration=    15
  -0.01589068 -0.03141970 -0.00063449
   0.33224692  0.66256419  0.00091079
   0.32169200 -0.00971388  0.00070814
  -0.01932060  0.65445157 -0.00004918
   0.67148837  0.64768589 -0.00016623
   0.68105339  0.34992976 -0.00012346
   0.97688240  0.34346825 -0.00017524
   0.36907275  0.35041856 -0.00126146
   0.67758089  0.02301438  0.00104521
   0.11136364  0.22160995  0.95803036
   0.21935057  0.10877495  0.04720369
   0.11321441  0.55836421  0.94861403
   0.22272595  0.44498523  0.04752687
   0.11008780  0.88883670  0.94973951
   0.22362361  0.77711986  0.04855368
   0.44672444  0.21786067  0.94871487
   0.54945694  0.11106856  0.04987715
   0.44671647  0.56153703  0.94761251
   0.56022828  0.44511855  0.05618167
   0.44039440  0.88717708  0.95137088
   0.55636723  0.77914663  0.04746426
   0.77488964  0.22393371  0.94475165
   0.89535411  0.11240677  0.05000285
   0.77804849  0.55530171  0.94315969
   0.88737221  0.44692724  0.05695667
   0.77836837  0.88795201  0.95004019
   0.88912247  0.77969458  0.05394529
unknown system                          
           1
     8.322160    4.832920    0.000000
    -8.314350    4.819412    0.000000
     0.000000    0.000000   30.000000
   V    Mo   W    S 
   3   3   3  18
Direct configuration=    16
  -0.01599957 -0.03146597 -0.00063380
   0.33402847  0.66357409  0.00091320
   0.32193182 -0.00924771  0.00077364
  -0.01975771  0.65438078 -0.00005287
   0.67128393  0.64814863 -0.00018272
   0.68105964  0.34989097 -0.00013655
   0.97666400  0.34324936 -0.00017091
   0.36904178  0.35049409 -0.00125048
   0.67725616  0.02196820  0.00101462
   0.11130684  0.22156895  0.95801854
   0.21936107  0.10888155  0.04722428
   0.11302807  0.55823338  0.94873506
   0.22268607  0.44511346  0.04742318
   0.11009260  0.88886838  0.94979527
   0.22359071  0.77710912  0.04847161
   0.44674602  0.21794319  0.94866106
   0.54961985  0.11096380  0.04985146
   0.44654320  0.56156092  0.94754234
   0.56027388  0.44519781  0.05617497
   0.44027416  0.88708919  0.95129096
   0.55621766  0.77889636  0.04775305
   0.77458472  0.22362388  0.94479152
   0.89529202  0.11216047  0.05000867
   0.77790529  0.55532738  0.94314752
   0.88733632  0.44685118  0.05697149
   0.77861969  0.88797838  0.94994235
   0.88922776  0.77985461  0.05392244
unknown system                          
           1
     8.323717    4.833786    0.000000
    -8.316410    4.821146    0.000000
     0.000000    0.000000   30.000000
   V    Mo   W    S 
   3   3   3  18
Direct configuration=    17
  -0.01611876 -0.03202252 -0.00063365
   0.33263855  0.66209512  0.00091363
   0.32077781 -0.01048606  0.00067839
  -0.01949677  0.65474496 -0.00003886
   0.67147135  0.64718777 -0.00014753
   0.68128212  0.34968320 -0.00011073
   0.97681571  0.34375749 -0.00017779
   0.36945446  0.35057192 -0.00129108
   0.67798438  0.02471222  0.00104360
   0.11132115  0.22143452  0.95830255
   0.21918228  0.10871522  0.04710252
   0.11322552  0.55850871  0.94866896
   0.22282923  0.44492828  0.04745931
   0.10981535  0.88856831  0.94964089
   0.22357634  0.77684281  0.04851178
   0.44672225  0.21772319  0.94875344
   0.54909541  0.11107052  0.04992160
   0.44694943  0.56160493  0.94759387
   0.56033120  0.44503851  0.05617516
   0.44051749  0.88728539  0.95148194
   0.55687577  0.77984555  0.04723414
   0.77519577  0.22427286  0.94460270
   0.89536563  0.11252102  0.04992985
   0.77806376  0.55509931  0.94317505
   0.88742293  0.44714349  0.05696408
   0.77802784  0.88788022  0.95020101
   0.88888825  0.77948749  0.05404507
unknown system                          
           1
     8.321920    4.831749    0.000000
    -8.313666    4.817479    0.000000
     0.000000    0.000000   30.000000
   V    Mo   W    S 
   3   3   3  18
Direct configuration=    18
  -0.01614374 -0.03214436 -0.00063175
   0.33225707  0.66172758  0.00091524
   0.32054125 -0.01076294  0.00065624
  -0.01938877  0.65485702 -0.00003371
   0.67151571  0.64703504 -0.00013771
   0.68128797  0.34963464 -0.00010493
   0.97692425  0.34389415 -0.00017802
   0.36949738  0.35057025 -0.00129640
   0.67812504  0.02522290  0.00104888
   0.11132414  0.22140675  0.95834528
   0.21913905  0.10867020  0.04708401
   0.11329504  0.55857934  0.94864258
   0.22286855  0.44489696  0.04747876
   0.10975603  0.88851907  0.94960872
   0.22358222  0.77678901  0.04852717
   0.44672160  0.21767140  0.94876638
   0.54898550  0.11111074  0.04994288
   0.44702337  0.56161468  0.94759910
   0.56034106  0.44499724  0.05618763
   0.44056433  0.88731823  0.95151581
   0.55699443  0.78002594  0.04712500
   0.77531649  0.22442162  0.94455501
   0.89540112  0.11260429  0.04992461
   0.77809994  0.55505797  0.94316900
   0.88744028  0.44720232  0.05697324
   0.77791606  0.88786564  0.95025125
   0.88882911  0.77942873  0.05406564
unknown system                          
           1
     8.329003    4.835223    0.000000
    -8.321341    4.821975    0.000000
     0.000000    0.000000   30.000000
   V    Mo   W    S 
   3   3   3  18
Direct configuration=    19
  -0.01582813 -0.03162618 -0.00063798
   0.33342354  0.66281419  0.00091413
   0.32106421 -0.01018827  0.00071476
  -0.01952507  0.65460835 -0.00004183
   0.67115731  0.64723188 -0.00015819
   0.68116304  0.34969903 -0.00011628
   0.97676956  0.34360618 -0.00016412
   0.36936496  0.35049943 -0.00128805
   0.67754934  0.02399678  0.00102022
   0.11137442  0.22153067  0.95824264
   0.21929519  0.10873567  0.04712903
   0.11313516  0.55847705  0.94868794
   0.22278024  0.44494558  0.04742968
   0.11002165  0.88860432  0.94964889
   0.22362850  0.77698600  0.04847030
   0.44670088  0.21767535  0.94873494
   0.54907917  0.11099947  0.04991914
   0.44691689  0.56163108  0.94756190
   0.56037925  0.44509079  0.05618546
   0.44037873  0.88728397  0.95143355
   0.55677642  0.77963017  0.04740169
   0.77501279  0.22408560  0.94459994
   0.89530954  0.11243635  0.04996894
   0.77799836  0.55509541  0.94315445
   0.88738429  0.44711749  0.05699399
   0.77803542  0.88783134  0.95010995
   0.88886877  0.77941674  0.05408479
unknown system                          
           1
     8.325560    4.834443    0.000000
    -8.319763    4.824403    0.000000
     0.000000    0.000000   30.000000
   V    Mo   W    S 
   3   3   3  18
Direct configuration=    20
  -0.01569128 -0.03183867 -0.00062408
   0.33374488  0.66296883  0.00090887
   0.32063423 -0.01058695  0.00068834
  -0.01935796  0.65494221 -0.00001794
   0.67115359  0.64709284 -0.00015185
   0.68118052  0.34949887 -0.00011833
   0.97679323  0.34370959 -0.00014164
   0.36937613  0.35033324 -0.00128460
   0.67745021  0.02461976  0.00098906
   0.11135343  0.22149691  0.95828725
   0.21925154  0.10859157  0.04712544
   0.11320484  0.55858818  0.94866413
   0.22283039  0.44492648  0.04741890
   0.11008713  0.88854965  0.94958794
   0.22371515  0.77699846  0.04846945
   0.44663969  0.21739452  0.94872354
   0.54868732  0.11096955  0.04999647
   0.44701876  0.56169128  0.94750941
   0.56041894  0.44497397  0.05625303
   0.44027614  0.88736628  0.95143285
   0.55707352  0.77991335  0.04735128
   0.77514565  0.22427147  0.94448495
   0.89524770  0.11249303  0.04996774
   0.77800039  0.55497453  0.94313187
   0.88740433  0.44720465  0.05703813
   0.77782408  0.88776877  0.95019893
   0.88875191  0.77930209  0.05411075
unknown system                          
           1
     8.326399    4.834765    0.000000
    -8.321506    4.826283    0.000000
     0.000000    0.000000   30.000000
   V    Mo   W    S 
   3   3   3  18
Direct configuration=    21
  -0.01613013 -0.03266907 -0.00061740
   0.33190681  0.66115574  0.00091015
   0.31966008 -0.01165846  0.00058694
  -0.01915010  0.65532288 -0.00001536
   0.67160439  0.64650666 -0.00011503
   0.68137439  0.34941309 -0.00008959
   0.97704794  0.34423695 -0.00017040
   0.36969634  0.35048994 -0.00131358
   0.67835685  0.02688359  0.00104882
   0.11130642  0.22131791  0.95848927
   0.21898930  0.10845477  0.04703356
   0.11348125  0.55878137  0.94860746
   0.22302565  0.44483978  0.04747708
   0.10962941  0.88836387  0.94950364
   0.22364637  0.77664508  0.04855827
   0.44664993  0.21737088  0.94880926
   0.54847106  0.11116312  0.05002693
   0.44723401  0.56158523  0.94759841
   0.56035131  0.44479025  0.05622948
   0.44059823  0.88747845  0.95158163
   0.55753301  0.78067855  0.04684794
   0.77573130  0.22491599  0.94439912
   0.89533647  0.11281346  0.04987027
   0.77818807  0.55487827  0.94317957
   0.88750459  0.44738486  0.05699155
   0.77754380  0.88781979  0.95047508
   0.88862771  0.77925151  0.05409683
unknown system                          
           1
     8.325610    4.835155    0.000000
    -8.319267    4.824173    0.000000
     0.000000    0.000000   30.000000
   V    Mo   W    S 
   3   3   3  18
Direct configuration=    22
  -0.01617953 -0.03294246 -0.00061746
   0.33114085  0.66045302  0.00090990
   0.31917481 -0.01220999  0.00054856
  -0.01890776  0.65557947 -0.00001465
   0.67170920  0.64621996 -0.00009565
   0.68139133  0.34933637 -0.00007369
   0.97724754  0.34449754 -0.00018264
   0.36977864  0.35046214 -0.00132835
   0.67861521  0.02783154  0.00107173
   0.11129694  0.22124407  0.95857248
   0.21888105  0.10833437  0.04698950
   0.11363580  0.55890290  0.94856954
   0.22312372  0.44480019  0.04750895
   0.10948543  0.88829024  0.94945170
   0.22367183  0.77654587  0.04859021
   0.44663631  0.21728240  0.94885044
   0.54827202  0.11124288  0.05004642
   0.44735199  0.56154166  0.94763075
   0.56033692  0.44469693  0.05623637
   0.44069614  0.88755224  0.95164947
   0.55775602  0.78103475  0.04662352
   0.77600145  0.22523757  0.94433305
   0.89537757  0.11297836  0.04983911
   0.77827557  0.55481231  0.94318339
   0.88754373  0.44749140  0.05699064
   0.77736769  0.88782407  0.95059492
   0.88853398  0.77917463  0.05412168
unknown system                          
           1
     8.322844    4.834254    0.000000
    -8.314009    4.818978    0.000000
     0.000000    0.000000   30.000000
   V    Mo   W    S 
   3   3   3  18
Direct configuration=    23
  -0.01611246 -0.03265052 -0.00062650
   0.33263856  0.66159866  0.00092108
   0.31979727 -0.01136189  0.00061242
  -0.01931762  0.65535150 -0.00002263
   0.67151051  0.64664578 -0.00011884
   0.68125408  0.34930386 -0.00009200
   0.97697294  0.34410646 -0.00017503
   0.36968657  0.35049804 -0.00132041
   0.67820320  0.02649041  0.00104210
   0.11132271  0.22131962  0.95848616
   0.21900380  0.10851729  0.04703943
   0.11335523  0.55868399  0.94865042
   0.22301036  0.44486188  0.04743365
   0.10962782  0.88837982  0.94953491
   0.22361993  0.77666688  0.04853089
   0.44665243  0.21743912  0.94880156
   0.54855409  0.11112332  0.05002103
   0.44718224  0.56156117  0.94757950
   0.56036951  0.44481164  0.05621401
   0.44054263  0.88747530  0.95153801
   0.55752106  0.78057616  0.04697247
   0.77561486  0.22478388  0.94439928
   0.89528893  0.11269638  0.04987443
   0.77812153  0.55485276  0.94316950
   0.88746980  0.44733885  0.05700628
   0.77765885  0.88782090  0.95044307
   0.88866561  0.77932320  0.05408509
unknown system                          
           1
     8.332032    4.838772    0.000000
    -8.326533    4.829244    0.000000
     0.000000    0.000000   30.000000
   V    Mo   W    S 
   3   3   3  18
Direct configuration=    24
  -0.01617194 -0.03248804 -0.00062030
   0.33514105  0.66288739  0.00094187
   0.32025354 -0.01051917  0.00071232
  -0.02019039  0.65502495 -0.00001453
   0.67126766  0.64691674 -0.00015506
   0.68138703  0.34913136 -0.00011652
   0.97634379  0.34363225 -0.00016964
   0.36965097  0.35061037 -0.00127765
   0.67795991  0.02573460  0.00095716
   0.11130498  0.22131965  0.95846138
   0.21909242  0.10879307  0.04708679
   0.11294229  0.55846257  0.94883811
   0.22289635  0.44489134  0.04730508
   0.10963004  0.88833226  0.94958973
   0.22343572  0.77667999  0.04839329
   0.44662793  0.21752196  0.94870089
   0.54876590  0.11091285  0.05003351
   0.44707124  0.56159768  0.94746038
   0.56041659  0.44491023  0.05619205
   0.44045997  0.88747670  0.95141974