   27   27  100    1
  0.9710400E+02  0.1002848E-08  0.1002848E-08  0.3000000E-08  0.5000000E-15
  1.000000000000000E-004
  CAR 
 unknown system                          
    159     34    120
 
  0.0000000E+00  0.0000000E+00  0.0000000E+00  0.1562500E-01
    1      -17.787410   1.000000
    2      -16.695107   1.000000
    3      -16.597092   1.000000
    4      -16.584414   1.000000
    5      -16.492162   1.000000
    6      -16.478036   1.000000
    7      -16.414314   1.000000
    8      -16.348622   1.000000
    9      -16.132740   1.000000
   10      -16.126108   1.000000
   11      -16.098183   1.000000
   12      -16.014028   1.000000
   13      -15.885599   1.000000
   14      -15.661115   1.000000
   15      -15.635289   1.000000
   16      -15.527778   1.000000
   17      -15.316837   1.000000
   18      -15.269662   1.000000
   19       -9.214913   1.000000
   20       -8.964049   1.000000
   21       -8.936214   1.000000
   22       -8.825143   1.000000
   23       -8.744693   1.000000
   24       -8.713361   1.000000
   25       -8.649047   1.000000
   26       -8.603130   1.000000
   27       -8.499299   1.000000
   28       -8.443858   1.000000
   29       -8.384286   1.000000
   30       -8.349038   1.000000
   31       -8.315863   1.000000
   32       -8.171349   1.000000
   33       -7.992918   1.000000
   34       -7.977372   1.000000
   35       -7.859747   1.000000
   36       -7.795394   1.000000
   37       -7.778302   1.000000
   38       -7.538578   1.000000
   39       -7.406563   1.000000
   40       -7.391545   1.000000
   41       -7.344098   1.000000
   42       -7.276120   1.000000
   43       -7.099554   1.000000
   44       -6.960985   1.000000
   45       -6.831619   1.000000
   46       -6.793795   1.000000
   47       -6.736618   1.000000
   48       -6.584586   1.000000
   49       -6.568668   1.000000
   50       -6.501358   1.000000
   51       -6.424974   1.000000
   52       -6.381670   1.000000
   53       -6.291622   1.000000
   54       -6.284924   1.000000
   55       -6.227038   1.000000
   56       -6.199224   1.000000
   57       -6.045398   1.000000
   58       -5.931213   1.000000
   59       -5.707277   1.000000
   60       -5.561635   1.000000
   61       -5.526117   1.000000
   62       -5.430221   1.000000
   63       -5.320487   1.000000
   64       -5.182896   1.000000
   65       -5.116881   1.000000
   66       -5.021818   1.000000
   67       -4.995840   1.000000
   68       -4.839534   1.000000
   69       -4.812043   1.000000
   70       -4.735482   1.000000
   71       -4.651930   1.000000
   72       -4.577560   1.000000
   73       -4.479249   1.000000
   74       -4.189727   1.000000
   75       -4.160091   1.000000
   76       -4.054484   1.000000
   77       -3.723604   0.999588
   78       -3.535747   0.978097
   79       -3.522907   0.972894
   80       -3.418585   0.882481
   81       -3.318617   0.684600
   82       -2.877007   0.004120
   83       -2.628237   0.000005
   84       -2.580789   0.000001
   85       -2.437596   0.000000
   86       -2.420475   0.000000
   87       -2.245895   0.000000
   88       -2.171370   0.000000
   89       -2.137479   0.000000
   90       -2.031627   0.000000
   91       -1.964739   0.000000
   92       -1.874053   0.000000
   93       -1.465367   0.000000
   94       -1.216515   0.000000
   95       -1.112519   0.000000
   96       -1.046055   0.000000
   97       -0.996711   0.000000
   98       -0.850383   0.000000
   99       -0.714694   0.000000
  100       -0.672580   0.000000
  101       -0.651978   0.000000
  102       -0.439235   0.000000
  103       -0.403140   0.000000
  104       -0.383809   0.000000
  105       -0.265597   0.000000
  106       -0.104593   0.000000
  107       -0.077831   0.000000
  108        0.027567   0.000000
  109        0.058960   0.000000
  110        0.193103   0.000000
  111        0.317580   0.000000
  112        0.412834   0.000000
  113        0.726528   0.000000
  114        0.869883   0.000000
  115        0.994190   0.000000
  116        1.096630   0.000000
  117        1.152288   0.000000
  118        1.630365   0.000000
  119        1.824031   0.000000
  120        2.134666   0.000000
 
  0.1250000E+00  0.2775558E-16  0.0000000E+00  0.3125000E-01
    1      -17.762290   1.000000
    2      -16.772202   1.000000
    3      -16.675655   1.000000
    4      -16.602095   1.000000
    5      -16.516852   1.000000
    6      -16.434163   1.000000
    7      -16.370560   1.000000
    8      -16.292443   1.000000
    9      -16.195895   1.000000
   10      -16.110661   1.000000
   11      -16.032000   1.000000
   12      -15.982141   1.000000
   13      -15.861355   1.000000
   14      -15.677690   1.000000
   15      -15.636398   1.000000
   16      -15.533665   1.000000
   17      -15.323500   1.000000
   18      -15.274326   1.000000
   19       -9.213289   1.000000
   20       -9.133157   1.000000
   21       -8.995431   1.000000
   22       -8.931622   1.000000
   23       -8.776152   1.000000
   24       -8.719488   1.000000
   25       -8.684590   1.000000
   26       -8.548917   1.000000
   27       -8.487649   1.000000
   28       -8.447808   1.000000
   29       -8.395049   1.000000
   30       -8.264585   1.000000
   31       -8.202264   1.000000
   32       -8.063280   1.000000
   33       -7.976442   1.000000
   34       -7.887963   1.000000
   35       -7.821526   1.000000
   36       -7.748304   1.000000
   37       -7.709917   1.000000
   38       -7.570777   1.000000
   39       -7.479240   1.000000
   40       -7.384503   1.000000
   41       -7.295071   1.000000
   42       -7.238626   1.000000
   43       -7.139108   1.000000
   44       -7.008602   1.000000
   45       -6.875082   1.000000
   46       -6.824068   1.000000
   47       -6.752810   1.000000
   48       -6.622569   1.000000
   49       -6.546050   1.000000
   50       -6.447850   1.000000
   51       -6.431013   1.000000
   52       -6.385691   1.000000
   53       -6.331313   1.000000
   54       -6.264361   1.000000
   55       -6.209358   1.000000
   56       -6.170226   1.000000
   57       -5.968855   1.000000
   58       -5.942687   1.000000
   59       -5.712125   1.000000
   60       -5.566815   1.000000
   61       -5.549794   1.000000
   62       -5.437922   1.000000
   63       -5.304183   1.000000
   64       -5.295459   1.000000
   65       -5.202826   1.000000
   66       -5.083350   1.000000
   67       -5.014068   1.000000
   68       -4.853702   1.000000
   69       -4.813595   1.000000
   70       -4.709862   1.000000
   71       -4.600358   1.000000
   72       -4.491055   1.000000
   73       -4.451106   1.000000
   74       -4.169509   1.000000
   75       -4.075658   1.000000
   76       -4.040949   1.000000
   77       -3.891647   0.999997
   78       -3.695686   0.999175
   79       -3.467545   0.937445
   80       -3.413377   0.875062
   81       -3.182038   0.313781
   82       -2.846680   0.002142
   83       -2.621519   0.000004
   84       -2.584992   0.000001
   85       -2.425347   0.000000
   86       -2.409339   0.000000
   87       -2.230212   0.000000
   88       -2.154806   0.000000
   89       -2.130343   0.000000
   90       -2.022663   0.000000
   91       -1.963843   0.000000
   92       -1.875498   0.000000
   93       -1.464621   0.000000
   94       -1.227582   0.000000
   95       -1.104622   0.000000
   96       -1.045177   0.000000
   97       -0.987828   0.000000
   98       -0.862547   0.000000
   99       -0.762577   0.000000
  100       -0.727492   0.000000
  101       -0.661727   0.000000
  102       -0.508292   0.000000
  103       -0.478382   0.000000
  104       -0.431248   0.000000
  105       -0.306216   0.000000
  106       -0.177784   0.000000
  107       -0.133742   0.000000
  108       -0.011494   0.000000
  109        0.099112   0.000000
  110        0.206903   0.000000
  111        0.391449   0.000000
  112        0.493209   0.000000
  113        0.694642   0.000000
  114        0.862460   0.000000
  115        1.023992   0.000000
  116        1.101012   0.000000
  117        1.193887   0.000000
  118        1.674404   0.000000
  119        1.863441   0.000000
  120        2.169629   0.000000
 
  0.2500000E+00  0.5551115E-16  0.0000000E+00  0.3125000E-01
    1      -17.687959   1.000000
    2      -16.981911   1.000000
    3      -16.702620   1.000000
    4      -16.640878   1.000000
    5      -16.576689   1.000000
    6      -16.370767   1.000000
    7      -16.330896   1.000000
    8      -16.248790   1.000000
    9      -16.174074   1.000000
   10      -16.072660   1.000000
   11      -16.013586   1.000000
   12      -15.910155   1.000000
   13      -15.796427   1.000000
   14      -15.713167   1.000000
   15      -15.629818   1.000000
   16      -15.551004   1.000000
   17      -15.341360   1.000000
   18      -15.285299   1.000000
   19       -9.456059   1.000000
   20       -9.190301   1.000000
   21       -9.100670   1.000000
   22       -9.029560   1.000000
   23       -8.857002   1.000000
   24       -8.779946   1.000000
   25       -8.637376   1.000000
   26       -8.514496   1.000000
   27       -8.487378   1.000000
   28       -8.383809   1.000000
   29       -8.301084   1.000000
   30       -8.184868   1.000000
   31       -8.134219   1.000000
   32       -8.074902   1.000000
   33       -7.881486   1.000000
   34       -7.777599   1.000000
   35       -7.738182   1.000000
   36       -7.689306   1.000000
   37       -7.592630   1.000000
   38       -7.492698   1.000000
   39       -7.466887   1.000000
   40       -7.378981   1.000000
   41       -7.306961   1.000000
   42       -7.175753   1.000000
   43       -7.148027   1.000000
   44       -7.020876   1.000000
   45       -6.905106   1.000000
   46       -6.866632   1.000000
   47       -6.778258   1.000000
   48       -6.642895   1.000000
   49       -6.571535   1.000000
   50       -6.464883   1.000000
   51       -6.433170   1.000000
   52       -6.377180   1.000000
   53       -6.292280   1.000000
   54       -6.232393   1.000000
   55       -6.152953   1.000000
   56       -6.076878   1.000000
   57       -5.973313   1.000000
   58       -5.893403   1.000000
   59       -5.744430   1.000000
   60       -5.666609   1.000000
   61       -5.629314   1.000000
   62       -5.583913   1.000000
   63       -5.531405   1.000000
   64       -5.308064   1.000000
   65       -5.207694   1.000000
   66       -5.096334   1.000000
   67       -5.044221   1.000000
   68       -4.896805   1.000000
   69       -4.792730   1.000000
   70       -4.637568   1.000000
   71       -4.506416   1.000000
   72       -4.379804   1.000000
   73       -4.370937   1.000000
   74       -4.267848   1.000000
   75       -4.099002   1.000000
   76       -4.028660   1.000000
   77       -3.967640   1.000000
   78       -3.832052   0.999980
   79       -3.437570   0.906870
   80       -3.375091   0.810552
   81       -3.032838   0.061760
   82       -2.778672   0.000423
   83       -2.616588   0.000004
   84       -2.573277   0.000001
   85       -2.406225   0.000000
   86       -2.390975   0.000000
   87       -2.233586   0.000000
   88       -2.123229   0.000000
   89       -2.062738   0.000000
   90       -2.015527   0.000000
   91       -1.934190   0.000000
   92       -1.858118   0.000000
   93       -1.469518   0.000000
   94       -1.251601   0.000000
   95       -1.097407   0.000000
   96       -1.044595   0.000000
   97       -1.002940   0.000000
   98       -0.948349   0.000000
   99       -0.850564   0.000000
  100       -0.813327   0.000000
  101       -0.689889   0.000000
  102       -0.661966   0.000000
  103       -0.595702   0.000000
  104       -0.524128   0.000000
  105       -0.432310   0.000000
  106       -0.256723   0.000000
  107       -0.223877   0.000000
  108       -0.098968   0.000000
  109        0.119260   0.000000
  110        0.253409   0.000000
  111        0.398913   0.000000
  112        0.576204   0.000000
  113        0.716317   0.000000
  114        0.917136   0.000000
  115        1.037965   0.000000
  116        1.134185   0.000000
  117        1.313441   0.000000
  118        1.796977   0.000000
  119        1.974948   0.000000
  120        2.273278   0.000000
 
  0.3750000E+00  0.0000000E+00  0.0000000E+00  0.3125000E-01
    1      -17.568261   1.000000
    2      -17.197709   1.000000
    3      -16.739227   1.000000
    4      -16.655357   1.000000
    5      -16.597324   1.000000
    6      -16.384990   1.000000
    7      -16.315812   1.000000
    8      -16.199477   1.000000
    9      -16.120645   1.000000
   10      -16.012541   1.000000
   11      -15.979622   1.000000
   12      -15.888907   1.000000
   13      -15.780033   1.000000
   14      -15.758009   1.000000
   15      -15.584539   1.000000
   16      -15.555833   1.000000
   17      -15.370503   1.000000
   18      -15.292798   1.000000
   19       -9.669118   1.000000
   20       -9.277897   1.000000
   21       -9.177884   1.000000
   22       -9.003152   1.000000
   23       -8.914520   1.000000
   24       -8.820326   1.000000
   25       -8.570130   1.000000
   26       -8.473613   1.000000
   27       -8.420333   1.000000
   28       -8.317396   1.000000
   29       -8.287087   1.000000
   30       -8.199080   1.000000
   31       -8.145162   1.000000
   32       -8.022016   1.000000
   33       -7.941283   1.000000
   34       -7.797853   1.000000
   35       -7.723531   1.000000
   36       -7.654935   1.000000
   37       -7.572263   1.000000
   38       -7.463942   1.000000
   39       -7.386514   1.000000
   40       -7.258943   1.000000
   41       -7.211566   1.000000
   42       -7.146142   1.000000
   43       -7.071701   1.000000
   44       -7.029669   1.000000
   45       -6.871885   1.000000
   46       -6.819129   1.000000
   47       -6.693932   1.000000
   48       -6.596561   1.000000
   49       -6.580402   1.000000
   50       -6.509316   1.000000
   51       -6.410028   1.000000
   52       -6.341790   1.000000
   53       -6.262792   1.000000
   54       -6.179422   1.000000
   55       -6.150790   1.000000
   56       -6.075558   1.000000
   57       -5.994114   1.000000
   58       -5.941542   1.000000
   59       -5.864029   1.000000
   60       -5.824360   1.000000
   61       -5.757967   1.000000
   62       -5.673736   1.000000
   63       -5.593457   1.000000
   64       -5.383804   1.000000
   65       -5.189363   1.000000
   66       -5.020465   1.000000
   67       -5.002902   1.000000
   68       -4.904953   1.000000
   69       -4.836768   1.000000
   70       -4.709731   1.000000
   71       -4.517108   1.000000
   72       -4.438275   1.000000
   73       -4.299654   1.000000
   74       -4.229954   1.000000
   75       -4.153490   1.000000
   76       -4.069819   1.000000
   77       -3.944941   1.000000
   78       -3.727608   0.999628
   79       -3.473654   0.942588
   80       -3.326446   0.704005
   81       -2.927980   0.011256
   82       -2.724221   0.000099
   83       -2.626470   0.000005
   84       -2.541831   0.000000
   85       -2.396312   0.000000
   86       -2.362139   0.000000
   87       -2.264135   0.000000
   88       -2.090146   0.000000
   89       -2.015906   0.000000
   90       -1.973186   0.000000
   91       -1.896156   0.000000
   92       -1.796095   0.000000
   93       -1.482794   0.000000
   94       -1.269985   0.000000
   95       -1.173251   0.000000
   96       -1.080375   0.000000
   97       -1.054593   0.000000
   98       -0.972733   0.000000
   99       -0.898126   0.000000
  100       -0.892668   0.000000
  101       -0.822316   0.000000
  102       -0.746518   0.000000
  103       -0.675155   0.000000
  104       -0.593583   0.000000
  105       -0.489759   0.000000
  106       -0.319985   0.000000
  107       -0.284725   0.000000
  108       -0.187190   0.000000
  109        0.065810   0.000000
  110        0.237574   0.000000
  111        0.417532   0.000000
  112        0.605298   0.000000
  113        0.741986   0.000000
  114        0.979774   0.000000
  115        1.080202   0.000000
  116        1.201432   0.000000
  117        1.415901   0.000000
  118        1.980301   0.000000
  119        2.146189   0.000000
  120        2.441994   0.000000
 
  0.5000000E+00  0.1110223E-15  0.0000000E+00  0.1562500E-01
    1      -17.440800   1.000000
    2      -17.358993   1.000000
    3      -16.753508   1.000000
    4      -16.664381   1.000000
    5      -16.595653   1.000000
    6      -16.400886   1.000000
    7      -16.308883   1.000000
    8      -16.183275   1.000000
    9      -16.091914   1.000000
   10      -15.996112   1.000000
   11      -15.929550   1.000000
   12      -15.895717   1.000000
   13      -15.801333   1.000000
   14      -15.777458   1.000000
   15      -15.591316   1.000000
   16      -15.512158   1.000000
   17      -15.394634   1.000000
   18      -15.293897   1.000000
   19       -9.745719   1.000000
   20       -9.314875   1.000000
   21       -9.210690   1.000000
   22       -8.994938   1.000000
   23       -8.925650   1.000000
   24       -8.805772   1.000000
   25       -8.540095   1.000000
   26       -8.472952   1.000000
   27       -8.421359   1.000000
   28       -8.291291   1.000000
   29       -8.256386   1.000000
   30       -8.199210   1.000000
   31       -8.107234   1.000000
   32       -8.058706   1.000000
   33       -7.928084   1.000000
   34       -7.876109   1.000000
   35       -7.765811   1.000000
   36       -7.647855   1.000000
   37       -7.579900   1.000000
   38       -7.436888   1.000000
   39       -7.380015   1.000000
   40       -7.198287   1.000000
   41       -7.162195   1.000000
   42       -7.114419   1.000000
   43       -7.046809   1.000000
   44       -6.965701   1.000000
   45       -6.867537   1.000000
   46       -6.732395   1.000000
   47       -6.635783   1.000000
   48       -6.597508   1.000000
   49       -6.545495   1.000000
   50       -6.472989   1.000000
   51       -6.387749   1.000000
   52       -6.355862   1.000000
   53       -6.286249   1.000000
   54       -6.270283   1.000000
   55       -6.230388   1.000000
   56       -6.128262   1.000000
   57       -5.991560   1.000000
   58       -5.930184   1.000000
   59       -5.872581   1.000000
   60       -5.809309   1.000000
   61       -5.763651   1.000000
   62       -5.653636   1.000000
   63       -5.603772   1.000000
   64       -5.467351   1.000000
   65       -5.253417   1.000000
   66       -5.045572   1.000000
   67       -4.973056   1.000000
   68       -4.957394   1.000000
   69       -4.889018   1.000000
   70       -4.682643   1.000000
   71       -4.513375   1.000000
   72       -4.413787   1.000000
   73       -4.279177   1.000000
   74       -4.236366   1.000000
   75       -4.199522   1.000000
   76       -4.056987   1.000000
   77       -3.912567   0.999999
   78       -3.652025   0.997731
   79       -3.518044   0.970672
   80       -3.308295   0.658221
   81       -2.884757   0.004837
   82       -2.717362   0.000081
   83       -2.617217   0.000004
   84       -2.537636   0.000000
   85       -2.392134   0.000000
   86       -2.336879   0.000000
   87       -2.282064   0.000000
   88       -2.085274   0.000000
   89       -1.992693   0.000000
   90       -1.954880   0.000000
   91       -1.881240   0.000000
   92       -1.751307   0.000000
   93       -1.490965   0.000000
   94       -1.259753   0.000000
   95       -1.247104   0.000000
   96       -1.088522   0.000000
   97       -1.071905   0.000000
   98       -1.021204   0.000000
   99       -0.915495   0.000000
  100       -0.892531   0.000000
  101       -0.882256   0.000000
  102       -0.777555   0.000000
  103       -0.709808   0.000000
  104       -0.607721   0.000000
  105       -0.509660   0.000000
  106       -0.347843   0.000000
  107       -0.302726   0.000000
  108       -0.223763   0.000000
  109        0.033429   0.000000
  110        0.223283   0.000000
  111        0.429952   0.000000
  112        0.620606   0.000000
  113        0.737718   0.000000
  114        1.000611   0.000000
  115        1.111672   0.000000
  116        1.228734   0.000000
  117        1.455504   0.000000
  118        2.201404   0.000000
  119        2.222407   0.000000
  120        2.362864   0.000000
 
  0.0000000E+00  0.1250000E+00  0.0000000E+00  0.3125000E-01
    1      -17.763068   1.000000
    2      -16.741399   1.000000
    3      -16.695497   1.000000
    4      -16.612468   1.000000
    5      -16.534641   1.000000
    6      -16.427872   1.000000
    7      -16.368881   1.000000
    8      -16.287201   1.000000
    9      -16.169231   1.000000
   10      -16.120694   1.000000
   11      -16.054901   1.000000
   12      -15.969961   1.000000
   13      -15.862692   1.000000
   14      -15.675566   1.000000
   15      -15.636747   1.000000
   16      -15.535890   1.000000
   17      -15.321875   1.000000
   18      -15.275471   1.000000
   19       -9.232654   1.000000
   20       -9.067198   1.000000
   21       -9.001388   1.000000
   22       -8.937562   1.000000
   23       -8.794207   1.000000
   24       -8.746911   1.000000
   25       -8.678688   1.000000
   26       -8.590054   1.000000
   27       -8.490610   1.000000
   28       -8.439133   1.000000
   29       -8.392914   1.000000
   30       -8.245014   1.000000
   31       -8.184298   1.000000
   32       -8.058025   1.000000
   33       -7.972290   1.000000
   34       -7.881804   1.000000
   35       -7.826066   1.000000
   36       -7.753442   1.000000
   37       -7.701646   1.000000
   38       -7.571677   1.000000
   39       -7.474668   1.000000
   40       -7.410631   1.000000
   41       -7.309197   1.000000
   42       -7.224693   1.000000
   43       -7.126674   1.000000
   44       -7.006971   1.000000
   45       -6.875372   1.000000
   46       -6.828157   1.000000
   47       -6.749887   1.000000
   48       -6.619792   1.000000
   49       -6.550233   1.000000
   50       -6.447911   1.000000
   51       -6.425143   1.000000
   52       -6.392931   1.000000
   53       -6.325542   1.000000
   54       -6.267238   1.000000
   55       -6.203414   1.000000
   56       -6.181916   1.000000
   57       -5.970826   1.000000
   58       -5.937787   1.000000
   59       -5.710450   1.000000
   60       -5.575292   1.000000
   61       -5.539707   1.000000
   62       -5.439295   1.000000
   63       -5.307770   1.000000
   64       -5.288280   1.000000
   65       -5.211540   1.000000
   66       -5.078069   1.000000
   67       -5.026404   1.000000
   68       -4.859699   1.000000
   69       -4.793177   1.000000
   70       -4.712307   1.000000
   71       -4.595922   1.000000
   72       -4.497083   1.000000
   73       -4.451849   1.000000
   74       -4.162721   1.000000
   75       -4.072966   1.000000
   76       -4.053095   1.000000
   77       -3.892988   0.999997
   78       -3.698059   0.999221
   79       -3.469992   0.939547
   80       -3.397277   0.850088
   81       -3.192235   0.339782
   82       -2.850279   0.002320
   83       -2.620989   0.000004
   84       -2.575680   0.000001
   85       -2.432036   0.000000
   86       -2.402554   0.000000
   87       -2.231604   0.000000
   88       -2.152593   0.000000
   89       -2.129822   0.000000
   90       -2.018758   0.000000
   91       -1.963359   0.000000
   92       -1.883212   0.000000
   93       -1.464735   0.000000
   94       -1.216341   0.000000
   95       -1.106885   0.000000
   96       -1.052942   0.000000
   97       -0.991308   0.000000
   98       -0.846351   0.000000
   99       -0.786066   0.000000
  100       -0.722964   0.000000
  101       -0.678022   0.000000
  102       -0.518940   0.000000
  103       -0.465502   0.000000
  104       -0.439317   0.000000
  105       -0.307087   0.000000
  106       -0.194757   0.000000
  107       -0.123884   0.000000
  108        0.025530   0.000000
  109        0.146795   0.000000
  110        0.239988   0.000000
  111        0.368565   0.000000
  112        0.435073   0.000000
  113        0.658716   0.000000
  114        0.873546   0.000000
  115        0.987358   0.000000
  116        1.157428   0.000000
  117        1.195257   0.000000
  118        1.674308   0.000000
  119        1.863012   0.000000
  120        2.169567   0.000000
 
  0.1250000E+00  0.1250000E+00  0.0000000E+00  0.3125000E-01
    1      -17.714162   1.000000
    2      -16.879341   1.000000
    3      -16.775950   1.000000
    4      -16.654586   1.000000
    5      -16.455779   1.000000
    6      -16.415590   1.000000
    7      -16.346750   1.000000
    8      -16.265398   1.000000
    9      -16.171740   1.000000
   10      -16.110801   1.000000
   11      -15.988017   1.000000
   12      -15.946765   1.000000
   13      -15.801592   1.000000
   14      -15.711942   1.000000
   15      -15.622941   1.000000
   16      -15.560144   1.000000
   17      -15.337898   1.000000
   18      -15.277045   1.000000
   19       -9.307325   1.000000
   20       -9.265755   1.000000
   21       -9.094541   1.000000
   22       -9.000349   1.000000
   23       -8.825870   1.000000
   24       -8.695091   1.000000
   25       -8.666978   1.000000
   26       -8.570678   1.000000
   27       -8.494470   1.000000
   28       -8.383296   1.000000
   29       -8.297122   1.000000
   30       -8.268938   1.000000
   31       -8.125933   1.000000
   32       -8.071471   1.000000
   33       -7.858054   1.000000
   34       -7.829931   1.000000
   35       -7.785237   1.000000
   36       -7.726147   1.000000
   37       -7.586877   1.000000
   38       -7.506479   1.000000
   39       -7.461932   1.000000
   40       -7.330109   1.000000
   41       -7.301157   1.000000
   42       -7.214249   1.000000
   43       -7.184574   1.000000
   44       -7.061849   1.000000
   45       -6.869783   1.000000
   46       -6.857508   1.000000
   47       -6.785421   1.000000
   48       -6.698415   1.000000
   49       -6.550057   1.000000
   50       -6.462913   1.000000
   51       -6.417024   1.000000
   52       -6.371470   1.000000
   53       -6.335436   1.000000
   54       -6.237575   1.000000
   55       -6.160016   1.000000
   56       -6.088074   1.000000
   57       -5.934997   1.000000
   58       -5.912933   1.000000
   59       -5.689737   1.000000
   60       -5.644636   1.000000
   61       -5.604841   1.000000
   62       -5.586006   1.000000
   63       -5.394271   1.000000
   64       -5.324814   1.000000
   65       -5.214636   1.000000
   66       -5.174735   1.000000
   67       -5.048987   1.000000
   68       -4.838948   1.000000
   69       -4.800251   1.000000
   70       -4.678840   1.000000
   71       -4.492633   1.000000
   72       -4.414860   1.000000
   73       -4.355498   1.000000
   74       -4.172462   1.000000
   75       -4.103645   1.000000
   76       -4.040442   1.000000
   77       -3.997089   1.000000
   78       -3.851957   0.999989
   79       -3.409300   0.869031
   80       -3.373191   0.806891
   81       -3.120467   0.178646
   82       -2.798722   0.000698
   83       -2.614902   0.000003
   84       -2.556163   0.000000
   85       -2.411552   0.000000
   86       -2.391985   0.000000
   87       -2.188776   0.000000
   88       -2.181470   0.000000
   89       -2.072002   0.000000
   90       -2.003086   0.000000
   91       -1.926245   0.000000
   92       -1.895429   0.000000
   93       -1.475929   0.000000
   94       -1.243661   0.000000
   95       -1.086607   0.000000
   96       -1.059833   0.000000
   97       -0.987529   0.000000
   98       -0.915404   0.000000
   99       -0.839077   0.000000
  100       -0.772970   0.000000
  101       -0.701332   0.000000
  102       -0.603732   0.000000
  103       -0.578099   0.000000
  104       -0.547335   0.000000
  105       -0.325376   0.000000
  106       -0.290700   0.000000
  107       -0.243380   0.000000
  108       -0.016937   0.000000
  109        0.160729   0.000000
  110        0.267587   0.000000
  111        0.385738   0.000000
  112        0.524730   0.000000
  113        0.609233   0.000000
  114        0.890098   0.000000
  115        1.035394   0.000000
  116        1.184179   0.000000
  117        1.314979   0.000000
  118        1.757104   0.000000
  119        1.939500   0.000000
  120        2.238644   0.000000
 
  0.2500000E+00  0.1250000E+00  0.0000000E+00  0.3125000E-01
    1      -17.618025   1.000000
    2      -17.076728   1.000000
    3      -16.869455   1.000000
    4      -16.637173   1.000000
    5      -16.458390   1.000000
    6      -16.382301   1.000000
    7      -16.323955   1.000000
    8      -16.250902   1.000000
    9      -16.126240   1.000000
   10      -16.069508   1.000000
   11      -15.973997   1.000000
   12      -15.895576   1.000000
   13      -15.762381   1.000000
   14      -15.753516   1.000000
   15      -15.597724   1.000000
   16      -15.570277   1.000000
   17      -15.359935   1.000000
   18      -15.283913   1.000000
   19       -9.550217   1.000000
   20       -9.371030   1.000000
   21       -9.206694   1.000000
   22       -8.995115   1.000000
   23       -8.841826   1.000000
   24       -8.688975   1.000000
   25       -8.580705   1.000000
   26       -8.472579   1.000000
   27       -8.427925   1.000000
   28       -8.367254   1.000000
   29       -8.267427   1.000000
   30       -8.215864   1.000000
   31       -8.179387   1.000000
   32       -8.091695   1.000000
   33       -7.945818   1.000000
   34       -7.855403   1.000000
   35       -7.772753   1.000000
   36       -7.592379   1.000000
   37       -7.537868   1.000000
   38       -7.428590   1.000000
   39       -7.366264   1.000000
   40       -7.313037   1.000000
   41       -7.220628   1.000000
   42       -7.155316   1.000000
   43       -7.097875   1.000000
   44       -7.045316   1.000000
   45       -6.907629   1.000000
   46       -6.818344   1.000000
   47       -6.783765   1.000000