       N       E                     dE             d eps       ncg     rms          rms(c)
DAV:   1     0.112610793331E+04    0.11261E+04   -0.35976E+04  8160   0.577E+02
DAV:   2    -0.454213522498E+01   -0.11307E+04   -0.10902E+04 11360   0.173E+02
DAV:   3    -0.199783860580E+03   -0.19524E+03   -0.18780E+03 10880   0.819E+01
DAV:   4    -0.208861996472E+03   -0.90781E+01   -0.87836E+01 11960   0.261E+01
DAV:   5    -0.209220780782E+03   -0.35878E+00   -0.35782E+00 11560   0.380E+00    0.274E+01
DAV:   6    -0.236283564630E+03   -0.27063E+02   -0.11194E+02 12600   0.601E+01    0.592E+01
DAV:   7    -0.196855156367E+03    0.39428E+02   -0.17567E+02 13320   0.151E+02    0.206E+01
DAV:   8    -0.190317618250E+03    0.65375E+01   -0.21202E+01 11680   0.135E+01    0.140E+01
DAV:   9    -0.188299605411E+03    0.20180E+01   -0.37557E+00 12160   0.646E+00    0.936E+00
DAV:  10    -0.187095950596E+03    0.12037E+01   -0.17518E+00 13240   0.773E+00    0.320E+00
DAV:  11    -0.187020038563E+03    0.75912E-01   -0.64168E-01 12360   0.243E+00    0.252E+00
DAV:  12    -0.187048373132E+03   -0.28335E-01   -0.52001E-01 12280   0.367E+00    0.373E+00
DAV:  13    -0.186924201927E+03    0.12417E+00   -0.28031E-01 13120   0.327E+00    0.176E+00
DAV:  14    -0.186896117621E+03    0.28084E-01   -0.90861E-02 12880   0.169E+00    0.930E-01
DAV:  15    -0.186892533235E+03    0.35844E-02   -0.33207E-02 12760   0.981E-01    0.838E-01
DAV:  16    -0.186887538989E+03    0.49942E-02   -0.12292E-02 13200   0.568E-01    0.394E-01
DAV:  17    -0.186885929648E+03    0.16093E-02   -0.68471E-03 12800   0.318E-01    0.207E-01
DAV:  18    -0.186885103865E+03    0.82578E-03   -0.22141E-03 12160   0.164E-01    0.175E-01
DAV:  19    -0.186884914620E+03    0.18924E-03   -0.86515E-04 11360   0.146E-01    0.486E-02
DAV:  20    -0.186885759224E+03   -0.84460E-03   -0.80146E-04  9000   0.590E-02    0.463E-02
DAV:  21    -0.186886616537E+03   -0.85731E-03   -0.24107E-04  8120   0.515E-02    0.346E-02
DAV:  22    -0.186887429844E+03   -0.81331E-03   -0.11649E-04  7160   0.313E-02    0.365E-02
DAV:  23    -0.186888636206E+03   -0.12064E-02   -0.14522E-04  7480   0.456E-02    0.206E-02
DAV:  24    -0.186889181463E+03   -0.54526E-03   -0.28356E-05  6760   0.221E-02    0.475E-03
DAV:  25    -0.186889567753E+03   -0.38629E-03   -0.18653E-05  5480   0.961E-03    0.470E-03
DAV:  26    -0.186889806486E+03   -0.23873E-03   -0.90860E-06  6800   0.764E-03    0.156E-03
DAV:  27    -0.186889886890E+03   -0.80404E-04   -0.29971E-06  7400   0.379E-03
   1 F= -.18688989E+03 E0= -.18671861E+03  d E =-.186890E+03
       N       E                     dE             d eps       ncg     rms          rms(c)
DAV:   1    -0.187544126254E+03   -0.65432E+00   -0.27361E+02  8160   0.352E+01    0.466E+00
DAV:   2    -0.189533206085E+03   -0.19891E+01   -0.20374E+01 12360   0.156E+01    0.942E+00
DAV:   3    -0.189376935150E+03    0.15627E+00   -0.42516E+00 12360   0.123E+01    0.643E+00
DAV:   4    -0.188803959830E+03    0.57298E+00   -0.61052E-01 12440   0.452E+00    0.181E+00
DAV:   5    -0.188953487523E+03   -0.14953E+00   -0.51624E-01 12480   0.361E+00    0.591E+00
DAV:   6    -0.188772232168E+03    0.18126E+00   -0.85939E-01 12720   0.447E+00    0.201E+00
DAV:   7    -0.188743707689E+03    0.28524E-01   -0.14451E-01 11000   0.142E+00    0.126E+00
DAV:   8    -0.188719739738E+03    0.23968E-01   -0.54914E-02 12080   0.939E-01    0.764E-01
DAV:   9    -0.188716971485E+03    0.27683E-02   -0.13389E-02 11440   0.647E-01    0.435E-01
DAV:  10    -0.188715868403E+03    0.11031E-02   -0.39594E-03 13520   0.295E-01    0.203E-01
DAV:  11    -0.188715242278E+03    0.62612E-03   -0.23124E-03 11960   0.158E-01    0.103E-01
DAV:  12    -0.188715390659E+03   -0.14838E-03   -0.76224E-04 10680   0.815E-02    0.812E-02
DAV:  13    -0.188715327480E+03    0.63179E-04   -0.24203E-04  8160   0.588E-02
   2 F= -.18871533E+03 E0= -.18857569E+03  d E =-.182544E+01
       N       E                     dE             d eps       ncg     rms          rms(c)
DAV:   1    -0.190640339477E+03   -0.19249E+01   -0.31519E+01  9040   0.143E+01    0.441E+00
DAV:   2    -0.190558028795E+03    0.82311E-01   -0.27337E+00 11120   0.924E+00    0.702E+00
DAV:   3    -0.190133282068E+03    0.42475E+00   -0.13597E+00 12320   0.853E+00    0.426E+00
DAV:   4    -0.189920519967E+03    0.21276E+00   -0.75789E-01 12760   0.436E+00    0.251E+00
DAV:   5    -0.189895728254E+03    0.24792E-01   -0.37369E-01 12240   0.306E+00    0.277E+00
DAV:   6    -0.189823606498E+03    0.72122E-01   -0.14977E-01 12560   0.246E+00    0.808E-01
DAV:   7    -0.189815802002E+03    0.78045E-02   -0.16318E-02 11560   0.588E-01    0.237E-01
DAV:   8    -0.189816858273E+03   -0.10563E-02   -0.48695E-03 12400   0.391E-01    0.406E-01
DAV:   9    -0.189815656428E+03    0.12018E-02   -0.26112E-03 11160   0.326E-01    0.120E-01
DAV:  10    -0.189815985058E+03   -0.32863E-03   -0.76311E-04  9760   0.103E-01    0.114E-01
DAV:  11    -0.189815762443E+03    0.22262E-03   -0.38770E-04  8960   0.672E-02    0.234E-02
DAV:  12    -0.189815782850E+03   -0.20407E-04   -0.65080E-05  6880   0.271E-02
   3 F= -.18981578E+03 E0= -.18969624E+03  d E =-.110046E+01
       N       E                     dE             d eps       ncg     rms          rms(c)
DAV:   1    -0.191420064611E+03   -0.16043E+01   -0.82671E+01  8160   0.207E+01    0.460E+00
DAV:   2    -0.191226550664E+03    0.19351E+00   -0.54643E+00 13160   0.748E+00    0.438E+00
DAV:   3    -0.191378826409E+03   -0.15228E+00   -0.16074E+00 12240   0.896E+00    0.657E+00
DAV:   4    -0.190997666251E+03    0.38116E+00   -0.13848E+00 12400   0.778E+00    0.295E+00
DAV:   5    -0.190905944254E+03    0.91722E-01   -0.36852E-01 12400   0.316E+00    0.221E+00
DAV:   6    -0.190873681350E+03    0.32263E-01   -0.19610E-01 12400   0.291E+00    0.176E+00
DAV:   7    -0.190847374769E+03    0.26307E-01   -0.68623E-02 12640   0.151E+00    0.421E-01
DAV:   8    -0.190844677334E+03    0.26974E-02   -0.68289E-03 10160   0.329E-01    0.154E-01
DAV:   9    -0.190845456875E+03   -0.77954E-03   -0.22516E-03 12680   0.283E-01    0.293E-01
DAV:  10    -0.190845060902E+03    0.39597E-03   -0.23871E-03 10560   0.319E-01    0.161E-01
DAV:  11    -0.190844796861E+03    0.26404E-03   -0.74398E-04  9920   0.138E-01    0.476E-02
DAV:  12    -0.190844802124E+03   -0.52625E-05   -0.11125E-04  6560   0.429E-02
   4 F= -.19084480E+03 E0= -.19073676E+03  d E =-.102902E+01
       N       E                     dE             d eps       ncg     rms          rms(c)
DAV:   1    -0.192150677696E+03   -0.13059E+01   -0.17644E+02  8160   0.294E+01    0.552E+00
DAV:   2    -0.191934132722E+03    0.21654E+00   -0.93615E+00 10880   0.778E+00    0.343E+00
DAV:   3    -0.191798418270E+03    0.13571E+00   -0.14731E+00 11720   0.602E+00    0.360E+00
DAV:   4    -0.191826943611E+03   -0.28525E-01   -0.10662E+00 12400   0.748E+00    0.437E+00
DAV:   5    -0.191556370810E+03    0.27057E+00   -0.44551E-01 12360   0.459E+00    0.838E-01
DAV:   6    -0.191546764039E+03    0.96068E-02   -0.82943E-02 11640   0.120E+00    0.590E-01
DAV:   7    -0.191552388883E+03   -0.56248E-02   -0.40629E-02 12040   0.123E+00    0.111E+00
DAV:   8    -0.191541491923E+03    0.10897E-01   -0.20618E-02 11640   0.909E-01    0.177E-01
DAV:   9    -0.191542364676E+03   -0.87275E-03   -0.33138E-03 11520   0.305E-01    0.304E-01
DAV:  10    -0.191541797487E+03    0.56719E-03   -0.33268E-03 11800   0.364E-01    0.174E-01
DAV:  11    -0.191541553111E+03    0.24438E-03   -0.95950E-04 10000   0.162E-01    0.546E-02
DAV:  12    -0.191541519606E+03    0.33505E-04   -0.12084E-04  6480   0.458E-02
   5 F= -.19154152E+03 E0= -.19143076E+03  d E =-.696717E+00
       N       E                     dE             d eps       ncg     rms          rms(c)
DAV:   1    -0.191618552157E+03   -0.76999E-01   -0.58939E+00  8160   0.512E+00    0.657E-01
DAV:   2    -0.191676292866E+03   -0.57741E-01   -0.30625E-01 13600   0.287E+00    0.215E+00
DAV:   3    -0.191631661487E+03    0.44631E-01   -0.10860E-01 12480   0.215E+00    0.486E-01
DAV:   4    -0.191634493535E+03   -0.28320E-02   -0.22867E-02 10280   0.945E-01    0.773E-01
DAV:   5    -0.191628415681E+03    0.60779E-02   -0.13539E-02 11320   0.748E-01    0.235E-01
DAV:   6    -0.191629521318E+03   -0.11056E-02   -0.59122E-03 11160   0.426E-01    0.432E-01
DAV:   7    -0.191628194808E+03    0.13265E-02   -0.53743E-03 11160   0.472E-01    0.210E-01
DAV:   8    -0.191627686909E+03    0.50790E-03   -0.10193E-03  9920   0.169E-01    0.338E-02
DAV:   9    -0.191627699828E+03   -0.12919E-04   -0.10506E-04  6560   0.346E-02
   6 F= -.19162770E+03 E0= -.19151609E+03  d E =-.861802E-01
       N       E                     dE             d eps       ncg     rms          rms(c)
DAV:   1    -0.191697455023E+03   -0.69768E-01   -0.47763E+00  8160   0.460E+00    0.510E-01
DAV:   2    -0.191730253613E+03   -0.32799E-01   -0.16257E-01 12760   0.187E+00    0.168E+00
DAV:   3    -0.191703778235E+03    0.26475E-01   -0.72913E-02 12520   0.170E+00    0.444E-01
DAV:   4    -0.191704510870E+03   -0.73264E-03   -0.13478E-02 11240   0.705E-01    0.533E-01
DAV:   5    -0.191701595766E+03    0.29151E-02   -0.69923E-03 11320   0.565E-01    0.187E-01
DAV:   6    -0.191701872976E+03   -0.27721E-03   -0.30131E-03 11120   0.301E-01    0.284E-01
DAV:   7    -0.191701575410E+03    0.29757E-03   -0.31942E-03 10040   0.364E-01    0.215E-01
DAV:   8    -0.191701089381E+03    0.48603E-03   -0.88634E-04  8680   0.174E-01    0.241E-02
DAV:   9    -0.191701112125E+03   -0.22744E-04   -0.81431E-05  6000   0.312E-02
   7 F= -.19170111E+03 E0= -.19158983E+03  d E =-.734123E-01
       N       E                     dE             d eps       ncg     rms          rms(c)
DAV:   1    -0.191756796626E+03   -0.55707E-01   -0.28540E+00  8160   0.359E+00    0.451E-01
DAV:   2    -0.191786302499E+03   -0.29506E-01   -0.12934E-01 12040   0.193E+00    0.167E+00
DAV:   3    -0.191760440829E+03    0.25862E-01   -0.62108E-02 12400   0.157E+00    0.324E-01
DAV:   4    -0.191761487128E+03   -0.10463E-02   -0.91119E-03 11320   0.616E-01    0.467E-01
DAV:   5    -0.191759222950E+03    0.22642E-02   -0.55023E-03 10920   0.501E-01    0.180E-01
DAV:   6    -0.191759703176E+03   -0.48023E-03   -0.29720E-03 11680   0.322E-01    0.313E-01
DAV:   7    -0.191759015502E+03    0.68767E-03   -0.24781E-03  9880   0.322E-01    0.127E-01
DAV:   8    -0.191758802436E+03    0.21307E-03   -0.40586E-04  8080   0.103E-01    0.170E-02
DAV:   9    -0.191758813656E+03   -0.11220E-04   -0.54356E-05  6800   0.252E-02
   8 F= -.19175881E+03 E0= -.19164857E+03  d E =-.577015E-01
       N       E                     dE             d eps       ncg     rms          rms(c)
DAV:   1    -0.191888306197E+03   -0.12950E+00   -0.24028E+01  8160   0.104E+01    0.121E+00
DAV:   2    -0.192094685642E+03   -0.20638E+00   -0.94887E-01 11600   0.487E+00    0.454E+00
DAV:   3    -0.191924266516E+03    0.17042E+00   -0.50493E-01 12360   0.431E+00    0.911E-01
DAV:   4    -0.191933124270E+03   -0.88578E-02   -0.65567E-02 12120   0.164E+00    0.146E+00
DAV:   5    -0.191913437393E+03    0.19687E-01   -0.47440E-02 11560   0.143E+00    0.569E-01
DAV:   6    -0.191914568396E+03   -0.11310E-02   -0.16969E-02 11680   0.884E-01    0.687E-01
DAV:   7    -0.191910922564E+03    0.36458E-02   -0.13994E-02 11520   0.866E-01    0.306E-01
DAV:   8    -0.191909318317E+03    0.16042E-02   -0.27065E-03 10960   0.283E-01    0.497E-02
DAV:   9    -0.191909345244E+03   -0.26928E-04   -0.37826E-04  9560   0.586E-02
   9 F= -.19190935E+03 E0= -.19180450E+03  d E =-.150532E+00
       N       E                     dE             d eps       ncg     rms          rms(c)
DAV:   1    -0.191965713357E+03   -0.56395E-01   -0.46362E+00  8160   0.462E+00    0.644E-01
DAV:   2    -0.192010491367E+03   -0.44778E-01   -0.22678E-01 12200   0.241E+00    0.211E+00
DAV:   3    -0.191971843998E+03    0.38647E-01   -0.97305E-02 12280   0.204E+00    0.467E-01
DAV:   4    -0.191974344264E+03   -0.25003E-02   -0.17126E-02 12240   0.899E-01    0.759E-01
DAV:   5    -0.191969351652E+03    0.49926E-02   -0.14608E-02 11080   0.822E-01    0.383E-01
DAV:   6    -0.191969857123E+03   -0.50547E-03   -0.64234E-03 11480   0.566E-01    0.437E-01
DAV:   7    -0.191968042844E+03    0.18143E-02   -0.40106E-03 11320   0.453E-01    0.965E-02
DAV:   8    -0.191967881242E+03    0.16160E-03   -0.40121E-04  9160   0.902E-02    0.269E-02
DAV:   9    -0.191967874428E+03    0.68142E-05   -0.67611E-05  8160   0.281E-02
  10 F= -.19196787E+03 E0= -.19186497E+03  d E =-.585292E-01
       N       E                     dE             d eps       ncg     rms          rms(c)
DAV:   1    -0.192029766409E+03   -0.61885E-01   -0.99218E+00  8160   0.664E+00    0.721E-01
DAV:   2    -0.192091068117E+03   -0.61302E-01   -0.32647E-01 11840   0.264E+00    0.231E+00
DAV:   3    -0.192045381255E+03    0.45687E-01   -0.12124E-01 12360   0.232E+00    0.582E-01
DAV:   4    -0.192048726313E+03   -0.33451E-02   -0.20243E-02 11320   0.937E-01    0.912E-01
DAV:   5    -0.192041353964E+03    0.73723E-02   -0.15427E-02 10800   0.873E-01    0.306E-01
DAV:   6    -0.192041345249E+03    0.87155E-05   -0.42368E-03 12200   0.360E-01    0.259E-01
DAV:   7    -0.192040791352E+03    0.55390E-03   -0.28841E-03 11920   0.413E-01    0.186E-01
DAV:   8    -0.192040338806E+03    0.45255E-03   -0.79353E-04  9800   0.204E-01    0.334E-02
DAV:   9    -0.192040336540E+03    0.22663E-05   -0.11218E-04  6640   0.411E-02
  11 F= -.19204034E+03 E0= -.19194074E+03  d E =-.724621E-01
       N       E                     dE             d eps       ncg     rms          rms(c)
DAV:   1    -0.192058931820E+03   -0.18593E-01   -0.79198E-01  8160   0.189E+00    0.205E-01
DAV:   2    -0.192060373924E+03   -0.14421E-02   -0.21146E-02 13520   0.513E-01    0.279E-01
DAV:   3    -0.192060065353E+03    0.30857E-03   -0.37035E-03 12360   0.446E-01    0.236E-01
DAV:   4    -0.192059614771E+03    0.45058E-03   -0.16898E-03  9920   0.285E-01    0.166E-01
DAV:   5    -0.192059533986E+03    0.80785E-04   -0.11925E-03  9920   0.259E-01    0.152E-01
DAV:   6    -0.192059368697E+03    0.16529E-03   -0.70327E-04  8920   0.179E-01    0.923E-02
DAV:   7    -0.192059380494E+03   -0.11797E-04   -0.41665E-04  8600   0.145E-01
  12 F= -.19205938E+03 E0= -.19196068E+03  d E =-.190440E-01
       N       E                     dE             d eps       ncg     rms          rms(c)
DAV:   1    -0.192093032030E+03   -0.33663E-01   -0.23077E+00  8160   0.321E+00    0.330E-01
DAV:   2    -0.192100078017E+03   -0.70460E-02   -0.61487E-02 11600   0.957E-01    0.688E-01
DAV:   3    -0.192096332492E+03    0.37455E-02   -0.14068E-02 12480   0.845E-01    0.322E-01
DAV:   4    -0.192095690617E+03    0.64188E-03   -0.31443E-03 11520   0.383E-01    0.246E-01
DAV:   5    -0.192095410885E+03    0.27973E-03   -0.24437E-03 10720   0.377E-01    0.222E-01
DAV:   6    -0.192095541955E+03   -0.13107E-03   -0.19834E-03 10000   0.299E-01    0.248E-01
DAV:   7    -0.192095040212E+03    0.50174E-03   -0.12168E-03  9920   0.267E-01    0.869E-02
DAV:   8    -0.192094935705E+03    0.10451E-03   -0.15533E-04  6080   0.809E-02    0.148E-02
DAV:   9    -0.192094938677E+03   -0.29719E-05   -0.54435E-05  7520   0.238E-02
  13 F= -.19209494E+03 E0= -.19199802E+03  d E =-.355582E-01
       N       E                     dE             d eps       ncg     rms          rms(c)
DAV:   1    -0.192119332314E+03   -0.24397E-01   -0.10898E+00  8160   0.221E+00    0.210E-01
DAV:   2    -0.192121169428E+03   -0.18371E-02   -0.25151E-02 11840   0.477E-01    0.266E-01
DAV:   3    -0.192121483902E+03   -0.31447E-03   -0.42893E-03 12520   0.477E-01    0.331E-01
DAV:   4    -0.192120530736E+03    0.95317E-03   -0.19039E-03 10200   0.312E-01    0.146E-01
DAV:   5    -0.192120607673E+03   -0.76937E-04   -0.11083E-03  9760   0.231E-01    0.183E-01
DAV:   6    -0.192120380862E+03    0.22681E-03   -0.80340E-04  9120   0.189E-01    0.751E-02
DAV:   7    -0.192120357433E+03    0.23429E-04   -0.25661E-04  7800   0.117E-01
  14 F= -.19212036E+03 E0= -.19202521E+03  d E =-.254188E-01
       N       E                     dE             d eps       ncg     rms          rms(c)
DAV:   1    -0.192109842928E+03    0.10538E-01   -0.19645E-01  8160   0.952E-01    0.109E-01
DAV:   2    -0.192110668047E+03   -0.82512E-03   -0.61863E-03 11840   0.323E-01    0.252E-01
DAV:   3    -0.192110138482E+03    0.52957E-03   -0.16370E-03 10200   0.290E-01    0.114E-01
DAV:   4    -0.192110203952E+03   -0.65470E-04   -0.53557E-04  8320   0.167E-01
  15 F= -.19211020E+03 E0= -.19201390E+03  d E =0.101535E-01
       N       E                     dE             d eps       ncg     rms          rms(c)
DAV:   1    -0.192092359874E+03    0.17779E-01   -0.75247E-01  8160   0.187E+00    0.227E-01
DAV:   2    -0.192094086633E+03   -0.17268E-02   -0.20293E-02 12320   0.516E-01    0.396E-01
DAV:   3    -0.192093509877E+03    0.57676E-03   -0.62450E-03 11960   0.525E-01    0.313E-01
DAV:   4    -0.192092829615E+03    0.68026E-03   -0.22166E-03 10280   0.304E-01    0.185E-01
DAV:   5    -0.192092775263E+03    0.54352E-04   -0.14386E-03  9960   0.283E-01    0.185E-01
DAV:   6    -0.192092503670E+03    0.27159E-03   -0.83552E-04  9040   0.198E-01    0.825E-02
DAV:   7    -0.192092489872E+03    0.13798E-04   -0.33586E-04  8880   0.144E-01
  16 F= -.19209249E+03 E0= -.19199481E+03  d E =0.177141E-01
       N       E                     dE             d eps       ncg     rms          rms(c)
DAV:   1    -0.192126731244E+03   -0.34228E-01   -0.28377E+00  8160   0.355E+00    0.330E-01
DAV:   2    -0.192131343753E+03   -0.46125E-02   -0.70956E-02 12040   0.747E-01    0.276E-01
DAV:   3    -0.192133425166E+03   -0.20814E-02   -0.91073E-03 11320   0.661E-01    0.552E-01
DAV:   4    -0.192130432574E+03    0.29926E-02   -0.49034E-03 10800   0.531E-01    0.195E-01
DAV:   5    -0.192130842324E+03   -0.40975E-03   -0.23719E-03  9640   0.355E-01    0.296E-01
DAV:   6    -0.192130234527E+03    0.60780E-03   -0.20833E-03  9840   0.309E-01    0.147E-01
DAV:   7    -0.192130169077E+03    0.65450E-04   -0.86546E-04  9560   0.229E-01
  17 F= -.19213017E+03 E0= -.19203445E+03  d E =-.376792E-01
       N       E                     dE             d eps       ncg     rms          rms(c)
DAV:   1    -0.192138148218E+03   -0.79137E-02   -0.11590E-01  8160   0.749E-01    0.919E-02
DAV:   2    -0.192138362632E+03   -0.21441E-03   -0.37357E-03 11640   0.196E-01    0.117E-01
DAV:   3    -0.192138426177E+03   -0.63546E-04   -0.83069E-04 10720   0.206E-01
  18 F= -.19213843E+03 E0= -.19204351E+03  d E =-.825710E-02
       N       E                     dE             d eps       ncg     rms          rms(c)
DAV:   1    -0.192118610455E+03    0.19752E-01   -0.69144E-01  8160   0.179E+00    0.230E-01
DAV:   2    -0.192127256396E+03   -0.86459E-02   -0.28928E-02 12640   0.943E-01    0.935E-01
DAV:   3    -0.192119194585E+03    0.80618E-02   -0.11725E-02 11240   0.797E-01    0.142E-01
DAV:   4    -0.192119808776E+03   -0.61419E-03   -0.20357E-03 10000   0.321E-01    0.289E-01
DAV:   5    -0.192118976732E+03    0.83204E-03   -0.13947E-03  9520   0.285E-01    0.719E-02
DAV:   6    -0.192119003657E+03   -0.26925E-04   -0.32449E-04  8160   0.108E-01
  19 F= -.19211900E+03 E0= -.19202249E+03  d E =0.194225E-01
       N       E                     dE             d eps       ncg     rms          rms(c)
DAV:   1    -0.192126921750E+03   -0.79450E-02   -0.31504E-01  8160   0.122E+00    0.228E-01
DAV:   2    -0.192130105900E+03   -0.31841E-02   -0.18988E-02 10760   0.773E-01    0.610E-01
DAV:   3    -0.192126898467E+03    0.32074E-02   -0.77926E-03 11280   0.644E-01    0.234E-01
DAV:   4    -0.192127080949E+03   -0.18248E-03   -0.27288E-03 10120   0.378E-01    0.286E-01
DAV:   5    -0.192126276270E+03    0.80468E-03   -0.16816E-03  9560   0.302E-01    0.998E-02
DAV:   6    -0.192126184004E+03    0.92266E-04   -0.57837E-04  9360   0.130E-01
  20 F= -.19212618E+03 E0= -.19202976E+03  d E =-.718035E-02
       N       E                     dE             d eps       ncg     rms          rms(c)
DAV:   1    -0.192158152031E+03   -0.31876E-01   -0.22167E+00  8160   0.316E+00    0.327E-01
DAV:   2    -0.192165326620E+03   -0.71746E-02   -0.61845E-02 11840   0.971E-01    0.726E-01
DAV:   3    -0.192161917112E+03    0.34095E-02   -0.13326E-02 12400   0.825E-01    0.371E-01
DAV:   4    -0.192161129234E+03    0.78788E-03   -0.37716E-03 10960   0.402E-01    0.274E-01
DAV:   5    -0.192160765687E+03    0.36355E-03   -0.25044E-03 10400   0.393E-01    0.216E-01
DAV:   6    -0.192160433414E+03    0.33227E-03   -0.13288E-03 11400   0.242E-01    0.107E-01
DAV:   7    -0.192160413435E+03    0.19978E-04   -0.59672E-04  9320   0.197E-01
  21 F= -.19216041E+03 E0= -.19206596E+03  d E =-.342294E-01
       N       E                     dE             d eps       ncg     rms          rms(c)
DAV:   1    -0.192175184294E+03   -0.14751E-01   -0.42647E-01  8160   0.139E+00    0.148E-01
DAV:   2    -0.192176058356E+03   -0.87406E-03   -0.11990E-02 11560   0.328E-01    0.190E-01
DAV:   3    -0.192176341103E+03   -0.28275E-03   -0.23073E-03 12160   0.341E-01    0.268E-01
DAV:   4    -0.192175738686E+03    0.60242E-03   -0.11292E-03  9440   0.233E-01    0.820E-02
DAV:   5    -0.192175740335E+03   -0.16483E-05   -0.32543E-04  8080   0.123E-01
  22 F= -.19217574E+03 E0= -.19208232E+03  d E =-.153269E-01
       N       E                     dE             d eps       ncg     rms          rms(c)
DAV:   1    -0.192151775220E+03    0.23963E-01   -0.93301E-01  8160   0.206E+00    0.230E-01
DAV:   2    -0.192156880119E+03   -0.51049E-02   -0.30072E-02 12320   0.768E-01    0.654E-01
DAV:   3    -0.192153297215E+03    0.35829E-02   -0.96464E-03 11280   0.691E-01    0.231E-01
DAV:   4    -0.192153328751E+03   -0.31535E-04   -0.21570E-03  9800   0.302E-01    0.257E-01
DAV:   5    -0.192152785074E+03    0.54368E-03   -0.13167E-03  9560   0.279E-01    0.117E-01
DAV:   6    -0.192152652435E+03    0.13264E-03   -0.44991E-04  9600   0.120E-01    0.505E-02
DAV:   7    -0.192152627518E+03    0.24917E-04   -0.12616E-04  6800   0.549E-02
  23 F= -.19215263E+03 E0= -.19205790E+03  d E =0.231128E-01
       N       E                     dE             d eps       ncg     rms          rms(c)
DAV:   1    -0.192130237144E+03    0.22415E-01   -0.12612E+00  8160   0.243E+00    0.309E-01
DAV:   2    -0.192135262966E+03   -0.50258E-02   -0.41525E-02 12000   0.802E-01    0.651E-01
DAV:   3    -0.192132428337E+03    0.28346E-02   -0.13383E-02 11760   0.798E-01    0.363E-01
DAV:   4    -0.192132218339E+03    0.21000E-03   -0.42351E-03 11400   0.432E-01    0.357E-01
DAV:   5    -0.192131076928E+03    0.11414E-02   -0.25049E-03 10160   0.372E-01    0.143E-01
DAV:   6    -0.192131129821E+03   -0.52893E-04   -0.97012E-04 10080   0.210E-01
  24 F= -.19213113E+03 E0= -.19203459E+03  d E =0.214977E-01
       N       E                     dE             d eps       ncg     rms          rms(c)
DAV:   1    -0.192170358971E+03   -0.39282E-01   -0.33556E+00  8160   0.395E+00    0.496E-01
DAV:   2    -0.192180734536E+03   -0.10376E-01   -0.11650E-01 11480   0.139E+00    0.862E-01
DAV:   3    -0.192176010631E+03    0.47239E-02   -0.26051E-02 12240   0.121E+00    0.583E-01
DAV:   4    -0.192176027570E+03   -0.16939E-04   -0.13937E-02 11640   0.827E-01    0.647E-01
DAV:   5    -0.192172188606E+03    0.38390E-02   -0.74731E-03 11280   0.669E-01    0.237E-01
DAV:   6    -0.192171731286E+03    0.45732E-03   -0.28266E-03 10600   0.301E-01    0.145E-01
DAV:   7    -0.192171807045E+03   -0.75759E-04   -0.13516E-03 11040   0.280E-01    0.195E-01
DAV:   8    -0.192171399682E+03    0.40736E-03   -0.59591E-04  8480   0.195E-01    0.343E-02
DAV:   9    -0.192171390809E+03    0.88727E-05   -0.52293E-05  5760   0.347E-02
  25 F= -.19217139E+03 E0= -.19207723E+03  d E =-.402610E-01
       N       E                     dE             d eps       ncg     rms          rms(c)
DAV:   1    -0.192182792129E+03   -0.11392E-01   -0.30611E-01  8160   0.118E+00    0.131E-01
DAV:   2    -0.192183797243E+03   -0.10051E-02   -0.10130E-02 11080   0.386E-01    0.250E-01
DAV:   3    -0.192183476451E+03    0.32079E-03   -0.20098E-03 11480   0.324E-01    0.176E-01
DAV:   4    -0.192183291416E+03    0.18503E-03   -0.74356E-04  8200   0.194E-01    0.112E-01
DAV:   5    -0.192183210976E+03    0.80440E-04   -0.39398E-04  8640   0.164E-01
  26 F= -.19218321E+03 E0= -.19209001E+03  d E =-.118202E-01
       N       E                     dE             d eps       ncg     rms          rms(c)
DAV:   1    -0.192215420229E+03   -0.32129E-01   -0.21477E+00  8160   0.313E+00    0.339E-01
DAV:   2    -0.192221747456E+03   -0.63272E-02   -0.60749E-02 11680   0.874E-01    0.654E-01
DAV:   3    -0.192219373029E+03    0.23744E-02   -0.12633E-02 12360   0.806E-01    0.417E-01
DAV:   4    -0.192217687805E+03    0.16852E-02   -0.29426E-03 11080   0.357E-01    0.143E-01
DAV:   5    -0.192218148705E+03   -0.46090E-03   -0.17957E-03 11920   0.333E-01    0.254E-01
DAV:   6    -0.192217571866E+03    0.57684E-03   -0.15155E-03 10440   0.305E-01    0.107E-01
DAV:   7    -0.192217481824E+03    0.90042E-04   -0.39899E-04  8760   0.153E-01
  27 F= -.19221748E+03 E0= -.19212697E+03  d E =-.342708E-01
       N       E                     dE             d eps       ncg     rms          rms(c)
DAV:   1    -0.192220961558E+03   -0.33897E-02   -0.20233E-02  8160   0.319E-01    0.502E-02
DAV:   2    -0.192221119357E+03   -0.15780E-03   -0.99146E-04 11520   0.143E-01    0.123E-01
DAV:   3    -0.192220986744E+03    0.13261E-03   -0.36152E-04  8640   0.144E-01    0.552E-02
DAV:   4    -0.192220987904E+03   -0.11607E-05   -0.88352E-05  6080   0.718E-02
  28 F= -.19222099E+03 E0= -.19213078E+03  d E =-.350608E-02
       N       E                     dE             d eps       ncg     rms          rms(c)
DAV:   1    -0.192264495149E+03   -0.43508E-01   -0.32676E+00  8160   0.390E+00    0.465E-01
DAV:   2    -0.192276368650E+03   -0.11874E-01   -0.10168E-01 11600   0.127E+00    0.948E-01
DAV:   3    -0.192269768221E+03    0.66004E-02   -0.23851E-02 12360   0.116E+00    0.513E-01
DAV:   4    -0.192267953173E+03    0.18150E-02   -0.64266E-03 12240   0.543E-01    0.351E-01
DAV:   5    -0.192267391572E+03    0.56160E-03   -0.41610E-03 11360   0.540E-01    0.301E-01
DAV:   6    -0.192266705714E+03    0.68586E-03   -0.23463E-03 11200   0.351E-01    0.138E-01
DAV:   7    -0.192266579643E+03    0.12607E-03   -0.85846E-04 10600   0.211E-01    0.123E-01
DAV:   8    -0.192266391126E+03    0.18852E-03   -0.27228E-04  9320   0.140E-01    0.260E-02
DAV:   9    -0.192266385545E+03    0.55804E-05   -0.39388E-05  6360   0.328E-02
  29 F= -.19226639E+03 E0= -.19217946E+03  d E =-.453976E-01
       N       E                     dE             d eps       ncg     rms          rms(c)
DAV:   1    -0.192281019440E+03   -0.14628E-01   -0.31681E-01  8160   0.121E+00    0.151E-01
DAV:   2    -0.192282800723E+03   -0.17813E-02   -0.10768E-02 11240   0.461E-01    0.378E-01
DAV:   3    -0.192281525559E+03    0.12752E-02   -0.28742E-03 12200   0.415E-01    0.145E-01
DAV:   4    -0.192281585826E+03   -0.60267E-04   -0.83187E-04  9000   0.220E-01
  30 F= -.19228159E+03 E0= -.19219570E+03  d E =-.152003E-01
       N       E                     dE             d eps       ncg     rms          rms(c)
DAV:   1    -0.192296439334E+03   -0.14914E-01   -0.36938E-01  8160   0.134E+00    0.206E-01
DAV:   2    -0.192299656196E+03   -0.32169E-02   -0.15973E-02 11320   0.652E-01    0.571E-01
DAV:   3    -0.192296723628E+03    0.29326E-02   -0.55294E-03 11840   0.584E-01    0.177E-01
DAV:   4    -0.192296596979E+03    0.12665E-03   -0.11890E-03  9640   0.237E-01    0.145E-01
DAV:   5    -0.192296495327E+03    0.10165E-03   -0.80834E-04 10400   0.238E-01    0.130E-01
DAV:   6    -0.192296340707E+03    0.15462E-03   -0.46015E-04  8880   0.155E-01    0.603E-02
DAV:   7    -0.192296356012E+03   -0.15305E-04   -0.19820E-04  7840   0.115E-01
  31 F= -.19229636E+03 E0= -.19221214E+03  d E =-.147702E-01
       N       E                     dE             d eps       ncg     rms          rms(c)
DAV:   1    -0.192324531854E+03   -0.28191E-01   -0.10931E+00  8160   0.232E+00    0.355E-01
DAV:   2    -0.192325711363E+03   -0.11795E-02   -0.36572E-02 11120   0.647E-01    0.441E-01
DAV:   3    -0.192326390365E+03   -0.67900E-03   -0.11557E-02 11680   0.840E-01    0.570E-01
DAV:   4    -0.192323417129E+03    0.29732E-02   -0.57191E-03 11360   0.562E-01    0.222E-01
DAV:   5    -0.192323615215E+03   -0.19809E-03   -0.27806E-03 10480   0.414E-01    0.296E-01
DAV:   6    -0.192322770953E+03    0.84426E-03   -0.16054E-03  9600   0.312E-01    0.865E-02
DAV:   7    -0.192322706122E+03    0.64831E-04   -0.34618E-04  8720   0.127E-01
  32 F= -.19232271E+03 E0= -.19223980E+03  d E =-.263501E-01
       N       E                     dE             d eps       ncg     rms          rms(c)
DAV:   1    -0.192354621133E+03   -0.31850E-01   -0.15617E+00  8160   0.268E+00    0.351E-01
DAV:   2    -0.192365685747E+03   -0.11065E-01   -0.57276E-02 11240   0.119E+00    0.941E-01
DAV:   3    -0.192356595554E+03    0.90902E-02   -0.16101E-02 12040   0.103E+00    0.270E-01
DAV:   4    -0.192356685814E+03   -0.90260E-04   -0.33550E-03 11040   0.421E-01    0.308E-01
DAV:   5    -0.192355898093E+03    0.78772E-03   -0.22507E-03 10520   0.391E-01    0.176E-01
DAV:   6    -0.192355738498E+03    0.15959E-03   -0.10372E-03 10400   0.239E-01    0.128E-01
DAV:   7    -0.192355728002E+03    0.10497E-04   -0.70244E-04 10600   0.228E-01
  33 F= -.19235573E+03 E0= -.19227494E+03  d E =-.330219E-01
       N       E                     dE             d eps       ncg     rms          rms(c)
DAV:   1    -0.192383408625E+03   -0.27670E-01   -0.12517E+00  8160   0.241E+00    0.323E-01
DAV:   2    -0.192391265064E+03   -0.78564E-02   -0.43698E-02 11240   0.102E+00    0.788E-01
DAV:   3    -0.192384879126E+03    0.63859E-02   -0.12826E-02 11840   0.930E-01    0.268E-01
DAV:   4    -0.192384863449E+03    0.15678E-04   -0.29576E-03 11480   0.388E-01    0.281E-01
DAV:   5    -0.192384118925E+03    0.74452E-03   -0.18075E-03 10360   0.351E-01    0.144E-01
DAV:   6    -0.192384045313E+03    0.73612E-04   -0.77665E-04 10200   0.207E-01
  34 F= -.19238405E+03 E0= -.19230490E+03  d E =-.283173E-01
       N       E                     dE             d eps       ncg     rms          rms(c)
DAV:   1    -0.192430308966E+03   -0.46190E-01   -0.46679E+00  8160   0.466E+00    0.615E-01
DAV:   2    -0.192463624191E+03   -0.33315E-01   -0.16664E-01 11240   0.217E+00    0.155E+00
DAV:   3    -0.192435308105E+03    0.28316E-01   -0.44091E-02 11760   0.179E+00    0.399E-01
DAV:   4    -0.192436405234E+03   -0.10971E-02   -0.91502E-03 11440   0.752E-01    0.550E-01
DAV:   5    -0.192433238039E+03    0.31672E-02   -0.61532E-03 11600   0.675E-01    0.215E-01
DAV:   6    -0.192433475454E+03   -0.23741E-03   -0.25312E-03 11480   0.361E-01    0.264E-01
DAV:   7    -0.192433008762E+03    0.46669E-03   -0.19804E-03 11480   0.385E-01    0.168E-01
DAV:   8    -0.192432637456E+03    0.37131E-03   -0.50634E-04  9080   0.161E-01    0.255E-02
DAV:   9    -0.192432639137E+03   -0.16813E-05   -0.70567E-05  6760   0.309E-02
  35 F= -.19243264E+03 E0= -.19235573E+03  d E =-.485938E-01
       N       E                     dE             d eps       ncg     rms          rms(c)
DAV:   1    -0.192459614161E+03   -0.26977E-01   -0.21971E+00  8160   0.323E+00    0.442E-01
DAV:   2    -0.192469256782E+03   -0.96426E-02   -0.82788E-02 11360   0.119E+00    0.826E-01
DAV:   3    -0.192463232100E+03    0.60247E-02   -0.20987E-02 12000   0.119E+00    0.473E-01
DAV:   4    -0.192461303796E+03    0.19283E-02   -0.58274E-03 11440   0.544E-01    0.276E-01
DAV:   5    -0.192460811884E+03    0.49191E-03   -0.30886E-03 11400   0.452E-01    0.237E-01
DAV:   6    -0.192460377967E+03    0.43392E-03   -0.17891E-03 10840   0.312E-01    0.146E-01
DAV:   7    -0.192460335144E+03    0.42823E-04   -0.96527E-04 10680   0.252E-01
  36 F= -.19246034E+03 E0= -.19238373E+03  d E =-.276960E-01
       N       E                     dE             d eps       ncg     rms          rms(c)
DAV:   1    -0.192473992656E+03   -0.13615E-01   -0.87972E-01  8160   0.202E+00    0.292E-01
DAV:   2    -0.192480659603E+03   -0.66669E-02   -0.40883E-02 10880   0.108E+00    0.687E-01
DAV:   3    -0.192475299799E+03    0.53598E-02   -0.10405E-02 11960   0.862E-01    0.210E-01
DAV:   4    -0.192475157418E+03    0.14238E-03   -0.20977E-03 11280   0.341E-01    0.209E-01
DAV:   5    -0.192474843710E+03    0.31371E-03   -0.13502E-03 10040   0.319E-01    0.150E-01
DAV:   6    -0.192474638248E+03    0.20546E-03   -0.66827E-04 10560   0.171E-01    0.728E-02
DAV:   7    -0.192474705206E+03   -0.66958E-04   -0.37016E-04  8920   0.157E-01
  37 F= -.19247471E+03 E0= -.19239890E+03  d E =-.143701E-01
       N       E                     dE             d eps       ncg     rms          rms(c)
DAV:   1    -0.192482866971E+03   -0.82287E-02   -0.35238E-01  8160   0.130E+00    0.201E-01
DAV:   2    -0.192484506679E+03   -0.16397E-02   -0.16084E-02 10840   0.544E-01    0.362E-01
DAV:   3    -0.192483446603E+03    0.10601E-02   -0.45935E-03 12080   0.555E-01    0.219E-01
DAV:   4    -0.192482899359E+03    0.54724E-03   -0.10866E-03  9840   0.237E-01    0.820E-02
DAV:   5    -0.192482892008E+03    0.73505E-05   -0.50399E-04  9400   0.153E-01
  38 F= -.19248289E+03 E0= -.19240718E+03  d E =-.818680E-02
       N       E                     dE             d eps       ncg     rms          rms(c)
DAV:   1    -0.192492813472E+03   -0.99141E-02   -0.97317E-01  8160   0.211E+00    0.278E-01
DAV:   2    -0.192500148323E+03   -0.73349E-02   -0.40030E-02 11080   0.988E-01    0.713E-01
DAV:   3    -0.192494479687E+03    0.56686E-02   -0.11189E-02 12280   0.876E-01    0.192E-01
DAV:   4    -0.192494388496E+03    0.91191E-04   -0.15158E-03 10080   0.296E-01    0.183E-01
DAV:   5    -0.192494065338E+03    0.32316E-03   -0.88898E-04 10440   0.275E-01    0.108E-01
DAV:   6    -0.192494001623E+03    0.63715E-04   -0.43745E-04  9360   0.138E-01
  39 F= -.19249400E+03 E0= -.19241847E+03  d E =-.111096E-01
       N       E                     dE             d eps       ncg     rms          rms(c)
DAV:   1    -0.192500890819E+03   -0.68255E-02   -0.79585E-01  8160   0.194E+00    0.278E-01
DAV:   2    -0.192505798978E+03   -0.49082E-02   -0.36915E-02 11360   0.792E-01    0.569E-01
DAV:   3    -0.192502559425E+03    0.32396E-02   -0.98276E-03 12160   0.777E-01    0.274E-01
DAV:   4    -0.192502001583E+03    0.55784E-03   -0.19993E-03 11160   0.327E-01    0.183E-01
DAV:   5    -0.192501685634E+03    0.31595E-03   -0.99051E-04 10520   0.282E-01    0.116E-01
DAV:   6    -0.192501589222E+03    0.96412E-04   -0.50114E-04  9800   0.152E-01
  40 F= -.19250159E+03 E0= -.19242613E+03  d E =-.758760E-02
       N       E                     dE             d eps       ncg     rms          rms(c)
DAV:   1    -0.192503732457E+03   -0.20468E-02   -0.38941E+00  8160   0.421E+00    0.499E-01
DAV:   2    -0.192520943251E+03   -0.17211E-01   -0.14849E-01 11200   0.150E+00    0.892E-01
DAV:   3    -0.192512882208E+03    0.80610E-02   -0.28455E-02 12200   0.135E+00    0.452E-01
DAV:   4    -0.192511259697E+03    0.16225E-02   -0.66510E-03 12360   0.602E-01    0.319E-01
DAV:   5    -0.192510447043E+03    0.81265E-03   -0.31794E-03 10760   0.495E-01    0.226E-01
DAV:   6    -0.192510050593E+03    0.39645E-03   -0.17014E-03 11520   0.286E-01    0.120E-01
DAV:   7    -0.192509881920E+03    0.16867E-03   -0.72938E-04 10160   0.154E-01    0.850E-02
DAV:   8    -0.192509816637E+03    0.65283E-04   -0.21660E-04  9400   0.120E-01
  41 F= -.19250982E+03 E0= -.19243507E+03  d E =-.822741E-02
       N       E                     dE             d eps       ncg     rms          rms(c)
DAV:   1    -0.192510244327E+03   -0.36241E-03   -0.60409E-02  8160   0.528E-01    0.792E-02
DAV:   2    -0.192511179810E+03   -0.93548E-03   -0.30696E-03 12040   0.357E-01    0.276E-01
DAV:   3    -0.192510287774E+03    0.89204E-03   -0.12278E-03 10040   0.303E-01    0.388E-02
DAV:   4    -0.192510301747E+03   -0.13973E-04   -0.77447E-05  5560   0.705E-02
  42 F= -.19251030E+03 E0= -.19243571E+03  d E =-.485111E-03
