<?xml version="1.0" encoding="ISO-8859-1"?>
<modeling>
 <generator>
  <i name="program" type="string">vasp </i>
  <i name="version" type="string">5.4.1  </i>
  <i name="subversion" type="string">05Feb16 (build Jul 05 2020 17:13:04) complex                          parallel </i>
  <i name="platform" type="string">IFC91_ompi </i>
  <i name="date" type="string">2024 04 26 </i>
  <i name="time" type="string">06:02:34 </i>
 </generator>
 <incar>
  <i type="int" name="ISTART">     0</i>
  <i type="string" name="PREC">normal</i>
  <i type="string" name="ALGO"> Normal</i>
  <i type="int" name="ISPIN">     1</i>
  <i type="int" name="ICHARG">     2</i>
  <i type="int" name="IBRION">     1</i>
  <i type="int" name="NSW">   100</i>
  <i type="int" name="ISIF">     3</i>
  <i type="int" name="ISYM">     0</i>
  <i name="SYMPREC">      0.00000001</i>
  <i name="POTIM">      0.50000000</i>
  <i type="logical" name="LREAL"> F  </i>
  <i type="logical" name="LPLANE"> F  </i>
  <i type="int" name="ISMEAR">     0</i>
  <i type="logical" name="LWAVE"> F  </i>
  <i type="logical" name="LCHARG"> F  </i>
  <v type="int" name="KPOINT_BSE">    -1     0     0     0</v>
 </incar>
 <kpoints>
  <generation param="Gamma">
   <v type="int" name="divisions">       8        8        1 </v>
   <v name="usershift">      0.00000000       0.00000000       0.00000000 </v>
   <v name="genvec1">      0.12500000       0.00000000       0.00000000 </v>
   <v name="genvec2">     -0.00000000       0.12500000       0.00000000 </v>
   <v name="genvec3">      0.00000000       0.00000000       1.00000000 </v>
   <v name="shift">      0.00000000       0.00000000       0.00000000 </v>
  </generation>
  <varray name="kpointlist" >
   <v>       0.00000000       0.00000000       0.00000000 </v>
   <v>       0.12500000       0.00000000       0.00000000 </v>
   <v>       0.25000000       0.00000000       0.00000000 </v>
   <v>       0.37500000       0.00000000       0.00000000 </v>
   <v>       0.50000000       0.00000000       0.00000000 </v>
   <v>       0.00000000       0.12500000       0.00000000 </v>
   <v>       0.12500000       0.12500000       0.00000000 </v>
   <v>       0.25000000       0.12500000       0.00000000 </v>
   <v>       0.37500000       0.12500000       0.00000000 </v>
   <v>       0.50000000       0.12500000       0.00000000 </v>
   <v>      -0.37500000       0.12500000       0.00000000 </v>
   <v>      -0.25000000       0.12500000       0.00000000 </v>
   <v>      -0.12500000       0.12500000       0.00000000 </v>
   <v>       0.00000000       0.25000000       0.00000000 </v>
   <v>       0.12500000       0.25000000       0.00000000 </v>
   <v>       0.25000000       0.25000000       0.00000000 </v>
   <v>       0.37500000       0.25000000       0.00000000 </v>
   <v>       0.50000000       0.25000000       0.00000000 </v>
   <v>      -0.37500000       0.25000000       0.00000000 </v>
   <v>      -0.25000000       0.25000000       0.00000000 </v>
   <v>      -0.12500000       0.25000000       0.00000000 </v>
   <v>      -0.00000000       0.37500000       0.00000000 </v>
   <v>       0.12500000       0.37500000       0.00000000 </v>
   <v>       0.25000000       0.37500000       0.00000000 </v>
   <v>       0.37500000       0.37500000       0.00000000 </v>
   <v>       0.50000000       0.37500000       0.00000000 </v>
   <v>      -0.37500000       0.37500000       0.00000000 </v>
   <v>      -0.25000000       0.37500000       0.00000000 </v>
   <v>      -0.12500000       0.37500000       0.00000000 </v>
   <v>       0.00000000       0.50000000       0.00000000 </v>
   <v>       0.12500000       0.50000000       0.00000000 </v>
   <v>       0.25000000       0.50000000       0.00000000 </v>
   <v>       0.37500000       0.50000000       0.00000000 </v>
   <v>       0.50000000       0.50000000       0.00000000 </v>
  </varray>
  <varray name="weights" >
   <v>       0.01562500 </v>
   <v>       0.03125000 </v>
   <v>       0.03125000 </v>
   <v>       0.03125000 </v>
   <v>       0.01562500 </v>
   <v>       0.03125000 </v>
   <v>       0.03125000 </v>
   <v>       0.03125000 </v>
   <v>       0.03125000 </v>
   <v>       0.03125000 </v>
   <v>       0.03125000 </v>
   <v>       0.03125000 </v>
   <v>       0.03125000 </v>
   <v>       0.03125000 </v>
   <v>       0.03125000 </v>
   <v>       0.03125000 </v>
   <v>       0.03125000 </v>
   <v>       0.03125000 </v>
   <v>       0.03125000 </v>
   <v>       0.03125000 </v>
   <v>       0.03125000 </v>
   <v>       0.03125000 </v>
   <v>       0.03125000 </v>
   <v>       0.03125000 </v>
   <v>       0.03125000 </v>
   <v>       0.03125000 </v>
   <v>       0.03125000 </v>
   <v>       0.03125000 </v>
   <v>       0.03125000 </v>
   <v>       0.01562500 </v>
   <v>       0.03125000 </v>
   <v>       0.03125000 </v>
   <v>       0.03125000 </v>
   <v>       0.01562500 </v>
  </varray>
 </kpoints>
 <parameters>
  <separator name="general" >
   <i type="string" name="SYSTEM">unknown system</i>
   <i type="logical" name="LCOMPAT"> F  </i>
  </separator>
  <separator name="electronic" >
   <i type="string" name="PREC">normal</i>
   <i name="ENMAX">    280.00000000</i>
   <i name="ENAUG">    373.43800000</i>
   <i name="EDIFF">      0.00010000</i>
   <i type="int" name="IALGO">    38</i>
   <i type="int" name="IWAVPR">    11</i>
   <i type="int" name="NBANDS">   120</i>
   <i name="NELECT">    159.00000000</i>
   <i type="int" name="TURBO">     0</i>
   <i type="int" name="IRESTART">     0</i>
   <i type="int" name="NREBOOT">     0</i>
   <i type="int" name="NMIN">     0</i>
   <i name="EREF">      0.00000000</i>
   <separator name="electronic smearing" >
    <i type="int" name="ISMEAR">     0</i>
    <i name="SIGMA">      0.20000000</i>
    <i name="KSPACING">      0.50000000</i>
    <i type="logical" name="KGAMMA"> T  </i>
   </separator>
   <separator name="electronic projectors" >
    <i type="logical" name="LREAL"> F  </i>
    <v name="ROPT">      0.00000000      0.00000000      0.00000000      0.00000000</v>
    <i type="int" name="LMAXPAW">  -100</i>
    <i type="int" name="LMAXMIX">     2</i>
    <i type="logical" name="NLSPLINE"> F  </i>
   </separator>
   <separator name="electronic startup" >
    <i type="int" name="ISTART">     0</i>
    <i type="int" name="ICHARG">     2</i>
    <i type="int" name="INIWAV">     1</i>
   </separator>
   <separator name="electronic spin" >
    <i type="int" name="ISPIN">     1</i>
    <i type="logical" name="LNONCOLLINEAR"> F  </i>
    <v name="MAGMOM">      1.00000000      1.00000000      1.00000000      1.00000000      1.00000000      1.00000000      1.00000000      1.00000000      1.00000000      1.00000000      1.00000000      1.00000000      1.00000000      1.00000000      1.00000000      1.00000000      1.00000000      1.00000000      1.00000000      1.00000000
      1.00000000      1.00000000      1.00000000      1.00000000      1.00000000      1.00000000      1.00000000</v>
    <i name="NUPDOWN">     -1.00000000</i>
    <i type="logical" name="LSORBIT"> F  </i>
    <v name="SAXIS">      0.00000000      0.00000000      1.00000000</v>
    <i type="logical" name="LSPIRAL"> F  </i>
    <v name="QSPIRAL">      0.00000000      0.00000000      0.00000000</v>
    <i type="logical" name="LZEROZ"> F  </i>
   </separator>
   <separator name="electronic exchange-correlation" >
    <i type="logical" name="LASPH"> F  </i>
    <i type="logical" name="LMETAGGA"> F  </i>
   </separator>
   <separator name="electronic convergence" >
    <i type="int" name="NELM">    60</i>
    <i type="int" name="NELMDL">    -5</i>
    <i type="int" name="NELMIN">     2</i>
    <i name="ENINI">    280.00000000</i>
    <separator name="electronic convergence detail" >
     <i type="logical" name="LDIAG"> T  </i>
     <i type="logical" name="LSUBROT"> F  </i>
     <i name="WEIMIN">      0.00100000</i>
     <i name="EBREAK">      0.00000021</i>
     <i name="DEPER">      0.30000000</i>
     <i type="int" name="NRMM">     4</i>
     <i name="TIME">      0.40000000</i>
    </separator>
   </separator>
   <separator name="electronic mixer" >
    <i name="AMIX">      0.40000000</i>
    <i name="BMIX">      1.00000000</i>
    <i name="AMIN">      0.10000000</i>
    <i name="AMIX_MAG">      1.60000000</i>
    <i name="BMIX_MAG">      1.00000000</i>
    <separator name="electronic mixer details" >
     <i type="int" name="IMIX">     4</i>
     <i type="logical" name="MIXFIRST"> F  </i>
     <i type="int" name="MAXMIX">   -45</i>
     <i name="WC">    100.00000000</i>
     <i type="int" name="INIMIX">     1</i>
     <i type="int" name="MIXPRE">     1</i>
     <i type="int" name="MREMOVE">     5</i>
    </separator>
   </separator>
   <separator name="electronic dipolcorrection" >
    <i type="logical" name="LDIPOL"> F  </i>
    <i type="logical" name="LMONO"> F  </i>
    <i type="int" name="IDIPOL">     0</i>
    <i name="EPSILON">      1.00000000</i>
    <v name="DIPOL">   -100.00000000   -100.00000000   -100.00000000</v>
    <i name="EFIELD">      0.00000000</i>
   </separator>
  </separator>
  <separator name="grids" >
   <i type="int" name="NGX">    42</i>
   <i type="int" name="NGY">    42</i>
   <i type="int" name="NGZ">   126</i>
   <i type="int" name="NGXF">    84</i>
   <i type="int" name="NGYF">    84</i>
   <i type="int" name="NGZF">   252</i>
   <i type="logical" name="ADDGRID"> F  </i>
  </separator>
  <separator name="ionic" >
   <i type="int" name="NSW">   100</i>
   <i type="int" name="IBRION">     1</i>
   <i type="int" name="ISIF">     3</i>
   <i name="PSTRESS">      0.00000000</i>
   <i name="EDIFFG">      0.00100000</i>
   <i type="int" name="NFREE">     0</i>
   <i name="POTIM">      0.50000000</i>
   <i name="SMASS">     -3.00000000</i>
   <i name="SCALEE">      1.00000000</i>
  </separator>
  <separator name="ionic md" >
   <i name="TEBEG">      0.00010000</i>
   <i name="TEEND">      0.00010000</i>
   <i type="int" name="NBLOCK">     1</i>
   <i type="int" name="KBLOCK">   100</i>
   <i type="int" name="NPACO">   256</i>
   <i name="APACO">     16.00000000</i>
  </separator>
  <separator name="symmetry" >
   <i type="int" name="ISYM">     0</i>
   <i name="SYMPREC">      0.00000001</i>
  </separator>
  <separator name="dos" >
   <i type="logical" name="LORBIT"> F  </i>
   <v name="RWIGS">     -1.00000000     -1.00000000     -1.00000000     -1.00000000</v>
   <i type="int" name="NEDOS">   301</i>
   <i name="EMIN">     10.00000000</i>
   <i name="EMAX">    -10.00000000</i>
   <i name="EFERMI">      0.00000000</i>
  </separator>
  <separator name="writing" >
   <i type="int" name="NWRITE">     2</i>
   <i type="logical" name="LWAVE"> F  </i>
   <i type="logical" name="LCHARG"> F  </i>
   <i type="logical" name="LPARD"> F  </i>
   <i type="logical" name="LVTOT"> F  </i>
   <i type="logical" name="LVHAR"> F  </i>
   <i type="logical" name="LELF"> F  </i>
   <i type="logical" name="LOPTICS"> F  </i>
   <v name="STM">      0.00000000      0.00000000      0.00000000      0.00000000      0.00000000      0.00000000      0.00000000</v>
  </separator>
  <separator name="performance" >
   <i type="int" name="NPAR">    40</i>
   <i type="int" name="NSIM">     4</i>
   <i type="int" name="NBLK">    -1</i>
   <i type="logical" name="LPLANE"> F  </i>
   <i type="logical" name="LSCALAPACK"> T  </i>
   <i type="logical" name="LSCAAWARE"> F  </i>
   <i type="logical" name="LSCALU"> F  </i>
   <i type="logical" name="LASYNC"> F  </i>
   <i type="logical" name="LORBITALREAL"> F  </i>
  </separator>
  <separator name="miscellaneous" >
   <i type="int" name="IDIOT">     3</i>
   <i type="logical" name="LMUSIC"> F  </i>
   <v name="POMASS">     50.94100000     95.94000000    183.85000000     32.06600000</v>
   <v name="DARWINR">      0.00000000      0.00000000      0.00000000      0.00000000</v>
   <v name="DARWINV">      1.00000000      1.00000000      1.00000000      1.00000000</v>
   <i type="logical" name="LCORR"> T  </i>
  </separator>
  <i type="logical" name="GGA_COMPAT"> T  </i>
  <i type="logical" name="LBERRY"> F  </i>
  <i type="int" name="ICORELEVEL">     0</i>
  <i type="logical" name="LDAU"> F  </i>
  <i type="int" name="I_CONSTRAINED_M">     0</i>
  <separator name="electronic exchange-correlation" >
   <i type="string" name="GGA">--</i>
   <i type="int" name="VOSKOWN">     0</i>
   <i type="logical" name="LHFCALC"> F  </i>
   <i type="string" name="PRECFOCK"></i>
   <i type="logical" name="LSYMGRAD"> F  </i>
   <i type="logical" name="LHFONE"> F  </i>
   <i type="logical" name="LRHFCALC"> F  </i>
   <i type="logical" name="LTHOMAS"> F  </i>
   <i type="logical" name="LMODELHF"> F  </i>
   <i name="ENCUT4O">     -1.00000000</i>
   <i type="int" name="EXXOEP">     0</i>
   <i type="int" name="FOURORBIT">     0</i>
   <i name="AEXX">      0.00000000</i>
   <i name="HFALPHA">      0.00000000</i>
   <i name="MCALPHA">      0.00000000</i>
   <i name="ALDAX">      1.00000000</i>
   <i name="AGGAX">      1.00000000</i>
   <i name="ALDAC">      1.00000000</i>
   <i name="AGGAC">      1.00000000</i>
   <i type="int" name="NKREDX">     1</i>
   <i type="int" name="NKREDY">     1</i>
   <i type="int" name="NKREDZ">     1</i>
   <i type="logical" name="SHIFTRED"> F  </i>
   <i type="logical" name="ODDONLY"> F  </i>
   <i type="logical" name="EVENONLY"> F  </i>
   <i type="int" name="LMAXFOCK">     0</i>
   <i type="int" name="NMAXFOCKAE">     0</i>
   <i type="logical" name="LFOCKAEDFT"> F  </i>
   <i name="HFSCREEN">      0.00000000</i>
   <i name="HFSCREENC">      0.00000000</i>
   <i type="int" name="NBANDSGWLOW">     0</i>
  </separator>
  <separator name="vdW DFT" >
   <i type="logical" name="LUSE_VDW"> F  </i>
   <i name="Zab_VDW">     -0.84910000</i>
   <i name="PARAM1">      0.12340000</i>
   <i name="PARAM2">      1.00000000</i>
   <i name="PARAM3">      0.00000000</i>
  </separator>
  <separator name="model GW" >
   <i type="int" name="MODEL_GW">     0</i>
   <i name="MODEL_EPS0">     58.26239943</i>
   <i name="MODEL_ALPHA">      1.00000000</i>
  </separator>
  <separator name="linear response parameters" >
   <i type="logical" name="LEPSILON"> F  </i>
   <i type="logical" name="LRPA"> F  </i>
   <i type="logical" name="LNABLA"> F  </i>
   <i type="logical" name="LVEL"> F  </i>
   <i type="int" name="KINTER">     0</i>
   <i name="CSHIFT">      0.10000000</i>
   <i name="OMEGAMAX">     -1.00000000</i>
   <i name="DEG_THRESHOLD">      0.00200000</i>
  </separator>
  <separator name="orbital magnetization" >
   <i type="logical" name="NUCIND"> F  </i>
   <v name="MAGPOS">      0.00000000      0.00000000      0.00000000</v>
   <i type="logical" name="LNICSALL"> T  </i>
   <i type="logical" name="ORBITALMAG"> F  </i>
   <i type="logical" name="LMAGBLOCH"> F  </i>
   <i type="logical" name="LCHIMAG"> F  </i>
   <i type="logical" name="LGAUGE"> T  </i>
   <i type="int" name="MAGATOM">     0</i>
   <v name="MAGDIPOL">      0.00000000      0.00000000      0.00000000</v>
   <v name="AVECCONST">      0.00000000      0.00000000      0.00000000</v>
  </separator>
  <separator name="response functions" >
   <i type="logical" name="LADDER"> F  </i>
   <i type="logical" name="LFXC"> F  </i>
   <i type="logical" name="LHARTREE"> T  </i>
   <i type="int" name="IBSE">     0</i>
   <v type="int" name="KPOINT">    -1     0     0     0</v>
   <i type="logical" name="LTCTE"> F  </i>
   <i type="logical" name="LTETE"> F  </i>
   <i type="logical" name="LTRIPLET"> F  </i>
   <i type="logical" name="LFXCEPS"> F  </i>
   <i type="logical" name="LFXHEG"> F  </i>
   <i type="int" name="NATURALO">     0</i>
   <i type="logical" name="L2ORDER"> F  </i>
   <i type="logical" name="LUSEW"> F  </i>
   <i name="ENCUTGW">     -2.00000000</i>
   <i name="ENCUTGWSOFT">     -2.00000000</i>
   <i name="ENCUTLF">     -1.00000000</i>
   <i type="int" name="LMAXMP2">    -1</i>
   <i name="SCISSOR">      0.00000000</i>
   <i type="int" name="NOMEGA">     0</i>
   <i type="int" name="NOMEGAR">     0</i>
   <i type="int" name="NBANDSGW">    -1</i>
   <i type="int" name="NBANDSO">    -1</i>
   <i type="int" name="NBANDSV">    -1</i>
   <i type="int" name="NELM">     1</i>
   <i type="int" name="NELMHF">     1</i>
   <i type="int" name="DIM">     3</i>
   <i type="int" name="ANTIRES">     0</i>
   <i name="OMEGAMAX">    -30.00000000</i>
   <i name="OMEGAMIN">    -30.00000000</i>
   <i name="OMEGATL">   -200.00000000</i>
   <i type="int" name="OMEGAGRID">     0</i>
   <i name="CSHIFT">     -0.10000000</i>
   <i type="logical" name="SELFENERGY"> F  </i>
   <i type="logical" name="LSPECTRAL"> F  </i>
   <i type="logical" name="LSPECTRALGW"> F  </i>
   <i type="logical" name="LSINGLES"> F  </i>
   <i type="logical" name="LFERMIGW"> F  </i>
   <i type="logical" name="ODDONLYGW"> F  </i>
   <i type="logical" name="EVENONLYGW"> F  </i>
   <i type="int" name="NKREDLFX">     1</i>
   <i type="int" name="NKREDLFY">     1</i>
   <i type="int" name="NKREDLFZ">     1</i>
   <i type="int" name="MAXMEM">  1800</i>
   <i type="int" name="TELESCOPE">     0</i>
   <i type="int" name="TAUPAR">     1</i>
   <i type="int" name="OMEGAPAR">    -1</i>
   <i name="LAMBDA">      1.00000000</i>
  </separator>
  <separator name="External order field" >
   <i name="OFIELD_KAPPA">      0.00000000</i>
   <v name="OFIELD_K">      0.00000000      0.00000000      0.00000000</v>
   <i name="OFIELD_Q6_NEAR">      0.00000000</i>
   <i name="OFIELD_Q6_FAR">      0.00000000</i>
   <i name="OFIELD_A">      0.00000000</i>
  </separator>
 </parameters>
 <atominfo>
  <atoms>      27 </atoms>
  <types>       4 </types>
  <array name="atoms" >
   <dimension dim="1">ion</dimension>
   <field type="string">element</field>
   <field type="int">atomtype</field>
   <set>
    <rc><c>V </c><c>   1</c></rc>
    <rc><c>V </c><c>   1</c></rc>
    <rc><c>V </c><c>   1</c></rc>
    <rc><c>Mo</c><c>   2</c></rc>
    <rc><c>Mo</c><c>   2</c></rc>
    <rc><c>Mo</c><c>   2</c></rc>
    <rc><c>W </c><c>   3</c></rc>
    <rc><c>W </c><c>   3</c></rc>
    <rc><c>W </c><c>   3</c></rc>
    <rc><c>S </c><c>   4</c></rc>
    <rc><c>S </c><c>   4</c></rc>
    <rc><c>S </c><c>   4</c></rc>
    <rc><c>S </c><c>   4</c></rc>
    <rc><c>S </c><c>   4</c></rc>
    <rc><c>S </c><c>   4</c></rc>
    <rc><c>S </c><c>   4</c></rc>
    <rc><c>S </c><c>   4</c></rc>
    <rc><c>S </c><c>   4</c></rc>
    <rc><c>S </c><c>   4</c></rc>
    <rc><c>S </c><c>   4</c></rc>
    <rc><c>S </c><c>   4</c></rc>
    <rc><c>S </c><c>   4</c></rc>
    <rc><c>S </c><c>   4</c></rc>
    <rc><c>S </c><c>   4</c></rc>
    <rc><c>S </c><c>   4</c></rc>
    <rc><c>S </c><c>   4</c></rc>
    <rc><c>S </c><c>   4</c></rc>
   </set>
  </array>
  <array name="atomtypes" >
   <dimension dim="1">type</dimension>
   <field type="int">atomspertype</field>
   <field type="string">element</field>
   <field>mass</field>
   <field>valence</field>
   <field type="string">pseudopotential</field>
   <set>
    <rc><c>   3</c><c>V </c><c>     50.94100000</c><c>      5.00000000</c><c> PAW_PBE V 08Apr2002                    </c></rc>
    <rc><c>   3</c><c>Mo</c><c>     95.94000000</c><c>      6.00000000</c><c> PAW_PBE Mo 08Apr2002                   </c></rc>
    <rc><c>   3</c><c>W </c><c>    183.85000000</c><c>      6.00000000</c><c> PAW_PBE W 08Apr2002                    </c></rc>
    <rc><c>  18</c><c>S </c><c>     32.06600000</c><c>      6.00000000</c><c>  PAW_PBE S 17Jan2003                   </c></rc>
   </set>
  </array>
 </atominfo>
 <structure name="initialpos" >
  <crystal>
   <varray name="basis" >
    <v>       8.66999996       5.03999989       0.00000000 </v>
    <v>      -8.66999982       5.04000013       0.00000000 </v>
    <v>       0.00000000       0.00000000      30.00000000 </v>
   </varray>
   <i name="volume">   2621.80797419 </i>
   <varray name="rec_basis" >
    <v>       0.05767013       0.09920635       0.00000000 </v>
    <v>      -0.05767013       0.09920635       0.00000000 </v>
    <v>       0.00000000       0.00000000       0.03333333 </v>
   </varray>
  </crystal>
  <varray name="positions" >
   <v>       0.00000000       0.00000000       0.00000000 </v>
   <v>       0.66666669       0.33333334       0.00000000 </v>
   <v>       1.00000000       0.33333334       0.00000000 </v>
   <v>       0.33333334       0.66666669       0.00000000 </v>
   <v>       0.66666669       0.00000000       0.00000000 </v>
   <v>       0.33333334       0.00000000       0.00000000 </v>
   <v>       0.00000000       0.66666669       0.00000000 </v>
   <v>       0.33333334       0.33333334       0.00000000 </v>
   <v>       0.66666669       0.66666669       0.00000000 </v>
   <v>       0.11068511       0.22244981       0.95539999 </v>
   <v>       0.22244981       0.11068511       0.04460000 </v>
   <v>       0.11068511       0.55578315       0.95539999 </v>
   <v>       0.22244981       0.44401845       0.04460000 </v>
   <v>       0.11068511       0.88911647       0.95539999 </v>
   <v>       0.22244981       0.77735180       0.04460000 </v>
   <v>       0.44401845       0.22244981       0.95539999 </v>
   <v>       0.55578315       0.11068511       0.04460000 </v>
   <v>       0.44401845       0.55578315       0.95539999 </v>
   <v>       0.55578315       0.44401845       0.04460000 </v>
   <v>       0.44401845       0.88911647       0.95539999 </v>
   <v>       0.55578315       0.77735180       0.04460000 </v>
   <v>       0.77735180       0.22244981       0.95539999 </v>
   <v>       0.88911647       0.11068511       0.04460000 </v>
   <v>       0.77735180       0.55578315       0.95539999 </v>
   <v>       0.88911647       0.44401845       0.04460000 </v>
   <v>       0.77735180       0.88911647       0.95539999 </v>
   <v>       0.88911647       0.77735180       0.04460000 </v>
  </varray>
 </structure>
 <calculation>
  <scstep>
   <time name="dav">   22.17   22.22</time>
   <time name="total">   22.21   22.27</time>
   <energy>
    <i name="alphaZ">     81.65567618 </i>
    <i name="ewald">  41890.25210247 </i>
    <i name="hartreedc"> -47722.88013598 </i>
    <i name="XCdc">   -242.92957554 </i>
    <i name="pawpsdc">   3467.42045192 </i>
    <i name="pawaedc">  -2871.19716117 </i>
    <i name="eentropy">     -0.54904870 </i>
    <i name="bandstr">   -237.10690014 </i>
    <i name="atom">   6761.44252427 </i>
    <i name="e_fr_energy">   1126.10793331 </i>
    <i name="e_wo_entrp">   1126.65698201 </i>
    <i name="e_0_energy">   1126.38245766 </i>
   </energy>
  </scstep>
  <scstep>
   <time name="dav">   29.01   29.08</time>
   <time name="total">   29.01   29.09</time>
   <energy>
    <i name="e_fr_energy">     -4.54213522 </i>
    <i name="e_wo_entrp">     -4.35851291 </i>
    <i name="e_0_energy">     -4.45032407 </i>
   </energy>
  </scstep>
  <scstep>
   <time name="dav">   27.94   28.01</time>
   <time name="total">   27.95   28.02</time>
   <energy>
    <i name="e_fr_energy">   -199.78386058 </i>
    <i name="e_wo_entrp">   -199.49188893 </i>
    <i name="e_0_energy">   -199.63787476 </i>
   </energy>
  </scstep>
  <scstep>
   <time name="dav">   30.20   30.27</time>
   <time name="total">   30.20   30.28</time>
   <energy>
    <i name="e_fr_energy">   -208.86199647 </i>
    <i name="e_wo_entrp">   -208.53703357 </i>
    <i name="e_0_energy">   -208.69951502 </i>
   </energy>
  </scstep>
  <scstep>
   <time name="dav">   29.34   29.42</time>
   <time name="total">   29.81   29.89</time>
   <energy>
    <i name="e_fr_energy">   -209.22078078 </i>
    <i name="e_wo_entrp">   -208.89981732 </i>
    <i name="e_0_energy">   -209.06029905 </i>
   </energy>
  </scstep>
  <scstep>
   <time name="dav">   31.47   31.54</time>
   <time name="total">   31.97   32.05</time>
   <energy>
    <i name="e_fr_energy">   -236.28356463 </i>
    <i name="e_wo_entrp">   -236.00707303 </i>
    <i name="e_0_energy">   -236.14531883 </i>
   </energy>
  </scstep>
  <scstep>
   <time name="dav">   33.04   33.12</time>
   <time name="total">   33.55   33.63</time>
   <energy>
    <i name="e_fr_energy">   -196.85515637 </i>
    <i name="e_wo_entrp">   -196.52289106 </i>
    <i name="e_0_energy">   -196.68902372 </i>
   </energy>
  </scstep>
  <scstep>
   <time name="dav">   29.54   29.61</time>
   <time name="total">   30.05   30.13</time>
   <energy>
    <i name="e_fr_energy">   -190.31761825 </i>
    <i name="e_wo_entrp">   -190.05009319 </i>
    <i name="e_0_energy">   -190.18385572 </i>
   </energy>
  </scstep>
  <scstep>
   <time name="dav">   30.63   30.70</time>
   <time name="total">   31.16   31.24</time>
   <energy>
    <i name="e_fr_energy">   -188.29960541 </i>
    <i name="e_wo_entrp">   -187.96357487 </i>
    <i name="e_0_energy">   -188.13159014 </i>
   </energy>
  </scstep>
  <scstep>
   <time name="dav">   32.86   32.94</time>
   <time name="total">   33.39   33.48</time>
   <energy>
    <i name="e_fr_energy">   -187.09595060 </i>
    <i name="e_wo_entrp">   -186.74994084 </i>
    <i name="e_0_energy">   -186.92294572 </i>
   </energy>
  </scstep>
  <scstep>
   <time name="dav">   31.07   31.15</time>
   <time name="total">   31.61   31.70</time>
   <energy>
    <i name="e_fr_energy">   -187.02003856 </i>
    <i name="e_wo_entrp">   -186.67338535 </i>
    <i name="e_0_energy">   -186.84671196 </i>
   </energy>
  </scstep>
  <scstep>
   <time name="dav">   30.82   30.90</time>
   <time name="total">   31.36   31.45</time>
   <energy>
    <i name="e_fr_energy">   -187.04837313 </i>
    <i name="e_wo_entrp">   -186.71291584 </i>
    <i name="e_0_energy">   -186.88064449 </i>
   </energy>
  </scstep>
  <scstep>
   <time name="dav">   32.63   32.71</time>
   <time name="total">   33.17   33.26</time>
   <energy>
    <i name="e_fr_energy">   -186.92420193 </i>
    <i name="e_wo_entrp">   -186.58615731 </i>
    <i name="e_0_energy">   -186.75517962 </i>
   </energy>
  </scstep>
  <scstep>
   <time name="dav">   32.12   32.20</time>
   <time name="total">   32.66   32.75</time>
   <energy>
    <i name="e_fr_energy">   -186.89611762 </i>
    <i name="e_wo_entrp">   -186.55302394 </i>
    <i name="e_0_energy">   -186.72457078 </i>
   </energy>
  </scstep>
  <scstep>
   <time name="dav">   31.91   31.98</time>
   <time name="total">   32.45   32.53</time>
   <energy>
    <i name="e_fr_energy">   -186.89253323 </i>
    <i name="e_wo_entrp">   -186.54850933 </i>
    <i name="e_0_energy">   -186.72052128 </i>
   </energy>
  </scstep>
  <scstep>
   <time name="dav">   32.74   32.82</time>
   <time name="total">   33.28   33.37</time>
   <energy>
    <i name="e_fr_energy">   -186.88753899 </i>
    <i name="e_wo_entrp">   -186.54362485 </i>
    <i name="e_0_energy">   -186.71558192 </i>
   </energy>
  </scstep>
  <scstep>
   <time name="dav">   31.88   31.96</time>
   <time name="total">   32.42   32.51</time>
   <energy>
    <i name="e_fr_energy">   -186.88592965 </i>
    <i name="e_wo_entrp">   -186.54306276 </i>
    <i name="e_0_energy">   -186.71449620 </i>
   </energy>
  </scstep>
  <scstep>
   <time name="dav">   30.52   30.59</time>
   <time name="total">   31.06   31.14</time>
   <energy>
    <i name="e_fr_energy">   -186.88510386 </i>
    <i name="e_wo_entrp">   -186.54273476 </i>
    <i name="e_0_energy">   -186.71391931 </i>
   </energy>
  </scstep>
  <scstep>
   <time name="dav">   28.85   28.92</time>
   <time name="total">   29.39   29.47</time>
   <energy>
    <i name="e_fr_energy">   -186.88491462 </i>
    <i name="e_wo_entrp">   -186.54206121 </i>
    <i name="e_0_energy">   -186.71348792 </i>
   </energy>
  </scstep>
  <scstep>
   <time name="dav">   23.82   23.88</time>
   <time name="total">   24.36   24.43</time>
   <energy>
    <i name="e_fr_energy">   -186.88575922 </i>
    <i name="e_wo_entrp">   -186.54323589 </i>
    <i name="e_0_energy">   -186.71449756 </i>
   </energy>
  </scstep>
  <scstep>
   <time name="dav">   22.09   22.14</time>
   <time name="total">   22.63   22.69</time>
   <energy>
    <i name="e_fr_energy">   -186.88661654 </i>
    <i name="e_wo_entrp">   -186.54398437 </i>
    <i name="e_0_energy">   -186.71530045 </i>
   </energy>
  </scstep>
  <scstep>
   <time name="dav">   20.10   20.15</time>
   <time name="total">   20.64   20.69</time>
   <energy>
    <i name="e_fr_energy">   -186.88742984 </i>
    <i name="e_wo_entrp">   -186.54482100 </i>
    <i name="e_0_energy">   -186.71612542 </i>
   </energy>
  </scstep>
  <scstep>
   <time name="dav">   20.73   20.78</time>
   <time name="total">   21.27   21.33</time>
   <energy>
    <i name="e_fr_energy">   -186.88863621 </i>
    <i name="e_wo_entrp">   -186.54614391 </i>
    <i name="e_0_energy">   -186.71739006 </i>
   </energy>
  </scstep>
  <scstep>
   <time name="dav">   19.29   19.34</time>
   <time name="total">   19.83   19.89</time>
   <energy>
    <i name="e_fr_energy">   -186.88918146 </i>
    <i name="e_wo_entrp">   -186.54661813 </i>
    <i name="e_0_energy">   -186.71789980 </i>
   </energy>
  </scstep>
  <scstep>
   <time name="dav">   16.67   16.71</time>
   <time name="total">   17.21   17.26</time>
   <energy>
    <i name="e_fr_energy">   -186.88956775 </i>
    <i name="e_wo_entrp">   -186.54698810 </i>
    <i name="e_0_energy">   -186.71827793 </i>
   </energy>
  </scstep>
  <scstep>
   <time name="dav">   19.40   19.44</time>
   <time name="total">   19.94   19.99</time>
   <energy>
    <i name="e_fr_energy">   -186.88980649 </i>
    <i name="e_wo_entrp">   -186.54724441 </i>
    <i name="e_0_energy">   -186.71852545 </i>
   </energy>
  </scstep>
  <scstep>
   <time name="dav">   20.74   20.79</time>
   <time name="total">   20.77   20.83</time>
   <energy>
    <i name="alphaZ">     81.65567618 </i>
    <i name="ewald">  41890.25210247 </i>
    <i name="hartreedc"> -47833.16934041 </i>
    <i name="XCdc">   -231.59828030 </i>
    <i name="pawpsdc">   4192.18895386 </i>
    <i name="pawaedc">  -3610.21459346 </i>
    <i name="eentropy">     -0.34256252 </i>
    <i name="bandstr">  -1437.10436700 </i>
    <i name="atom">   6761.44252427 </i>
    <i name="e_fr_energy">   -186.88988689 </i>
    <i name="e_wo_entrp">   -186.54732437 </i>
    <i name="e_0_energy">   -186.71860563 </i>
   </energy>
  </scstep>
  <structure>
   <crystal>
    <varray name="basis" >
     <v>       8.66999996       5.03999989       0.00000000 </v>
     <v>      -8.66999982       5.04000013       0.00000000 </v>
     <v>       0.00000000       0.00000000      30.00000000 </v>
    </varray>
    <i name="volume">   2621.80797419 </i>
    <varray name="rec_basis" >
     <v>       0.05767013       0.09920635       0.00000000 </v>
     <v>      -0.05767013       0.09920635       0.00000000 </v>
     <v>       0.00000000       0.00000000       0.03333333 </v>
    </varray>
   </crystal>
   <varray name="positions" >
    <v>       0.00000000       0.00000000       0.00000000 </v>
    <v>       0.66666669       0.33333334       0.00000000 </v>
    <v>       1.00000000       0.33333334       0.00000000 </v>
    <v>       0.33333334       0.66666669       0.00000000 </v>
    <v>       0.66666669       0.00000000       0.00000000 </v>
    <v>       0.33333334       0.00000000       0.00000000 </v>
    <v>       0.00000000       0.66666669       0.00000000 </v>
    <v>       0.33333334       0.33333334       0.00000000 </v>
    <v>       0.66666669       0.66666669       0.00000000 </v>
    <v>       0.11068511       0.22244981       0.95539999 </v>
    <v>       0.22244981       0.11068511       0.04460000 </v>
    <v>       0.11068511       0.55578315       0.95539999 </v>
    <v>       0.22244981       0.44401845       0.04460000 </v>
    <v>       0.11068511       0.88911647       0.95539999 </v>
    <v>       0.22244981       0.77735180       0.04460000 </v>
    <v>       0.44401845       0.22244981       0.95539999 </v>
    <v>       0.55578315       0.11068511       0.04460000 </v>
    <v>       0.44401845       0.55578315       0.95539999 </v>
    <v>       0.55578315       0.44401845       0.04460000 </v>
    <v>       0.44401845       0.88911647       0.95539999 </v>
    <v>       0.55578315       0.77735180       0.04460000 </v>
    <v>       0.77735180       0.22244981       0.95539999 </v>
    <v>       0.88911647       0.11068511       0.04460000 </v>
    <v>       0.77735180       0.55578315       0.95539999 </v>
    <v>       0.88911647       0.44401845       0.04460000 </v>
    <v>       0.77735180       0.88911647       0.95539999 </v>
    <v>       0.88911647       0.77735180       0.04460000 </v>
   </varray>
  </structure>
  <varray name="forces" >
   <v>      -0.07506988       0.02942450      -0.05433474 </v>
   <v>       0.28215467      -0.32223418       0.05544173 </v>
   <v>      -0.00952417      -0.09251877       0.02655968 </v>
   <v>      -0.25770476       0.44224715       0.00816064 </v>
   <v>      -0.25881323      -0.33883130       0.02986228 </v>
   <v>       0.52990087      -0.01520318      -0.09058273 </v>
   <v>       0.32425946       0.42129709      -0.03119770 </v>
   <v>      -0.01752129      -0.06183940       0.01363330 </v>
   <v>      -0.55095905       0.00756869       0.07119835 </v>
   <v>      -0.22531049      -0.54523078      -1.45077453 </v>
   <v>      -0.61961736      -0.54356878       2.09461798 </v>
   <v>       0.36406282      -0.69348091      -2.15460874 </v>
   <v>      -0.36173851      -0.68260917       2.11569431 </v>
   <v>      -0.68443370      -0.14893507      -2.13464805 </v>
   <v>      -0.19524389      -0.16804575       2.91733566 </v>
   <v>       0.36358855       0.67989841      -2.14518320 </v>
   <v>      -0.52788151       0.72528517       2.17996110 </v>
   <v>       0.25716968      -0.01759770      -2.89365971 </v>
   <v>       0.62678686       0.01174646       2.15134894 </v>
   <v>       0.09653481      -0.00875458      -2.94886130 </v>
   <v>       0.07075027      -0.01692694       2.93750830 </v>
   <v>      -0.32171870       0.66734599      -1.41886410 </v>
   <v>       0.32251824       0.66794868       1.38919718 </v>
   <v>       0.47320212      -0.57286399      -2.07846414 </v>
   <v>       0.22786508      -0.54778269       1.43102120 </v>
   <v>       0.63315245       0.57724135      -2.16691847 </v>
   <v>      -0.46640934       0.54641970       2.14655676 </v>
  </varray>
  <varray name="stress" >
   <v>       7.26130582       0.04318025      -1.53355536 </v>
   <v>       0.04318022       4.52127895       0.04483672 </v>
   <v>      -1.53355513       0.04483690      30.27507174 </v>
  </varray>
  <energy>
   <i name="e_fr_energy">   -186.88988689 </i>
   <i name="e_wo_entrp">   -186.71860563 </i>
   <i name="e_0_energy">     -0.34256252 </i>
  </energy>
  <time name="totalsc">  796.31  798.45</time>
 </calculation>
 <calculation>
  <scstep>
   <time name="dav">   22.03   22.08</time>
   <time name="total">   22.58   22.64</time>
   <energy>
    <i name="alphaZ">     78.91485505 </i>
    <i name="ewald">  39377.20759038 </i>
    <i name="hartreedc"> -45334.75356600 </i>
    <i name="XCdc">   -239.05807345 </i>
    <i name="pawpsdc">   4192.17302145 </i>
    <i name="pawaedc">  -3610.19873040 </i>
    <i name="eentropy">     -0.28311757 </i>
    <i name="bandstr">  -1412.98862999 </i>
    <i name="atom">   6761.44252427 </i>
    <i name="e_fr_energy">   -187.54412625 </i>
    <i name="e_wo_entrp">   -187.26100868 </i>
    <i name="e_0_energy">   -187.40256747 </i>
   </energy>
  </scstep>
  <scstep>
   <time name="dav">   31.02   31.09</time>
   <time name="total">   31.56   31.64</time>
   <energy>
    <i name="e_fr_energy">   -189.53320608 </i>
    <i name="e_wo_entrp">   -189.20075650 </i>
    <i name="e_0_energy">   -189.36698129 </i>
   </energy>
  </scstep>
  <scstep>
   <time name="dav">   30.88   30.96</time>
   <time name="total">   31.44   31.52</time>
   <energy>
    <i name="e_fr_energy">   -189.37693515 </i>
    <i name="e_wo_entrp">   -189.10111283 </i>
    <i name="e_0_energy">   -189.23902399 </i>
   </energy>
  </scstep>
  <scstep>
   <time name="dav">   30.97   31.04</time>
   <time name="total">   31.52   31.60</time>
   <energy>
    <i name="e_fr_energy">   -188.80395983 </i>
    <i name="e_wo_entrp">   -188.52272317 </i>
    <i name="e_0_energy">   -188.66334150 </i>
   </energy>
  </scstep>
  <scstep>
   <time name="dav">   31.15   31.22</time>
   <time name="total">   31.69   31.77</time>
   <energy>
    <i name="e_fr_energy">   -188.95348752 </i>
    <i name="e_wo_entrp">   -188.66009892 </i>
    <i name="e_0_energy">   -188.80679322 </i>
   </energy>
  </scstep>
  <scstep>
   <time name="dav">   31.62   31.69</time>
   <time name="total">   32.17   32.25</time>
   <energy>
    <i name="e_fr_energy">   -188.77223217 </i>
    <i name="e_wo_entrp">   -188.49243174 </i>
    <i name="e_0_energy">   -188.63233195 </i>
   </energy>
  </scstep>
  <scstep>
   <time name="dav">   28.05   28.12</time>
   <time name="total">   28.60   28.68</time>
   <energy>
    <i name="e_fr_energy">   -188.74370769 </i>
    <i name="e_wo_entrp">   -188.46287061 </i>
    <i name="e_0_energy">   -188.60328915 </i>
   </energy>
  </scstep>
  <scstep>
   <time name="dav">   30.35   30.43</time>
   <time name="total">   30.90   30.98</time>
   <energy>
    <i name="e_fr_energy">   -188.71973974 </i>
    <i name="e_wo_entrp">   -188.43949934 </i>
    <i name="e_0_energy">   -188.57961954 </i>
   </energy>
  </scstep>
  <scstep>
   <time name="dav">   28.99   29.06</time>
   <time name="total">   29.54   29.62</time>
   <energy>
    <i name="e_fr_energy">   -188.71697148 </i>
    <i name="e_wo_entrp">   -188.43710473 </i>
    <i name="e_0_energy">   -188.57703811 </i>
   </energy>
  </scstep>
  <scstep>
   <time name="dav">   33.41   33.49</time>
   <time name="total">   33.96   34.05</time>
   <energy>
    <i name="e_fr_energy">   -188.71586840 </i>
    <i name="e_wo_entrp">   -188.43626697 </i>
    <i name="e_0_energy">   -188.57606769 </i>
   </energy>
  </scstep>
  <scstep>
   <time name="dav">   30.14   30.21</time>
   <time name="total">   30.69   30.77</time>
   <energy>
    <i name="e_fr_energy">   -188.71524228 </i>
    <i name="e_wo_entrp">   -188.43607870 </i>
    <i name="e_0_energy">   -188.57566049 </i>
   </energy>
  </scstep>
  <scstep>
   <time name="dav">   27.39   27.46</time>
   <time name="total">   27.94   28.02</time>
   <energy>
    <i name="e_fr_energy">   -188.71539066 </i>
    <i name="e_wo_entrp">   -188.43611718 </i>
    <i name="e_0_energy">   -188.57575392 </i>
   </energy>
  </scstep>
  <scstep>
   <time name="dav">   22.40   22.46</time>
   <time name="total">   22.44   22.50</time>
   <energy>
    <i name="alphaZ">     78.91485505 </i>
    <i name="ewald">  39377.20759038 </i>
    <i name="hartreedc"> -45345.49374476 </i>
    <i name="XCdc">   -237.96760676 </i>
    <i name="pawpsdc">   3950.57441763 </i>
    <i name="pawaedc">  -3365.09739818 </i>
    <i name="eentropy">     -0.27927335 </i>
    <i name="bandstr">  -1408.01669177 </i>
    <i name="atom">   6761.44252427 </i>
    <i name="e_fr_energy">   -188.71532748 </i>
    <i name="e_wo_entrp">   -188.43605413 </i>
    <i name="e_0_energy">   -188.57569081 </i>
   </energy>
  </scstep>
  <structure>
   <crystal>
    <varray name="basis" >
     <v>       8.85470990       5.10772140       0.00000000 </v>
     <v>      -8.85343712       5.10553241       0.00000000 </v>
     <v>       0.00000000       0.00000000      30.00000000 </v>
    </varray>
    <i name="volume">   2712.86696019 </i>
    <varray name="rec_basis" >
     <v>       0.05645908       0.09790495       0.00000000 </v>
     <v>      -0.05648329       0.09791903       0.00000000 </v>
     <v>       0.00000000       0.00000000       0.03333333 </v>
    </varray>
   </crystal>
   <varray name="positions" >
    <v>      -0.00006803       0.00034968      -0.00008738 </v>
    <v>       0.66590948       0.33100614       0.00008916 </v>
    <v>       0.99953071       0.33291705       0.00004271 </v>
    <v>       0.33473295       0.66950025       0.00001312 </v>
    <v>       0.66432499      -0.00090158       0.00004802 </v>
    <v>       0.33473485      -0.00154703      -0.00014567 </v>
    <v>       0.00291846       0.66778086      -0.00005017 </v>
    <v>       0.33298863       0.33308613       0.00002192 </v>
    <v>       0.66517005       0.66823577       0.00011449 </v>
    <v>       0.10744880       0.22046720       0.95306702 </v>
    <v>       0.21812443       0.10980748       0.04796833 </v>
    <v>       0.10837901       0.55145129       0.95193519 </v>
    <v>       0.21817644       0.44175792       0.04800222 </v>
    <v>       0.10806811       0.89030787       0.95196729 </v>
    <v>       0.22110235       0.77709073       0.04929133 </v>
    <v>       0.44828399       0.22469223       0.95195035 </v>
    <v>       0.55778570       0.11562496       0.04810557 </v>
    <v>       0.44464972       0.55498344       0.95074673 </v>
    <v>       0.55758319       0.44233085       0.04805956 </v>
    <v>       0.44424513       0.88880599       0.95065796 </v>
    <v>       0.55589898       0.77707395       0.04932377 </v>
    <v>       0.77965063       0.22653879       0.95311833 </v>
    <v>       0.89321055       0.11298460       0.04683395 </v>
    <v>       0.77592661       0.55172491       0.95205764 </v>
    <v>       0.88712875       0.44076282       0.04690121 </v>
    <v>       0.78187599       0.89011760       0.95191539 </v>
    <v>       0.89043399       0.78126457       0.04805185 </v>
   </varray>
  </structure>
  <varray name="forces" >
   <v>      -0.02632068       0.01768660       0.07457091 </v>
   <v>       0.17549416      -0.29565924      -0.06612005 </v>
   <v>       0.00287293      -0.05130858       0.08869521 </v>
   <v>      -0.24877680       0.57807128      -0.00729843 </v>
   <v>      -0.17891934      -0.62958697       0.00197005 </v>
   <v>       0.59028030      -0.14520670      -0.03536334 </v>
   <v>       0.28256553       0.48447105      -0.12065539 </v>
   <v>       0.00307843       0.08900213       0.11254903 </v>
   <v>      -0.56169618      -0.10970009      -0.06578551 </v>
   <v>       0.05268064       0.05804798       0.03981526 </v>
   <v>      -0.06682577       0.06024156      -0.16703451 </v>
   <v>      -0.11060743      -0.04297865       0.03900498 </v>
   <v>       0.11133391      -0.04202735      -0.14354167 </v>
   <v>       0.03505004      -0.09867825      -0.02115075 </v>
   <v>      -0.04761357      -0.10028447       0.24410648 </v>
   <v>      -0.10524731       0.04239973       0.05088526 </v>
   <v>      -0.02502083       0.06951887       0.16828940 </v>
   <v>       0.08712790      -0.00028760      -0.00206270 </v>
   <v>      -0.08587956       0.00880448      -0.09501315 </v>
   <v>      -0.01000776       0.01060390      -0.40098684 </v>
   <v>       0.12539562      -0.00481533       0.28127235 </v>
   <v>       0.00365991       0.03790851       0.07599055 </v>
   <v>      -0.01043609       0.03753822      -0.15725692 </v>
   <v>      -0.05941787       0.07204101       0.38503959 </v>
   <v>      -0.05394607       0.07482624      -0.12820669 </v>
   <v>       0.06700020      -0.04946164       0.02448080 </v>
   <v>       0.05417569      -0.07116668      -0.17619392 </v>
  </varray>
  <varray name="stress" >
   <v>     -19.88133028      -0.00744837       0.02786753 </v>
   <v>      -0.00744857     -19.47925396      -0.00192698 </v>
   <v>       0.02786758      -0.00192680      -1.75932878 </v>
  </varray>
  <energy>
   <i name="e_fr_energy">   -188.71532748 </i>
   <i name="e_wo_entrp">   -188.57569081 </i>
   <i name="e_0_energy">     -0.27927335 </i>
  </energy>
  <time name="totalsc">  428.03  429.16</time>
 </calculation>
 <calculation>
  <scstep>
   <time name="dav">   23.86   23.92</time>
   <time name="total">   24.39   24.45</time>
   <energy>
    <i name="alphaZ">     82.32727177 </i>
    <i name="ewald">  41293.92898762 </i>
    <i name="hartreedc"> -47292.63997479 </i>
    <i name="XCdc">   -233.85825970 </i>
    <i name="pawpsdc">   3950.03066628 </i>
    <i name="pawaedc">  -3364.54864405 </i>
    <i name="eentropy">     -0.23668352 </i>
    <i name="bandstr">  -1387.08622735 </i>
    <i name="atom">   6761.44252427 </i>
    <i name="e_fr_energy">   -190.64033948 </i>
    <i name="e_wo_entrp">   -190.40365596 </i>
    <i name="e_0_energy">   -190.52199772 </i>
   </energy>
  </scstep>
  <scstep>
   <time name="dav">   28.24   28.30</time>
   <time name="total">   28.76   28.84</time>
   <energy>
    <i name="e_fr_energy">   -190.55802880 </i>
    <i name="e_wo_entrp">   -190.32041641 </i>
    <i name="e_0_energy">   -190.43922260 </i>
   </energy>
  </scstep>
  <scstep>
   <time name="dav">   30.73   30.81</time>
   <time name="total">   31.27   31.35</time>
   <energy>
    <i name="e_fr_energy">   -190.13328207 </i>
    <i name="e_wo_entrp">   -189.88110775 </i>
    <i name="e_0_energy">   -190.00719491 </i>
   </energy>
  </scstep>
  <scstep>
   <time name="dav">   31.74   31.82</time>
   <time name="total">   32.28   32.36</time>
   <energy>
    <i name="e_fr_energy">   -189.92051997 </i>
    <i name="e_wo_entrp">   -189.68435740 </i>
    <i name="e_0_energy">   -189.80243868 </i>
   </energy>
  </scstep>
  <scstep>
   <time name="dav">   30.55   30.62</time>
   <time name="total">   31.08   31.16</time>
   <energy>
    <i name="e_fr_energy">   -189.89572825 </i>
    <i name="e_wo_entrp">   -189.65602338 </i>
    <i name="e_0_energy">   -189.77587582 </i>
   </energy>
  </scstep>
  <scstep>
   <time name="dav">   31.30   31.38</time>
   <time name="total">   31.84   31.92</time>
   <energy>
    <i name="e_fr_energy">   -189.82360650 </i>
    <i name="e_wo_entrp">   -189.58433022 </i>
    <i name="e_0_energy">   -189.70396836 </i>
   </energy>
  </scstep>
  <scstep>
   <time name="dav">   29.15   29.22</time>
   <time name="total">   29.68   29.76</time>
   <energy>
    <i name="e_fr_energy">   -189.81580200 </i>
    <i name="e_wo_entrp">   -189.57687136 </i>
    <i name="e_0_energy">   -189.69633668 </i>
   </energy>
  </scstep>
  <scstep>
   <time name="dav">   30.98   31.05</time>
   <time name="total">   31.51   31.59</time>
   <energy>
    <i name="e_fr_energy">   -189.81685827 </i>
    <i name="e_wo_entrp">   -189.57786026 </i>
    <i name="e_0_energy">   -189.69735927 </i>
   </energy>
  </scstep>
  <scstep>
   <time name="dav">   28.34   28.41</time>
   <time name="total">   28.88   28.96</time>
   <energy>
    <i name="e_fr_energy">   -189.81565643 </i>
    <i name="e_wo_entrp">   -189.57669143 </i>
    <i name="e_0_energy">   -189.69617393 </i>
   </energy>
  </scstep>
  <scstep>
   <time name="dav">   25.40   25.46</time>
   <time name="total">   25.93   26.00</time>
   <energy>
    <i name="e_fr_energy">   -189.81598506 </i>
    <i name="e_wo_entrp">   -189.57692837 </i>
    <i name="e_0_energy">   -189.69645672 </i>
   </energy>
  </scstep>
  <scstep>
   <time name="dav">   23.83   23.89</time>
   <time name="total">   24.37   24.44</time>
   <energy>
    <i name="e_fr_energy">   -189.81576244 </i>
    <i name="e_wo_entrp">   -189.57668887 </i>
    <i name="e_0_energy">   -189.69622566 </i>
   </energy>
  </scstep>
  <scstep>
   <time name="dav">   19.56   19.61</time>
   <time name="total">   19.60   19.65</time>
   <energy>
    <i name="alphaZ">     82.32727177 </i>
    <i name="ewald">  41293.92898762 </i>
    <i name="hartreedc"> -47266.16247700 </i>
    <i name="XCdc">   -235.24459167 </i>
    <i name="pawpsdc">   4038.73941668 </i>
    <i name="pawaedc">  -3454.45496652 </i>
    <i name="eentropy">     -0.23908701 </i>
    <i name="bandstr">  -1410.15286100 </i>
    <i name="atom">   6761.44252427 </i>
    <i name="e_fr_energy">   -189.81578285 </i>
    <i name="e_wo_entrp">   -189.57669584 </i>
    <i name="e_0_energy">   -189.69623935 </i>
   </energy>
  </scstep>
  <structure>
   <crystal>
    <varray name="basis" >
     <v>       8.66732186       5.00176785       0.00000000 </v>
     <v>      -8.66615697       4.99976460       0.00000000 </v>
     <v>       0.00000000       0.00000000      30.00000000 </v>
    </varray>
    <i name="volume">   2600.42022936 </i>
    <varray name="rec_basis" >
     <v>       0.05768027       0.09997796       0.00000000 </v>
     <v>      -0.05770338       0.09999140       0.00000000 </v>
     <v>       0.00000000       0.00000000       0.03333333 </v>
    </varray>
   </crystal>
   <varray name="positions" >
    <v>      -0.00006386       0.00040430      -0.00004519 </v>
    <v>       0.66558641       0.33034664       0.00005175 </v>
    <v>       0.99944822       0.33282904       0.00009288 </v>
    <v>       0.33545502       0.67069926       0.00000899 </v>
    <v>       0.66310756      -0.00177624       0.00004914 </v>
    <v>       0.33505915      -0.00235410      -0.00016567 </v>
    <v>       0.00399409       0.66831505      -0.00011842 </v>
    <v>       0.33313945       0.33323107       0.00008559 </v>
    <v>       0.66444964       0.66859187       0.00007728 </v>
    <v>       0.10759571       0.22051316       0.95308954 </v>
    <v>       0.21816049       0.10997163       0.04787385 </v>
    <v>       0.10820163       0.55148589       0.95195725 </v>
    <v>       0.21821329       0.44158137       0.04792103 </v>
    <v>       0.10793774       0.89011031       0.95195532 </v>
    <v>       0.22089011       0.77696973       0.04942941 </v>
    <v>       0.44825360       0.22486356       0.95197913 </v>
    <v>       0.55787723       0.11576446       0.04820076 </v>
    <v>       0.44473272       0.55489945       0.95074556 </v>
    <v>       0.55751554       0.44242780       0.04800581 </v>
    <v>       0.44425316       0.88883320       0.95043114 </v>
    <v>       0.55601112       0.77694575       0.04948288 </v>
    <v>       0.77971711       0.22659827       0.95316132 </v>
    <v>       0.89326292       0.11305698       0.04674500 </v>
    <v>       0.77598937       0.55190157       0.95227544 </v>
    <v>       0.88720138       0.44093886       0.04682869 </v>
    <v>       0.78185801       0.88997119       0.95192924 </v>
    <v>       0.89036766       0.78109439       0.04795219 </v>
   </varray>
  </structure>
  <varray name="forces" >
   <v>       0.00286457       0.00498593       0.08651400 </v>
   <v>       0.12908471      -0.29922828      -0.07853223 </v>
   <v>       0.00686272      -0.03114870       0.08342205 </v>
   <v>      -0.23714095       0.61892017      -0.00544322 </v>
   <v>      -0.14511494      -0.70731996      -0.00371417 </v>
   <v>       0.59747333      -0.18687879      -0.00900457 </v>
   <v>       0.26381579       0.50193554      -0.10834291 </v>
   <v>       0.00937345       0.14182563       0.10733888 </v>
   <v>      -0.57176788      -0.15096081      -0.08263820 </v>
   <v>      -0.02541533      -0.06932765      -0.42146730 </v>
   <v>      -0.03341246      -0.06668908       0.30633019 </v>
   <v>       0.03482082      -0.09034199      -0.46121044 </v>
   <v>      -0.02411448      -0.08010364       0.33484585 </v>
   <v>      -0.07834821      -0.00251262      -0.52814294 </v>
   <v>      -0.00353308      -0.01862981       0.81263501 </v>
   <v>       0.01423513       0.08689018      -0.43445453 </v>
   <v>      -0.05789329       0.11870539       0.66248587 </v>
   <v>      -0.00323272      -0.01433844      -0.55926842 </v>
   <v>       0.06434142       0.02391156       0.41130428 </v>
   <v>      -0.00292938       0.01921256      -0.97502630 </v>
   <v>       0.02147861       0.00029367       0.86778705 </v>
   <v>      -0.01611431       0.08185550      -0.35812395 </v>
   <v>       0.00853678       0.07431592       0.27069655 </v>
   <v>       0.00590014      -0.03965565      -0.07543927 </v>
   <v>       0.01110738      -0.04737055       0.32265423 </v>
   <v>       0.03841390       0.08858756      -0.47350256 </v>
   <v>      -0.00929171       0.04306634       0.30829705 </v>
  </varray>
  <varray name="stress" >
   <v>     -10.15692926      -0.02224170       0.00229239 </v>
   <v>      -0.02224171      -9.84401199      -0.01425234 </v>
   <v>       0.00229249      -0.01425224       6.45717361 </v>
  </varray>
  <energy>
   <i name="e_fr_energy">   -189.81578285 </i>
   <i name="e_wo_entrp">   -189.69623935 </i>
   <i name="e_0_energy">     -0.23908701 </i>
  </energy>
  <time name="totalsc">  382.23  383.25</time>
 </calculation>
 <calculation>
  <scstep>
   <time name="dav">   22.03   22.09</time>
   <time name="total">   22.56   22.62</time>
   <energy>
    <i name="alphaZ">     85.80467895 </i>
    <i name="ewald">  42827.08788067 </i>
    <i name="hartreedc"> -48843.69080338 </i>
    <i name="XCdc">   -232.95186909 </i>
    <i name="pawpsdc">   4038.86887535 </i>
    <i name="pawaedc">  -3454.58268920 </i>
    <i name="eentropy">     -0.21092888 </i>
    <i name="bandstr">  -1373.18773330 </i>
    <i name="atom">   6761.44252427 </i>
    <i name="e_fr_energy">   -191.42006461 </i>
    <i name="e_wo_entrp">   -191.20913573 </i>
    <i name="e_0_energy">   -191.31460017 </i>
   </energy>
  </scstep>
  <scstep>
   <time name="dav">   32.65   32.72</time>
   <time name="total">   33.16   33.25</time>
   <energy>
    <i name="e_fr_energy">   -191.22655066 </i>
    <i name="e_wo_entrp">   -191.01588413 </i>
    <i name="e_0_energy">   -191.12121740 </i>
   </energy>
  </scstep>
  <scstep>
   <time name="dav">   30.49   30.56</time>
   <time name="total">   31.00   31.08</time>
   <energy>
    <i name="e_fr_energy">   -191.37882641 </i>
    <i name="e_wo_entrp">   -191.14650871 </i>
    <i name="e_0_energy">   -191.26266756 </i>
   </energy>
  </scstep>
  <scstep>
   <time name="dav">   30.91   30.98</time>
   <time name="total">   31.43   31.52</time>
   <energy>
    <i name="e_fr_energy">   -190.99766625 </i>
    <i name="e_wo_entrp">   -190.78465051 </i>
    <i name="e_0_energy">   -190.89115838 </i>
   </energy>
  </scstep>
  <scstep>
   <time name="dav">   30.88   30.95</time>
   <time name="total">   31.40   31.48</time>
   <energy>
    <i name="e_fr_energy">   -190.90594425 </i>
    <i name="e_wo_entrp">   -190.69284113 </i>
    <i name="e_0_energy">   -190.79939269 </i>
   </energy>
  </scstep>
  <scstep>
   <time name="dav">   30.97   31.05</time>
   <time name="total">   31.49   31.57</time>
   <energy>
    <i name="e_fr_energy">   -190.87368135 </i>
    <i name="e_wo_entrp">   -190.65558046 </i>
    <i name="e_0_energy">   -190.76463091 </i>
   </energy>
  </scstep>
  <scstep>
   <time name="dav">   31.45   31.52</time>
   <time name="total">   31.97   32.05</time>
   <energy>
    <i name="e_fr_energy">   -190.84737477 </i>
    <i name="e_wo_entrp">   -190.63137905 </i>
    <i name="e_0_energy">   -190.73937691 </i>
   </energy>
  </scstep>
  <scstep>
   <time name="dav">   26.23   26.30</time>
   <time name="total">   26.75   26.82</time>
   <energy>
    <i name="e_fr_energy">   -190.84467733 </i>
    <i name="e_wo_entrp">   -190.62863580 </i>
    <i name="e_0_energy">   -190.73665657 </i>
   </energy>
  </scstep>
  <scstep>
   <time name="dav">   31.52   31.60</time>
   <time name="total">   32.07   32.16</time>
   <energy>
    <i name="e_fr_energy">   -190.84545688 </i>
    <i name="e_wo_entrp">   -190.62942764 </i>
    <i name="e_0_energy">   -190.73744226 </i>
   </energy>
  </scstep>
  <scstep>
   <time name="dav">   27.13   27.19</time>
   <time name="total">   27.65   27.72</time>
   <energy>
    <i name="e_fr_energy">   -190.84506090 </i>
    <i name="e_wo_entrp">   -190.62906723 </i>
    <i name="e_0_energy">   -190.73706406 </i>
   </energy>
  </scstep>
  <scstep>
   <time name="dav">   25.70   25.76</time>
   <time name="total">   26.22   26.29</time>
   <energy>
    <i name="e_fr_energy">   -190.84479686 </i>
    <i name="e_wo_entrp">   -190.62873251 </i>
    <i name="e_0_energy">   -190.73676468 </i>
   </energy>
  </scstep>
  <scstep>
   <time name="dav">   18.86   18.91</time>
   <time name="total">   18.90   18.95</time>
   <energy>
    <i name="alphaZ">     85.80467895 </i>
    <i name="ewald">  42827.08788067 </i>
    <i name="hartreedc"> -48815.15190721 </i>
    <i name="XCdc">   -234.27340005 </i>
    <i name="pawpsdc">   4064.77919224 </i>
    <i name="pawaedc">  -3480.69182841 </i>
    <i name="eentropy">     -0.21607976 </i>
    <i name="bandstr">  -1399.62586282 </i>
    <i name="atom">   6761.44252427 </i>
    <i name="e_fr_energy">   -190.84480212 </i>
    <i name="e_wo_entrp">   -190.62872236 </i>
    <i name="e_0_energy">   -190.73676224 </i>
   </energy>
  </scstep>
  <structure>
   <crystal>
    <varray name="basis" >
     <v>       8.48511851       4.90090146       0.00000000 </v>
     <v>      -8.48502635       4.90075508       0.00000000 </v>
     <v>       0.00000000       0.00000000      30.00000000 </v>
    </varray>
    <i name="volume">   2495.03296973 </i>
    <varray name="rec_basis" >
     <v>       0.05892614       0.10202302       0.00000000 </v>
     <v>      -0.05892790       0.10202412       0.00000000 </v>
     <v>       0.00000000       0.00000000       0.03333333 </v>
    </varray>
   </crystal>
   <varray name="positions" >
    <v>      -0.00001193       0.00035116       0.00014417 </v>
    <v>       0.66410246       0.32806315      -0.00012148 </v>
    <v>       0.99933417       0.33265381       0.00026115 </v>
    <v>       0.33859429       0.67552025      -0.00000070 </v>
    <v>       0.65800589      -0.00592686       0.00003659 </v>
    <v>       0.33595421      -0.00580050      -0.00016183 </v>
    <v>       0.00810892       0.67057676      -0.00033229 </v>
    <v>       0.33420329       0.33420906       0.00030344 </v>
    <v>       0.66131906       0.66962489      -0.00010824 </v>
    <v>       0.10663751       0.21996438       0.95182315 </v>
    <v>       0.21735215       0.10930822       0.04891209 </v>
    <v>       0.10785300       0.55046500       0.95057535 </v>
    <v>       0.21733316       0.44126706       0.04902261 </v>
    <v>       0.10771588       0.89078282       0.95042902 </v>
    <v>       0.22102893       0.77700669       0.05159740 </v>
    <v>       0.44913353       0.22529527       0.95066533 </v>
    <v>       0.55848735       0.11688836       0.04999438 </v>
    <v>       0.44446543       0.55491672       0.94911196 </v>
    <v>       0.55815285       0.44216564       0.04928957 </v>
    <v>       0.44439473       0.88897552       0.94792214 </v>
    <v>       0.55595325       0.77703294       0.05178043 </v>
    <v>       0.78025321       0.22730813       0.95204929 </v>
    <v>       0.89387891       0.11355648       0.04767070 </v>
    <v>       0.77557677       0.55125743       0.95172637 </v>
    <v>       0.88673258       0.44020162       0.04788154 </v>
    <v>       0.78285645       0.89077460       0.95052378 </v>
    <v>       0.89079839       0.78177585       0.04900399 </v>
   </varray>
  </structure>
  <varray name="forces" >
   <v>       0.02852039       0.00407912       0.07703832 </v>
   <v>       0.12054713      -0.32696701      -0.07690042 </v>
   <v>       0.00619791      -0.06138425       0.04581614 </v>
   <v>      -0.20038964       0.61181771      -0.01076865 </v>
   <v>      -0.09410646      -0.67321580      -0.00790506 </v>
   <v>       0.55164897      -0.22059422       0.02533096 </v>
   <v>       0.31045418       0.54710539      -0.06493987 </v>
   <v>       0.01033169       0.16960299       0.07071293 </v>
   <v>      -0.64884510      -0.19787833      -0.05629199 </v>
   <v>      -0.00983623      -0.01426749      -0.28983133 </v>
   <v>       0.07903741      -0.00331872       0.15746956 </v>
   <v>       0.07099827       0.04918323      -0.30752525 </v>
   <v>      -0.06907517       0.05613131       0.19586951 </v>
   <v>       0.00118010       0.08710636      -0.39973654 </v>
   <v>       0.04484373       0.04451961       0.60249251 </v>
   <v>       0.04146836      -0.04018987      -0.27738055 </v>
   <v>       0.02098267      -0.01997632       0.47966360 </v>
   <v>      -0.10196552      -0.02867315      -0.40198098 </v>
   <v>       0.02727712       0.06219196       0.28972012 </v>
   <v>      -0.00362795       0.01379789      -0.78493844 </v>
   <v>      -0.05841763      -0.00072140       0.69724671 </v>
   <v>       0.04767871      -0.05515888      -0.25365149 </v>
   <v>      -0.06474918      -0.06852960       0.19368454 </v>
   <v>      -0.02750263       0.04125010       0.08422995 </v>
   <v>      -0.01335214       0.01592052       0.21506517 </v>
   <v>      -0.07081347       0.02454510      -0.32294883 </v>
   <v>       0.00151448      -0.01637625       0.12045938 </v>
  </varray>
  <varray name="stress" >
   <v>      -5.70024469       0.00303798       0.02312137 </v>
   <v>       0.00303773      -5.55262741      -0.00702696 </v>
   <v>       0.02312144      -0.00702690       4.47829655 </v>
  </varray>
  <energy>
   <i name="e_fr_energy">   -190.84480212 </i>
   <i name="e_wo_entrp">   -190.73676224 </i>
   <i name="e_0_energy">     -0.21607976 </i>
  </energy>
  <time name="totalsc">  387.11  388.14</time>
 </calculation>
 <calculation>
  <scstep>
   <time name="dav">   22.03   22.08</time>
   <time name="total">   22.54   22.60</time>
   <energy>
    <i name="alphaZ">     89.96789121 </i>
    <i name="ewald">  44571.88447075 </i>
    <i name="hartreedc"> -50613.00491006 </i>
    <i name="XCdc">   -231.96128691 </i>
    <i name="pawpsdc">   4064.76456226 </i>
    <i name="pawaedc">  -3480.67316451 </i>
    <i name="eentropy">     -0.21471744 </i>
    <i name="bandstr">  -1354.35604728 </i>
    <i name="atom">   6761.44252427 </i>
    <i name="e_fr_energy">   -192.15067770 </i>
    <i name="e_wo_entrp">   -191.93596026 </i>
    <i name="e_0_energy">   -192.04331898 </i>
   </energy>
  </scstep>
  <scstep>
   <time name="dav">   27.76   27.82</time>
   <time name="total">   28.26   28.34</time>
   <energy>
    <i name="e_fr_energy">   -191.93413272 </i>
    <i name="e_wo_entrp">   -191.71743555 </i>
    <i name="e_0_energy">   -191.82578413 </i>
   </energy>
  </scstep>
  <scstep>
   <time name="dav">   29.47   29.54</time>
   <time name="total">   29.97   30.05</time>
   <energy>
    <i name="e_fr_energy">   -191.79841827 </i>
    <i name="e_wo_entrp">   -191.57176027 </i>
    <i name="e_0_energy">   -191.68508927 </i>
   </energy>
  </scstep>
  <scstep>
   <time name="dav">   30.90   30.98</time>
   <time name="total">   31.41   31.49</time>
   <energy>
    <i name="e_fr_energy">   -191.82694361 </i>
    <i name="e_wo_entrp">   -191.62187484 </i>
    <i name="e_0_energy">   -191.72440922 </i>
   </energy>
  </scstep>
  <scstep>
   <time name="dav">   30.80   30.87</time>
   <time name="total">   31.31   31.39</time>
   <energy>
    <i name="e_fr_energy">   -191.55637081 </i>
    <i name="e_wo_entrp">   -191.33396894 </i>
    <i name="e_0_energy">   -191.44516987 </i>
   </energy>
  </scstep>
  <scstep>
   <time name="dav">   29.29   29.36</time>
   <time name="total">   29.80   29.88</time>
   <energy>
    <i name="e_fr_energy">   -191.54676404 </i>
    <i name="e_wo_entrp">   -191.32553468 </i>
    <i name="e_0_energy">   -191.43614936 </i>
   </energy>
  </scstep>
  <scstep>
   <time name="dav">   30.21   30.29</time>
   <time name="total">   30.72   30.80</time>
   <energy>
    <i name="e_fr_energy">   -191.55238888 </i>
    <i name="e_wo_entrp">   -191.32971337 </i>
    <i name="e_0_energy">   -191.44105113 </i>
   </energy>
  </scstep>
  <scstep>
   <time name="dav">   29.34   29.41</time>
   <time name="total">   29.85   29.93</time>
   <energy>
    <i name="e_fr_energy">   -191.54149192 </i>
    <i name="e_wo_entrp">   -191.32021843 </i>
    <i name="e_0_energy">   -191.43085518 </i>
   </energy>
  </scstep>
  <scstep>
   <time name="dav">   29.05   29.12</time>
   <time name="total">   29.56   29.64</time>
   <energy>
    <i name="e_fr_energy">   -191.54236468 </i>
    <i name="e_wo_entrp">   -191.32079680 </i>
    <i name="e_0_energy">   -191.43158074 </i>
   </energy>
  </scstep>
  <scstep>
   <time name="dav">   29.73   29.81</time>
   <time name="total">   30.25   30.34</time>
   <energy>
    <i name="e_fr_energy">   -191.54179749 </i>
    <i name="e_wo_entrp">   -191.32044752 </i>
    <i name="e_0_energy">   -191.43112250 </i>
   </energy>
  </scstep>
  <scstep>
   <time name="dav">   25.92   25.98</time>
   <time name="total">   26.43   26.50</time>
   <energy>
    <i name="e_fr_energy">   -191.54155311 </i>
    <i name="e_wo_entrp">   -191.32007005 </i>
    <i name="e_0_energy">   -191.43081158 </i>
   </energy>
  </scstep>
  <scstep>
   <time name="dav">   18.66   18.70</time>
   <time name="total">   18.69   18.75</time>
   <energy>
    <i name="alphaZ">     89.96789121 </i>
    <i name="ewald">  44571.88447075 </i>
    <i name="hartreedc"> -50581.12903964 </i>
    <i name="XCdc">   -233.39530774 </i>
    <i name="pawpsdc">   4086.83078242 </i>
    <i name="pawaedc">  -3502.85800331 </i>
    <i name="eentropy">     -0.22151336 </i>
    <i name="bandstr">  -1384.06332420 </i>
    <i name="atom">   6761.44252427 </i>
    <i name="e_fr_energy">   -191.54151961 </i>
    <i name="e_wo_entrp">   -191.32000624 </i>
    <i name="e_0_energy">   -191.43076292 </i>
   </energy>
  </scstep>
  <structure>
   <crystal>
    <varray name="basis" >
     <v>       8.28235792       4.78823637       0.00000000 </v>
     <v>      -8.28253254       4.78855201       0.00000000 </v>
     <v>       0.00000000       0.00000000      30.00000000 </v>
    </varray>
    <i name="volume">   2379.57675848 </i>
    <varray name="rec_basis" >
     <v>       0.06037064       0.10442024       0.00000000 </v>
     <v>      -0.06036666       0.10441804       0.00000000 </v>
     <v>       0.00000000       0.00000000       0.03333333 </v>
    </varray>
   </crystal>
   <varray name="positions" >
    <v>       0.00022436       0.00014482       0.00046239 </v>
    <v>       0.66097581       0.32339591      -0.00043556 </v>
    <v>       0.99875119       0.33197063       0.00045514 </v>
    <v>       0.34466960       0.68440987      -0.00003839 </v>
    <v>       0.64899233      -0.01364783       0.00000236 </v>
    <v>       0.33712459      -0.01240080      -0.00005519 </v>
    <v>       0.01674603       0.67504907      -0.00059753 </v>
    <v>       0.33642669       0.33627049       0.00059457 </v>
    <v>       0.65444921       0.67165651      -0.00035854 </v>
    <v>       0.10581241       0.21955674       0.95017989 </v>
    <v>       0.21735361       0.10831298       0.05005695 </v>
    <v>       0.10878143       0.55000530       0.94881427 </v>
    <v>       0.21702604       0.44227279       0.05031766 </v>
    <v>       0.10863946       0.89220368       0.94831312 </v>
    <v>       0.22202857       0.77733119       0.05460885 </v>
    <v>       0.44943454       0.22468546       0.94903482 </v>
    <v>       0.55862726       0.11698949       0.05243949 </v>
    <v>       0.44334230       0.55531790       0.94692453 </v>
    <v>       0.55934745       0.44242786       0.05097008 </v>
    <v>       0.44458030       0.88918735       0.94420068 </v>
    <v>       0.55546143       0.77753933       0.05515994 </v>
    <v>       0.78017327       0.22674832       0.95058775 </v>
    <v>       0.89303660       0.11341614       0.04887715 </v>
    <v>       0.77557560       0.55136542       0.95153556 </v>
    <v>       0.88651535       0.43991446       0.04920940 </v>
    <v>       0.78320430       0.89199536       0.94870599 </v>
    <v>       0.89091471       0.78209603       0.05003452 </v>
   </varray>
  </structure>
  <varray name="forces" >
   <v>       0.05366810       0.02959498       0.02079832 </v>
   <v>       0.19015871      -0.42735106      -0.00302715 </v>
   <v>      -0.02234314      -0.13931046       0.04351483 </v>
   <v>       0.05198770       0.01480024      -0.02645084 </v>
   <v>       0.00503792      -0.04440721      -0.03413437 </v>
   <v>       0.06269252      -0.06809956      -0.08027596 </v>
   <v>       0.32133636       0.48483324      -0.02685884 </v>
   <v>      -0.04796114       0.20293429       0.05427988 </v>
   <v>      -0.51463911      -0.18741784       0.07860439 </v>
   <v>       0.02184533       0.03890871       0.01639291 </v>
   <v>       0.18030144       0.09859882      -0.10127261 </v>
   <v>       0.09047955       0.21851214      -0.02093983 </v>
   <v>      -0.06020661       0.19136459      -0.09761140 </v>
   <v>       0.08402254       0.14196673      -0.09021629 </v>
   <v>       0.12796473       0.06784648       0.24332649 </v>
   <v>       0.03389272      -0.17619302       0.01605349 </v>
   <v>       0.09468591      -0.14039468       0.11702937 </v>
   <v>      -0.21670811      -0.05059878      -0.16664633 </v>
   <v>      -0.03022826       0.11919258      -0.00791186 </v>
   <v>      -0.03455936       0.00509747      -0.26189918 </v>
   <v>      -0.07803097      -0.02386587       0.27810535 </v>
   <v>       0.09641527      -0.19414692      -0.00955201 </v>
   <v>      -0.10361156      -0.20581915      -0.03952089 </v>
   <v>      -0.12118780       0.18409556       0.43125013 </v>
   <v>      -0.06578084       0.07863117      -0.09595799 </v>
   <v>      -0.15959187      -0.09045110      -0.02187517 </v>
   <v>       0.04035996      -0.12832133      -0.21520444 </v>
  </varray>
  <varray name="stress" >
   <v>       0.06697805       0.01022970       0.33720678 </v>
   <v>       0.01022976       0.65640047      -0.01349293 </v>
   <v>       0.33720677      -0.01349306      -0.88009029 </v>
  </varray>
  <energy>
   <i name="e_fr_energy">   -191.54151961 </i>
   <i name="e_wo_entrp">   -191.43076292 </i>
   <i name="e_0_energy">     -0.22151336 </i>
  </energy>
  <time name="totalsc">  381.71  382.74</time>
 </calculation>
 <calculation>
  <scstep>
   <time name="dav">   22.00   22.06</time>
   <time name="total">   22.51   22.57</time>
   <energy>
    <i name="alphaZ">     89.74672964 </i>
    <i name="ewald">  44459.88685822 </i>
    <i name="hartreedc"> -50467.20505231 </i>
    <i name="XCdc">   -233.60012226 </i>
    <i name="pawpsdc">   4086.68818759 </i>
    <i name="pawaedc">  -3502.71010005 </i>
    <i name="eentropy">     -0.22205392 </i>
    <i name="bandstr">  -1385.64552334 </i>
    <i name="atom">   6761.44252427 </i>
    <i name="e_fr_energy">   -191.61855216 </i>
    <i name="e_wo_entrp">   -191.39649824 </i>
    <i name="e_0_energy">   -191.50752520 </i>
   </energy>
  </scstep>
  <scstep>
   <time name="dav">   33.62   33.70</time>
   <time name="total">   34.13   34.22</time>
   <energy>
    <i name="e_fr_energy">   -191.67629287 </i>
    <i name="e_wo_entrp">   -191.44693774 </i>
    <i name="e_0_energy">   -191.56161530 </i>
   </energy>
  </scstep>
  <scstep>
   <time name="dav">   31.08   31.16</time>
   <time name="total">   31.59   31.67</time>
   <energy>
    <i name="e_fr_energy">   -191.63166149 </i>
    <i name="e_wo_entrp">   -191.40890936 </i>
    <i name="e_0_energy">   -191.52028542 </i>
   </energy>
  </scstep>
  <scstep>
   <time name="dav">   26.49   26.55</time>
   <time name="total">   26.99   27.07</time>
   <energy>
    <i name="e_fr_energy">   -191.63449354 </i>
    <i name="e_wo_entrp">   -191.41252286 </i>
    <i name="e_0_energy">   -191.52350820 </i>
   </energy>
  </scstep>
  <scstep>
   <time name="dav">   28.65   28.72</time>
   <time name="total">   29.16   29.24</time>
   <energy>
    <i name="e_fr_energy">   -191.62841568 </i>
    <i name="e_wo_entrp">   -191.40440689 </i>
    <i name="e_0_energy">   -191.51641129 </i>
   </energy>
  </scstep>
  <scstep>
   <time name="dav">   28.35   28.41</time>
   <time name="total">   28.85   28.93</time>
   <energy>
    <i name="e_fr_energy">   -191.62952132 </i>
    <i name="e_wo_entrp">   -191.40647409 </i>
    <i name="e_0_energy">   -191.51799770 </i>
   </energy>
  </scstep>
  <scstep>
   <time name="dav">   28.29   28.35</time>
   <time name="total">   28.79   28.87</time>
   <energy>
    <i name="e_fr_energy">   -191.62819481 </i>
    <i name="e_wo_entrp">   -191.40504304 </i>
    <i name="e_0_energy">   -191.51661893 </i>
   </energy>
  </scstep>
  <scstep>
   <time name="dav">   25.71   25.77</time>
   <time name="total">   26.22   26.29</time>
   <energy>
    <i name="e_fr_energy">   -191.62768691 </i>
    <i name="e_wo_entrp">   -191.40451721 </i>
    <i name="e_0_energy">   -191.51610206 </i>
   </energy>
  </scstep>
  <scstep>
   <time name="dav">   18.88   18.93</time>
   <time name="total">   18.92   18.97</time>
   <energy>
    <i name="alphaZ">     89.74672964 </i>
    <i name="ewald">  44459.88685822 </i>
    <i name="hartreedc"> -50470.03870481 </i>
    <i name="XCdc">   -233.50571934 </i>
    <i name="pawpsdc">   4083.51131347 </i>
    <i name="pawaedc">  -3499.49007251 </i>
    <i name="eentropy">     -0.22321451 </i>
    <i name="bandstr">  -1382.95741428 </i>
    <i name="atom">   6761.44252427 </i>
    <i name="e_fr_energy">   -191.62769983 </i>
    <i name="e_wo_entrp">   -191.40448532 </i>
    <i name="e_0_energy">   -191.51609257 </i>
   </energy>
  </scstep>
  <structure>
   <crystal>
    <varray name="basis" >
     <v>       8.28655377       4.79790963       0.00000000 </v>
     <v>      -8.28646500       4.79777014       0.00000000 </v>
     <v>       0.00000000       0.00000000      30.00000000 </v>
    </varray>
    <i name="volume">   2385.44071506 </i>
    <varray name="rec_basis" >
     <v>       0.06033816       0.10421301       0.00000000 </v>
     <v>      -0.06033991       0.10421412       0.00000000 </v>
     <v>       0.00000000       0.00000000       0.03333333 </v>
    </varray>
   </crystal>
   <varray name="positions" >
    <v>       0.00051260       0.00014355       0.00048697 </v>
    <v>       0.65951153       0.32090047      -0.00043282 </v>
    <v>       0.99802582       0.33137288       0.00051771 </v>
    <v>       0.34474529       0.68412933      -0.00007847 </v>
    <v>       0.64900295      -0.01369490      -0.00004955 </v>
    <v>       0.33694359      -0.01275231      -0.00018182 </v>
    <v>       0.01979565       0.67639326      -0.00063278 </v>
    <v>       0.33722200       0.33733829       0.00067155 </v>
    <v>       0.65225909       0.67214437      -0.00023084 </v>
    <v>       0.10609023       0.21969819       0.95025106 </v>
    <v>       0.21834369       0.10831505       0.04986572 </v>
    <v>       0.11007373       0.55082941       0.94883122 </v>
    <v>       0.21779906       0.44334699       0.05012864 </v>
    <v>       0.10954282       0.89261706       0.94823104 </v>
    <v>       0.22268980       0.77729243       0.05490538 </v>
    <v>       0.44866156       0.22374905       0.94910574 </v>
    <v>       0.55820564       0.11603470       0.05255519 </v>
    <v>       0.44251771       0.55566965       0.94672697 </v>
    <v>       0.55980832       0.44308820       0.05091056 </v>
    <v>       0.44450326       0.88930355       0.94389167 </v>
    <v>       0.55514002       0.77762880       0.05550182 </v>
    <v>       0.77950102       0.22554449       0.95061401 </v>
    <v>       0.89176264       0.11270920       0.04878122 </v>
    <v>       0.77613257       0.55260261       0.95221475 </v>
    <v>       0.88672194       0.44049496       0.04902286 </v>
    <v>       0.78230301       0.89196915       0.94872274 </v>
    <v>       0.89039893       0.78134605       0.04966934 </v>
   </varray>
  </structure>
  <varray name="forces" >
   <v>       0.05241662       0.01245760       0.03276269 </v>
   <v>       0.25498401      -0.49159497      -0.00156777 </v>
   <v>      -0.03858777      -0.16385747       0.05808745 </v>
   <v>       0.02467088       0.12024087      -0.02877078 </v>
   <v>      -0.04005993      -0.12844240      -0.03016272 </v>
   <v>       0.15404092      -0.10027687      -0.01395210 </v>
   <v>       0.33531225       0.52670523      -0.02520261 </v>
   <v>      -0.09381800       0.25202759       0.04554483 </v>
   <v>      -0.54574967      -0.19279589      -0.00404304 </v>
   <v>       0.01807449       0.02752506       0.05254700 </v>
   <v>       0.08020355       0.08607234      -0.11597273 </v>
   <v>       0.07899440       0.12060251      -0.04359952 </v>
   <v>      -0.04014557       0.07984685      -0.07443046 </v>
   <v>       0.04114172       0.09139538      -0.09480731 </v>
   <v>       0.07765950       0.08099823       0.17438618 </v>
   <v>       0.00704505      -0.10208744       0.00128059 </v>
   <v>       0.03227489      -0.08108492       0.10960305 </v>
   <v>      -0.11399220      -0.03346472      -0.14722265 </v>
   <v>      -0.01361917       0.08768866      -0.03103715 </v>
   <v>      -0.00462082       0.00014899      -0.13819592 </v>
   <v>      -0.09519319      -0.00513608       0.21801398 </v>
   <v>       0.04871623      -0.11234947      -0.03090278 </v>
   <v>      -0.04332586      -0.10254236      -0.04458122 </v>
   <v>      -0.07497397       0.13796157       0.49732830 </v>
   <v>      -0.06004294       0.05476305      -0.13606141 </v>
   <v>      -0.07665493      -0.07283850      -0.00318512 </v>
   <v>       0.03524952      -0.09196286      -0.22585879 </v>
  </varray>
  <varray name="stress" >
   <v>      -0.05301355       0.10336044       0.04332031 </v>
   <v>       0.10336029      -0.09748864       0.06369478 </v>
   <v>       0.04332046       0.06369471      -1.46149744 </v>
  </varray>
  <energy>
   <i name="e_fr_energy">   -191.62769983 </i>
   <i name="e_wo_entrp">   -191.51609257 </i>
   <i name="e_0_energy">     -0.22321451 </i>
  </energy>
  <time name="totalsc">  289.93  290.69</time>
 </calculation>
 <calculation>
  <scstep>
   <time name="dav">   22.04   22.10</time>
   <time name="total">   22.55   22.61</time>
   <energy>
    <i name="alphaZ">     89.78367610 </i>
    <i name="ewald">  44482.02751610 </i>
    <i name="hartreedc"> -50492.28480168 </i>
    <i name="XCdc">   -233.46275835 </i>
    <i name="pawpsdc">   4083.22122960 </i>
    <i name="pawaedc">  -3499.19713282 </i>
    <i name="eentropy">     -0.22141276 </i>
    <i name="bandstr">  -1383.00629548 </i>
    <i name="atom">   6761.44252427 </i>
    <i name="e_fr_energy">   -191.69745502 </i>
    <i name="e_wo_entrp">   -191.47604226 </i>
    <i name="e_0_energy">   -191.58674864 </i>
   </energy>
  </scstep>
  <scstep>
   <time name="dav">   31.80   31.87</time>
   <time name="total">   32.31   32.39</time>
   <energy>
    <i name="e_fr_energy">   -191.73025361 </i>
    <i name="e_wo_entrp">   -191.50204617 </i>
    <i name="e_0_energy">   -191.61614989 </i>
   </energy>
  </scstep>
  <scstep>
   <time name="dav">   31.15   31.23</time>
   <time name="total">   31.66   31.74</time>
   <energy>
    <i name="e_fr_energy">   -191.70377823 </i>
    <i name="e_wo_entrp">   -191.48184220 </i>
    <i name="e_0_energy">   -191.59281022 </i>
   </energy>
  </scstep>
  <scstep>
   <time name="dav">   28.45   28.52</time>
   <time name="total">   28.95   29.03</time>
   <energy>
    <i name="e_fr_energy">   -191.70451087 </i>
    <i name="e_wo_entrp">   -191.48361152 </i>
    <i name="e_0_energy">   -191.59406119 </i>
   </energy>
  </scstep>
  <scstep>
   <time name="dav">   28.68   28.74</time>
   <time name="total">   29.18   29.26</time>
   <energy>
    <i name="e_fr_energy">   -191.70159577 </i>
    <i name="e_wo_entrp">   -191.47860324 </i>
    <i name="e_0_energy">   -191.59009951 </i>
   </energy>
  </scstep>
  <scstep>
   <time name="dav">   28.20   28.26</time>
   <time name="total">   28.70   28.78</time>
   <energy>
    <i name="e_fr_energy">   -191.70187298 </i>
    <i name="e_wo_entrp">   -191.47944658 </i>
    <i name="e_0_energy">   -191.59065978 </i>
   </energy>
  </scstep>
  <scstep>
   <time name="dav">   25.97   26.03</time>
   <time name="total">   26.47   26.54</time>
   <energy>
    <i name="e_fr_energy">   -191.70157541 </i>
    <i name="e_wo_entrp">   -191.47908226 </i>
    <i name="e_0_energy">   -191.59032884 </i>
   </energy>
  </scstep>
  <scstep>
[...]
      <set comment="kpoint 31">
       <r>  -17.5075    1.0000 </r>
       <r>  -17.2274    1.0000 </r>
       <r>  -16.9327    1.0000 </r>
       <r>  -16.6141    1.0000 </r>
       <r>  -16.5038    1.0000 </r>
       <r>  -16.3989    1.0000 </r>
       <r>  -16.3111    1.0000 </r>
       <r>  -16.1636    1.0000 </r>
       <r>  -16.0932    1.0000 </r>
       <r>  -16.0302    1.0000 </r>
       <r>  -15.9450    1.0000 </r>
       <r>  -15.9241    1.0000 </r>
       <r>  -15.7970    1.0000 </r>
       <r>  -15.7522    1.0000 </r>
       <r>  -15.5925    1.0000 </r>
       <r>  -15.5230    1.0000 </r>
       <r>  -15.3810    1.0000 </r>
       <r>  -15.2931    1.0000 </r>
       <r>   -9.6856    1.0000 </r>
       <r>   -9.4331    1.0000 </r>
       <r>   -9.2787    1.0000 </r>
       <r>   -8.9346    1.0000 </r>
       <r>   -8.8557    1.0000 </r>
       <r>   -8.7640    1.0000 </r>
       <r>   -8.5467    1.0000 </r>
       <r>   -8.4169    1.0000 </r>
       <r>   -8.3745    1.0000 </r>
       <r>   -8.3325    1.0000 </r>
       <r>   -8.3023    1.0000 </r>
       <r>   -8.2001    1.0000 </r>
       <r>   -8.1161    1.0000 </r>
       <r>   -8.0599    1.0000 </r>
       <r>   -7.9983    1.0000 </r>
       <r>   -7.8395    1.0000 </r>
       <r>   -7.8083    1.0000 </r>
       <r>   -7.6459    1.0000 </r>
       <r>   -7.6010    1.0000 </r>
       <r>   -7.4794    1.0000 </r>
       <r>   -7.2861    1.0000 </r>
       <r>   -7.2475    1.0000 </r>
       <r>   -7.1458    1.0000 </r>
       <r>   -7.1196    1.0000 </r>
       <r>   -7.0147    1.0000 </r>
       <r>   -6.9784    1.0000 </r>
       <r>   -6.8440    1.0000 </r>
       <r>   -6.7774    1.0000 </r>
       <r>   -6.6377    1.0000 </r>
       <r>   -6.5782    1.0000 </r>
       <r>   -6.5391    1.0000 </r>
       <r>   -6.4857    1.0000 </r>
       <r>   -6.4108    1.0000 </r>
       <r>   -6.3552    1.0000 </r>
       <r>   -6.3091    1.0000 </r>
       <r>   -6.2338    1.0000 </r>
       <r>   -6.2026    1.0000 </r>
       <r>   -6.0729    1.0000 </r>
       <r>   -5.9987    1.0000 </r>
       <r>   -5.9364    1.0000 </r>
       <r>   -5.8666    1.0000 </r>
       <r>   -5.7897    1.0000 </r>
       <r>   -5.7432    1.0000 </r>
       <r>   -5.6545    1.0000 </r>
       <r>   -5.5756    1.0000 </r>
       <r>   -5.3960    1.0000 </r>
       <r>   -5.2785    1.0000 </r>
       <r>   -5.1743    1.0000 </r>
       <r>   -5.0517    1.0000 </r>
       <r>   -4.9268    1.0000 </r>
       <r>   -4.7999    1.0000 </r>
       <r>   -4.7493    1.0000 </r>
       <r>   -4.5568    1.0000 </r>
       <r>   -4.4368    1.0000 </r>
       <r>   -4.3321    1.0000 </r>
       <r>   -4.2401    1.0000 </r>
       <r>   -4.1597    1.0000 </r>
       <r>   -4.0439    1.0000 </r>
       <r>   -3.9026    1.0000 </r>
       <r>   -3.6419    0.9972 </r>
       <r>   -3.4949    0.9579 </r>
       <r>   -3.2621    0.5321 </r>
       <r>   -2.9133    0.0085 </r>
       <r>   -2.7434    0.0002 </r>
       <r>   -2.5822    0.0000 </r>
       <r>   -2.5118    0.0000 </r>
       <r>   -2.4017    0.0000 </r>
       <r>   -2.3235    0.0000 </r>
       <r>   -2.2692    0.0000 </r>
       <r>   -2.0984    0.0000 </r>
       <r>   -2.0055    0.0000 </r>
       <r>   -1.9464    0.0000 </r>
       <r>   -1.9001    0.0000 </r>
       <r>   -1.7510    0.0000 </r>
       <r>   -1.4951    0.0000 </r>
       <r>   -1.2695    0.0000 </r>
       <r>   -1.2076    0.0000 </r>
       <r>   -1.1321    0.0000 </r>
       <r>   -1.1120    0.0000 </r>
       <r>   -1.0080    0.0000 </r>
       <r>   -0.9585    0.0000 </r>
       <r>   -0.9231    0.0000 </r>
       <r>   -0.8489    0.0000 </r>
       <r>   -0.7719    0.0000 </r>
       <r>   -0.7056    0.0000 </r>
       <r>   -0.6140    0.0000 </r>
       <r>   -0.5076    0.0000 </r>
       <r>   -0.3823    0.0000 </r>
       <r>   -0.2258    0.0000 </r>
       <r>   -0.0962    0.0000 </r>
       <r>    0.1146    0.0000 </r>
       <r>    0.1833    0.0000 </r>
       <r>    0.4072    0.0000 </r>
       <r>    0.6178    0.0000 </r>
       <r>    0.6749    0.0000 </r>
       <r>    0.9667    0.0000 </r>
       <r>    1.0028    0.0000 </r>
       <r>    1.2896    0.0000 </r>
       <r>    1.4513    0.0000 </r>
       <r>    2.1170    0.0000 </r>
       <r>    2.2749    0.0000 </r>
       <r>    2.3719    0.0000 </r>
      </set>
      <set comment="kpoint 32">
       <r>  -17.5137    1.0000 </r>
       <r>  -17.1196    1.0000 </r>
       <r>  -17.0879    1.0000 </r>
       <r>  -16.6144    1.0000 </r>
       <r>  -16.4006    1.0000 </r>
       <r>  -16.3559    1.0000 </r>
       <r>  -16.3162    1.0000 </r>
       <r>  -16.2233    1.0000 </r>
       <r>  -16.1109    1.0000 </r>
       <r>  -16.0675    1.0000 </r>
       <r>  -15.9596    1.0000 </r>
       <r>  -15.9122    1.0000 </r>
       <r>  -15.7943    1.0000 </r>
       <r>  -15.7188    1.0000 </r>
       <r>  -15.6076    1.0000 </r>
       <r>  -15.5145    1.0000 </r>
       <r>  -15.3967    1.0000 </r>
       <r>  -15.2742    1.0000 </r>
       <r>   -9.6223    1.0000 </r>
       <r>   -9.5623    1.0000 </r>
       <r>   -9.3475    1.0000 </r>
       <r>   -8.9117    1.0000 </r>
       <r>   -8.7541    1.0000 </r>
       <r>   -8.5983    1.0000 </r>
       <r>   -8.5266    1.0000 </r>
       <r>   -8.4463    1.0000 </r>
       <r>   -8.4022    1.0000 </r>
       <r>   -8.3536    1.0000 </r>
       <r>   -8.2825    1.0000 </r>
       <r>   -8.2503    1.0000 </r>
       <r>   -8.1392    1.0000 </r>
       <r>   -8.0818    1.0000 </r>
       <r>   -8.0227    1.0000 </r>
       <r>   -7.9133    1.0000 </r>
       <r>   -7.7692    1.0000 </r>
       <r>   -7.7186    1.0000 </r>
       <r>   -7.5423    1.0000 </r>
       <r>   -7.4500    1.0000 </r>
       <r>   -7.3228    1.0000 </r>
       <r>   -7.2469    1.0000 </r>
       <r>   -7.1976    1.0000 </r>
       <r>   -7.0757    1.0000 </r>
       <r>   -7.0069    1.0000 </r>
       <r>   -6.8947    1.0000 </r>
       <r>   -6.8653    1.0000 </r>
       <r>   -6.7539    1.0000 </r>
       <r>   -6.6888    1.0000 </r>
       <r>   -6.6033    1.0000 </r>
       <r>   -6.5071    1.0000 </r>
       <r>   -6.4605    1.0000 </r>
       <r>   -6.4331    1.0000 </r>
       <r>   -6.3643    1.0000 </r>
       <r>   -6.2851    1.0000 </r>
       <r>   -6.2568    1.0000 </r>
       <r>   -6.1867    1.0000 </r>
       <r>   -6.0589    1.0000 </r>
       <r>   -5.9643    1.0000 </r>
       <r>   -5.9261    1.0000 </r>
       <r>   -5.8806    1.0000 </r>
       <r>   -5.7565    1.0000 </r>
       <r>   -5.6623    1.0000 </r>
       <r>   -5.6221    1.0000 </r>
       <r>   -5.5582    1.0000 </r>
       <r>   -5.4676    1.0000 </r>
       <r>   -5.3171    1.0000 </r>
       <r>   -5.2056    1.0000 </r>
       <r>   -5.0804    1.0000 </r>
       <r>   -4.9463    1.0000 </r>
       <r>   -4.9048    1.0000 </r>
       <r>   -4.6724    1.0000 </r>
       <r>   -4.5771    1.0000 </r>
       <r>   -4.4706    1.0000 </r>
       <r>   -4.3939    1.0000 </r>
       <r>   -4.2149    1.0000 </r>
       <r>   -4.1671    1.0000 </r>
       <r>   -4.0201    1.0000 </r>
       <r>   -3.8978    1.0000 </r>
       <r>   -3.6308    0.9964 </r>
       <r>   -3.4916    0.9558 </r>
       <r>   -3.1293    0.1954 </r>
       <r>   -2.9331    0.0124 </r>
       <r>   -2.7497    0.0002 </r>
       <r>   -2.5945    0.0000 </r>
       <r>   -2.4884    0.0000 </r>
       <r>   -2.4298    0.0000 </r>
       <r>   -2.3621    0.0000 </r>
       <r>   -2.2526    0.0000 </r>
       <r>   -2.1271    0.0000 </r>
       <r>   -2.0237    0.0000 </r>
       <r>   -1.9766    0.0000 </r>
       <r>   -1.9024    0.0000 </r>
       <r>   -1.7195    0.0000 </r>
       <r>   -1.4915    0.0000 </r>
       <r>   -1.2770    0.0000 </r>
       <r>   -1.2005    0.0000 </r>
       <r>   -1.1557    0.0000 </r>
       <r>   -1.0851    0.0000 </r>
       <r>   -1.0050    0.0000 </r>
       <r>   -0.9799    0.0000 </r>
       <r>   -0.9320    0.0000 </r>
       <r>   -0.8374    0.0000 </r>
       <r>   -0.7385    0.0000 </r>
       <r>   -0.6909    0.0000 </r>
       <r>   -0.5833    0.0000 </r>
       <r>   -0.5353    0.0000 </r>
       <r>   -0.3323    0.0000 </r>
       <r>   -0.1668    0.0000 </r>
       <r>   -0.0993    0.0000 </r>
       <r>    0.0642    0.0000 </r>
       <r>    0.2208    0.0000 </r>
       <r>    0.4416    0.0000 </r>
       <r>    0.6408    0.0000 </r>
       <r>    0.7414    0.0000 </r>
       <r>    0.9286    0.0000 </r>
       <r>    0.9804    0.0000 </r>
       <r>    1.2018    0.0000 </r>
       <r>    1.3604    0.0000 </r>
       <r>    2.0855    0.0000 </r>
       <r>    2.2451    0.0000 </r>
       <r>    2.5440    0.0000 </r>
      </set>
      <set comment="kpoint 33">
       <r>  -17.4895    1.0000 </r>
       <r>  -17.2601    1.0000 </r>
       <r>  -16.9171    1.0000 </r>
       <r>  -16.6170    1.0000 </r>
       <r>  -16.5015    1.0000 </r>
       <r>  -16.3739    1.0000 </r>
       <r>  -16.3097    1.0000 </r>
       <r>  -16.2157    1.0000 </r>
       <r>  -16.0959    1.0000 </r>
       <r>  -16.0442    1.0000 </r>
       <r>  -15.9776    1.0000 </r>
       <r>  -15.8712    1.0000 </r>
       <r>  -15.7965    1.0000 </r>
       <r>  -15.6858    1.0000 </r>
       <r>  -15.6240    1.0000 </r>
       <r>  -15.5085    1.0000 </r>
       <r>  -15.4382    1.0000 </r>
       <r>  -15.2597    1.0000 </r>
       <r>   -9.7301    1.0000 </r>
       <r>   -9.4342    1.0000 </r>
       <r>   -9.2769    1.0000 </r>
       <r>   -8.9488    1.0000 </r>
       <r>   -8.8402    1.0000 </r>
       <r>   -8.7084    1.0000 </r>
       <r>   -8.5691    1.0000 </r>
       <r>   -8.4716    1.0000 </r>
       <r>   -8.3809    1.0000 </r>
       <r>   -8.3158    1.0000 </r>
       <r>   -8.2627    1.0000 </r>
       <r>   -8.2035    1.0000 </r>
       <r>   -8.1550    1.0000 </r>
       <r>   -8.0812    1.0000 </r>
       <r>   -7.9084    1.0000 </r>
       <r>   -7.8657    1.0000 </r>
       <r>   -7.7984    1.0000 </r>
       <r>   -7.7549    1.0000 </r>
       <r>   -7.5412    1.0000 </r>
       <r>   -7.4215    1.0000 </r>
       <r>   -7.3242    1.0000 </r>
       <r>   -7.2618    1.0000 </r>
       <r>   -7.1253    1.0000 </r>
       <r>   -7.0708    1.0000 </r>
       <r>   -6.9954    1.0000 </r>
       <r>   -6.8812    1.0000 </r>
       <r>   -6.8663    1.0000 </r>
       <r>   -6.7821    1.0000 </r>
       <r>   -6.7350    1.0000 </r>
       <r>   -6.5985    1.0000 </r>
       <r>   -6.5324    1.0000 </r>
       <r>   -6.4425    1.0000 </r>
       <r>   -6.4012    1.0000 </r>
       <r>   -6.3105    1.0000 </r>
       <r>   -6.2667    1.0000 </r>
       <r>   -6.2276    1.0000 </r>
       <r>   -6.1785    1.0000 </r>
       <r>   -6.0933    1.0000 </r>
       <r>   -6.0142    1.0000 </r>
       <r>   -5.9505    1.0000 </r>
       <r>   -5.8829    1.0000 </r>
       <r>   -5.8331    1.0000 </r>
       <r>   -5.7576    1.0000 </r>
       <r>   -5.6786    1.0000 </r>
       <r>   -5.6012    1.0000 </r>
       <r>   -5.3549    1.0000 </r>
       <r>   -5.2813    1.0000 </r>
       <r>   -5.1534    1.0000 </r>
       <r>   -5.0902    1.0000 </r>
       <r>   -4.9493    1.0000 </r>
       <r>   -4.9095    1.0000 </r>
       <r>   -4.6490    1.0000 </r>
       <r>   -4.5460    1.0000 </r>
       <r>   -4.4855    1.0000 </r>
       <r>   -4.4077    1.0000 </r>
       <r>   -4.2232    1.0000 </r>
       <r>   -4.1921    1.0000 </r>
       <r>   -4.0336    1.0000 </r>
       <r>   -3.8838    1.0000 </r>
       <r>   -3.6290    0.9963 </r>
       <r>   -3.5281    0.9751 </r>
       <r>   -2.9859    0.0306 </r>
       <r>   -2.9264    0.0109 </r>
       <r>   -2.7726    0.0004 </r>
       <r>   -2.5932    0.0000 </r>
       <r>   -2.5199    0.0000 </r>
       <r>   -2.4614    0.0000 </r>
       <r>   -2.4104    0.0000 </r>
       <r>   -2.2332    0.0000 </r>
       <r>   -2.1556    0.0000 </r>
       <r>   -2.0410    0.0000 </r>
       <r>   -1.9822    0.0000 </r>
       <r>   -1.9182    0.0000 </r>
       <r>   -1.6238    0.0000 </r>
       <r>   -1.4743    0.0000 </r>
       <r>   -1.2971    0.0000 </r>
       <r>   -1.2061    0.0000 </r>
       <r>   -1.1522    0.0000 </r>
       <r>   -1.1166    0.0000 </r>
       <r>   -1.0515    0.0000 </r>
       <r>   -0.9699    0.0000 </r>
       <r>   -0.9157    0.0000 </r>
       <r>   -0.8320    0.0000 </r>
       <r>   -0.7399    0.0000 </r>
       <r>   -0.6740    0.0000 </r>
       <r>   -0.5565    0.0000 </r>
       <r>   -0.4913    0.0000 </r>
       <r>   -0.2523    0.0000 </r>
       <r>   -0.1868    0.0000 </r>
       <r>   -0.1308    0.0000 </r>
       <r>   -0.0044    0.0000 </r>
       <r>    0.2545    0.0000 </r>
       <r>    0.5315    0.0000 </r>
       <r>    0.6486    0.0000 </r>
       <r>    0.8055    0.0000 </r>
       <r>    0.8852    0.0000 </r>
       <r>    0.9933    0.0000 </r>
       <r>    1.1168    0.0000 </r>
       <r>    1.3148    0.0000 </r>
       <r>    2.1153    0.0000 </r>
       <r>    2.2773    0.0000 </r>
       <r>    2.3796    0.0000 </r>
      </set>
      <set comment="kpoint 34">
       <r>  -17.4586    1.0000 </r>
       <r>  -17.3327    1.0000 </r>
       <r>  -16.7429    1.0000 </r>
       <r>  -16.6825    1.0000 </r>
       <r>  -16.6146    1.0000 </r>
       <r>  -16.3820    1.0000 </r>
       <r>  -16.2686    1.0000 </r>
       <r>  -16.2490    1.0000 </r>
       <r>  -16.0700    1.0000 </r>
       <r>  -16.0291    1.0000 </r>
       <r>  -15.9914    1.0000 </r>
       <r>  -15.8227    1.0000 </r>
       <r>  -15.8130    1.0000 </r>
       <r>  -15.6698    1.0000 </r>
       <r>  -15.6290    1.0000 </r>
       <r>  -15.5050    1.0000 </r>
       <r>  -15.4699    1.0000 </r>
       <r>  -15.2551    1.0000 </r>
       <r>   -9.7712    1.0000 </r>
       <r>   -9.3424    1.0000 </r>
       <r>   -9.1653    1.0000 </r>
       <r>   -9.0646    1.0000 </r>
       <r>   -8.8711    1.0000 </r>
       <r>   -8.8239    1.0000 </r>
       <r>   -8.5881    1.0000 </r>
       <r>   -8.4929    1.0000 </r>
       <r>   -8.3800    1.0000 </r>
       <r>   -8.3413    1.0000 </r>
       <r>   -8.2385    1.0000 </r>
       <r>   -8.1502    1.0000 </r>
       <r>   -8.1292    1.0000 </r>
       <r>   -8.0424    1.0000 </r>
       <r>   -7.8933    1.0000 </r>
       <r>   -7.8163    1.0000 </r>
       <r>   -7.8066    1.0000 </r>
       <r>   -7.7829    1.0000 </r>
       <r>   -7.5150    1.0000 </r>
       <r>   -7.4445    1.0000 </r>
       <r>   -7.2705    1.0000 </r>
       <r>   -7.2582    1.0000 </r>
       <r>   -7.1197    1.0000 </r>
       <r>   -7.0235    1.0000 </r>
       <r>   -7.0062    1.0000 </r>
       <r>   -6.9100    1.0000 </r>
       <r>   -6.8923    1.0000 </r>
       <r>   -6.7971    1.0000 </r>
       <r>   -6.7439    1.0000 </r>
       <r>   -6.5717    1.0000 </r>
       <r>   -6.5387    1.0000 </r>
       <r>   -6.4297    1.0000 </r>
       <r>   -6.3725    1.0000 </r>
       <r>   -6.3465    1.0000 </r>
       <r>   -6.2686    1.0000 </r>
       <r>   -6.1583    1.0000 </r>
       <r>   -6.1448    1.0000 </r>
       <r>   -6.1109    1.0000 </r>
       <r>   -6.1002    1.0000 </r>
       <r>   -5.9817    1.0000 </r>
       <r>   -5.9149    1.0000 </r>
       <r>   -5.8472    1.0000 </r>
       <r>   -5.8290    1.0000 </r>
       <r>   -5.7131    1.0000 </r>
       <r>   -5.5631    1.0000 </r>
       <r>   -5.3559    1.0000 </r>
       <r>   -5.3003    1.0000 </r>
       <r>   -5.1025    1.0000 </r>
       <r>   -5.0810    1.0000 </r>
       <r>   -4.9418    1.0000 </r>
       <r>   -4.7829    1.0000 </r>
       <r>   -4.7482    1.0000 </r>
       <r>   -4.5129    1.0000 </r>
       <r>   -4.4653    1.0000 </r>
       <r>   -4.3818    1.0000 </r>
       <r>   -4.2673    1.0000 </r>
       <r>   -4.2091    1.0000 </r>
       <r>   -4.0436    1.0000 </r>
       <r>   -3.8745    1.0000 </r>
       <r>   -3.6307    0.9964 </r>
       <r>   -3.5506    0.9830 </r>
       <r>   -2.9323    0.0122 </r>
       <r>   -2.8936    0.0058 </r>
       <r>   -2.8017    0.0008 </r>
       <r>   -2.5768    0.0000 </r>
       <r>   -2.5581    0.0000 </r>
       <r>   -2.4648    0.0000 </r>
       <r>   -2.4482    0.0000 </r>
       <r>   -2.2234    0.0000 </r>
       <r>   -2.1657    0.0000 </r>
       <r>   -2.0406    0.0000 </r>
       <r>   -1.9840    0.0000 </r>
       <r>   -1.9256    0.0000 </r>
       <r>   -1.5698    0.0000 </r>
       <r>   -1.4555    0.0000 </r>
       <r>   -1.3039    0.0000 </r>
       <r>   -1.2465    0.0000 </r>
       <r>   -1.1425    0.0000 </r>
       <r>   -1.1234    0.0000 </r>
       <r>   -1.0766    0.0000 </r>
       <r>   -0.9425    0.0000 </r>
       <r>   -0.9229    0.0000 </r>
       <r>   -0.8181    0.0000 </r>
       <r>   -0.7718    0.0000 </r>
       <r>   -0.6677    0.0000 </r>
       <r>   -0.5227    0.0000 </r>
       <r>   -0.4639    0.0000 </r>
       <r>   -0.2326    0.0000 </r>
       <r>   -0.2163    0.0000 </r>
       <r>   -0.1396    0.0000 </r>
       <r>   -0.0294    0.0000 </r>
       <r>    0.2627    0.0000 </r>
       <r>    0.5832    0.0000 </r>
       <r>    0.6546    0.0000 </r>
       <r>    0.8062    0.0000 </r>
       <r>    0.8713    0.0000 </r>
       <r>    1.0341    0.0000 </r>
       <r>    1.0624    0.0000 </r>
       <r>    1.3134    0.0000 </r>
       <r>    2.1839    0.0000 </r>
       <r>    2.2469    0.0000 </r>
       <r>    2.3689    0.0000 </r>
      </set>
     </set>
    </set>
   </array>
  </eigenvalues>
  <separator name="orbital magnetization" >
   <v name="MAGDIPOLOUT">      0.00000000      0.00000000      0.00000000</v>
  </separator>
 </calculation>
 <structure name="finalpos" >
  <crystal>
   <varray name="basis" >
    <v>       8.36755266       4.84209516       0.00000000 </v>
    <v>      -8.36980483       4.84589765       0.00000000 </v>
    <v>       0.00000000       0.00000000      30.00000000 </v>
   </varray>
   <i name="volume">   2432.27085700 </i>
   <varray name="rec_basis" >
    <v>       0.05977004       0.10323445       0.00000000 </v>
    <v>      -0.05972314       0.10320667       0.00000000 </v>
    <v>       0.00000000       0.00000000       0.03333333 </v>
   </varray>
  </crystal>
  <varray name="positions" >
   <v>      -0.03432043      -0.01821522       0.00067912 </v>
   <v>       0.64805875       0.29639570      -0.00060064 </v>
   <v>       0.97580693       0.30857076      -0.00034555 </v>
   <v>       0.35264927       0.68758546      -0.00002020 </v>
   <v>       0.65882067      -0.00640710      -0.00000546 </v>
   <v>       0.34689529      -0.02005430       0.00024554 </v>
   <v>       0.03935503       0.68341653      -0.00160762 </v>
   <v>       0.35006273       0.37295311       0.00177796 </v>
   <v>       0.64800658       0.68089354      -0.00004207 </v>
   <v>       0.10698667       0.21827274       0.95377263 </v>
   <v>       0.22038770       0.11352233       0.04047655 </v>
   <v>       0.11464524       0.54757217       0.95032801 </v>
   <v>       0.21280375       0.44760777       0.04940406 </v>
   <v>       0.11447775       0.89594365       0.95013179 </v>
   <v>       0.22816381       0.77847381       0.05625192 </v>
   <v>       0.44325925       0.22311858       0.95168894 </v>
   <v>       0.55686856       0.11145789       0.05452252 </v>
   <v>       0.44697094       0.56348806       0.94403146 </v>
   <v>       0.56402407       0.44879023       0.04980721 </v>
   <v>       0.45016784       0.89055857       0.94316252 </v>
   <v>       0.55694788       0.78327596       0.05688876 </v>
   <v>       0.77487686       0.22258010       0.94830997 </v>
   <v>       0.89018788       0.10906939       0.05118202 </v>
   <v>       0.77868625       0.55314811       0.95970220 </v>
   <v>       0.88423602       0.43865398       0.04585262 </v>
   <v>       0.77933310       0.89058152       0.94576254 </v>
   <v>       0.88985606       0.77696110       0.04864310 </v>
  </varray>
 </structure>
</modeling>
