unknown system                          
           1
     8.854710    5.107721    0.000000
    -8.853437    5.105532    0.000000
     0.000000    0.000000   30.000000
   V    Mo   W    S 
   3   3   3  18
Direct configuration=     1
   0.00000000  0.00000000  0.00000000
   0.66666669  0.33333334  0.00000000
   1.00000000  0.33333334  0.00000000
   0.33333334  0.66666669  0.00000000
   0.66666669  0.00000000  0.00000000
   0.33333334  0.00000000  0.00000000
   0.00000000  0.66666669  0.00000000
   0.33333334  0.33333334  0.00000000
   0.66666669  0.66666669  0.00000000
   0.11068511  0.22244981  0.95539999
   0.22244981  0.11068511  0.04460000
   0.11068511  0.55578315  0.95539999
   0.22244981  0.44401845  0.04460000
   0.11068511  0.88911647  0.95539999
   0.22244981  0.77735180  0.04460000
   0.44401845  0.22244981  0.95539999
   0.55578315  0.11068511  0.04460000
   0.44401845  0.55578315  0.95539999
   0.55578315  0.44401845  0.04460000
   0.44401845  0.88911647  0.95539999
   0.55578315  0.77735180  0.04460000
   0.77735180  0.22244981  0.95539999
   0.88911647  0.11068511  0.04460000
   0.77735180  0.55578315  0.95539999
   0.88911647  0.44401845  0.04460000
   0.77735180  0.88911647  0.95539999
   0.88911647  0.77735180  0.04460000
unknown system                          
           1
     8.667322    5.001768    0.000000
    -8.666157    4.999765    0.000000
     0.000000    0.000000   30.000000
   V    Mo   W    S 
   3   3   3  18
Direct configuration=     2
  -0.00006803  0.00034968 -0.00008738
   0.66590948  0.33100614  0.00008916
   0.99953071  0.33291705  0.00004271
   0.33473295  0.66950025  0.00001312
   0.66432499 -0.00090158  0.00004802
   0.33473485 -0.00154703 -0.00014567
   0.00291846  0.66778086 -0.00005017
   0.33298863  0.33308613  0.00002192
   0.66517005  0.66823577  0.00011449
   0.10744880  0.22046720  0.95306702
   0.21812443  0.10980748  0.04796833
   0.10837901  0.55145129  0.95193519
   0.21817644  0.44175792  0.04800222
   0.10806811  0.89030787  0.95196729
   0.22110235  0.77709073  0.04929133
   0.44828399  0.22469223  0.95195035
   0.55778570  0.11562496  0.04810557
   0.44464972  0.55498344  0.95074673
   0.55758319  0.44233085  0.04805956
   0.44424513  0.88880599  0.95065796
   0.55589898  0.77707395  0.04932377
   0.77965063  0.22653879  0.95311833
   0.89321055  0.11298460  0.04683395
   0.77592661  0.55172491  0.95205764
   0.88712875  0.44076282  0.04690121
   0.78187599  0.89011760  0.95191539
   0.89043399  0.78126457  0.04805185
unknown system                          
           1
     8.485119    4.900901    0.000000
    -8.485026    4.900755    0.000000
     0.000000    0.000000   30.000000
   V    Mo   W    S 
   3   3   3  18
Direct configuration=     3
  -0.00006386  0.00040430 -0.00004519
   0.66558641  0.33034664  0.00005175
   0.99944822  0.33282904  0.00009288
   0.33545502  0.67069926  0.00000899
   0.66310756 -0.00177624  0.00004914
   0.33505915 -0.00235410 -0.00016567
   0.00399409  0.66831505 -0.00011842
   0.33313945  0.33323107  0.00008559
   0.66444964  0.66859187  0.00007728
   0.10759571  0.22051316  0.95308954
   0.21816049  0.10997163  0.04787385
   0.10820163  0.55148589  0.95195725
   0.21821329  0.44158137  0.04792103
   0.10793774  0.89011031  0.95195532
   0.22089011  0.77696973  0.04942941
   0.44825360  0.22486356  0.95197913
   0.55787723  0.11576446  0.04820076
   0.44473272  0.55489945  0.95074556
   0.55751554  0.44242780  0.04800581
   0.44425316  0.88883320  0.95043114
   0.55601112  0.77694575  0.04948288
   0.77971711  0.22659827  0.95316132
   0.89326292  0.11305698  0.04674500
   0.77598937  0.55190157  0.95227544
   0.88720138  0.44093886  0.04682869
   0.78185801  0.88997119  0.95192924
   0.89036766  0.78109439  0.04795219
unknown system                          
           1
     8.282358    4.788236    0.000000
    -8.282533    4.788552    0.000000
     0.000000    0.000000   30.000000
   V    Mo   W    S 
   3   3   3  18
Direct configuration=     4
  -0.00001193  0.00035116  0.00014417
   0.66410246  0.32806315 -0.00012148
   0.99933417  0.33265381  0.00026115
   0.33859429  0.67552025 -0.00000070
   0.65800589 -0.00592686  0.00003659
   0.33595421 -0.00580050 -0.00016183
   0.00810892  0.67057676 -0.00033229
   0.33420329  0.33420906  0.00030344
   0.66131906  0.66962489 -0.00010824
   0.10663751  0.21996438  0.95182315
   0.21735215  0.10930822  0.04891209
   0.10785300  0.55046500  0.95057535
   0.21733316  0.44126706  0.04902261
   0.10771588  0.89078282  0.95042902
   0.22102893  0.77700669  0.05159740
   0.44913353  0.22529527  0.95066533
   0.55848735  0.11688836  0.04999438
   0.44446543  0.55491672  0.94911196
   0.55815285  0.44216564  0.04928957
   0.44439473  0.88897552  0.94792214
   0.55595325  0.77703294  0.05178043
   0.78025321  0.22730813  0.95204929
   0.89387891  0.11355648  0.04767070
   0.77557677  0.55125743  0.95172637
   0.88673258  0.44020162  0.04788154
   0.78285645  0.89077460  0.95052378
   0.89079839  0.78177585  0.04900399
unknown system                          
           1
     8.286554    4.797910    0.000000
    -8.286465    4.797770    0.000000
     0.000000    0.000000   30.000000
   V    Mo   W    S 
   3   3   3  18
Direct configuration=     5
   0.00022436  0.00014482  0.00046239
   0.66097581  0.32339591 -0.00043556
   0.99875119  0.33197063  0.00045514
   0.34466960  0.68440987 -0.00003839
   0.64899233 -0.01364783  0.00000236
   0.33712459 -0.01240080 -0.00005519
   0.01674603  0.67504907 -0.00059753
   0.33642669  0.33627049  0.00059457
   0.65444921  0.67165651 -0.00035854
   0.10581241  0.21955674  0.95017989
   0.21735361  0.10831298  0.05005695
   0.10878143  0.55000530  0.94881427
   0.21702604  0.44227279  0.05031766
   0.10863946  0.89220368  0.94831312
   0.22202857  0.77733119  0.05460885
   0.44943454  0.22468546  0.94903482
   0.55862726  0.11698949  0.05243949
   0.44334230  0.55531790  0.94692453
   0.55934745  0.44242786  0.05097008
   0.44458030  0.88918735  0.94420068
   0.55546143  0.77753933  0.05515994
   0.78017327  0.22674832  0.95058775
   0.89303660  0.11341614  0.04887715
   0.77557560  0.55136542  0.95153556
   0.88651535  0.43991446  0.04920940
   0.78320430  0.89199536  0.94870599
   0.89091471  0.78209603  0.05003452
unknown system                          
           1
     8.286240    4.798552    0.000000
    -8.284039    4.794765    0.000000
     0.000000    0.000000   30.000000
   V    Mo   W    S 
   3   3   3  18
Direct configuration=     6
   0.00051260  0.00014355  0.00048697
   0.65951153  0.32090047 -0.00043282
   0.99802582  0.33137288  0.00051771
   0.34474529  0.68412933 -0.00007847
   0.64900295 -0.01369490 -0.00004955
   0.33694359 -0.01275231 -0.00018182
   0.01979565  0.67639326 -0.00063278
   0.33722200  0.33733829  0.00067155
   0.65225909  0.67214437 -0.00023084
   0.10609023  0.21969819  0.95025106
   0.21834369  0.10831505  0.04986572
   0.11007373  0.55082941  0.94883122
   0.21779906  0.44334699  0.05012864
   0.10954282  0.89261706  0.94823104
   0.22268980  0.77729243  0.05490538
   0.44866156  0.22374905  0.94910574
   0.55820564  0.11603470  0.05255519
   0.44251771  0.55566965  0.94672697
   0.55980832  0.44308820  0.05091056
   0.44450326  0.88930355  0.94389167
   0.55514002  0.77762880  0.05550182
   0.77950102  0.22554449  0.95061401
   0.89176264  0.11270920  0.04878122
   0.77613257  0.55260261  0.95221475
   0.88672194  0.44049496  0.04902286
   0.78230301  0.89196915  0.94872274
   0.89039893  0.78134605  0.04966934
unknown system                          
           1
     8.291553    4.803851    0.000000
    -8.287633    4.797094    0.000000
     0.000000    0.000000   30.000000
   V    Mo   W    S 
   3   3   3  18
Direct configuration=     7
   0.00068779  0.00007053  0.00053064
   0.65810435  0.31829185 -0.00043611
   0.99726932  0.33079668  0.00059374
   0.34531199  0.68458997 -0.00011593
   0.64835576 -0.01415061 -0.00008889
   0.33690239 -0.01354417 -0.00020019
   0.02275246  0.67775918 -0.00066656
   0.33803249  0.33858728  0.00073192
   0.65016865  0.67265147 -0.00023626
   0.10624011  0.21976535  0.95031122
   0.21888243  0.10846950  0.04972114
   0.11075538  0.55113298  0.94876660
   0.21802953  0.44377290  0.05003817
   0.11001608  0.89289864  0.94809842
   0.22320578  0.77743880  0.05514579
   0.44826437  0.22331332  0.94909984
   0.55795280  0.11562834  0.05270846
   0.44210702  0.55580473  0.94652562
   0.56013820  0.44347765  0.05087844
   0.44449343  0.88931662  0.94369495
   0.55489311  0.77783294  0.05580017
   0.77915812  0.22496947  0.95056725
   0.89123805  0.11239269  0.04872924
   0.77651612  0.55333995  0.95285750
   0.88680210  0.44085656  0.04885306
   0.78182792  0.89186052  0.94870995
   0.89010870  0.78089135  0.04938173
unknown system                          
           1
     8.298712    4.813781    0.000000
    -8.289896    4.798564    0.000000
     0.000000    0.000000   30.000000
   V    Mo   W    S 
   3   3   3  18
Direct configuration=     8
   0.00082876 -0.00002902  0.00057742
   0.65694626  0.31604181 -0.00045301
   0.99656462  0.33027191  0.00065608
   0.34563529  0.68470750 -0.00013073
   0.64803523 -0.01425938 -0.00010584
   0.33687966 -0.01405293 -0.00022725
   0.02493817  0.67878222 -0.00073215
   0.33868265  0.33976810  0.00079118
   0.64871845  0.67304177 -0.00022527
   0.10633701  0.21982383  0.95037738
   0.21927728  0.10866003  0.04958450
   0.11121521  0.55130447  0.94871791
   0.21810465  0.44398455  0.04996818
   0.11037119  0.89312609  0.94799827
   0.22367599  0.77757753  0.05535112
   0.44796673  0.22303067  0.94910873
   0.55777432  0.11536251  0.05285324
   0.44178856  0.55588013  0.94633029
   0.56041247  0.44378309  0.05082464
   0.44447595  0.88932902  0.94355471
   0.55471452  0.77802809  0.05601892
   0.77890450  0.22460059  0.95051274
   0.89095137  0.11217426  0.04868689
   0.77680505  0.55385531  0.95344112
   0.88682705  0.44112191  0.04869325
   0.78148825  0.89178326  0.94869578
   0.88989530  0.78051713  0.04913180
unknown system                          
           1
     8.312785    4.824277    0.000000
    -8.302798    4.807036    0.000000
     0.000000    0.000000   30.000000
   V    Mo   W    S 
   3   3   3  18
Direct configuration=     9
   0.00112055 -0.00051406  0.00071862
   0.65362851  0.30921736 -0.00051311
   0.99417798  0.32849175  0.00082444
   0.34656932  0.68481759 -0.00016949
   0.64725334 -0.01418519 -0.00014292
   0.33696803 -0.01561632 -0.00027132
   0.03089873  0.68162451 -0.00094010
   0.34059066  0.34396000  0.00094518
   0.64501834  0.67427635 -0.00022123
   0.10663022  0.22002470  0.95066752
   0.22040773  0.10947048  0.04907623
   0.11236305  0.55162796  0.94863211
   0.21802480  0.44431248  0.04975977
   0.11138259  0.89378128  0.94776141
   0.22506173  0.77805867  0.05582565
   0.44708438  0.22234451  0.94922288
   0.55721557  0.11464667  0.05326724
   0.44107050  0.55606666  0.94579918
   0.56115307  0.44462612  0.05055797
   0.44443433  0.88928572  0.94329055
   0.55426662  0.77871516  0.05653678
   0.77817524  0.22367358  0.95033120
   0.89041477  0.11159526  0.04854643
   0.77758594  0.55507886  0.95530080
   0.88680951  0.44186454  0.04812534
   0.78054259  0.89151798  0.94872002
   0.88936638  0.77945182  0.04834873
unknown system                          
           1
     8.314433    4.828026    0.000000
    -8.303347    4.808878    0.000000
     0.000000    0.000000   30.000000
   V    Mo   W    S 
   3   3   3  18
Direct configuration=    10
   0.00103150 -0.00105878  0.00078257
   0.65258026  0.30675850 -0.00055804
   0.99274734  0.32738825  0.00085144
   0.34690273  0.68447524 -0.00015959
   0.64716856 -0.01378269 -0.00011997
   0.33717949 -0.01635617 -0.00026011
   0.03250006  0.68239015 -0.00103771
   0.34149266  0.34680148  0.00097621
   0.64430993  0.67487266 -0.00019819
   0.10671448  0.22012990  0.95081989
   0.22099564  0.11007943  0.04877148
   0.11277531  0.55155299  0.94858445
   0.21762766  0.44432680  0.04976206
   0.11192850  0.89418864  0.94764129
   0.22577342  0.77831431  0.05601710
   0.44658339  0.22201945  0.94932774
   0.55684381  0.11418936  0.05352836
   0.44088474  0.55618463  0.94547947
   0.56151784  0.44497081  0.05041619
   0.44445480  0.88918807  0.94318441
   0.55411256  0.77917070  0.05673830
   0.77782820  0.22326668  0.95015301
   0.89034178  0.11129841  0.04854396
   0.77780784  0.55523804  0.95617422
   0.88665109  0.44208919  0.04785376
   0.78022839  0.89149195  0.94869062
   0.88923249  0.77902648  0.04803698
unknown system                          
           1
     8.318315    4.829925    0.000000
    -8.308559    4.813071    0.000000
     0.000000    0.000000   30.000000
   V    Mo   W    S 
   3   3   3  18
Direct configuration=    11
   0.00066285 -0.00202069  0.00086093
   0.65110215  0.30326340 -0.00061024
   0.99064274  0.32571182  0.00086054
   0.34745987  0.68411290 -0.00016161
   0.64693423 -0.01324945 -0.00010042
   0.33752362 -0.01767281 -0.00023820
   0.03513542  0.68362190 -0.00117716
   0.34285998  0.35112643  0.00102833
   0.64309442  0.67582273 -0.00018635
   0.10688065  0.22030089  0.95109240
   0.22191972  0.11105114  0.04823352
   0.11328762  0.55152707  0.94861364
   0.21708855  0.44435610  0.04972734
   0.11268587  0.89462528  0.94756821
   0.22658396  0.77857063  0.05616680
   0.44584893  0.22158857  0.94958195
   0.55632343  0.11356910  0.05378993
   0.44085160  0.55648239  0.94512123
   0.56188800  0.44542656  0.05017330
   0.44450664  0.88900556  0.94314117
   0.55396403  0.77974887  0.05692514
   0.77729029  0.22266599  0.94996334
   0.89022973  0.11087058  0.04849965
   0.77809645  0.55542821  0.95736465
   0.88643544  0.44234358  0.04745188
   0.77979676  0.89144738  0.94870009
   0.88912151  0.77849032  0.04760984
unknown system                          
           1
     8.321672    4.832309    0.000000
    -8.312880    4.817114    0.000000
     0.000000    0.000000   30.000000
   V    Mo   W    S 
   3   3   3  18
Direct configuration=    12
   0.00004857 -0.00269682  0.00086725
   0.65125059  0.30336296 -0.00061625
   0.99002783  0.32511797  0.00079451
   0.34746923  0.68382394 -0.00014300
   0.64712767 -0.01291670 -0.00007782
   0.33773178 -0.01799577 -0.00020659
   0.03488013  0.68344380 -0.00118461
   0.34319663  0.35260043  0.00101765
   0.64355190  0.67606393 -0.00018037
   0.10692301  0.22035824  0.95116508
   0.22222569  0.11148827  0.04800646
   0.11325715  0.55138044  0.94864513
   0.21674936  0.44436064  0.04980341
   0.11287316  0.89469281  0.94758956
   0.22661281  0.77850162  0.05614640
   0.44561241  0.22151787  0.94972232
   0.55615813  0.11338939  0.05382908
   0.44112589  0.55673296  0.94501922
   0.56189632  0.44547741  0.05014050
   0.44459200  0.88888261  0.94315293
   0.55401181  0.77989266  0.05691180
   0.77716513  0.22254036  0.94988786
   0.89027533  0.11075350  0.04853636
   0.77801717  0.55516468  0.95746887
   0.88629089  0.44221233  0.04740715
   0.77989669  0.89156542  0.94865830
   0.88924718  0.77849949  0.04763869
unknown system                          
           1
     8.321852    4.832484    0.000000
    -8.314118    4.819109    0.000000
     0.000000    0.000000   30.000000
   V    Mo   W    S 
   3   3   3  18
Direct configuration=    13
  -0.00090294 -0.00371547  0.00089242
   0.65096441  0.30242248 -0.00062903
   0.98892119  0.32409786  0.00073303
   0.34761215  0.68349140 -0.00012723
   0.64732360 -0.01246433 -0.00005899
   0.33800831 -0.01871531 -0.00017882
   0.03548156  0.68363958 -0.00123538
   0.34389099  0.35512267  0.00103765
   0.64357361  0.67657443 -0.00017305
   0.10702676  0.22047471  0.95130822
   0.22276969  0.11216167  0.04762124
   0.11334975  0.55123578  0.94869175
   0.21630996  0.44440449  0.04985784
   0.11324468  0.89482945  0.94760332
   0.22681176  0.77846739  0.05618110
   0.44518262  0.22135341  0.94992860
   0.55589112  0.11310366  0.05392761
   0.44142695  0.55711335  0.94482594
   0.56201128  0.44570132  0.05005611
   0.44469479  0.88872058  0.94314834
   0.55403031  0.78015539  0.05695151
   0.77691156  0.22228605  0.94977290
   0.89028748  0.11056286  0.04856288
   0.77804556  0.55504128  0.95784795
   0.88611270  0.44213519  0.04726996
   0.77990998  0.89168024  0.94860322
   0.88932462  0.77833432  0.04758083
unknown system                          
           1
     8.321145    4.832529    0.000000
    -8.312492    4.817572    0.000000
     0.000000    0.000000   30.000000
   V    Mo   W    S 
   3   3   3  18
Direct configuration=    14
  -0.00196236 -0.00466574  0.00090486
   0.65083774  0.30195354 -0.00063168
   0.98820269  0.32335755  0.00067207
   0.34768168  0.68326608 -0.00011344
   0.64758298 -0.01211839 -0.00004805
   0.33825371 -0.01918606 -0.00015461
   0.03570684  0.68369378 -0.00126260
   0.34438516  0.35683379  0.00105908
   0.64376003  0.67695418 -0.00017639
   0.10713071  0.22055013  0.95141464
   0.22311894  0.11265348  0.04730581
   0.11336261  0.55112691  0.94873873
   0.21601440  0.44446432  0.04990480
   0.11346299  0.89486703  0.94764473
   0.22685134  0.77838419  0.05618677
   0.44490763  0.22129119  0.95009573
   0.55573970  0.11296509  0.05396558
   0.44174921  0.55746402  0.94471226
   0.56206670  0.44586353  0.05000690
   0.44479805  0.88860205  0.94315854
   0.55407417  0.78030874  0.05695222
   0.77672524  0.22214555  0.94970050
   0.89031079  0.11043452  0.04859822
   0.77803415  0.55491687  0.95802114
   0.88597875  0.44202790  0.04719856
   0.78001480  0.89179518  0.94854872
   0.88942582  0.77826503  0.04759681
unknown system                          
           1
     8.325126    4.836317    0.000000
    -8.314682    4.818269    0.000000
     0.000000    0.000000   30.000000
   V    Mo   W    S 
   3   3   3  18
Direct configuration=    15
  -0.00108658 -0.00410245  0.00091080
   0.65077603  0.30191375 -0.00063449
   0.98835883  0.32361959  0.00070814
   0.34772000  0.68326311 -0.00012346
   0.64734611 -0.01221515 -0.00004919
   0.33815506 -0.01898074 -0.00016623
   0.03573935  0.68375188 -0.00126146
   0.34424751  0.35634749  0.00104521
   0.64354909  0.67680155 -0.00017524
   0.10706105  0.22051041  0.95137087
   0.22303383  0.11247986  0.04746428
   0.11339110  0.55119403  0.94871487
   0.21612366  0.44440189  0.04987715
   0.11338311  0.89487036  0.94761253
   0.22689492  0.77845189  0.05618167
   0.44503507  0.22128535  0.95004017
   0.55578917  0.11302795  0.05394528
   0.44155628  0.55726699  0.94475167
   0.56202078  0.44574009  0.05000286
   0.44471516  0.88863506  0.94315969
   0.55403887  0.78026053  0.05695666
   0.77675451  0.22217007  0.94973952
   0.89029029  0.11045324  0.04855369
   0.77803031  0.55494330  0.95803031
   0.88601726  0.44210829  0.04720371
   0.77988108  0.89169751  0.94861401
   0.88939259  0.77831857  0.04752688
unknown system                          
           1
     8.322159    4.832919    0.000000
    -8.314348    4.819411    0.000000
     0.000000    0.000000   30.000000
   V    Mo   W    S 
   3   3   3  18
Direct configuration=    16
   0.00069549 -0.00309224  0.00091321
   0.65066714  0.30186754 -0.00063380
   0.98859878  0.32408593  0.00077367
   0.34772625  0.68322435 -0.00013656
   0.64690886 -0.01228602 -0.00005288
   0.33795051 -0.01851788 -0.00018273
   0.03570836  0.68382743 -0.00125047
   0.34392266  0.35530094  0.00101461
   0.64333063  0.67658258 -0.00017091
   0.10694077  0.22042249  0.95129092
   0.22288419  0.11222948  0.04775317
   0.11341269  0.55127658  0.94866105
   0.21628663  0.44429710  0.04985145
   0.11320978  0.89489426  0.94754233
   0.22694054  0.77853118  0.05617497
   0.44528646  0.22131172  0.94994229
   0.55589449  0.11318801  0.05392241
   0.44125125  0.55695706  0.94479156
   0.56195866  0.44549371  0.05000869
   0.44457191  0.88866074  0.94314752
   0.55400297  0.78018444  0.05697149
   0.77675934  0.22220178  0.94979530
   0.89025738  0.11044252  0.04847159
   0.77797351  0.55490232  0.95801848
   0.88602779  0.44221493  0.04722431
   0.77969469  0.89156665  0.94873508
   0.88935270  0.77844684  0.04742317
unknown system                          
           1
     8.323716    4.833786    0.000000
    -8.316410    4.821145    0.000000
     0.000000    0.000000   30.000000
   V    Mo   W    S 
   3   3   3  18
Direct configuration=    17
  -0.00069410 -0.00457103  0.00091363
   0.65054797  0.30131102 -0.00063366
   0.98744480  0.32284762  0.00067842
   0.34794878  0.68301658 -0.00011073
   0.64716972 -0.01192189 -0.00003886
   0.33813788 -0.01947874 -0.00014755
   0.03612107  0.68390527 -0.00129107
   0.34465082  0.35804491  0.00104359
   0.64348222  0.67709064 -0.00017779
   0.10718410  0.22061869  0.95148189
   0.22354232  0.11317869  0.04723429
   0.11338891  0.55105659  0.94875341
   0.21576218  0.44440380  0.04992159
   0.11361601  0.89493826  0.94759385
   0.22699787  0.77837189  0.05617515
   0.44469461  0.22121355  0.95020094
   0.55555497  0.11282087  0.05404506
   0.44186228  0.55760601  0.94460274
   0.56203225  0.44585426  0.04992987
   0.44473036  0.88843267  0.94317505
   0.55408957  0.78047676  0.05696408
   0.77648210  0.22190168  0.94964093
   0.89024299  0.11017619  0.04851175
   0.77798783  0.55476790  0.95830249
   0.88584901  0.44204863  0.04710255
   0.77989210  0.89184198  0.94866900
   0.88949585  0.77826166  0.04745928
unknown system                          
           1
     8.321920    4.831750    0.000000
    -8.313665    4.817478    0.000000
     0.000000    0.000000   30.000000
   V    Mo   W    S 
   3   3   3  18
Direct configuration=    18
  -0.00107566 -0.00493863  0.00091524
   0.65052298  0.30118915 -0.00063175
   0.98720821  0.32257071  0.00065626
   0.34795461  0.68296800 -0.00010494
   0.64727775 -0.01180980 -0.00003372
   0.33818225 -0.01963147 -0.00013772
   0.03616398  0.68390360 -0.00129640
   0.34479149  0.35855566  0.00104887
   0.64359081  0.67722733 -0.00017801
   0.10723094  0.22065153  0.95151577
   0.22366098  0.11335909  0.04712513
   0.11338826  0.55100479  0.94876635
   0.21565226  0.44444403  0.04994287
   0.11368996  0.89494802  0.94759907
   0.22700772  0.77833062  0.05618763
   0.44458281  0.22119897  0.95025119
   0.55549583  0.11276211  0.05406563
   0.44198302  0.55775478  0.94455504
   0.56206774  0.44593754  0.04992462
   0.44476655  0.88839132  0.94316900
   0.55410692  0.78053560  0.05697324
   0.77642277  0.22185244  0.94960875
   0.89024888  0.11012239  0.04852714
   0.77799081  0.55474013  0.95834523
   0.88580577  0.44200360  0.04708404
   0.77996163  0.89191262  0.94864261
   0.88953517  0.77823034  0.04747874
unknown system                          
           1
     8.329004    4.835225    0.000000
    -8.321341    4.821974    0.000000
     0.000000    0.000000   30.000000
   V    Mo   W    S 
   3   3   3  18
Direct configuration=    19
   0.00009129 -0.00385166  0.00091413
   0.65083859  0.30170744 -0.00063799
   0.98773139  0.32314562  0.00071481
   0.34782965  0.68303242 -0.00011629
   0.64714135 -0.01205857 -0.00004183
   0.33782375 -0.01943441 -0.00015821
   0.03603150  0.68383283 -0.00128803
   0.34421562  0.35732892  0.00102020
   0.64343610  0.67693930 -0.00016412
   0.10704527  0.22061720  0.95143348
   0.22344281  0.11296313  0.04740194
   0.11336756  0.55100879  0.94873489
   0.21574605  0.44433273  0.04991912
   0.11358338  0.89496443  0.94756187
   0.22704592  0.77842420  0.05618545
   0.44470232  0.22116470  0.95010984
   0.55553555  0.11275019  0.05408476
   0.44167917  0.55741862  0.94460002
   0.56197613  0.44576948  0.04996896
   0.44466494  0.88842881  0.94315445
   0.55405092  0.78045072  0.05699399
   0.77668843  0.22193772  0.94964895
   0.89029517  0.11031939  0.04847025
   0.77804108  0.55486405  0.95824255
   0.88596193  0.44206910  0.04712907
   0.77980172  0.89181028  0.94868801
   0.88944685  0.77827903  0.04742963
unknown system                          
           1
     8.325561    4.834444    0.000000
    -8.319761    4.824401    0.000000
     0.000000    0.000000   30.000000
   V    Mo   W    S 
   3   3   3  18
Direct configuration=    20
   0.00041381 -0.00369649  0.00090885
   0.65097521  0.30149459 -0.00062406
   0.98730134  0.32274704  0.00068840
   0.34784738  0.68283221 -0.00011836
   0.64730806 -0.01172465 -0.00001793
   0.33782016 -0.01957317 -0.00015188
   0.03604271  0.68366666 -0.00128457
   0.34411647  0.35795181  0.00098902
   0.64345944  0.67704257 -0.00014164
   0.10694263  0.22069947  0.95143274
   0.22373998  0.11324635  0.04735166
   0.11330632  0.55072795  0.94872348
   0.21535420  0.44430273  0.04999646
   0.11368513  0.89502465  0.94750932
   0.22708558  0.77830735  0.05625301
   0.44449108  0.22110218  0.95019885
   0.55541876  0.11263568  0.05411064
   0.44181200  0.55760440  0.94448507
   0.56191417  0.44582604  0.04996771
   0.44466690  0.88830793  0.94313190
   0.55407099  0.78053784  0.05703811
   0.77675382  0.22188302  0.94958803
   0.89038178  0.11033172  0.04846936
   0.77801997  0.55483019  0.95828718
   0.88591821  0.44192501  0.04712549
   0.77987134  0.89192136  0.94866429
   0.88949700  0.77826002  0.04741879
unknown system                          
           1
     8.326402    4.834769    0.000000
    -8.321506    4.826283    0.000000
     0.000000    0.000000   30.000000
   V    Mo   W    S 
   3   3   3  18
Direct configuration=    21
  -0.00142404 -0.00550958  0.00091014
   0.65053638  0.30066422 -0.00061740
   0.98632711  0.32167557  0.00058701
   0.34804114  0.68274639 -0.00008960
   0.64751582 -0.01134391 -0.00001537
   0.33827088 -0.02015948 -0.00011505
   0.03636295  0.68382334 -0.00131356
   0.34502315  0.36021574  0.00104879
   0.64371416  0.67756982 -0.00017040
   0.10726481  0.22081173  0.95158151
   0.22419960  0.11401166  0.04684831
   0.11331657  0.55070436  0.94880921
   0.21513798  0.44449633  0.05002691
   0.11390045  0.89491852  0.94759831
   0.22701798  0.77812365  0.05622944
   0.44421076  0.22115319  0.95047499
   0.55529450  0.11258505  0.05409679
   0.44239767  0.55824895  0.94439919
   0.56200302  0.44614654  0.04987025
   0.44485455  0.88821162  0.94317958
   0.55417124  0.78071809  0.05699154
   0.77629602  0.22169719  0.94950371
   0.89031291  0.10997830  0.04855818
   0.77797298  0.55465116  0.95848924
   0.88565594  0.44178825  0.04703360
   0.78014768  0.89211453  0.94860763
   0.88969225  0.77817325  0.04747696
unknown system                          
           1
     8.325615    4.835155    0.000000
    -8.319277    4.824183    0.000000
     0.000000    0.000000   30.000000
   V    Mo   W    S 
   3   3   3  18
Direct configuration=    22
  -0.00218953 -0.00621221  0.00090989
   0.65048693  0.30039074 -0.00061746
   0.98584172  0.32112402  0.00054865
   0.34805810  0.68266959 -0.00007370
   0.64775802 -0.01108724 -0.00001465
   0.33837567 -0.02044612 -0.00009567
   0.03644523  0.68379552 -0.00132834
   0.34528154  0.36116374  0.00107169
   0.64391372  0.67783037 -0.00018264
   0.10736274  0.22088556  0.95164934
   0.22442269  0.11436794  0.04662393
   0.11330295  0.55061588  0.94885039
   0.21493893  0.44457607  0.05004641
   0.11401843  0.89487492  0.94763063
   0.22700360  0.77803034  0.05623633
   0.44403466  0.22115748  0.95059483
   0.55520077  0.11250821  0.05412165
   0.44266782  0.55857054  0.94433310
   0.56204415  0.44631142  0.04983909
   0.44494201  0.88814562  0.94318338
   0.55421039  0.78082464  0.05699065
   0.77615196  0.22162355  0.94945176
   0.89033833  0.10987905  0.04859009
   0.77796345  0.55457724  0.95857248
   0.88554763  0.44166785  0.04698952
   0.78030220  0.89223606  0.94856975
   0.88979033  0.77813366  0.04750881
unknown system                          
           1
     8.322860    4.834278    0.000000
    -8.314003    4.818965    0.000000
     0.000000    0.000000   30.000000
   V    Mo   W    S 
   3   3   3  18
Direct configuration=    23
  -0.00070083 -0.00507296  0.00092098
   0.65055348  0.30068082 -0.00062645
   0.98646077  0.32196766  0.00061212
   0.34792148  0.68263727 -0.00009191
   0.64735057 -0.01131380 -0.00002259
   0.33817848 -0.02002252 -0.00011871
   0.03635371  0.68383104 -0.00132043
   0.34487206  0.35983017  0.00104223
   0.64364045  0.67744117 -0.00017506
   0.10721018  0.22080911  0.95153845
   0.22418921  0.11391193  0.04697090
   0.11331904  0.55077176  0.94880174
   0.21521948  0.44445728  0.05002120
   0.11384973  0.89489431  0.94757965
   0.22703601  0.77814435  0.05621412
   0.44432438  0.22115440  0.95044387
   0.55533178  0.11265608  0.05408522
   0.44228346  0.55811946  0.94439895
   0.56195611  0.44603108  0.04987422
   0.44478892  0.88818587  0.94316955
   0.55413690  0.78067293  0.05700622
   0.77629341  0.22171268  0.94953451
   0.89028661  0.10999942  0.04853123
   0.77798901  0.55465224  0.95848666
   0.88566953  0.44184971  0.04703917
   0.78002311  0.89201824  0.94865005
   0.88967741  0.77819476  0.04743401
unknown system                          
           1
     8.332069    4.838790    0.000000
    -8.326564    4.829251    0.000000
     0.000000    0.000000   30.000000
   V    Mo   W    S 
   3   3   3  18
Direct configuration=    24
   0.00181175 -0.00377795  0.00094188
   0.65049316  0.30084043 -0.00062010
   0.98691697  0.32281435  0.00071270
   0.34805435  0.68246256 -0.00011653
   0.64647566 -0.01163780 -0.00001446
   0.33793749 -0.01974813 -0.00015509
   0.03631771  0.68394248 -0.00127741
   0.34462832  0.35907188  0.00095696
   0.64300902  0.67696575 -0.00016968
   0.10712636  0.22081047  0.95141923
   0.22426657  0.11377862  0.04737139
   0.11329437  0.55085481  0.94870039
   0.21543233  0.44424523  0.05003366
   0.11373775  0.89493061  0.94745996
   0.22708299  0.77824335  0.05619204
   0.44451911  0.22110221  0.95031852
   0.55541710  0.11282954  0.05408703
   0.44194305  0.55765148  0.94444231
   0.56184306  0.44570773  0.04989361
   0.44452377  0.88809423  0.94316807