<?xml version="1.0" encoding="ISO-8859-1"?>
<modeling>
 <generator>
  <i name="program" type="string">vasp </i>
  <i name="version" type="string">5.4.1  </i>
  <i name="subversion" type="string">05Feb16 (build Jul 05 2020 17:13:04) complex                          parallel </i>
  <i name="platform" type="string">IFC91_ompi </i>
  <i name="date" type="string">2024 04 27 </i>
  <i name="time" type="string">04:51:06 </i>
 </generator>
 <incar>
  <i type="int" name="ISTART">     0</i>
  <i type="string" name="PREC">normal</i>
  <i type="string" name="ALGO"> Normal</i>
  <i type="int" name="ISPIN">     1</i>
  <i type="int" name="ICHARG">     2</i>
  <i type="int" name="IBRION">     1</i>
  <i type="int" name="NSW">   100</i>
  <i type="int" name="ISIF">     3</i>
  <i type="int" name="ISYM">     0</i>
  <i name="SYMPREC">      0.00000001</i>
  <i name="POTIM">      0.50000000</i>
  <i type="logical" name="LREAL"> F  </i>
  <i type="logical" name="LPLANE"> F  </i>
  <i type="int" name="ISMEAR">     0</i>
  <i type="logical" name="LWAVE"> F  </i>
  <i type="logical" name="LCHARG"> F  </i>
  <v type="int" name="KPOINT_BSE">    -1     0     0     0</v>
 </incar>
 <kpoints>
  <generation param="Gamma">
   <v type="int" name="divisions">       8        8        1 </v>
   <v name="usershift">      0.00000000       0.00000000       0.00000000 </v>
   <v name="genvec1">      0.12500000       0.00000000       0.00000000 </v>
   <v name="genvec2">     -0.00000000       0.12500000       0.00000000 </v>
   <v name="genvec3">      0.00000000       0.00000000       1.00000000 </v>
   <v name="shift">      0.00000000       0.00000000       0.00000000 </v>
  </generation>
  <varray name="kpointlist" >
   <v>       0.00000000       0.00000000       0.00000000 </v>
   <v>       0.12500000       0.00000000       0.00000000 </v>
   <v>       0.25000000       0.00000000       0.00000000 </v>
   <v>       0.37500000       0.00000000       0.00000000 </v>
   <v>       0.50000000       0.00000000       0.00000000 </v>
   <v>       0.00000000       0.12500000       0.00000000 </v>
   <v>       0.12500000       0.12500000       0.00000000 </v>
   <v>       0.25000000       0.12500000       0.00000000 </v>
   <v>       0.37500000       0.12500000       0.00000000 </v>
   <v>       0.50000000       0.12500000       0.00000000 </v>
   <v>      -0.37500000       0.12500000       0.00000000 </v>
   <v>      -0.25000000       0.12500000       0.00000000 </v>
   <v>      -0.12500000       0.12500000       0.00000000 </v>
   <v>       0.00000000       0.25000000       0.00000000 </v>
   <v>       0.12500000       0.25000000       0.00000000 </v>
   <v>       0.25000000       0.25000000       0.00000000 </v>
   <v>       0.37500000       0.25000000       0.00000000 </v>
   <v>       0.50000000       0.25000000       0.00000000 </v>
   <v>      -0.37500000       0.25000000       0.00000000 </v>
   <v>      -0.25000000       0.25000000       0.00000000 </v>
   <v>      -0.12500000       0.25000000       0.00000000 </v>
   <v>      -0.00000000       0.37500000       0.00000000 </v>
   <v>       0.12500000       0.37500000       0.00000000 </v>
   <v>       0.25000000       0.37500000       0.00000000 </v>
   <v>       0.37500000       0.37500000       0.00000000 </v>
   <v>       0.50000000       0.37500000       0.00000000 </v>
   <v>      -0.37500000       0.37500000       0.00000000 </v>
   <v>      -0.25000000       0.37500000       0.00000000 </v>
   <v>      -0.12500000       0.37500000       0.00000000 </v>
   <v>       0.00000000       0.50000000       0.00000000 </v>
   <v>       0.12500000       0.50000000       0.00000000 </v>
   <v>       0.25000000       0.50000000       0.00000000 </v>
   <v>       0.37500000       0.50000000       0.00000000 </v>
   <v>       0.50000000       0.50000000       0.00000000 </v>
  </varray>
  <varray name="weights" >
   <v>       0.01562500 </v>
   <v>       0.03125000 </v>
   <v>       0.03125000 </v>
   <v>       0.03125000 </v>
   <v>       0.01562500 </v>
   <v>       0.03125000 </v>
   <v>       0.03125000 </v>
   <v>       0.03125000 </v>
   <v>       0.03125000 </v>
   <v>       0.03125000 </v>
   <v>       0.03125000 </v>
   <v>       0.03125000 </v>
   <v>       0.03125000 </v>
   <v>       0.03125000 </v>
   <v>       0.03125000 </v>
   <v>       0.03125000 </v>
   <v>       0.03125000 </v>
   <v>       0.03125000 </v>
   <v>       0.03125000 </v>
   <v>       0.03125000 </v>
   <v>       0.03125000 </v>
   <v>       0.03125000 </v>
   <v>       0.03125000 </v>
   <v>       0.03125000 </v>
   <v>       0.03125000 </v>
   <v>       0.03125000 </v>
   <v>       0.03125000 </v>
   <v>       0.03125000 </v>
   <v>       0.03125000 </v>
   <v>       0.01562500 </v>
   <v>       0.03125000 </v>
   <v>       0.03125000 </v>
   <v>       0.03125000 </v>
   <v>       0.01562500 </v>
  </varray>
 </kpoints>
 <parameters>
  <separator name="general" >
   <i type="string" name="SYSTEM">unknown system</i>
   <i type="logical" name="LCOMPAT"> F  </i>
  </separator>
  <separator name="electronic" >
   <i type="string" name="PREC">normal</i>
   <i name="ENMAX">    280.00000000</i>
   <i name="ENAUG">    373.43800000</i>
   <i name="EDIFF">      0.00010000</i>
   <i type="int" name="IALGO">    38</i>
   <i type="int" name="IWAVPR">    11</i>
   <i type="int" name="NBANDS">   120</i>
   <i name="NELECT">    159.00000000</i>
   <i type="int" name="TURBO">     0</i>
   <i type="int" name="IRESTART">     0</i>
   <i type="int" name="NREBOOT">     0</i>
   <i type="int" name="NMIN">     0</i>
   <i name="EREF">      0.00000000</i>
   <separator name="electronic smearing" >
    <i type="int" name="ISMEAR">     0</i>
    <i name="SIGMA">      0.20000000</i>
    <i name="KSPACING">      0.50000000</i>
    <i type="logical" name="KGAMMA"> T  </i>
   </separator>
   <separator name="electronic projectors" >
    <i type="logical" name="LREAL"> F  </i>
    <v name="ROPT">      0.00000000      0.00000000      0.00000000      0.00000000</v>
    <i type="int" name="LMAXPAW">  -100</i>
    <i type="int" name="LMAXMIX">     2</i>
    <i type="logical" name="NLSPLINE"> F  </i>
   </separator>
   <separator name="electronic startup" >
    <i type="int" name="ISTART">     0</i>
    <i type="int" name="ICHARG">     2</i>
    <i type="int" name="INIWAV">     1</i>
   </separator>
   <separator name="electronic spin" >
    <i type="int" name="ISPIN">     1</i>
    <i type="logical" name="LNONCOLLINEAR"> F  </i>
    <v name="MAGMOM">      1.00000000      1.00000000      1.00000000      1.00000000      1.00000000      1.00000000      1.00000000      1.00000000      1.00000000      1.00000000      1.00000000      1.00000000      1.00000000      1.00000000      1.00000000      1.00000000      1.00000000      1.00000000      1.00000000      1.00000000
      1.00000000      1.00000000      1.00000000      1.00000000      1.00000000      1.00000000      1.00000000</v>
    <i name="NUPDOWN">     -1.00000000</i>
    <i type="logical" name="LSORBIT"> F  </i>
    <v name="SAXIS">      0.00000000      0.00000000      1.00000000</v>
    <i type="logical" name="LSPIRAL"> F  </i>
    <v name="QSPIRAL">      0.00000000      0.00000000      0.00000000</v>
    <i type="logical" name="LZEROZ"> F  </i>
   </separator>
   <separator name="electronic exchange-correlation" >
    <i type="logical" name="LASPH"> F  </i>
    <i type="logical" name="LMETAGGA"> F  </i>
   </separator>
   <separator name="electronic convergence" >
    <i type="int" name="NELM">    60</i>
    <i type="int" name="NELMDL">    -5</i>
    <i type="int" name="NELMIN">     2</i>
    <i name="ENINI">    280.00000000</i>
    <separator name="electronic convergence detail" >
     <i type="logical" name="LDIAG"> T  </i>
     <i type="logical" name="LSUBROT"> F  </i>
     <i name="WEIMIN">      0.00100000</i>
     <i name="EBREAK">      0.00000021</i>
     <i name="DEPER">      0.30000000</i>
     <i type="int" name="NRMM">     4</i>
     <i name="TIME">      0.40000000</i>
    </separator>
   </separator>
   <separator name="electronic mixer" >
    <i name="AMIX">      0.40000000</i>
    <i name="BMIX">      1.00000000</i>
    <i name="AMIN">      0.10000000</i>
    <i name="AMIX_MAG">      1.60000000</i>
    <i name="BMIX_MAG">      1.00000000</i>
    <separator name="electronic mixer details" >
     <i type="int" name="IMIX">     4</i>
     <i type="logical" name="MIXFIRST"> F  </i>
     <i type="int" name="MAXMIX">   -45</i>
     <i name="WC">    100.00000000</i>
     <i type="int" name="INIMIX">     1</i>
     <i type="int" name="MIXPRE">     1</i>
     <i type="int" name="MREMOVE">     5</i>
    </separator>
   </separator>
   <separator name="electronic dipolcorrection" >
    <i type="logical" name="LDIPOL"> F  </i>
    <i type="logical" name="LMONO"> F  </i>
    <i type="int" name="IDIPOL">     0</i>
    <i name="EPSILON">      1.00000000</i>
    <v name="DIPOL">   -100.00000000   -100.00000000   -100.00000000</v>
    <i name="EFIELD">      0.00000000</i>
   </separator>
  </separator>
  <separator name="grids" >
   <i type="int" name="NGX">    42</i>
   <i type="int" name="NGY">    42</i>
   <i type="int" name="NGZ">   126</i>
   <i type="int" name="NGXF">    84</i>
   <i type="int" name="NGYF">    84</i>
   <i type="int" name="NGZF">   252</i>
   <i type="logical" name="ADDGRID"> F  </i>
  </separator>
  <separator name="ionic" >
   <i type="int" name="NSW">   100</i>
   <i type="int" name="IBRION">     1</i>
   <i type="int" name="ISIF">     3</i>
   <i name="PSTRESS">      0.00000000</i>
   <i name="EDIFFG">      0.00100000</i>
   <i type="int" name="NFREE">     0</i>
   <i name="POTIM">      0.50000000</i>
   <i name="SMASS">     -3.00000000</i>
   <i name="SCALEE">      1.00000000</i>
  </separator>
  <separator name="ionic md" >
   <i name="TEBEG">      0.00010000</i>
   <i name="TEEND">      0.00010000</i>
   <i type="int" name="NBLOCK">     1</i>
   <i type="int" name="KBLOCK">   100</i>
   <i type="int" name="NPACO">   256</i>
   <i name="APACO">     16.00000000</i>
  </separator>
  <separator name="symmetry" >
   <i type="int" name="ISYM">     0</i>
   <i name="SYMPREC">      0.00000001</i>
  </separator>
  <separator name="dos" >
   <i type="logical" name="LORBIT"> F  </i>
   <v name="RWIGS">     -1.00000000     -1.00000000     -1.00000000     -1.00000000</v>
   <i type="int" name="NEDOS">   301</i>
   <i name="EMIN">     10.00000000</i>
   <i name="EMAX">    -10.00000000</i>
   <i name="EFERMI">      0.00000000</i>
  </separator>
  <separator name="writing" >
   <i type="int" name="NWRITE">     2</i>
   <i type="logical" name="LWAVE"> F  </i>
   <i type="logical" name="LCHARG"> F  </i>
   <i type="logical" name="LPARD"> F  </i>
   <i type="logical" name="LVTOT"> F  </i>
   <i type="logical" name="LVHAR"> F  </i>
   <i type="logical" name="LELF"> F  </i>
   <i type="logical" name="LOPTICS"> F  </i>
   <v name="STM">      0.00000000      0.00000000      0.00000000      0.00000000      0.00000000      0.00000000      0.00000000</v>
  </separator>
  <separator name="performance" >
   <i type="int" name="NPAR">    40</i>
   <i type="int" name="NSIM">     4</i>
   <i type="int" name="NBLK">    -1</i>
   <i type="logical" name="LPLANE"> F  </i>
   <i type="logical" name="LSCALAPACK"> T  </i>
   <i type="logical" name="LSCAAWARE"> F  </i>
   <i type="logical" name="LSCALU"> F  </i>
   <i type="logical" name="LASYNC"> F  </i>
   <i type="logical" name="LORBITALREAL"> F  </i>
  </separator>
  <separator name="miscellaneous" >
   <i type="int" name="IDIOT">     3</i>
   <i type="logical" name="LMUSIC"> F  </i>
   <v name="POMASS">     50.94100000     95.94000000    183.85000000     32.06600000</v>
   <v name="DARWINR">      0.00000000      0.00000000      0.00000000      0.00000000</v>
   <v name="DARWINV">      1.00000000      1.00000000      1.00000000      1.00000000</v>
   <i type="logical" name="LCORR"> T  </i>
  </separator>
  <i type="logical" name="GGA_COMPAT"> T  </i>
  <i type="logical" name="LBERRY"> F  </i>
  <i type="int" name="ICORELEVEL">     0</i>
  <i type="logical" name="LDAU"> F  </i>
  <i type="int" name="I_CONSTRAINED_M">     0</i>
  <separator name="electronic exchange-correlation" >
   <i type="string" name="GGA">--</i>
   <i type="int" name="VOSKOWN">     0</i>
   <i type="logical" name="LHFCALC"> F  </i>
   <i type="string" name="PRECFOCK"></i>
   <i type="logical" name="LSYMGRAD"> F  </i>
   <i type="logical" name="LHFONE"> F  </i>
   <i type="logical" name="LRHFCALC"> F  </i>
   <i type="logical" name="LTHOMAS"> F  </i>
   <i type="logical" name="LMODELHF"> F  </i>
   <i name="ENCUT4O">     -1.00000000</i>
   <i type="int" name="EXXOEP">     0</i>
   <i type="int" name="FOURORBIT">     0</i>
   <i name="AEXX">      0.00000000</i>
   <i name="HFALPHA">      0.00000000</i>
   <i name="MCALPHA">      0.00000000</i>
   <i name="ALDAX">      1.00000000</i>
   <i name="AGGAX">      1.00000000</i>
   <i name="ALDAC">      1.00000000</i>
   <i name="AGGAC">      1.00000000</i>
   <i type="int" name="NKREDX">     1</i>
   <i type="int" name="NKREDY">     1</i>
   <i type="int" name="NKREDZ">     1</i>
   <i type="logical" name="SHIFTRED"> F  </i>
   <i type="logical" name="ODDONLY"> F  </i>
   <i type="logical" name="EVENONLY"> F  </i>
   <i type="int" name="LMAXFOCK">     0</i>
   <i type="int" name="NMAXFOCKAE">     0</i>
   <i type="logical" name="LFOCKAEDFT"> F  </i>
   <i name="HFSCREEN">      0.00000000</i>
   <i name="HFSCREENC">      0.00000000</i>
   <i type="int" name="NBANDSGWLOW">     0</i>
  </separator>
  <separator name="vdW DFT" >
   <i type="logical" name="LUSE_VDW"> F  </i>
   <i name="Zab_VDW">     -0.84910000</i>
   <i name="PARAM1">      0.12340000</i>
   <i name="PARAM2">      1.00000000</i>
   <i name="PARAM3">      0.00000000</i>
  </separator>
  <separator name="model GW" >
   <i type="int" name="MODEL_GW">     0</i>
   <i name="MODEL_EPS0">     58.26239943</i>
   <i name="MODEL_ALPHA">      1.00000000</i>
  </separator>
  <separator name="linear response parameters" >
   <i type="logical" name="LEPSILON"> F  </i>
   <i type="logical" name="LRPA"> F  </i>
   <i type="logical" name="LNABLA"> F  </i>
   <i type="logical" name="LVEL"> F  </i>
   <i type="int" name="KINTER">     0</i>
   <i name="CSHIFT">      0.10000000</i>
   <i name="OMEGAMAX">     -1.00000000</i>
   <i name="DEG_THRESHOLD">      0.00200000</i>
  </separator>
  <separator name="orbital magnetization" >
   <i type="logical" name="NUCIND"> F  </i>
   <v name="MAGPOS">      0.00000000      0.00000000      0.00000000</v>
   <i type="logical" name="LNICSALL"> T  </i>
   <i type="logical" name="ORBITALMAG"> F  </i>
   <i type="logical" name="LMAGBLOCH"> F  </i>
   <i type="logical" name="LCHIMAG"> F  </i>
   <i type="logical" name="LGAUGE"> T  </i>
   <i type="int" name="MAGATOM">     0</i>
   <v name="MAGDIPOL">      0.00000000      0.00000000      0.00000000</v>
   <v name="AVECCONST">      0.00000000      0.00000000      0.00000000</v>
  </separator>
  <separator name="response functions" >
   <i type="logical" name="LADDER"> F  </i>
   <i type="logical" name="LFXC"> F  </i>
   <i type="logical" name="LHARTREE"> T  </i>
   <i type="int" name="IBSE">     0</i>
   <v type="int" name="KPOINT">    -1     0     0     0</v>
   <i type="logical" name="LTCTE"> F  </i>
   <i type="logical" name="LTETE"> F  </i>
   <i type="logical" name="LTRIPLET"> F  </i>
   <i type="logical" name="LFXCEPS"> F  </i>
   <i type="logical" name="LFXHEG"> F  </i>
   <i type="int" name="NATURALO">     0</i>
   <i type="logical" name="L2ORDER"> F  </i>
   <i type="logical" name="LUSEW"> F  </i>
   <i name="ENCUTGW">     -2.00000000</i>
   <i name="ENCUTGWSOFT">     -2.00000000</i>
   <i name="ENCUTLF">     -1.00000000</i>
   <i type="int" name="LMAXMP2">    -1</i>
   <i name="SCISSOR">      0.00000000</i>
   <i type="int" name="NOMEGA">     0</i>
   <i type="int" name="NOMEGAR">     0</i>
   <i type="int" name="NBANDSGW">    -1</i>
   <i type="int" name="NBANDSO">    -1</i>
   <i type="int" name="NBANDSV">    -1</i>
   <i type="int" name="NELM">     1</i>
   <i type="int" name="NELMHF">     1</i>
   <i type="int" name="DIM">     3</i>
   <i type="int" name="ANTIRES">     0</i>
   <i name="OMEGAMAX">    -30.00000000</i>
   <i name="OMEGAMIN">    -30.00000000</i>
   <i name="OMEGATL">   -200.00000000</i>
   <i type="int" name="OMEGAGRID">     0</i>
   <i name="CSHIFT">     -0.10000000</i>
   <i type="logical" name="SELFENERGY"> F  </i>
   <i type="logical" name="LSPECTRAL"> F  </i>
   <i type="logical" name="LSPECTRALGW"> F  </i>
   <i type="logical" name="LSINGLES"> F  </i>
   <i type="logical" name="LFERMIGW"> F  </i>
   <i type="logical" name="ODDONLYGW"> F  </i>
   <i type="logical" name="EVENONLYGW"> F  </i>
   <i type="int" name="NKREDLFX">     1</i>
   <i type="int" name="NKREDLFY">     1</i>
   <i type="int" name="NKREDLFZ">     1</i>
   <i type="int" name="MAXMEM">  1800</i>
   <i type="int" name="TELESCOPE">     0</i>
   <i type="int" name="TAUPAR">     1</i>
   <i type="int" name="OMEGAPAR">    -1</i>
   <i name="LAMBDA">      1.00000000</i>
  </separator>
  <separator name="External order field" >
   <i name="OFIELD_KAPPA">      0.00000000</i>
   <v name="OFIELD_K">      0.00000000      0.00000000      0.00000000</v>
   <i name="OFIELD_Q6_NEAR">      0.00000000</i>
   <i name="OFIELD_Q6_FAR">      0.00000000</i>
   <i name="OFIELD_A">      0.00000000</i>
  </separator>
 </parameters>
 <atominfo>
  <atoms>      27 </atoms>
  <types>       4 </types>
  <array name="atoms" >
   <dimension dim="1">ion</dimension>
   <field type="string">element</field>
   <field type="int">atomtype</field>
   <set>
    <rc><c>V </c><c>   1</c></rc>
    <rc><c>V </c><c>   1</c></rc>
    <rc><c>V </c><c>   1</c></rc>
    <rc><c>Mo</c><c>   2</c></rc>
    <rc><c>Mo</c><c>   2</c></rc>
    <rc><c>Mo</c><c>   2</c></rc>
    <rc><c>W </c><c>   3</c></rc>
    <rc><c>W </c><c>   3</c></rc>
    <rc><c>W </c><c>   3</c></rc>
    <rc><c>S </c><c>   4</c></rc>
    <rc><c>S </c><c>   4</c></rc>
    <rc><c>S </c><c>   4</c></rc>
    <rc><c>S </c><c>   4</c></rc>
    <rc><c>S </c><c>   4</c></rc>
    <rc><c>S </c><c>   4</c></rc>
    <rc><c>S </c><c>   4</c></rc>
    <rc><c>S </c><c>   4</c></rc>
    <rc><c>S </c><c>   4</c></rc>
    <rc><c>S </c><c>   4</c></rc>
    <rc><c>S </c><c>   4</c></rc>
    <rc><c>S </c><c>   4</c></rc>
    <rc><c>S </c><c>   4</c></rc>
    <rc><c>S </c><c>   4</c></rc>
    <rc><c>S </c><c>   4</c></rc>
    <rc><c>S </c><c>   4</c></rc>
    <rc><c>S </c><c>   4</c></rc>
    <rc><c>S </c><c>   4</c></rc>
   </set>
  </array>
  <array name="atomtypes" >
   <dimension dim="1">type</dimension>
   <field type="int">atomspertype</field>
   <field type="string">element</field>
   <field>mass</field>
   <field>valence</field>
   <field type="string">pseudopotential</field>
   <set>
    <rc><c>   3</c><c>V </c><c>     50.94100000</c><c>      5.00000000</c><c> PAW_PBE V 08Apr2002                    </c></rc>
    <rc><c>   3</c><c>Mo</c><c>     95.94000000</c><c>      6.00000000</c><c> PAW_PBE Mo 08Apr2002                   </c></rc>
    <rc><c>   3</c><c>W </c><c>    183.85000000</c><c>      6.00000000</c><c> PAW_PBE W 08Apr2002                    </c></rc>
    <rc><c>  18</c><c>S </c><c>     32.06600000</c><c>      6.00000000</c><c>  PAW_PBE S 17Jan2003                   </c></rc>
   </set>
  </array>
 </atominfo>
 <structure name="initialpos" >
  <crystal>
   <varray name="basis" >
    <v>       8.66999996       5.03999989       0.00000000 </v>
    <v>      -8.66999982       5.04000013       0.00000000 </v>
    <v>       0.00000000       0.00000000      30.00000000 </v>
   </varray>
   <i name="volume">   2621.80797419 </i>
   <varray name="rec_basis" >
    <v>       0.05767013       0.09920635       0.00000000 </v>
    <v>      -0.05767013       0.09920635       0.00000000 </v>
    <v>       0.00000000       0.00000000       0.03333333 </v>
   </varray>
  </crystal>
  <varray name="positions" >
   <v>       0.66666669       0.00000000       0.00000000 </v>
   <v>       0.33333334       0.00000000       0.00000000 </v>
   <v>       0.33333334       0.33333334       0.00000000 </v>
   <v>       0.33333334       0.66666669       0.00000000 </v>
   <v>       0.66666669       0.66666669       0.00000000 </v>
   <v>       0.00000000       0.66666669       0.00000000 </v>
   <v>       0.00000000       0.00000000       0.00000000 </v>
   <v>       1.00000000       0.33333334       0.00000000 </v>
   <v>       0.66666669       0.33333334       0.00000000 </v>
   <v>       0.11068511       0.22244981       0.95539999 </v>
   <v>       0.22244981       0.11068511       0.04460000 </v>
   <v>       0.11068511       0.55578315       0.95539999 </v>
   <v>       0.22244981       0.44401845       0.04460000 </v>
   <v>       0.11068511       0.88911647       0.95539999 </v>
   <v>       0.22244981       0.77735180       0.04460000 </v>
   <v>       0.44401845       0.22244981       0.95539999 </v>
   <v>       0.55578315       0.11068511       0.04460000 </v>
   <v>       0.44401845       0.55578315       0.95539999 </v>
   <v>       0.55578315       0.44401845       0.04460000 </v>
   <v>       0.44401845       0.88911647       0.95539999 </v>
   <v>       0.55578315       0.77735180       0.04460000 </v>
   <v>       0.77735180       0.22244981       0.95539999 </v>
   <v>       0.88911647       0.11068511       0.04460000 </v>
   <v>       0.77735180       0.55578315       0.95539999 </v>
   <v>       0.88911647       0.44401845       0.04460000 </v>
   <v>       0.77735180       0.88911647       0.95539999 </v>
   <v>       0.88911647       0.77735180       0.04460000 </v>
  </varray>
 </structure>
 <calculation>
  <scstep>
   <time name="dav">   21.89   21.95</time>
   <time name="total">   21.94   22.00</time>
   <energy>
    <i name="alphaZ">     81.65567618 </i>
    <i name="ewald">  41890.25210945 </i>
    <i name="hartreedc"> -47722.88005505 </i>
    <i name="XCdc">   -242.92955968 </i>
    <i name="pawpsdc">   3467.42045192 </i>
    <i name="pawaedc">  -2871.19716117 </i>
    <i name="eentropy">     -0.53272171 </i>
    <i name="bandstr">   -238.84621426 </i>
    <i name="atom">   6761.44252427 </i>
    <i name="e_fr_energy">   1124.38504994 </i>
    <i name="e_wo_entrp">   1124.91777165 </i>
    <i name="e_0_energy">   1124.65141080 </i>
   </energy>
  </scstep>
  <scstep>
   <time name="dav">   28.31   28.38</time>
   <time name="total">   28.31   28.39</time>
   <energy>
    <i name="e_fr_energy">     -3.46098169 </i>
    <i name="e_wo_entrp">     -3.26589870 </i>
    <i name="e_0_energy">     -3.36344020 </i>
   </energy>
  </scstep>
  <scstep>
   <time name="dav">   27.64   27.71</time>
   <time name="total">   27.64   27.71</time>
   <energy>
    <i name="e_fr_energy">   -199.78754193 </i>
    <i name="e_wo_entrp">   -199.52821240 </i>
    <i name="e_0_energy">   -199.65787717 </i>
   </energy>
  </scstep>
  <scstep>
   <time name="dav">   30.05   30.12</time>
   <time name="total">   30.05   30.13</time>
   <energy>
    <i name="e_fr_energy">   -208.94362907 </i>
    <i name="e_wo_entrp">   -208.64482979 </i>
    <i name="e_0_energy">   -208.79422943 </i>
   </energy>
  </scstep>
  <scstep>
   <time name="dav">   28.94   29.01</time>
   <time name="total">   29.41   29.49</time>
   <energy>
    <i name="e_fr_energy">   -209.27430630 </i>
    <i name="e_wo_entrp">   -208.97840931 </i>
    <i name="e_0_energy">   -209.12635781 </i>
   </energy>
  </scstep>
  <scstep>
   <time name="dav">   31.15   31.22</time>
   <time name="total">   31.65   31.73</time>
   <energy>
    <i name="e_fr_energy">   -237.13487334 </i>
    <i name="e_wo_entrp">   -236.86610979 </i>
    <i name="e_0_energy">   -237.00049156 </i>
   </energy>
  </scstep>
  <scstep>
   <time name="dav">   32.34   32.41</time>
   <time name="total">   32.84   32.93</time>
   <energy>
    <i name="e_fr_energy">   -196.66301021 </i>
    <i name="e_wo_entrp">   -196.32827488 </i>
    <i name="e_0_energy">   -196.49564254 </i>
   </energy>
  </scstep>
  <scstep>
   <time name="dav">   29.45   29.52</time>
   <time name="total">   29.95   30.03</time>
   <energy>
    <i name="e_fr_energy">   -190.08329943 </i>
    <i name="e_wo_entrp">   -189.81455613 </i>
    <i name="e_0_energy">   -189.94892778 </i>
   </energy>
  </scstep>
  <scstep>
   <time name="dav">   30.27   30.34</time>
   <time name="total">   30.79   30.87</time>
   <energy>
    <i name="e_fr_energy">   -188.31802757 </i>
    <i name="e_wo_entrp">   -187.98887513 </i>
    <i name="e_0_energy">   -188.15345135 </i>
   </energy>
  </scstep>
  <scstep>
   <time name="dav">   32.45   32.53</time>
   <time name="total">   32.98   33.07</time>
   <energy>
    <i name="e_fr_energy">   -187.12758994 </i>
    <i name="e_wo_entrp">   -186.78532993 </i>
    <i name="e_0_energy">   -186.95645993 </i>
   </energy>
  </scstep>
  <scstep>
   <time name="dav">   31.03   31.10</time>
   <time name="total">   31.56   31.64</time>
   <energy>
    <i name="e_fr_energy">   -187.01231938 </i>
    <i name="e_wo_entrp">   -186.66361832 </i>
    <i name="e_0_energy">   -186.83796885 </i>
   </energy>
  </scstep>
  <scstep>
   <time name="dav">   31.66   31.73</time>
   <time name="total">   32.19   32.27</time>
   <energy>
    <i name="e_fr_energy">   -187.03245065 </i>
    <i name="e_wo_entrp">   -186.69881279 </i>
    <i name="e_0_energy">   -186.86563172 </i>
   </energy>
  </scstep>
  <scstep>
   <time name="dav">   32.01   32.08</time>
   <time name="total">   32.54   32.63</time>
   <energy>
    <i name="e_fr_energy">   -186.93396282 </i>
    <i name="e_wo_entrp">   -186.59794876 </i>
    <i name="e_0_energy">   -186.76595579 </i>
   </energy>
  </scstep>
  <scstep>
   <time name="dav">   31.66   31.74</time>
   <time name="total">   32.19   32.28</time>
   <energy>
    <i name="e_fr_energy">   -186.90407072 </i>
    <i name="e_wo_entrp">   -186.56303789 </i>
    <i name="e_0_energy">   -186.73355431 </i>
   </energy>
  </scstep>
  <scstep>
   <time name="dav">   30.54   30.61</time>
   <time name="total">   31.07   31.15</time>
   <energy>
    <i name="e_fr_energy">   -186.89845772 </i>
    <i name="e_wo_entrp">   -186.55543904 </i>
    <i name="e_0_energy">   -186.72694838 </i>
   </energy>
  </scstep>
  <scstep>
   <time name="dav">   31.18   31.25</time>
   <time name="total">   31.71   31.80</time>
   <energy>
    <i name="e_fr_energy">   -186.89194736 </i>
    <i name="e_wo_entrp">   -186.54856909 </i>
    <i name="e_0_energy">   -186.72025822 </i>
   </energy>
  </scstep>
  <scstep>
   <time name="dav">   31.34   31.42</time>
   <time name="total">   31.88   31.96</time>
   <energy>
    <i name="e_fr_energy">   -186.88923601 </i>
    <i name="e_wo_entrp">   -186.54792582 </i>
    <i name="e_0_energy">   -186.71858092 </i>
   </energy>
  </scstep>
  <scstep>
   <time name="dav">   28.46   28.53</time>
   <time name="total">   29.00   29.08</time>
   <energy>
    <i name="e_fr_energy">   -186.88870911 </i>
    <i name="e_wo_entrp">   -186.54751621 </i>
    <i name="e_0_energy">   -186.71811266 </i>
   </energy>
  </scstep>
  <scstep>
   <time name="dav">   27.56   27.63</time>
   <time name="total">   28.09   28.17</time>
   <energy>
    <i name="e_fr_energy">   -186.88849550 </i>
    <i name="e_wo_entrp">   -186.54685709 </i>
    <i name="e_0_energy">   -186.71767629 </i>
   </energy>
  </scstep>
  <scstep>
   <time name="dav">   23.62   23.68</time>
   <time name="total">   24.16   24.22</time>
   <energy>
    <i name="e_fr_energy">   -186.88938037 </i>
    <i name="e_wo_entrp">   -186.54805584 </i>
    <i name="e_0_energy">   -186.71871811 </i>
   </energy>
  </scstep>
  <scstep>
   <time name="dav">   22.05   22.11</time>
   <time name="total">   22.59   22.65</time>
   <energy>
    <i name="e_fr_energy">   -186.89031921 </i>
    <i name="e_wo_entrp">   -186.54886474 </i>
    <i name="e_0_energy">   -186.71959197 </i>
   </energy>
  </scstep>
  <scstep>
   <time name="dav">   18.18   18.22</time>
   <time name="total">   18.71   18.77</time>
   <energy>
    <i name="e_fr_energy">   -186.89107302 </i>
    <i name="e_wo_entrp">   -186.54966325 </i>
    <i name="e_0_energy">   -186.72036814 </i>
   </energy>
  </scstep>
  <scstep>
   <time name="dav">   20.50   20.54</time>
   <time name="total">   21.03   21.09</time>
   <energy>
    <i name="e_fr_energy">   -186.89221440 </i>
    <i name="e_wo_entrp">   -186.55091847 </i>
    <i name="e_0_energy">   -186.72156643 </i>
   </energy>
  </scstep>
  <scstep>
   <time name="dav">   18.99   19.03</time>
   <time name="total">   19.52   19.57</time>
   <energy>
    <i name="e_fr_energy">   -186.89279429 </i>
    <i name="e_wo_entrp">   -186.55143595 </i>
    <i name="e_0_energy">   -186.72211512 </i>
   </energy>
  </scstep>
  <scstep>
   <time name="dav">   16.64   16.68</time>
   <time name="total">   17.17   17.22</time>
   <energy>
    <i name="e_fr_energy">   -186.89316076 </i>
    <i name="e_wo_entrp">   -186.55177572 </i>
    <i name="e_0_energy">   -186.72246824 </i>
   </energy>
  </scstep>
  <scstep>
   <time name="dav">   19.10   19.15</time>
   <time name="total">   19.63   19.69</time>
   <energy>
    <i name="e_fr_energy">   -186.89340747 </i>
    <i name="e_wo_entrp">   -186.55204543 </i>
    <i name="e_0_energy">   -186.72272645 </i>
   </energy>
  </scstep>
  <scstep>
   <time name="dav">   20.16   20.21</time>
   <time name="total">   20.20   20.25</time>
   <energy>
    <i name="alphaZ">     81.65567618 </i>
    <i name="ewald">  41890.25210945 </i>
    <i name="hartreedc"> -47833.18122698 </i>
    <i name="XCdc">   -231.59806648 </i>
    <i name="pawpsdc">   4192.17279530 </i>
    <i name="pawaedc">  -3610.19741862 </i>
    <i name="eentropy">     -0.34136508 </i>
    <i name="bandstr">  -1437.09852841 </i>
    <i name="atom">   6761.44252427 </i>
    <i name="e_fr_energy">   -186.89350037 </i>
    <i name="e_wo_entrp">   -186.55213529 </i>
    <i name="e_0_energy">   -186.72281783 </i>
   </energy>
  </scstep>
  <structure>
   <crystal>
    <varray name="basis" >
     <v>       8.66999996       5.03999989       0.00000000 </v>
     <v>      -8.66999982       5.04000013       0.00000000 </v>
     <v>       0.00000000       0.00000000      30.00000000 </v>
    </varray>
    <i name="volume">   2621.80797419 </i>
    <varray name="rec_basis" >
     <v>       0.05767013       0.09920635       0.00000000 </v>
     <v>      -0.05767013       0.09920635       0.00000000 </v>
     <v>       0.00000000       0.00000000       0.03333333 </v>
    </varray>
   </crystal>
   <varray name="positions" >
    <v>       0.66666669       0.00000000       0.00000000 </v>
    <v>       0.33333334       0.00000000       0.00000000 </v>
    <v>       0.33333334       0.33333334       0.00000000 </v>
    <v>       0.33333334       0.66666669       0.00000000 </v>
    <v>       0.66666669       0.66666669       0.00000000 </v>
    <v>       0.00000000       0.66666669       0.00000000 </v>
    <v>       0.00000000       0.00000000       0.00000000 </v>
    <v>       1.00000000       0.33333334       0.00000000 </v>
    <v>       0.66666669       0.33333334       0.00000000 </v>
    <v>       0.11068511       0.22244981       0.95539999 </v>
    <v>       0.22244981       0.11068511       0.04460000 </v>
    <v>       0.11068511       0.55578315       0.95539999 </v>
    <v>       0.22244981       0.44401845       0.04460000 </v>
    <v>       0.11068511       0.88911647       0.95539999 </v>
    <v>       0.22244981       0.77735180       0.04460000 </v>
    <v>       0.44401845       0.22244981       0.95539999 </v>
    <v>       0.55578315       0.11068511       0.04460000 </v>
    <v>       0.44401845       0.55578315       0.95539999 </v>
    <v>       0.55578315       0.44401845       0.04460000 </v>
    <v>       0.44401845       0.88911647       0.95539999 </v>
    <v>       0.55578315       0.77735180       0.04460000 </v>
    <v>       0.77735180       0.22244981       0.95539999 </v>
    <v>       0.88911647       0.11068511       0.04460000 </v>
    <v>       0.77735180       0.55578315       0.95539999 </v>
    <v>       0.88911647       0.44401845       0.04460000 </v>
    <v>       0.77735180       0.88911647       0.95539999 </v>
    <v>       0.88911647       0.77735180       0.04460000 </v>
   </varray>
  </structure>
  <varray name="forces" >
   <v>       0.15057051      -0.39283242      -0.08774125 </v>
   <v>       0.20469985      -0.27165758       0.00743382 </v>
   <v>      -0.14506517       0.31859702       0.07745391 </v>
   <v>      -0.01479308       0.03543753      -0.01574122 </v>
   <v>      -0.01777293       0.00455102      -0.11125943 </v>
   <v>       0.01583938      -0.02449896       0.02638288 </v>
   <v>       0.32316391      -0.38915010       0.03626570 </v>
   <v>      -0.26446517       0.46697197       0.11633490 </v>
   <v>      -0.28163709       0.29499556      -0.00515698 </v>
   <v>       0.47292872       0.56366820      -2.11835484 </v>
   <v>       0.22179859       0.53242868       1.41282001 </v>
   <v>       0.18897678      -0.13831940      -2.90344387 </v>
   <v>       0.69201277      -0.17450812       2.15295660 </v>
   <v>       0.36518027       0.69065185      -2.17851056 </v>
   <v>      -0.52356251       0.68567923       2.14430641 </v>
   <v>      -0.23146020      -0.51832373      -1.39318893 </v>
   <v>       0.24016358      -0.52561661       1.38373392 </v>
   <v>       0.52855740      -0.67695413      -2.14192766 </v>
   <v>      -0.37057793      -0.73440233       2.17658560 </v>
   <v>      -0.31604806       0.68776993      -1.44593536 </v>
   <v>      -0.52905207       0.68357465       2.14659370 </v>
   <v>       0.48294401      -0.60587470      -2.15369228 </v>
   <v>      -0.47166810      -0.55425997       2.11536256 </v>
   <v>       0.19235222      -0.13924549      -2.90552606 </v>
   <v>      -0.03355986      -0.11831064       2.94157809 </v>
   <v>      -0.68856181       0.13861965      -2.16020685 </v>
   <v>      -0.19096399       0.16100890       2.88287720 </v>
  </varray>
  <varray name="stress" >
   <v>       7.27643266      -0.12115438      -1.59973593 </v>
   <v>      -0.12115431       4.48939032      -0.03804448 </v>
   <v>      -1.59973567      -0.03804440      30.27878672 </v>
  </varray>
  <energy>
   <i name="e_fr_energy">   -186.89350037 </i>
   <i name="e_wo_entrp">   -186.72281783 </i>
   <i name="e_0_energy">     -0.34136508 </i>
  </energy>
  <time name="totalsc">  780.84  783.05</time>
 </calculation>
 <calculation>
  <scstep>
   <time name="dav">   21.84   21.89</time>
   <time name="total">   22.38   22.43</time>
   <energy>
    <i name="alphaZ">     78.91870808 </i>
    <i name="ewald">  39379.20038012 </i>
    <i name="hartreedc"> -45336.78550139 </i>
    <i name="XCdc">   -239.05316445 </i>
    <i name="pawpsdc">   4192.15095830 </i>
    <i name="pawaedc">  -3610.17582573 </i>
    <i name="eentropy">     -0.27868761 </i>
    <i name="bandstr">  -1412.95164221 </i>
    <i name="atom">   6761.44252427 </i>
    <i name="e_fr_energy">   -187.53225063 </i>
    <i name="e_wo_entrp">   -187.25356302 </i>
    <i name="e_0_energy">   -187.39290682 </i>
   </energy>
  </scstep>
  <scstep>
   <time name="dav">   30.47   30.54</time>
   <time name="total">   31.00   31.08</time>
   <energy>
    <i name="e_fr_energy">   -189.48798987 </i>
    <i name="e_wo_entrp">   -189.15795794 </i>
    <i name="e_0_energy">   -189.32297391 </i>
   </energy>
  </scstep>
  <scstep>
   <time name="dav">   30.69   30.76</time>
   <time name="total">   31.23   31.32</time>
   <energy>
    <i name="e_fr_energy">   -189.37298597 </i>
    <i name="e_wo_entrp">   -189.10215306 </i>
    <i name="e_0_energy">   -189.23756951 </i>
   </energy>
  </scstep>
  <scstep>
   <time name="dav">   30.81   30.88</time>
   <time name="total">   31.35   31.43</time>
   <energy>
    <i name="e_fr_energy">   -188.78716164 </i>
    <i name="e_wo_entrp">   -188.50821199 </i>
    <i name="e_0_energy">   -188.64768682 </i>
   </energy>
  </scstep>
  <scstep>
   <time name="dav">   30.56   30.63</time>
   <time name="total">   31.10   31.18</time>
   <energy>
    <i name="e_fr_energy">   -188.92433142 </i>
    <i name="e_wo_entrp">   -188.63298776 </i>
    <i name="e_0_energy">   -188.77865959 </i>
   </energy>
  </scstep>
  <scstep>
   <time name="dav">   31.24   31.32</time>
   <time name="total">   31.79   31.87</time>
   <energy>
    <i name="e_fr_energy">   -188.75170661 </i>
    <i name="e_wo_entrp">   -188.47606645 </i>
    <i name="e_0_energy">   -188.61388653 </i>
   </energy>
  </scstep>
  <scstep>
   <time name="dav">   29.53   29.60</time>
   <time name="total">   30.07   30.16</time>
   <energy>
    <i name="e_fr_energy">   -188.71900432 </i>
    <i name="e_wo_entrp">   -188.43924317 </i>
    <i name="e_0_energy">   -188.57912375 </i>
   </energy>
  </scstep>
  <scstep>
   <time name="dav">   31.58   31.66</time>
   <time name="total">   32.12   32.21</time>
   <energy>
    <i name="e_fr_energy">   -188.70961439 </i>
    <i name="e_wo_entrp">   -188.43222747 </i>
    <i name="e_0_energy">   -188.57092093 </i>
   </energy>
  </scstep>
  <scstep>
   <time name="dav">   29.59   29.66</time>
   <time name="total">   30.13   30.21</time>
   <energy>
    <i name="e_fr_energy">   -188.69981798 </i>
    <i name="e_wo_entrp">   -188.42275894 </i>
    <i name="e_0_energy">   -188.56128846 </i>
   </energy>
  </scstep>
  <scstep>
   <time name="dav">   31.53   31.60</time>
   <time name="total">   32.07   32.16</time>
   <energy>
    <i name="e_fr_energy">   -188.69929433 </i>
    <i name="e_wo_entrp">   -188.42249788 </i>
    <i name="e_0_energy">   -188.56089610 </i>
   </energy>
  </scstep>
  <scstep>
   <time name="dav">   29.21   29.28</time>
   <time name="total">   29.75   29.83</time>
   <energy>
    <i name="e_fr_energy">   -188.69887890 </i>
    <i name="e_wo_entrp">   -188.42237924 </i>
    <i name="e_0_energy">   -188.56062907 </i>
   </energy>
  </scstep>
  <scstep>
   <time name="dav">   29.70   29.77</time>
   <time name="total">   29.73   29.81</time>
   <energy>
    <i name="alphaZ">     78.91870808 </i>
    <i name="ewald">  39379.20038012 </i>
    <i name="hartreedc"> -45347.65450337 </i>
    <i name="XCdc">   -237.96441240 </i>
    <i name="pawpsdc">   3952.23374381 </i>
    <i name="pawaedc">  -3366.77175277 </i>
    <i name="eentropy">     -0.27652755 </i>
    <i name="bandstr">  -1407.82711443 </i>
    <i name="atom">   6761.44252427 </i>
    <i name="e_fr_energy">   -188.69895425 </i>
    <i name="e_wo_entrp">   -188.42242670 </i>
    <i name="e_0_energy">   -188.56069048 </i>
   </energy>
  </scstep>
  <structure>
   <crystal>
    <varray name="basis" >
     <v>       8.85267168       5.10308561       0.00000000 </v>
     <v>      -8.85624226       5.10922836       0.00000000 </v>
     <v>       0.00000000       0.00000000      30.00000000 </v>
    </varray>
    <i name="volume">   2712.73451050 </i>
    <varray name="rec_basis" >
     <v>       0.05650271       0.09794076       0.00000000 </v>
     <v>      -0.05643478       0.09790127       0.00000000 </v>
     <v>       0.00000000       0.00000000       0.03333333 </v>
    </varray>
   </crystal>
   <varray name="positions" >
    <v>       0.66520551      -0.00229900      -0.00014110 </v>
    <v>       0.33260270      -0.00186965       0.00001195 </v>
    <v>       0.33445455       0.33526174       0.00012455 </v>
    <v>       0.33346179       0.66687745      -0.00002531 </v>
    <v>       0.66663902       0.66673791      -0.00017892 </v>
    <v>      -0.00007318       0.66650537       0.00004243 </v>
    <v>      -0.00096337      -0.00276156       0.00005832 </v>
    <v>       1.00149913       0.33630405       0.00018708 </v>
    <v>       0.66729497       0.33552874      -0.00000829 </v>
    <v>       0.11469858       0.22383175       0.95199349 </v>
    <v>       0.22561508       0.11261622       0.04687194 </v>
    <v>       0.11054888       0.55459540       0.95073100 </v>
    <v>       0.22353991       0.44125797       0.04806214 </v>
    <v>       0.11500654       0.89140592       0.95189675 </v>
    <v>       0.22427482       0.78209008       0.04804823 </v>
    <v>       0.44089381       0.22061308       0.95315962 </v>
    <v>       0.55393574       0.10750135       0.04682517 </v>
    <v>       0.44224910       0.55107273       0.95195558 </v>
    <v>       0.55123731       0.44153463       0.04810014 </v>
    <v>       0.44643081       0.89328741       0.95307480 </v>
    <v>       0.55758282       0.78209528       0.04805191 </v>
    <v>       0.77579572       0.21820648       0.95193666 </v>
    <v>       0.88515153       0.10934469       0.04800169 </v>
    <v>       0.77722053       0.55458157       0.95072765 </v>
    <v>       0.88845687       0.44354559       0.04933032 </v>
    <v>       0.77609954       0.89169559       0.95192619 </v>
    <v>       0.88935576       0.77865367       0.04923592 </v>
   </varray>
  </structure>
  <varray name="forces" >
   <v>       0.19693324      -0.35069721       0.05333003 </v>
   <v>       0.14311654      -0.27549482       0.08487886 </v>
   <v>      -0.15131900       0.29352320      -0.07196594 </v>
   <v>       0.00050671      -0.14994189       0.00639275 </v>
   <v>       0.11164365       0.11794999      -0.03921833 </v>
   <v>       0.02968008      -0.21456454       0.01267199 </v>
   <v>       0.29489256      -0.48508063       0.07832687 </v>
   <v>      -0.39586187       0.48682761      -0.06446062 </v>
   <v>      -0.18696258       0.52543578      -0.09695220 </v>
   <v>      -0.04871155      -0.06875919       0.29360812 </v>
   <v>      -0.05229883      -0.07992232      -0.19391975 </v>
   <v>       0.05114222      -0.11122938      -0.13621950 </v>
   <v>      -0.00973044      -0.09835358       0.11788640 </v>
   <v>      -0.10082020       0.05093419      -0.04641784 </v>
   <v>      -0.02850724       0.08634600       0.05176507 </v>
   <v>       0.06302373       0.07523362       0.22807165 </v>
   <v>      -0.07265599       0.07882582      -0.24494516 </v>
   <v>       0.03227794      -0.06614383      -0.06006758 </v>
   <v>       0.09576811      -0.05752130       0.05700864 </v>
   <v>      -0.01200683       0.04242404      -0.03628893 </v>
   <v>      -0.02971731       0.06544461       0.02620297 </v>
   <v>      -0.06111248       0.06595941       0.23255215 </v>
   <v>       0.05079658       0.06871853      -0.25598194 </v>
   <v>       0.05301903      -0.11060484      -0.17097194 </v>
   <v>       0.06493822      -0.08360501       0.14962464 </v>
   <v>       0.01753223       0.09170903      -0.11424638 </v>
   <v>      -0.05556652       0.10258673       0.13933596 </v>
  </varray>
  <varray name="stress" >
   <v>     -19.96960145       0.02631200      -0.02805135 </v>
   <v>       0.02631211     -19.56284120       0.10786196 </v>
   <v>      -0.02805141       0.10786207      -1.79102157 </v>
  </varray>
  <energy>
   <i name="e_fr_energy">   -188.69895425 </i>
   <i name="e_wo_entrp">   -188.56069048 </i>
   <i name="e_0_energy">     -0.27652755 </i>
  </energy>
  <time name="totalsc">  404.81  405.89</time>
 </calculation>
 <calculation>
  <scstep>
   <time name="dav">   23.85   23.91</time>
   <time name="total">   24.39   24.45</time>
   <energy>
    <i name="alphaZ">     82.33577650 </i>
    <i name="ewald">  41298.30102035 </i>
    <i name="hartreedc"> -47297.23008609 </i>
    <i name="XCdc">   -233.85365060 </i>
    <i name="pawpsdc">   3950.61768478 </i>
    <i name="pawaedc">  -3365.13701601 </i>
    <i name="eentropy">     -0.23218216 </i>
    <i name="bandstr">  -1386.86413156 </i>
    <i name="atom">   6761.44252427 </i>
    <i name="e_fr_energy">   -190.62006053 </i>
    <i name="e_wo_entrp">   -190.38787836 </i>
    <i name="e_0_energy">   -190.50396945 </i>
   </energy>
  </scstep>
  <scstep>
   <time name="dav">   27.88   27.95</time>
   <time name="total">   28.40   28.47</time>
   <energy>
    <i name="e_fr_energy">   -190.56995746 </i>
    <i name="e_wo_entrp">   -190.34151241 </i>
    <i name="e_0_energy">   -190.45573494 </i>
   </energy>
  </scstep>
  <scstep>
   <time name="dav">   30.60   30.67</time>
   <time name="total">   31.12   31.21</time>
   <energy>
    <i name="e_fr_energy">   -190.10768935 </i>
    <i name="e_wo_entrp">   -189.85868548 </i>
    <i name="e_0_energy">   -189.98318741 </i>
   </energy>
  </scstep>
  <scstep>
   <time name="dav">   30.90   30.98</time>
   <time name="total">   31.43   31.52</time>
   <energy>
    <i name="e_fr_energy">   -189.89469514 </i>
    <i name="e_wo_entrp">   -189.66628761 </i>
    <i name="e_0_energy">   -189.78049138 </i>
   </energy>
  </scstep>
  <scstep>
   <time name="dav">   30.45   30.52</time>
   <time name="total">   30.98   31.06</time>
   <energy>
    <i name="e_fr_energy">   -189.84693883 </i>
    <i name="e_wo_entrp">   -189.61214912 </i>
    <i name="e_0_energy">   -189.72954398 </i>
   </energy>
  </scstep>
  <scstep>
   <time name="dav">   31.26   31.34</time>
   <time name="total">   31.79   31.87</time>
   <energy>
    <i name="e_fr_energy">   -189.79770531 </i>
    <i name="e_wo_entrp">   -189.56356588 </i>
    <i name="e_0_energy">   -189.68063560 </i>
   </energy>
  </scstep>
  <scstep>
   <time name="dav">   28.97   29.04</time>
   <time name="total">   29.50   29.58</time>
   <energy>
    <i name="e_fr_energy">   -189.79112372 </i>
    <i name="e_wo_entrp">   -189.55833666 </i>
    <i name="e_0_energy">   -189.67473019 </i>
   </energy>
  </scstep>
  <scstep>
   <time name="dav">   30.48   30.55</time>
   <time name="total">   31.01   31.09</time>
   <energy>
    <i name="e_fr_energy">   -189.79159414 </i>
    <i name="e_wo_entrp">   -189.55863461 </i>
    <i name="e_0_energy">   -189.67511437 </i>
   </energy>
  </scstep>
  <scstep>
   <time name="dav">   27.60   27.67</time>
   <time name="total">   28.13   28.20</time>
   <energy>
    <i name="e_fr_energy">   -189.79121570 </i>
    <i name="e_wo_entrp">   -189.55818887 </i>
    <i name="e_0_energy">   -189.67470229 </i>
   </energy>
  </scstep>
  <scstep>
   <time name="dav">   25.23   25.29</time>
   <time name="total">   25.75   25.82</time>
   <energy>
    <i name="e_fr_energy">   -189.79146885 </i>
    <i name="e_wo_entrp">   -189.55843771 </i>
    <i name="e_0_energy">   -189.67495328 </i>
   </energy>
  </scstep>
  <scstep>
   <time name="dav">   23.22   23.27</time>
   <time name="total">   23.75   23.81</time>
   <energy>
    <i name="e_fr_energy">   -189.79119505 </i>
    <i name="e_wo_entrp">   -189.55804905 </i>
    <i name="e_0_energy">   -189.67462205 </i>
   </energy>
  </scstep>
  <scstep>
   <time name="dav">   19.12   19.17</time>
   <time name="total">   19.16   19.21</time>
   <energy>
    <i name="alphaZ">     82.33577650 </i>
    <i name="ewald">  41298.30102035 </i>
    <i name="hartreedc"> -47270.57119614 </i>
    <i name="XCdc">   -235.24517392 </i>
    <i name="pawpsdc">   4038.66038692 </i>
    <i name="pawaedc">  -3454.36901028 </i>
    <i name="eentropy">     -0.23311993 </i>
    <i name="bandstr">  -1410.11242604 </i>
    <i name="atom">   6761.44252427 </i>
    <i name="e_fr_energy">   -189.79121827 </i>
    <i name="e_wo_entrp">   -189.55809834 </i>
    <i name="e_0_energy">   -189.67465831 </i>
   </energy>
  </scstep>
  <structure>
   <crystal>
    <varray name="basis" >
     <v>       8.66525748       4.99741871       0.00000000 </v>
     <v>      -8.66846734       5.00293962       0.00000000 </v>
     <v>       0.00000000       0.00000000      30.00000000 </v>
    </varray>
    <i name="volume">   2600.15162338 </i>
    <varray name="rec_basis" >
     <v>       0.05772286       0.10001494       0.00000000 </v>
     <v>      -0.05765916       0.09997791       0.00000000 </v>
     <v>       0.00000000       0.00000000       0.03333333 </v>
    </varray>
   </crystal>
   <varray name="positions" >
    <v>       0.66481266      -0.00306789      -0.00011102 </v>
    <v>       0.33228302      -0.00246261       0.00005982 </v>
    <v>       0.33479626       0.33589238       0.00008397 </v>
    <v>       0.33321382       0.66662861      -0.00002171 </v>
    <v>       0.66694119       0.66682668      -0.00020103 </v>
    <v>      -0.00040034       0.66612164       0.00004957 </v>
    <v>      -0.00148525      -0.00384656       0.00010249 </v>
    <v>       1.00192738       0.33748835       0.00015072 </v>
    <v>       0.66798689       0.33657754      -0.00006297 </v>
    <v>       0.11453808       0.22376437       0.95215907 </v>
    <v>       0.22543266       0.11253378       0.04676258 </v>
    <v>       0.11041346       0.55436233       0.95065418 </v>
    <v>       0.22336764       0.44110436       0.04812862 </v>
    <v>       0.11499456       0.89158654       0.95187058 </v>
    <v>       0.22439064       0.78226031       0.04807743 </v>
    <v>       0.44107872       0.22067752       0.95328824 </v>
    <v>       0.55399690       0.10770128       0.04668703 </v>
    <v>       0.44217035       0.55093236       0.95192171 </v>
    <v>       0.55123355       0.44134792       0.04813229 </v>
    <v>       0.44648963       0.89336915       0.95305433 </v>
    <v>       0.55766285       0.78223205       0.04806669 </v>
    <v>       0.77584660       0.21837408       0.95206781 </v>
    <v>       0.88531396       0.10941001       0.04785733 </v>
    <v>       0.77708794       0.55434775       0.95063123 </v>
    <v>       0.88838041       0.44334511       0.04941470 </v>
    <v>       0.77626826       0.89183075       0.95186176 </v>
    <v>       0.88947263       0.77887664       0.04931450 </v>
   </varray>
  </structure>
  <varray name="forces" >
   <v>       0.23974603      -0.33429260       0.07565621 </v>
   <v>       0.12455783      -0.28696202       0.08523868 </v>
   <v>      -0.18477318       0.29173722      -0.08659629 </v>
   <v>       0.01234677      -0.21926324       0.01330352 </v>
   <v>       0.13542300       0.15976948      -0.01129275 </v>
   <v>       0.04160377      -0.27556230       0.00583815 </v>
   <v>       0.26835031      -0.51031110       0.06390178 </v>
   <v>      -0.43299801       0.49705115      -0.08457226 </v>
   <v>      -0.14523025       0.58553215      -0.08513852 </v>
   <v>       0.02603377       0.03172127      -0.16953131 </v>
   <v>       0.01903977       0.05489137       0.24714341 </v>
   <v>       0.00636327      -0.01992059      -0.70052831 </v>
   <v>       0.09950558      -0.01426248       0.63594909 </v>
   <v>       0.02282260       0.10579641      -0.55398075 </v>
   <v>      -0.05714085       0.14160656       0.53701840 </v>
   <v>      -0.00875240      -0.05788809      -0.21174415 </v>
   <v>      -0.00533144      -0.03209643       0.18645536 </v>
   <v>       0.06059883      -0.12213045      -0.54436017 </v>
   <v>      -0.02800286      -0.10698057       0.56077567 </v>
   <v>      -0.04339562       0.09446612      -0.48908843 </v>
   <v>      -0.06491890       0.11453549       0.50215187 </v>
   <v>       0.01680076      -0.05477298      -0.25064130 </v>
   <v>      -0.02603012      -0.03842241       0.20891519 </v>
   <v>       0.00626236      -0.02620727      -0.74291852 </v>
   <v>       0.01840482      -0.01980348       0.73796143 </v>
   <v>      -0.09233840       0.02459549      -0.63306652 </v>
   <v>      -0.00894743       0.01717330       0.70315051 </v>
  </varray>
  <varray name="stress" >
   <v>     -10.17994963       0.03567425      -0.04734383 </v>
   <v>       0.03567425      -9.85984579       0.12769420 </v>
   <v>      -0.04734377       0.12769410       6.47700403 </v>
  </varray>
  <energy>
   <i name="e_fr_energy">   -189.79121827 </i>
   <i name="e_wo_entrp">   -189.67465831 </i>
   <i name="e_0_energy">     -0.23311993 </i>
  </energy>
  <time name="totalsc">  377.32  378.32</time>
 </calculation>
 <calculation>
  <scstep>
   <time name="dav">   21.81   21.86</time>
   <time name="total">   22.32   22.38</time>
   <energy>
    <i name="alphaZ">     85.80205748 </i>
    <i name="ewald">  42824.55583968 </i>
    <i name="hartreedc"> -48841.16324718 </i>
    <i name="XCdc">   -232.96638914 </i>
    <i name="pawpsdc">   4038.77695312 </i>
    <i name="pawaedc">  -3454.48356216 </i>
    <i name="eentropy">     -0.19156263 </i>
    <i name="bandstr">  -1373.13912589 </i>
    <i name="atom">   6761.44252427 </i>
    <i name="e_fr_energy">   -191.36651243 </i>
    <i name="e_wo_entrp">   -191.17494980 </i>
    <i name="e_0_energy">   -191.27073112 </i>
   </energy>
  </scstep>
  <scstep>
   <time name="dav">   32.71   32.79</time>
   <time name="total">   33.23   33.31</time>
   <energy>
    <i name="e_fr_energy">   -191.18331118 </i>
    <i name="e_wo_entrp">   -190.99345621 </i>
    <i name="e_0_energy">   -191.08838369 </i>
   </energy>
  </scstep>
  <scstep>
   <time name="dav">   30.22   30.29</time>
   <time name="total">   30.73   30.81</time>
   <energy>
    <i name="e_fr_energy">   -191.33756582 </i>
    <i name="e_wo_entrp">   -191.11347679 </i>
    <i name="e_0_energy">   -191.22552130 </i>
   </energy>
  </scstep>
  <scstep>
   <time name="dav">   30.55   30.63</time>
   <time name="total">   31.07   31.15</time>
   <energy>
    <i name="e_fr_energy">   -190.93845548 </i>
    <i name="e_wo_entrp">   -190.74698646 </i>
    <i name="e_0_energy">   -190.84272097 </i>
   </energy>
  </scstep>
  <scstep>
   <time name="dav">   30.42   30.49</time>
   <time name="total">   30.93   31.02</time>
   <energy>
    <i name="e_fr_energy">   -190.89865211 </i>
    <i name="e_wo_entrp">   -190.70395837 </i>
    <i name="e_0_energy">   -190.80130524 </i>
   </energy>
  </scstep>
  <scstep>
   <time name="dav">   30.38   30.45</time>
   <time name="total">   30.89   30.97</time>
   <energy>
    <i name="e_fr_energy">   -190.80808380 </i>
    <i name="e_wo_entrp">   -190.60951856 </i>
    <i name="e_0_energy">   -190.70880118 </i>
   </energy>
  </scstep>
  <scstep>
   <time name="dav">   30.99   31.06</time>
   <time name="total">   31.50   31.59</time>
   <energy>
    <i name="e_fr_energy">   -190.79669143 </i>
    <i name="e_wo_entrp">   -190.60216492 </i>
    <i name="e_0_energy">   -190.69942818 </i>
   </energy>
  </scstep>
  <scstep>
   <time name="dav">   26.38   26.44</time>
   <time name="total">   26.89   26.96</time>
   <energy>
    <i name="e_fr_energy">   -190.79332682 </i>
    <i name="e_wo_entrp">   -190.59753651 </i>
    <i name="e_0_energy">   -190.69543167 </i>
   </energy>
  </scstep>
  <scstep>
   <time name="dav">   30.24   30.31</time>
   <time name="total">   30.75   30.83</time>
   <energy>
    <i name="e_fr_energy">   -190.79407875 </i>
    <i name="e_wo_entrp">   -190.59828814 </i>
    <i name="e_0_energy">   -190.69618345 </i>
   </energy>
  </scstep>
  <scstep>
   <time name="dav">   28.12   28.19</time>
   <time name="total">   28.64   28.72</time>
   <energy>
    <i name="e_fr_energy">   -190.79356415 </i>
    <i name="e_wo_entrp">   -190.59751469 </i>
    <i name="e_0_energy">   -190.69553942 </i>
   </energy>
  </scstep>
  <scstep>
   <time name="dav">   25.19   25.25</time>
   <time name="total">   25.70   25.77</time>
   <energy>
    <i name="e_fr_energy">   -190.79344983 </i>
    <i name="e_wo_entrp">   -190.59753580 </i>
    <i name="e_0_energy">   -190.69549281 </i>
   </energy>
  </scstep>
  <scstep>
   <time name="dav">   20.18   20.23</time>
   <time name="total">   20.22   20.28</time>
   <energy>
    <i name="alphaZ">     85.80205748 </i>
    <i name="ewald">  42824.55583968 </i>
    <i name="hartreedc"> -48812.59230182 </i>
    <i name="XCdc">   -234.29459680 </i>
    <i name="pawpsdc">   4063.78623082 </i>
    <i name="pawaedc">  -3479.66668004 </i>
    <i name="eentropy">     -0.19596475 </i>
    <i name="bandstr">  -1399.63055138 </i>
    <i name="atom">   6761.44252427 </i>
    <i name="e_fr_energy">   -190.79344253 </i>
    <i name="e_wo_entrp">   -190.59747778 </i>
    <i name="e_0_energy">   -190.69546015 </i>
   </energy>
  </scstep>
  <structure>
   <crystal>
    <varray name="basis" >
     <v>       8.48478519       4.89919287       0.00000000 </v>
     <v>      -8.48648960       4.90211081       0.00000000 </v>
     <v>       0.00000000       0.00000000      30.00000000 </v>
    </varray>
    <i name="volume">   2495.10919919 </i>
    <varray name="rec_basis" >
     <v>       0.05894064       0.10203749       0.00000000 </v>
     <v>      -0.05890555       0.10201700       0.00000000 </v>
     <v>       0.00000000       0.00000000       0.03333333 </v>
    </varray>
   </crystal>
   <varray name="positions" >
    <v>       0.66368958      -0.00604487       0.00006444 </v>
    <v>       0.33088173      -0.00470909       0.00023640 </v>
    <v>       0.33590170       0.33842785      -0.00010757 </v>
    <v>       0.33172998       0.66502202       0.00001169 </v>
    <v>       0.66856911       0.66740777      -0.00020061 </v>
    <v>      -0.00210987       0.66407799       0.00005583 </v>
    <v>      -0.00381076      -0.00803199       0.00022235 </v>
    <v>       1.00344572       0.34223920      -0.00004129 </v>
    <v>       0.67133700       0.34085455      -0.00022897 </v>
    <v>       0.11518988       0.22401239       0.95141414 </v>
    <v>       0.22628517       0.11304275       0.04764921 </v>
    <v>       0.11047559       0.55450765       0.94872502 </v>
    <v>       0.22400586       0.44070891       0.04988485 </v>
    <v>       0.11605476       0.89212497       0.95029279 </v>
    <v>       0.22516731       0.78353180       0.04960113 </v>
    <v>       0.44024821       0.22011754       0.95247587 </v>
    <v>       0.55359645       0.10714529       0.04743993 </v>
    <v>       0.44152579       0.54976887       0.95038363 </v>
    <v>       0.55016056       0.44083447       0.04972089 </v>
    <v>       0.44700892       0.89429207       0.95165738 </v>
    <v>       0.55821710       0.78335629       0.04951037 </v>
    <v>       0.77537493       0.21755658       0.95113807 </v>
    <v>       0.88460056       0.10910640       0.04868520 </v>
    <v>       0.77709022       0.55443968       0.94860791 </v>
    <v>       0.88841542       0.44338145       0.05144172 </v>
    <v>       0.77576214       0.89230835       0.95011085 </v>
    <v>       0.88940137       0.77873555       0.05124865 </v>
   </varray>
  </structure>
  <varray name="forces" >
   <v>       0.30253936      -0.37812046       0.07251118 </v>
   <v>       0.09797962      -0.27175531       0.04951071 </v>
   <v>      -0.19072576       0.30726061      -0.07811495 </v>
   <v>       0.02114640      -0.26038397       0.01362691 </v>
   <v>       0.16158393       0.20456233       0.02650646 </v>
   <v>       0.04283474      -0.34100690      -0.01291202 </v>
   <v>       0.31133664      -0.57047028       0.00369889 </v>
   <v>      -0.51508434       0.54827875      -0.03796530 </v>
   <v>      -0.13529971       0.60532442      -0.02016739 </v>
   <v>      -0.00441462      -0.03834893       0.01739112 </v>
   <v>      -0.00475986      -0.00110264       0.14651231 </v>
   <v>      -0.05367689       0.08008721      -0.56283651 </v>
   <v>       0.00926229       0.01529937       0.47836793 </v>
   <v>       0.04708788      -0.01280857      -0.37935907 </v>
   <v>      -0.00963174       0.00655561       0.38645033 </v>
   <v>       0.02186409       0.02378668      -0.08781998 </v>
   <v>      -0.03917768       0.04371353       0.06322226 </v>
   <v>       0.00923195       0.01285489      -0.39223873 </v>
   <v>      -0.02059273       0.01275181       0.37352993 </v>
   <v>       0.00465362      -0.01416048      -0.37969343 </v>
   <v>      -0.00403021      -0.01790780       0.35880827 </v>
   <v>      -0.00432948       0.00559250      -0.11180898 </v>
   <v>      -0.02000465       0.04025024       0.02822553 </v>
   <v>      -0.04011501       0.05431275      -0.59502231 </v>
   <v>      -0.02308729       0.03604143       0.59154057 </v>
   <v>      -0.01378689      -0.03554451      -0.49191721 </v>
   <v>       0.04919634      -0.05506228       0.53995348 </v>
  </varray>
  <varray name="stress" >
   <v>      -5.87047403      -0.10262540      -0.01588388 </v>
   <v>      -0.10262553      -5.75108230      -0.01263601 </v>
   <v>      -0.01588384      -0.01263594       4.51669138 </v>
  </varray>
  <energy>
   <i name="e_fr_energy">   -190.79344253 </i>
   <i name="e_wo_entrp">   -190.69546015 </i>
   <i name="e_0_energy">     -0.19596475 </i>
  </energy>
  <time name="totalsc">  384.84  385.86</time>
 </calculation>
 <calculation>
  <scstep>
   <time name="dav">   21.86   21.92</time>
   <time name="total">   22.37   22.42</time>
   <energy>
    <i name="alphaZ">     90.22136952 </i>
    <i name="ewald">  44685.22633359 </i>
    <i name="hartreedc"> -50729.28803355 </i>
    <i name="XCdc">   -231.80371189 </i>
    <i name="pawpsdc">   4063.74133657 </i>
    <i name="pawaedc">  -3479.61767088 </i>
    <i name="eentropy">     -0.16451100 </i>
    <i name="bandstr">  -1352.01716830 </i>
    <i name="atom">   6761.44252427 </i>
    <i name="e_fr_energy">   -192.25953168 </i>
    <i name="e_wo_entrp">   -192.09502068 </i>
    <i name="e_0_energy">   -192.17727618 </i>
   </energy>
  </scstep>
  <scstep>
   <time name="dav">   27.63   27.70</time>
   <time name="total">   28.14   28.21</time>
   <energy>
    <i name="e_fr_energy">   -191.99368241 </i>
    <i name="e_wo_entrp">   -191.81706865 </i>
    <i name="e_0_energy">   -191.90537553 </i>
   </energy>
  </scstep>
  <scstep>
   <time name="dav">   30.29   30.37</time>
   <time name="total">   30.80   30.88</time>
   <energy>
    <i name="e_fr_energy">   -192.06450989 </i>
    <i name="e_wo_entrp">   -191.88337398 </i>
    <i name="e_0_energy">   -191.97394194 </i>
   </energy>
  </scstep>
  <scstep>
   <time name="dav">   29.80   29.87</time>
   <time name="total">   30.30   30.38</time>
   <energy>
    <i name="e_fr_energy">   -191.86750203 </i>
    <i name="e_wo_entrp">   -191.68891626 </i>
    <i name="e_0_energy">   -191.77820914 </i>
   </energy>
  </scstep>
  <scstep>
   <time name="dav">   30.56   30.63</time>
   <time name="total">   31.06   31.15</time>
   <energy>
    <i name="e_fr_energy">   -191.60322238 </i>
    <i name="e_wo_entrp">   -191.43343118 </i>
    <i name="e_0_energy">   -191.51832678 </i>
   </energy>
  </scstep>
  <scstep>
   <time name="dav">   31.05   31.13</time>
   <time name="total">   31.56   31.64</time>
   <energy>
    <i name="e_fr_energy">   -191.59146010 </i>
    <i name="e_wo_entrp">   -191.40894088 </i>
    <i name="e_0_energy">   -191.50020049 </i>
   </energy>
  </scstep>
  <scstep>
   <time name="dav">   30.45   30.53</time>
   <time name="total">   30.96   31.04</time>
   <energy>
    <i name="e_fr_energy">   -191.57308252 </i>
    <i name="e_wo_entrp">   -191.40634564 </i>
    <i name="e_0_energy">   -191.48971408 </i>
   </energy>
  </scstep>
  <scstep>
   <time name="dav">   29.20   29.27</time>
   <time name="total">   29.70   29.78</time>
   <energy>
    <i name="e_fr_energy">   -191.56589359 </i>
    <i name="e_wo_entrp">   -191.39429165 </i>
    <i name="e_0_energy">   -191.48009262 </i>
   </energy>
  </scstep>
  <scstep>
   <time name="dav">   29.67   29.75</time>
   <time name="total">   30.18   30.26</time>
   <energy>
    <i name="e_fr_energy">   -191.56479865 </i>
    <i name="e_wo_entrp">   -191.39274797 </i>
    <i name="e_0_energy">   -191.47877331 </i>
   </energy>
  </scstep>
  <scstep>
   <time name="dav">   28.56   28.63</time>
   <time name="total">   29.06   29.14</time>
   <energy>
    <i name="e_fr_energy">   -191.56481755 </i>
    <i name="e_wo_entrp">   -191.39261522 </i>
    <i name="e_0_energy">   -191.47871638 </i>
   </energy>
  </scstep>
  <scstep>
   <time name="dav">   27.85   27.92</time>
   <time name="total">   27.89   27.96</time>
   <energy>
    <i name="alphaZ">     90.22136952 </i>
    <i name="ewald">  44685.22633359 </i>
    <i name="hartreedc"> -50694.36132037 </i>
    <i name="XCdc">   -233.34764028 </i>
    <i name="pawpsdc">   4086.56014386 </i>
    <i name="pawaedc">  -3502.52192264 </i>
    <i name="eentropy">     -0.17241986 </i>
    <i name="bandstr">  -1384.61182831 </i>
    <i name="atom">   6761.44252427 </i>
    <i name="e_fr_energy">   -191.56476021 </i>
    <i name="e_wo_entrp">   -191.39234035 </i>
    <i name="e_0_energy">   -191.47855028 </i>
   </energy>
  </scstep>
  <structure>
   <crystal>
    <varray name="basis" >
     <v>       8.26814580       4.77479745       0.00000000 </v>
     <v>      -8.27543643       4.78739066       0.00000000 </v>
     <v>       0.00000000       0.00000000      30.00000000 </v>
    </varray>
    <i name="volume">   2372.89130142 </i>
    <varray name="rec_basis" >
     <v>       0.06052604       0.10462472       0.00000000 </v>
     <v>      -0.06036683       0.10453255       0.00000000 </v>
     <v>       0.00000000       0.00000000       0.03333333 </v>
    </varray>
   </crystal>
   <varray name="positions" >
    <v>       0.66130280      -0.01278397       0.00038136 </v>
    <v>       0.32815020      -0.00883099       0.00045605 </v>
    <v>       0.33826198       0.34361903      -0.00044230 </v>
    <v>       0.32853124       0.66149833       0.00007347 </v>
    <v>       0.67232351       0.66881910      -0.00008603 </v>
    <v>      -0.00607959       0.65945809       0.00000697 </v>
    <v>      -0.00871177      -0.01721400       0.00025540 </v>
    <v>       1.00651403       0.35264472      -0.00023996 </v>
    <v>       0.67807500       0.34940518      -0.00033373 </v>
    <v>       0.11525296       0.22382592       0.95091977 </v>
    <v>       0.22687240       0.11340972       0.04873684 </v>
    <v>       0.11116641       0.55600157       0.94581246 </v>
    <v>       0.22473241       0.44075683       0.05242071 </v>
    <v>       0.11678039       0.89180443       0.94815814 </v>
    <v>       0.22547479       0.78416647       0.05172910 </v>
    <v>       0.44001891       0.21987838       0.95161396 </v>
    <v>       0.55355100       0.10736651       0.04819370 </v>
    <v>       0.44145721       0.54937232       0.94823241 </v>
    <v>       0.54960686       0.44100975       0.05183503 </v>
    <v>       0.44710275       0.89451909       0.94961144 </v>
    <v>       0.55821480       0.78364938       0.05151347 </v>
    <v>       0.77510926       0.21704772       0.95012779 </v>
    <v>       0.88437239       0.10943686       0.04936220 </v>
    <v>       0.77755454       0.55554633       0.94555219 </v>
    <v>       0.88875181       0.44412526       0.05449898 </v>
    <v>       0.77486403       0.89213305       0.94752839 </v>
    <v>       0.88896416       0.77754938       0.05408208 </v>
   </varray>
  </structure>
  <varray name="forces" >
   <v>       0.34594197      -0.50527673      -0.04909761 </v>
   <v>       0.11703307      -0.33172174       0.02103646 </v>
   <v>      -0.18542761       0.40643050       0.00809815 </v>
   <v>      -0.04934061      -0.11674347      -0.05327553 </v>
   <v>       0.11418518       0.12122391      -0.01395588 </v>
   <v>      -0.02935713      -0.08883857      -0.07975756 </v>
   <v>       0.31785297      -0.49575218      -0.07018457 </v>
   <v>      -0.35163893       0.39535799       0.11647160 </v>
   <v>      -0.14657786       0.43907740       0.04521751 </v>
   <v>      -0.11004111      -0.17958615       0.35805328 </v>
   <v>      -0.07244754      -0.10560470      -0.15246709 </v>
   <v>      -0.14867014       0.17047525      -0.28303595 </v>
   <v>      -0.08254945      -0.00184793       0.14409278 </v>
   <v>       0.04186414      -0.13651944      -0.10866807 </v>
   <v>       0.04912932      -0.14787924       0.08476330 </v>
   <v>       0.05454283       0.16337498       0.17164706 </v>
   <v>      -0.04353935       0.15217263      -0.23234400 </v>
   <v>      -0.04510204       0.15596997      -0.07252097 </v>
   <v>       0.01973065       0.10920005       0.09733510 </v>
   <v>       0.05446341      -0.08614777      -0.05348206 </v>
   <v>       0.09102279      -0.18771486       0.11825384 </v>
   <v>      -0.03268167       0.12062682       0.20856873 </v>
   <v>       0.00896475       0.18671137      -0.34440975 </v>
   <v>      -0.08548932       0.09202257      -0.25804695 </v>
   <v>      -0.03681456       0.06282218       0.29725542 </v>
   <v>       0.06287948      -0.07538746      -0.16888393 </v>
   <v>       0.14206677      -0.11644540       0.26933666 </v>
  </varray>
  <varray name="stress" >
   <v>      -0.24390028      -0.18106998       0.33056108 </v>
   <v>      -0.18106976       0.18820828      -0.33436999 </v>
   <v>       0.33056106      -0.33436975      -0.51275562 </v>
  </varray>
  <energy>
   <i name="e_fr_energy">   -191.56476021 </i>
   <i name="e_wo_entrp">   -191.47855028 </i>
   <i name="e_0_energy">     -0.17241986 </i>
  </energy>
  <time name="totalsc">  364.26  365.23</time>
 </calculation>
 <calculation>
  <scstep>
   <time name="dav">   21.83   21.88</time>
   <time name="total">   22.33   22.39</time>
   <energy>
    <i name="alphaZ">     90.25025656 </i>
    <i name="ewald">  44681.77732689 </i>
    <i name="hartreedc"> -50691.83874326 </i>
    <i name="XCdc">   -233.40291239 </i>
    <i name="pawpsdc">   4086.91410678 </i>
    <i name="pawaedc">  -3502.87224144 </i>
    <i name="eentropy">     -0.16568071 </i>
    <i name="bandstr">  -1383.79286804 </i>
    <i name="atom">   6761.44252427 </i>
    <i name="e_fr_energy">   -191.68823133 </i>
    <i name="e_wo_entrp">   -191.52255062 </i>
    <i name="e_0_energy">   -191.60539098 </i>
   </energy>
  </scstep>
  <scstep>
   <time name="dav">   31.26   31.33</time>
   <time name="total">   31.76   31.85</time>
   <energy>
    <i name="e_fr_energy">   -191.75273986 </i>
    <i name="e_wo_entrp">   -191.56742339 </i>
    <i name="e_0_energy">   -191.66008163 </i>
   </energy>
  </scstep>
  <scstep>
   <time name="dav">   30.83   30.90</time>
   <time name="total">   31.33   31.41</time>
   <energy>
    <i name="e_fr_energy">   -191.70885400 </i>
    <i name="e_wo_entrp">   -191.54302022 </i>
    <i name="e_0_energy">   -191.62593711 </i>
   </energy>
  </scstep>
  <scstep>
   <time name="dav">   29.06   29.12</time>
   <time name="total">   29.56   29.64</time>
   <energy>
    <i name="e_fr_energy">   -191.70812547 </i>
    <i name="e_wo_entrp">   -191.53922296 </i>
    <i name="e_0_energy">   -191.62367422 </i>
   </energy>
  </scstep>
  <scstep>
   <time name="dav">   29.51   29.59</time>
   <time name="total">   30.02   30.10</time>
   <energy>
    <i name="e_fr_energy">   -191.70488412 </i>
    <i name="e_wo_entrp">   -191.53607677 </i>
    <i name="e_0_energy">   -191.62048044 </i>
   </energy>
  </scstep>
  <scstep>
   <time name="dav">   28.48   28.55</time>
   <time name="total">   28.98   29.06</time>
   <energy>
    <i name="e_fr_energy">   -191.70461573 </i>
    <i name="e_wo_entrp">   -191.53513761 </i>
    <i name="e_0_energy">   -191.61987667 </i>
   </energy>
  </scstep>
  <scstep>
   <time name="dav">   28.96   29.03</time>
   <time name="total">   29.46   29.54</time>
   <energy>
    <i name="e_fr_energy">   -191.70407418 </i>
    <i name="e_wo_entrp">   -191.53528127 </i>
    <i name="e_0_energy">   -191.61967772 </i>
   </energy>
  </scstep>
  <scstep>
   <time name="dav">   23.73   23.79</time>
   <time name="total">   24.24   24.30</time>
   <energy>
    <i name="e_fr_energy">   -191.70383972 </i>
    <i name="e_wo_entrp">   -191.53473548 </i>
    <i name="e_0_energy">   -191.61928760 </i>
   </energy>
  </scstep>
  <scstep>
   <time name="dav">   17.61   17.65</time>
   <time name="total">   17.64   17.69</time>
   <energy>
    <i name="alphaZ">     90.25025656 </i>
    <i name="ewald">  44681.77732689 </i>
    <i name="hartreedc"> -50692.71299720 </i>
    <i name="XCdc">   -233.38539495 </i>
    <i name="pawpsdc">   4086.17260668 </i>
    <i name="pawaedc">  -3502.10300371 </i>
    <i name="eentropy">     -0.16883127 </i>
    <i name="bandstr">  -1382.97632349 </i>
    <i name="atom">   6761.44252427 </i>
    <i name="e_fr_energy">   -191.70383620 </i>
    <i name="e_wo_entrp">   -191.53500494 </i>
    <i name="e_0_energy">   -191.61942057 </i>
   </energy>
  </scstep>
  <structure>
   <crystal>
    <varray name="basis" >
     <v>       8.25970857       4.77277818       0.00000000 </v>
     <v>      -8.27164762       4.79342826       0.00000000 </v>
     <v>       0.00000000       0.00000000      30.00000000 </v>
    </varray>
    <i name="volume">   2372.13179339 </i>
    <varray name="rec_basis" >
     <v>       0.06062178       0.10461030       0.00000000 </v>
     <v>      -0.06036062       0.10445931       0.00000000 </v>
     <v>       0.00000000       0.00000000       0.03333333 </v>
    </varray>
   </crystal>
   <varray name="positions" >
    <v>       0.65973438      -0.01641258       0.00030358 </v>
    <v>       0.32678862      -0.01088827       0.00049155 </v>
    <v>       0.33979992       0.34626389      -0.00043117 </v>
    <v>       0.32777177       0.66102795      -0.00001264 </v>
    <v>       0.67329998       0.66910891      -0.00010799 </v>
    <v>      -0.00664214       0.65906488      -0.00012279 </v>
    <v>      -0.01032981      -0.02072572       0.00014171 </v>
    <v>       1.00750982       0.35575189      -0.00005218 </v>
    <v>       0.67992040       0.35212181      -0.00026101 </v>
    <v>       0.11401592       0.22323500       0.95149607 </v>
    <v>       0.22612649       0.11308851       0.04849751 </v>
    <v>       0.11160120       0.55731583       0.94533356 </v>
    <v>       0.22448565       0.44099013       0.05267170 </v>
    <v>       0.11621442       0.89098504       0.94796700 </v>
    <v>       0.22486894       0.78327462       0.05188125 </v>
    <v>       0.44100834       0.22054701       0.95188569 </v>
    <v>       0.55419668       0.10826832       0.04782276 </v>
    <v>       0.44211755       0.55029489       0.94810000 </v>
    <v>       0.55021614       0.44150825       0.05200766 </v>
    <v>       0.44682575       0.89392331       0.94951076 </v>
    <v>       0.55752747       0.78242954       0.05171923 </v>
    <v>       0.77562492       0.21775270       0.95045841 </v>
    <v>       0.88534675       0.11036188       0.04880911 </v>
    <v>       0.77777446       0.55627323       0.94511298 </v>
    <v>       0.88896559       0.44455820       0.05500192 </v>
    <v>       0.77465863       0.89156394       0.94723691 </v>
    <v>       0.88878662       0.77653128       0.05453833 </v>
   </varray>
  </structure>
  <varray name="forces" >
   <v>       0.32309757      -0.50590085      -0.00763905 </v>
   <v>       0.13684969      -0.37964875       0.06432171 </v>
   <v>      -0.17652239       0.44309419      -0.00164019 </v>
   <v>      -0.08105811      -0.10754325      -0.03389581 </v>
   <v>       0.13739149       0.08765661       0.03008668 </v>
   <v>      -0.03020866      -0.04869592      -0.03005022 </v>
   <v>       0.30832722      -0.48898102      -0.00109064 </v>
   <v>      -0.33667394       0.42972962       0.02778419 </v>
   <v>      -0.18188480       0.43590292       0.01785317 </v>
   <v>      -0.06460360      -0.13806443       0.39658127 </v>
   <v>      -0.06448253      -0.08589742      -0.22430657 </v>
   <v>      -0.09187016       0.10701858      -0.18817816 </v>
   <v>      -0.05723632       0.03033456       0.13371805 </v>
   <v>       0.03919446      -0.06919211      -0.16062335 </v>
   <v>       0.03773378      -0.09597514       0.06672202 </v>
   <v>       0.03125793       0.11869202       0.22963479 </v>
   <v>      -0.01410951       0.10925821      -0.29444524 </v>
   <v>      -0.03558309       0.11035867      -0.07010458 </v>
   <v>      -0.00689225       0.06526387       0.11633962 </v>
   <v>       0.03330327      -0.04656154      -0.07679047 </v>
   <v>       0.07578933      -0.14499294       0.08042246 </v>
   <v>      -0.00662788       0.08387641       0.26296937 </v>
   <v>       0.00148057       0.12014126      -0.37923456 </v>
   <v>      -0.06689856       0.07002808      -0.20975153 </v>
   <v>      -0.05644864       0.06920453       0.24004356 </v>
   <v>       0.05062028      -0.07132691      -0.18394178 </v>
   <v>       0.09605486      -0.09777925       0.19521526 </v>
  </varray>
  <varray name="stress" >
   <v>       0.08702431      -0.08583825       0.15067921 </v>
   <v>      -0.08583818       0.16298526      -0.24084037 </v>
   <v>       0.15067920      -0.24084017      -1.11735255 </v>
  </varray>
  <energy>
   <i name="e_fr_energy">   -191.70383620 </i>
   <i name="e_wo_entrp">   -191.61942057 </i>
   <i name="e_0_energy">     -0.16883127 </i>
  </energy>
  <time name="totalsc">  287.75  288.51</time>
 </calculation>
 <calculation>
  <scstep>
   <time name="dav">   21.83   21.88</time>
   <time name="total">   22.33   22.38</time>
   <energy>
    <i name="alphaZ">     90.13079549 </i>
    <i name="ewald">  44630.32523294 </i>
    <i name="hartreedc"> -50639.67921569 </i>
    <i name="XCdc">   -233.46918312 </i>
    <i name="pawpsdc">   4086.19234177 </i>
    <i name="pawaedc">  -3502.12294646 </i>
    <i name="eentropy">     -0.16268131 </i>
    <i name="bandstr">  -1384.48723438 </i>
    <i name="atom">   6761.44252427 </i>
    <i name="e_fr_energy">   -191.83036649 </i>
    <i name="e_wo_entrp">   -191.66768519 </i>
    <i name="e_0_energy">   -191.74902584 </i>
   </energy>
  </scstep>
  <scstep>
   <time name="dav">   31.36   31.44</time>
   <time name="total">   31.87   31.95</time>
   <energy>
    <i name="e_fr_energy">   -191.87616007 </i>
    <i name="e_wo_entrp">   -191.70128597 </i>
    <i name="e_0_energy">   -191.78872302 </i>
   </energy>
  </scstep>
  <scstep>
   <time name="dav">   30.99   31.06</time>
   <time name="total">   31.49   31.57</time>
   <energy>
    <i name="e_fr_energy">   -191.85125430 </i>
    <i name="e_wo_entrp">   -191.68993778 </i>
    <i name="e_0_energy">   -191.77059604 </i>
   </energy>
  </scstep>
  <scstep>
   <time name="dav">   29.17   29.24</time>
   <time name="total">   29.67   29.75</time>
   <energy>
    <i name="e_fr_energy">   -191.84764048 </i>
    <i name="e_wo_entrp">   -191.68316096 </i>
    <i name="e_0_energy">   -191.76540072 </i>
   </energy>
  </scstep>
  <scstep>
   <time name="dav">   30.13   30.20</time>
   <time name="total">   30.64   30.72</time>
   <energy>
    <i name="e_fr_energy">   -191.84716254 </i>
    <i name="e_wo_entrp">   -191.68299917 </i>
    <i name="e_0_energy">   -191.76508086 </i>
   </energy>
  </scstep>
  <scstep>
   <time name="dav">   29.79   29.86</time>
   <time name="total">   30.29   30.37</time>
   <energy>
    <i name="e_fr_energy">   -191.84618327 </i>
    <i name="e_wo_entrp">   -191.68203419 </i>
    <i name="e_0_energy">   -191.76410873 </i>
   </energy>
  </scstep>
  <scstep>
   <time name="dav">   26.20   26.26</time>
   <time name="total">   26.70   26.77</time>
   <energy>
    <i name="e_fr_energy">   -191.84525412 </i>
    <i name="e_wo_entrp">   -191.68111714 </i>
    <i name="e_0_energy">   -191.76318563 </i>
   </energy>
  </scstep>
  <scstep>
   <time name="dav">   20.74   20.79</time>
   <time name="total">   20.78   20.84</time>
   <energy>
    <i name="alphaZ">     90.13079549 </i>
    <i name="ewald">  44630.32523294 </i>
    <i name="hartreedc"> -50641.24255257 </i>
    <i name="XCdc">   -233.40662217 </i>
    <i name="pawpsdc">   4088.51520379 </i>
    <i name="pawaedc">  -3504.46726920 </i>
    <i name="eentropy">     -0.16399801 </i>
    <i name="bandstr">  -1382.97858907 </i>
    <i name="atom">   6761.44252427 </i>
    <i name="e_fr_energy">   -191.84527453 </i>
    <i name="e_wo_entrp">   -191.68127652 </i>
[...]
      <set comment="kpoint 31">
       <r>  -17.5257    1.0000 </r>
       <r>  -17.3031    1.0000 </r>
       <r>  -16.9094    1.0000 </r>
       <r>  -16.7041    1.0000 </r>
       <r>  -16.4953    1.0000 </r>
       <r>  -16.4349    1.0000 </r>
       <r>  -16.3346    1.0000 </r>
       <r>  -16.2462    1.0000 </r>
       <r>  -16.0649    1.0000 </r>
       <r>  -15.9977    1.0000 </r>
       <r>  -15.9587    1.0000 </r>
       <r>  -15.8639    1.0000 </r>
       <r>  -15.7737    1.0000 </r>
       <r>  -15.6784    1.0000 </r>
       <r>  -15.6029    1.0000 </r>
       <r>  -15.5557    1.0000 </r>
       <r>  -15.3181    1.0000 </r>
       <r>  -15.2401    1.0000 </r>
       <r>   -9.8041    1.0000 </r>
       <r>   -9.5102    1.0000 </r>
       <r>   -9.2794    1.0000 </r>
       <r>   -9.0122    1.0000 </r>
       <r>   -8.9117    1.0000 </r>
       <r>   -8.6842    1.0000 </r>
       <r>   -8.5409    1.0000 </r>
       <r>   -8.4589    1.0000 </r>
       <r>   -8.4044    1.0000 </r>
       <r>   -8.3219    1.0000 </r>
       <r>   -8.2919    1.0000 </r>
       <r>   -8.2160    1.0000 </r>
       <r>   -8.1570    1.0000 </r>
       <r>   -8.1074    1.0000 </r>
       <r>   -8.0353    1.0000 </r>
       <r>   -7.8812    1.0000 </r>
       <r>   -7.7662    1.0000 </r>
       <r>   -7.7084    1.0000 </r>
       <r>   -7.6292    1.0000 </r>
       <r>   -7.3955    1.0000 </r>
       <r>   -7.3593    1.0000 </r>
       <r>   -7.2210    1.0000 </r>
       <r>   -7.1684    1.0000 </r>
       <r>   -7.1162    1.0000 </r>
       <r>   -7.0706    1.0000 </r>
       <r>   -6.8619    1.0000 </r>
       <r>   -6.8456    1.0000 </r>
       <r>   -6.7776    1.0000 </r>
       <r>   -6.6288    1.0000 </r>
       <r>   -6.5996    1.0000 </r>
       <r>   -6.5351    1.0000 </r>
       <r>   -6.4881    1.0000 </r>
       <r>   -6.4114    1.0000 </r>
       <r>   -6.3806    1.0000 </r>
       <r>   -6.2570    1.0000 </r>
       <r>   -6.2090    1.0000 </r>
       <r>   -6.1249    1.0000 </r>
       <r>   -6.0586    1.0000 </r>
       <r>   -6.0139    1.0000 </r>
       <r>   -5.9316    1.0000 </r>
       <r>   -5.8795    1.0000 </r>
       <r>   -5.7676    1.0000 </r>
       <r>   -5.6576    1.0000 </r>
       <r>   -5.5786    1.0000 </r>
       <r>   -5.4975    1.0000 </r>
       <r>   -5.4246    1.0000 </r>
       <r>   -5.3021    1.0000 </r>
       <r>   -5.2055    1.0000 </r>
       <r>   -5.0789    1.0000 </r>
       <r>   -4.8342    1.0000 </r>
       <r>   -4.8142    1.0000 </r>
       <r>   -4.5817    1.0000 </r>
       <r>   -4.5614    1.0000 </r>
       <r>   -4.4630    1.0000 </r>
       <r>   -4.3536    1.0000 </r>
       <r>   -4.2504    1.0000 </r>
       <r>   -4.1554    1.0000 </r>
       <r>   -4.0954    1.0000 </r>
       <r>   -4.0103    1.0000 </r>
       <r>   -3.6873    0.9995 </r>
       <r>   -3.5384    0.9871 </r>
       <r>   -3.1030    0.1978 </r>
       <r>   -2.9649    0.0339 </r>
       <r>   -2.7955    0.0012 </r>
       <r>   -2.6758    0.0001 </r>
       <r>   -2.5568    0.0000 </r>
       <r>   -2.4657    0.0000 </r>
       <r>   -2.3737    0.0000 </r>
       <r>   -2.0740    0.0000 </r>
       <r>   -2.0316    0.0000 </r>
       <r>   -1.9992    0.0000 </r>
       <r>   -1.8698    0.0000 </r>
       <r>   -1.6979    0.0000 </r>
       <r>   -1.5863    0.0000 </r>
       <r>   -1.5082    0.0000 </r>
       <r>   -1.4325    0.0000 </r>
       <r>   -1.3219    0.0000 </r>
       <r>   -1.1940    0.0000 </r>
       <r>   -1.0719    0.0000 </r>
       <r>   -1.0448    0.0000 </r>
       <r>   -0.9701    0.0000 </r>
       <r>   -0.8920    0.0000 </r>
       <r>   -0.8393    0.0000 </r>
       <r>   -0.7027    0.0000 </r>
       <r>   -0.6510    0.0000 </r>
       <r>   -0.6210    0.0000 </r>
       <r>   -0.4417    0.0000 </r>
       <r>   -0.2971    0.0000 </r>
       <r>   -0.1648    0.0000 </r>
       <r>   -0.0145    0.0000 </r>
       <r>    0.0448    0.0000 </r>
       <r>    0.1205    0.0000 </r>
       <r>    0.4514    0.0000 </r>
       <r>    0.7129    0.0000 </r>
       <r>    0.8045    0.0000 </r>
       <r>    0.9025    0.0000 </r>
       <r>    1.0635    0.0000 </r>
       <r>    1.2129    0.0000 </r>
       <r>    1.2849    0.0000 </r>
       <r>    2.1318    0.0000 </r>
       <r>    2.3172    0.0000 </r>
       <r>    2.3812    0.0000 </r>
      </set>
      <set comment="kpoint 32">
       <r>  -17.5364    1.0000 </r>
       <r>  -17.2270    1.0000 </r>
       <r>  -17.0324    1.0000 </r>
       <r>  -16.6972    1.0000 </r>
       <r>  -16.4594    1.0000 </r>
       <r>  -16.3720    1.0000 </r>
       <r>  -16.3291    1.0000 </r>
       <r>  -16.2489    1.0000 </r>
       <r>  -16.1226    1.0000 </r>
       <r>  -16.0440    1.0000 </r>
       <r>  -15.9425    1.0000 </r>
       <r>  -15.8559    1.0000 </r>
       <r>  -15.7749    1.0000 </r>
       <r>  -15.6788    1.0000 </r>
       <r>  -15.5722    1.0000 </r>
       <r>  -15.5159    1.0000 </r>
       <r>  -15.3521    1.0000 </r>
       <r>  -15.2436    1.0000 </r>
       <r>   -9.7485    1.0000 </r>
       <r>   -9.5775    1.0000 </r>
       <r>   -9.3968    1.0000 </r>
       <r>   -8.9729    1.0000 </r>
       <r>   -8.7393    1.0000 </r>
       <r>   -8.6282    1.0000 </r>
       <r>   -8.5318    1.0000 </r>
       <r>   -8.4616    1.0000 </r>
       <r>   -8.4111    1.0000 </r>
       <r>   -8.3797    1.0000 </r>
       <r>   -8.3041    1.0000 </r>
       <r>   -8.2452    1.0000 </r>
       <r>   -8.1344    1.0000 </r>
       <r>   -8.1032    1.0000 </r>
       <r>   -8.0476    1.0000 </r>
       <r>   -7.9176    1.0000 </r>
       <r>   -7.7992    1.0000 </r>
       <r>   -7.7749    1.0000 </r>
       <r>   -7.6252    1.0000 </r>
       <r>   -7.4360    1.0000 </r>
       <r>   -7.3492    1.0000 </r>
       <r>   -7.2434    1.0000 </r>
       <r>   -7.1984    1.0000 </r>
       <r>   -7.1414    1.0000 </r>
       <r>   -7.0246    1.0000 </r>
       <r>   -6.8829    1.0000 </r>
       <r>   -6.8423    1.0000 </r>
       <r>   -6.7193    1.0000 </r>
       <r>   -6.6572    1.0000 </r>
       <r>   -6.5970    1.0000 </r>
       <r>   -6.5153    1.0000 </r>
       <r>   -6.4564    1.0000 </r>
       <r>   -6.4009    1.0000 </r>
       <r>   -6.3600    1.0000 </r>
       <r>   -6.2658    1.0000 </r>
       <r>   -6.2259    1.0000 </r>
       <r>   -6.1319    1.0000 </r>
       <r>   -6.0228    1.0000 </r>
       <r>   -5.9690    1.0000 </r>
       <r>   -5.8831    1.0000 </r>
       <r>   -5.8451    1.0000 </r>
       <r>   -5.7035    1.0000 </r>
       <r>   -5.6188    1.0000 </r>
       <r>   -5.5799    1.0000 </r>
       <r>   -5.5007    1.0000 </r>
       <r>   -5.4167    1.0000 </r>
       <r>   -5.3706    1.0000 </r>
       <r>   -5.1957    1.0000 </r>
       <r>   -5.1451    1.0000 </r>
       <r>   -4.8647    1.0000 </r>
       <r>   -4.7562    1.0000 </r>
       <r>   -4.6589    1.0000 </r>
       <r>   -4.5074    1.0000 </r>
       <r>   -4.4675    1.0000 </r>
       <r>   -4.4029    1.0000 </r>
       <r>   -4.2658    1.0000 </r>
       <r>   -4.1959    1.0000 </r>
       <r>   -4.0954    1.0000 </r>
       <r>   -3.9332    1.0000 </r>
       <r>   -3.6722    0.9993 </r>
       <r>   -3.5316    0.9854 </r>
       <r>   -3.1574    0.3210 </r>
       <r>   -2.9068    0.0126 </r>
       <r>   -2.8309    0.0028 </r>
       <r>   -2.7239    0.0002 </r>
       <r>   -2.5695    0.0000 </r>
       <r>   -2.5092    0.0000 </r>
       <r>   -2.3688    0.0000 </r>
       <r>   -2.1155    0.0000 </r>
       <r>   -2.0643    0.0000 </r>
       <r>   -2.0115    0.0000 </r>
       <r>   -1.9379    0.0000 </r>
       <r>   -1.6977    0.0000 </r>
       <r>   -1.5364    0.0000 </r>
       <r>   -1.4321    0.0000 </r>
       <r>   -1.4009    0.0000 </r>
       <r>   -1.2822    0.0000 </r>
       <r>   -1.1809    0.0000 </r>
       <r>   -1.0785    0.0000 </r>
       <r>   -0.9841    0.0000 </r>
       <r>   -0.9543    0.0000 </r>
       <r>   -0.8630    0.0000 </r>
       <r>   -0.7968    0.0000 </r>
       <r>   -0.7360    0.0000 </r>
       <r>   -0.6521    0.0000 </r>
       <r>   -0.6330    0.0000 </r>
       <r>   -0.4919    0.0000 </r>
       <r>   -0.3439    0.0000 </r>
       <r>   -0.2232    0.0000 </r>
       <r>   -0.0331    0.0000 </r>
       <r>    0.0361    0.0000 </r>
       <r>    0.1842    0.0000 </r>
       <r>    0.4839    0.0000 </r>
       <r>    0.5962    0.0000 </r>
       <r>    0.8256    0.0000 </r>
       <r>    0.9175    0.0000 </r>
       <r>    1.0623    0.0000 </r>
       <r>    1.1860    0.0000 </r>
       <r>    1.3983    0.0000 </r>
       <r>    2.1097    0.0000 </r>
       <r>    2.2801    0.0000 </r>
       <r>    2.5803    0.0000 </r>
      </set>
      <set comment="kpoint 33">
       <r>  -17.5112    1.0000 </r>
       <r>  -17.3056    1.0000 </r>
       <r>  -16.9301    1.0000 </r>
       <r>  -16.6879    1.0000 </r>
       <r>  -16.5005    1.0000 </r>
       <r>  -16.4762    1.0000 </r>
       <r>  -16.3356    1.0000 </r>
       <r>  -16.1891    1.0000 </r>
       <r>  -16.1452    1.0000 </r>
       <r>  -16.0631    1.0000 </r>
       <r>  -15.8745    1.0000 </r>
       <r>  -15.8253    1.0000 </r>
       <r>  -15.7794    1.0000 </r>
       <r>  -15.6791    1.0000 </r>
       <r>  -15.5757    1.0000 </r>
       <r>  -15.4760    1.0000 </r>
       <r>  -15.3655    1.0000 </r>
       <r>  -15.2833    1.0000 </r>
       <r>   -9.7893    1.0000 </r>
       <r>   -9.4685    1.0000 </r>
       <r>   -9.3836    1.0000 </r>
       <r>   -8.9411    1.0000 </r>
       <r>   -8.8204    1.0000 </r>
       <r>   -8.7365    1.0000 </r>
       <r>   -8.6185    1.0000 </r>
       <r>   -8.5679    1.0000 </r>
       <r>   -8.4329    1.0000 </r>
       <r>   -8.3217    1.0000 </r>
       <r>   -8.2592    1.0000 </r>
       <r>   -8.1729    1.0000 </r>
       <r>   -8.1143    1.0000 </r>
       <r>   -8.0581    1.0000 </r>
       <r>   -7.9640    1.0000 </r>
       <r>   -7.8989    1.0000 </r>
       <r>   -7.8345    1.0000 </r>
       <r>   -7.7799    1.0000 </r>
       <r>   -7.6202    1.0000 </r>
       <r>   -7.4653    1.0000 </r>
       <r>   -7.3762    1.0000 </r>
       <r>   -7.3169    1.0000 </r>
       <r>   -7.1420    1.0000 </r>
       <r>   -7.0690    1.0000 </r>
       <r>   -6.9653    1.0000 </r>
       <r>   -6.8824    1.0000 </r>
       <r>   -6.8383    1.0000 </r>
       <r>   -6.7690    1.0000 </r>
       <r>   -6.6973    1.0000 </r>
       <r>   -6.5673    1.0000 </r>
       <r>   -6.5158    1.0000 </r>
       <r>   -6.5025    1.0000 </r>
       <r>   -6.4148    1.0000 </r>
       <r>   -6.3357    1.0000 </r>
       <r>   -6.2655    1.0000 </r>
       <r>   -6.2275    1.0000 </r>
       <r>   -6.0755    1.0000 </r>
       <r>   -6.0154    1.0000 </r>
       <r>   -5.9892    1.0000 </r>
       <r>   -5.9578    1.0000 </r>
       <r>   -5.8710    1.0000 </r>
       <r>   -5.6953    1.0000 </r>
       <r>   -5.6449    1.0000 </r>
       <r>   -5.5646    1.0000 </r>
       <r>   -5.5170    1.0000 </r>
       <r>   -5.4014    1.0000 </r>
       <r>   -5.2810    1.0000 </r>
       <r>   -5.2181    1.0000 </r>
       <r>   -4.9596    1.0000 </r>
       <r>   -4.8758    1.0000 </r>
       <r>   -4.8016    1.0000 </r>
       <r>   -4.7152    1.0000 </r>
       <r>   -4.5479    1.0000 </r>
       <r>   -4.4690    1.0000 </r>
       <r>   -4.3796    1.0000 </r>
       <r>   -4.2763    1.0000 </r>
       <r>   -4.1531    1.0000 </r>
       <r>   -4.1088    1.0000 </r>
       <r>   -3.8406    1.0000 </r>
       <r>   -3.7230    0.9998 </r>
       <r>   -3.5775    0.9939 </r>
       <r>   -3.1523    0.3081 </r>
       <r>   -2.9687    0.0360 </r>
       <r>   -2.8553    0.0046 </r>
       <r>   -2.7232    0.0002 </r>
       <r>   -2.6077    0.0000 </r>
       <r>   -2.5308    0.0000 </r>
       <r>   -2.3565    0.0000 </r>
       <r>   -2.1676    0.0000 </r>
       <r>   -2.0973    0.0000 </r>
       <r>   -2.0201    0.0000 </r>
       <r>   -1.9281    0.0000 </r>
       <r>   -1.7100    0.0000 </r>
       <r>   -1.5109    0.0000 </r>
       <r>   -1.3588    0.0000 </r>
       <r>   -1.3370    0.0000 </r>
       <r>   -1.2520    0.0000 </r>
       <r>   -1.1822    0.0000 </r>
       <r>   -1.0794    0.0000 </r>
       <r>   -0.9724    0.0000 </r>
       <r>   -0.8916    0.0000 </r>
       <r>   -0.8566    0.0000 </r>
       <r>   -0.7807    0.0000 </r>
       <r>   -0.7527    0.0000 </r>
       <r>   -0.6767    0.0000 </r>
       <r>   -0.6289    0.0000 </r>
       <r>   -0.4959    0.0000 </r>
       <r>   -0.3963    0.0000 </r>
       <r>   -0.3263    0.0000 </r>
       <r>   -0.0639    0.0000 </r>
       <r>   -0.0210    0.0000 </r>
       <r>    0.2449    0.0000 </r>
       <r>    0.4596    0.0000 </r>
       <r>    0.5820    0.0000 </r>
       <r>    0.8840    0.0000 </r>
       <r>    0.9475    0.0000 </r>
       <r>    1.0514    0.0000 </r>
       <r>    1.2006    0.0000 </r>
       <r>    1.5237    0.0000 </r>
       <r>    2.1482    0.0000 </r>
       <r>    2.3080    0.0000 </r>
       <r>    2.4152    0.0000 </r>
      </set>
      <set comment="kpoint 34">
       <r>  -17.4744    1.0000 </r>
       <r>  -17.3780    1.0000 </r>
       <r>  -16.7951    1.0000 </r>
       <r>  -16.6804    1.0000 </r>
       <r>  -16.6467    1.0000 </r>
       <r>  -16.4926    1.0000 </r>
       <r>  -16.3205    1.0000 </r>
       <r>  -16.1875    1.0000 </r>
       <r>  -16.1500    1.0000 </r>
       <r>  -16.0547    1.0000 </r>
       <r>  -15.8235    1.0000 </r>
       <r>  -15.8215    1.0000 </r>
       <r>  -15.7776    1.0000 </r>
       <r>  -15.6800    1.0000 </r>
       <r>  -15.5804    1.0000 </r>
       <r>  -15.4624    1.0000 </r>
       <r>  -15.3533    1.0000 </r>
       <r>  -15.3244    1.0000 </r>
       <r>   -9.8191    1.0000 </r>
       <r>   -9.3752    1.0000 </r>
       <r>   -9.3153    1.0000 </r>
       <r>   -8.9681    1.0000 </r>
       <r>   -8.9362    1.0000 </r>
       <r>   -8.8149    1.0000 </r>
       <r>   -8.6683    1.0000 </r>
       <r>   -8.5937    1.0000 </r>
       <r>   -8.4329    1.0000 </r>
       <r>   -8.2997    1.0000 </r>
       <r>   -8.2325    1.0000 </r>
       <r>   -8.1515    1.0000 </r>
       <r>   -8.1025    1.0000 </r>
       <r>   -8.0190    1.0000 </r>
       <r>   -7.9176    1.0000 </r>
       <r>   -7.8676    1.0000 </r>
       <r>   -7.8506    1.0000 </r>
       <r>   -7.7335    1.0000 </r>
       <r>   -7.6139    1.0000 </r>
       <r>   -7.5152    1.0000 </r>
       <r>   -7.4004    1.0000 </r>
       <r>   -7.3445    1.0000 </r>
       <r>   -7.1166    1.0000 </r>
       <r>   -7.0420    1.0000 </r>
       <r>   -6.9856    1.0000 </r>
       <r>   -6.8646    1.0000 </r>
       <r>   -6.8194    1.0000 </r>
       <r>   -6.7059    1.0000 </r>
       <r>   -6.6182    1.0000 </r>
       <r>   -6.6009    1.0000 </r>
       <r>   -6.5406    1.0000 </r>
       <r>   -6.5093    1.0000 </r>
       <r>   -6.4328    1.0000 </r>
       <r>   -6.3895    1.0000 </r>
       <r>   -6.2846    1.0000 </r>
       <r>   -6.2575    1.0000 </r>
       <r>   -6.1792    1.0000 </r>
       <r>   -6.0385    1.0000 </r>
       <r>   -5.9994    1.0000 </r>
       <r>   -5.8433    1.0000 </r>
       <r>   -5.8228    1.0000 </r>
       <r>   -5.8004    1.0000 </r>
       <r>   -5.6355    1.0000 </r>
       <r>   -5.5955    1.0000 </r>
       <r>   -5.4877    1.0000 </r>
       <r>   -5.4154    1.0000 </r>
       <r>   -5.2144    1.0000 </r>
       <r>   -5.1178    1.0000 </r>
       <r>   -4.9966    1.0000 </r>
       <r>   -4.9075    1.0000 </r>
       <r>   -4.8305    1.0000 </r>
       <r>   -4.6013    1.0000 </r>
       <r>   -4.5607    1.0000 </r>
       <r>   -4.5263    1.0000 </r>
       <r>   -4.3158    1.0000 </r>
       <r>   -4.2842    1.0000 </r>
       <r>   -4.2151    1.0000 </r>
       <r>   -4.0757    1.0000 </r>
       <r>   -3.7979    1.0000 </r>
       <r>   -3.7435    0.9999 </r>
       <r>   -3.6290    0.9979 </r>
       <r>   -3.1178    0.2282 </r>
       <r>   -3.0043    0.0608 </r>
       <r>   -2.9056    0.0124 </r>
       <r>   -2.6985    0.0001 </r>
       <r>   -2.6310    0.0000 </r>
       <r>   -2.5339    0.0000 </r>
       <r>   -2.3517    0.0000 </r>
       <r>   -2.1933    0.0000 </r>
       <r>   -2.1126    0.0000 </r>
       <r>   -2.0097    0.0000 </r>
       <r>   -1.9167    0.0000 </r>
       <r>   -1.7173    0.0000 </r>
       <r>   -1.5019    0.0000 </r>
       <r>   -1.3308    0.0000 </r>
       <r>   -1.3025    0.0000 </r>
       <r>   -1.2389    0.0000 </r>
       <r>   -1.1794    0.0000 </r>
       <r>   -1.0843    0.0000 </r>
       <r>   -0.9813    0.0000 </r>
       <r>   -0.8948    0.0000 </r>
       <r>   -0.8362    0.0000 </r>
       <r>   -0.7950    0.0000 </r>
       <r>   -0.7413    0.0000 </r>
       <r>   -0.6314    0.0000 </r>
       <r>   -0.6054    0.0000 </r>
       <r>   -0.5760    0.0000 </r>
       <r>   -0.4257    0.0000 </r>
       <r>   -0.3337    0.0000 </r>
       <r>   -0.0951    0.0000 </r>
       <r>   -0.0593    0.0000 </r>
       <r>    0.2681    0.0000 </r>
       <r>    0.4443    0.0000 </r>
       <r>    0.5938    0.0000 </r>
       <r>    0.9317    0.0000 </r>
       <r>    0.9555    0.0000 </r>
       <r>    1.0357    0.0000 </r>
       <r>    1.2249    0.0000 </r>
       <r>    1.5790    0.0000 </r>
       <r>    2.2319    0.0000 </r>
       <r>    2.2699    0.0000 </r>
       <r>    2.3941    0.0000 </r>
      </set>
     </set>
    </set>
   </array>
  </eigenvalues>
  <separator name="orbital magnetization" >
   <v name="MAGDIPOLOUT">      0.00000000      0.00000000      0.00000000</v>
  </separator>
 </calculation>
 <structure name="finalpos" >
  <crystal>
   <varray name="basis" >
    <v>       8.30638715       4.80232851       0.00000000 </v>
    <v>      -8.31914039       4.82445779       0.00000000 </v>
    <v>       0.00000000       0.00000000      30.00000000 </v>
   </varray>
   <i name="volume">   2400.75177731 </i>
   <varray name="rec_basis" >
    <v>       0.06028684       0.10395669       0.00000000 </v>
    <v>      -0.06001031       0.10379733       0.00000000 </v>
    <v>       0.00000000       0.00000000       0.03333333 </v>
   </varray>
  </crystal>
  <varray name="positions" >
   <v>       0.64618792      -0.03963478      -0.00238018 </v>
   <v>       0.31673353      -0.03248153      -0.00145021 </v>
   <v>       0.35215185       0.37160128       0.00243347 </v>
   <v>       0.31260194       0.66261884      -0.00013456 </v>
   <v>       0.68638353       0.66669809      -0.00007742 </v>
   <v>      -0.00447356       0.66160975      -0.00026480 </v>
   <v>      -0.01560918      -0.03606305      -0.00134715 </v>
   <v>       1.01472756       0.37013108       0.00171746 </v>
   <v>       0.68688606       0.36850219       0.00143365 </v>
   <v>       0.11467719       0.22402562       0.95719787 </v>
   <v>       0.22582394       0.11345825       0.04369922 </v>
   <v>       0.10994125       0.55885143       0.94361880 </v>
   <v>       0.22436577       0.44702198       0.05536562 </v>
   <v>       0.11549346       0.88920679       0.94522108 </v>
   <v>       0.22189523       0.78097021       0.05387927 </v>
   <v>       0.44190722       0.22293765       0.95760039 </v>
   <v>       0.55543442       0.10816206       0.04238781 </v>
   <v>       0.44629105       0.55908112       0.94944939 </v>
   <v>       0.55511288       0.44662676       0.05496436 </v>
   <v>       0.44188814       0.88865959       0.94647784 </v>
   <v>       0.55283970       0.77290714       0.05019489 </v>
   <v>       0.77597863       0.21818316       0.95516653 </v>
   <v>       0.88428344       0.10945868       0.04311357 </v>
   <v>       0.78184633       0.55905856       0.94339109 </v>
   <v>       0.89024203       0.44740925       0.05724072 </v>
   <v>       0.77458451       0.88547613       0.94495666 </v>
   <v>       0.89001961       0.77373818       0.05614455 </v>
  </varray>
 </structure>
</modeling>
