   27   27  100    1
  0.9710400E+02  0.1002848E-08  0.1002848E-08  0.3000000E-08  0.5000000E-15
  1.000000000000000E-004
  CAR 
 unknown system                          
    159     34    120
 
  0.0000000E+00  0.0000000E+00  0.0000000E+00  0.1562500E-01
    1      -17.813277   1.000000
    2      -16.720581   1.000000
    3      -16.656312   1.000000
    4      -16.621599   1.000000
    5      -16.535474   1.000000
    6      -16.444462   1.000000
    7      -16.427704   1.000000
    8      -16.246372   1.000000
    9      -16.171792   1.000000
   10      -16.114856   1.000000
   11      -16.072958   1.000000
   12      -15.921551   1.000000
   13      -15.883576   1.000000
   14      -15.695105   1.000000
   15      -15.535006   1.000000
   16      -15.502537   1.000000
   17      -15.394616   1.000000
   18      -15.301543   1.000000
   19       -9.354454   1.000000
   20       -9.056239   1.000000
   21       -8.988379   1.000000
   22       -8.900615   1.000000
   23       -8.745306   1.000000
   24       -8.651480   1.000000
   25       -8.622281   1.000000
   26       -8.549093   1.000000
   27       -8.447459   1.000000
   28       -8.436542   1.000000
   29       -8.430748   1.000000
   30       -8.320511   1.000000
   31       -8.235454   1.000000
   32       -8.167328   1.000000
   33       -8.066963   1.000000
   34       -8.004311   1.000000
   35       -7.887294   1.000000
   36       -7.750366   1.000000
   37       -7.714386   1.000000
   38       -7.523345   1.000000
   39       -7.479553   1.000000
   40       -7.461511   1.000000
   41       -7.377333   1.000000
   42       -7.183175   1.000000
   43       -7.104437   1.000000
   44       -6.962130   1.000000
   45       -6.828613   1.000000
   46       -6.767163   1.000000
   47       -6.735554   1.000000
   48       -6.703889   1.000000
   49       -6.584640   1.000000
   50       -6.512456   1.000000
   51       -6.441979   1.000000
   52       -6.382531   1.000000
   53       -6.282511   1.000000
   54       -6.245753   1.000000
   55       -6.181617   1.000000
   56       -6.094184   1.000000
   57       -5.990890   1.000000
   58       -5.870752   1.000000
   59       -5.783957   1.000000
   60       -5.595571   1.000000
   61       -5.485032   1.000000
   62       -5.453722   1.000000
   63       -5.186371   1.000000
   64       -5.136637   1.000000
   65       -5.062032   1.000000
   66       -5.019118   1.000000
   67       -4.891011   1.000000
   68       -4.834910   1.000000
   69       -4.779912   1.000000
   70       -4.728327   1.000000
   71       -4.640860   1.000000
   72       -4.530471   1.000000
   73       -4.498662   1.000000
   74       -4.401611   1.000000
   75       -4.194443   1.000000
   76       -4.047972   1.000000
   77       -3.778147   0.999328
   78       -3.657223   0.990652
   79       -3.607377   0.977199
   80       -3.349981   0.571027
   81       -3.223923   0.238116
   82       -2.754597   0.000028
   83       -2.702018   0.000005
   84       -2.624240   0.000000
   85       -2.521156   0.000000
   86       -2.456763   0.000000
   87       -2.273493   0.000000
   88       -2.226184   0.000000
   89       -2.198827   0.000000
   90       -2.115205   0.000000
   91       -1.734546   0.000000
   92       -1.679599   0.000000
   93       -1.447029   0.000000
   94       -1.260947   0.000000
   95       -1.190398   0.000000
   96       -1.041364   0.000000
   97       -0.982737   0.000000
   98       -0.887966   0.000000
   99       -0.722073   0.000000
  100       -0.661707   0.000000
  101       -0.579122   0.000000
  102       -0.547942   0.000000
  103       -0.492956   0.000000
  104       -0.462473   0.000000
  105       -0.220289   0.000000
  106       -0.080529   0.000000
  107       -0.056510   0.000000
  108       -0.015507   0.000000
  109        0.190133   0.000000
  110        0.388771   0.000000
  111        0.469881   0.000000
  112        0.493016   0.000000
  113        0.607784   0.000000
  114        0.753638   0.000000
  115        0.851762   0.000000
  116        0.945707   0.000000
  117        1.249534   0.000000
  118        1.642239   0.000000
  119        1.834159   0.000000
  120        2.147911   0.000000
 
  0.1250000E+00  0.2775558E-16  0.0000000E+00  0.3125000E-01
    1      -17.788900   1.000000
    2      -16.808949   1.000000
    3      -16.716424   1.000000
    4      -16.615634   1.000000
    5      -16.513753   1.000000
    6      -16.461570   1.000000
    7      -16.366520   1.000000
    8      -16.255270   1.000000
    9      -16.189870   1.000000
   10      -16.074034   1.000000
   11      -16.019289   1.000000
   12      -15.909913   1.000000
   13      -15.861743   1.000000
   14      -15.711802   1.000000
   15      -15.551572   1.000000
   16      -15.500689   1.000000
   17      -15.396525   1.000000
   18      -15.306555   1.000000
   19       -9.355075   1.000000
   20       -9.175341   1.000000
   21       -9.040603   1.000000
   22       -9.005115   1.000000
   23       -8.755657   1.000000
   24       -8.720384   1.000000
   25       -8.629643   1.000000
   26       -8.519031   1.000000
   27       -8.488653   1.000000
   28       -8.414218   1.000000
   29       -8.323444   1.000000
   30       -8.270417   1.000000
   31       -8.198113   1.000000
   32       -8.122592   1.000000
   33       -8.005645   1.000000
   34       -7.926489   1.000000
   35       -7.809716   1.000000
   36       -7.714175   1.000000
   37       -7.660491   1.000000
   38       -7.555564   1.000000
   39       -7.509408   1.000000
   40       -7.489705   1.000000
   41       -7.348745   1.000000
   42       -7.174198   1.000000
   43       -7.105532   1.000000
   44       -7.018027   1.000000
   45       -6.887776   1.000000
   46       -6.809355   1.000000
   47       -6.704677   1.000000
   48       -6.625192   1.000000
   49       -6.544991   1.000000
   50       -6.504082   1.000000
   51       -6.439924   1.000000
   52       -6.402557   1.000000
   53       -6.300779   1.000000
   54       -6.248295   1.000000
   55       -6.175061   1.000000
   56       -6.101660   1.000000
   57       -5.953943   1.000000
   58       -5.894884   1.000000
   59       -5.764501   1.000000
   60       -5.584094   1.000000
   61       -5.558752   1.000000
   62       -5.443272   1.000000
   63       -5.325082   1.000000
   64       -5.287003   1.000000
   65       -5.051254   1.000000
   66       -4.939843   1.000000
   67       -4.894799   1.000000
   68       -4.855195   1.000000
   69       -4.754318   1.000000
   70       -4.676686   1.000000
   71       -4.574172   1.000000
   72       -4.562591   1.000000
   73       -4.442314   1.000000
   74       -4.357898   1.000000
   75       -4.174128   1.000000
   76       -4.091919   1.000000
   77       -3.824044   0.999793
   78       -3.726391   0.997749
   79       -3.627004   0.983735
   80       -3.308711   0.455081
   81       -3.220245   0.230140
   82       -2.721722   0.000010
   83       -2.678436   0.000002
   84       -2.618445   0.000000
   85       -2.515019   0.000000
   86       -2.440354   0.000000
   87       -2.244985   0.000000
   88       -2.210140   0.000000
   89       -2.185643   0.000000
   90       -2.093638   0.000000
   91       -1.763631   0.000000
   92       -1.650240   0.000000
   93       -1.443439   0.000000
   94       -1.270110   0.000000
   95       -1.183922   0.000000
   96       -1.046564   0.000000
   97       -0.989590   0.000000
   98       -0.907061   0.000000
   99       -0.784644   0.000000
  100       -0.743428   0.000000
  101       -0.647699   0.000000
  102       -0.568713   0.000000
  103       -0.541330   0.000000
  104       -0.465502   0.000000
  105       -0.254486   0.000000
  106       -0.128186   0.000000
  107       -0.045558   0.000000
  108        0.000922   0.000000
  109        0.167455   0.000000
  110        0.357578   0.000000
  111        0.465933   0.000000
  112        0.527674   0.000000
  113        0.631005   0.000000
  114        0.774773   0.000000
  115        0.903908   0.000000
  116        0.959702   0.000000
  117        1.239804   0.000000
  118        1.683676   0.000000
  119        1.874403   0.000000
  120        2.182514   0.000000
 
  0.2500000E+00  0.5551115E-16  0.0000000E+00  0.3125000E-01
    1      -17.717172   1.000000
    2      -17.015144   1.000000
    3      -16.714459   1.000000
    4      -16.661151   1.000000
    5      -16.571167   1.000000
    6      -16.411207   1.000000
    7      -16.322710   1.000000
    8      -16.226507   1.000000
    9      -16.159633   1.000000
   10      -16.057204   1.000000
   11      -15.941044   1.000000
   12      -15.870960   1.000000
   13      -15.796078   1.000000
   14      -15.746048   1.000000
   15      -15.595033   1.000000
   16      -15.493869   1.000000
   17      -15.403971   1.000000
   18      -15.320618   1.000000
   19       -9.487972   1.000000
   20       -9.289820   1.000000
   21       -9.182232   1.000000
   22       -9.060495   1.000000
   23       -8.848097   1.000000
   24       -8.769463   1.000000
   25       -8.590700   1.000000
   26       -8.525021   1.000000
   27       -8.445589   1.000000
   28       -8.397739   1.000000
   29       -8.283553   1.000000
   30       -8.212210   1.000000
   31       -8.121538   1.000000
   32       -8.053059   1.000000
   33       -7.903101   1.000000
   34       -7.815621   1.000000
   35       -7.752837   1.000000
   36       -7.669816   1.000000
   37       -7.608516   1.000000
   38       -7.528726   1.000000
   39       -7.459969   1.000000
   40       -7.424313   1.000000
   41       -7.288411   1.000000
   42       -7.196924   1.000000
   43       -7.113798   1.000000
   44       -7.026132   1.000000
   45       -6.923016   1.000000
   46       -6.814702   1.000000
   47       -6.691902   1.000000
   48       -6.620390   1.000000
   49       -6.548586   1.000000
   50       -6.472672   1.000000
   51       -6.417427   1.000000
   52       -6.353960   1.000000
   53       -6.329038   1.000000
   54       -6.215620   1.000000
   55       -6.165822   1.000000
   56       -6.102960   1.000000
   57       -5.931048   1.000000
   58       -5.902359   1.000000
   59       -5.770095   1.000000
   60       -5.691911   1.000000
   61       -5.618078   1.000000
   62       -5.539501   1.000000
   63       -5.512448   1.000000
   64       -5.424516   1.000000
   65       -5.224527   1.000000
   66       -4.861595   1.000000
   67       -4.810424   1.000000
   68       -4.766756   1.000000
   69       -4.714714   1.000000
   70       -4.641203   1.000000
   71       -4.588152   1.000000
   72       -4.493223   1.000000
   73       -4.360295   1.000000
   74       -4.296834   1.000000
   75       -4.267354   1.000000
   76       -4.078129   1.000000
   77       -3.940048   0.999993
   78       -3.805834   0.999666
   79       -3.636775   0.986341
   80       -3.286925   0.394779
   81       -3.187042   0.165236
   82       -2.692739   0.000004
   83       -2.629040   0.000000
   84       -2.561147   0.000000
   85       -2.490843   0.000000
   86       -2.401905   0.000000
   87       -2.203282   0.000000
   88       -2.187904   0.000000
   89       -2.112434   0.000000
   90       -2.025066   0.000000
   91       -1.777242   0.000000
   92       -1.619449   0.000000
   93       -1.442244   0.000000
   94       -1.308352   0.000000
   95       -1.175798   0.000000
   96       -1.097927   0.000000
   97       -1.027618   0.000000
   98       -0.988135   0.000000
   99       -0.909381   0.000000
  100       -0.877486   0.000000
  101       -0.732766   0.000000
  102       -0.636733   0.000000
  103       -0.590466   0.000000
  104       -0.494081   0.000000
  105       -0.388227   0.000000
  106       -0.195159   0.000000
  107       -0.069872   0.000000
  108        0.003319   0.000000
  109        0.127550   0.000000
  110        0.298924   0.000000
  111        0.439718   0.000000
  112        0.582071   0.000000
  113        0.656046   0.000000
  114        0.839634   0.000000
  115        0.957414   0.000000
  116        1.041724   0.000000
  117        1.266981   0.000000
  118        1.801453   0.000000
  119        1.988805   0.000000
  120        2.285159   0.000000
 
  0.3750000E+00  0.0000000E+00  0.0000000E+00  0.3125000E-01
    1      -17.604319   1.000000
    2      -17.220196   1.000000
    3      -16.730467   1.000000
    4      -16.669261   1.000000
    5      -16.621043   1.000000
    6      -16.405878   1.000000
    7      -16.303529   1.000000
    8      -16.202216   1.000000
    9      -16.079774   1.000000
   10      -16.006582   1.000000
   11      -15.921952   1.000000
   12      -15.860959   1.000000
   13      -15.805659   1.000000
   14      -15.707243   1.000000
   15      -15.618118   1.000000
   16      -15.487692   1.000000
   17      -15.415108   1.000000
   18      -15.338444   1.000000
   19       -9.673964   1.000000
   20       -9.353638   1.000000
   21       -9.244541   1.000000
   22       -9.056981   1.000000
   23       -8.933318   1.000000
   24       -8.813291   1.000000
   25       -8.503054   1.000000
   26       -8.482033   1.000000
   27       -8.436217   1.000000
   28       -8.340008   1.000000
   29       -8.292026   1.000000
   30       -8.229084   1.000000
   31       -8.112252   1.000000
   32       -8.027578   1.000000
   33       -7.876080   1.000000
   34       -7.827915   1.000000
   35       -7.758087   1.000000
   36       -7.701900   1.000000
   37       -7.571551   1.000000
   38       -7.429840   1.000000
   39       -7.387750   1.000000
   40       -7.282369   1.000000
   41       -7.196354   1.000000
   42       -7.155458   1.000000
   43       -7.058184   1.000000
   44       -6.962464   1.000000
   45       -6.898757   1.000000
   46       -6.785910   1.000000
   47       -6.683408   1.000000
   48       -6.644996   1.000000
   49       -6.545624   1.000000
   50       -6.455236   1.000000
   51       -6.404715   1.000000
   52       -6.358019   1.000000
   53       -6.322927   1.000000
   54       -6.201074   1.000000
   55       -6.108626   1.000000
   56       -6.016252   1.000000
   57       -5.994627   1.000000
   58       -5.933696   1.000000
   59       -5.855332   1.000000
   60       -5.818299   1.000000
   61       -5.751042   1.000000
   62       -5.636065   1.000000
   63       -5.586266   1.000000
   64       -5.526805   1.000000
   65       -5.230984   1.000000
   66       -4.900556   1.000000
   67       -4.814357   1.000000
   68       -4.730765   1.000000
   69       -4.698018   1.000000
   70       -4.658536   1.000000
   71       -4.572882   1.000000
   72       -4.460683   1.000000
   73       -4.361960   1.000000
   74       -4.276983   1.000000
   75       -4.221753   1.000000
   76       -4.096577   1.000000
   77       -3.977378   0.999998
   78       -3.816341   0.999746
   79       -3.617937   0.980947
   80       -3.307084   0.450523
   81       -3.149551   0.107809
   82       -2.689661   0.000004
   83       -2.611629   0.000000
   84       -2.475885   0.000000
   85       -2.446710   0.000000
   86       -2.355100   0.000000
   87       -2.190940   0.000000
   88       -2.138968   0.000000
   89       -2.020649   0.000000
   90       -1.945908   0.000000
   91       -1.740833   0.000000
   92       -1.600720   0.000000
   93       -1.461985   0.000000
   94       -1.376042   0.000000
   95       -1.224458   0.000000
   96       -1.204030   0.000000
   97       -1.121225   0.000000
   98       -1.051473   0.000000
   99       -1.017694   0.000000
  100       -0.898919   0.000000
  101       -0.772855   0.000000
  102       -0.697098   0.000000
  103       -0.605809   0.000000
  104       -0.583354   0.000000
  105       -0.464277   0.000000
  106       -0.241258   0.000000
  107       -0.135029   0.000000
  108       -0.038412   0.000000
  109        0.077406   0.000000
  110        0.250988   0.000000
  111        0.426539   0.000000
  112        0.575481   0.000000
  113        0.702434   0.000000
  114        0.884847   0.000000
  115        1.012609   0.000000
  116        1.101490   0.000000
  117        1.346381   0.000000
  118        1.980003   0.000000
  119        2.163878   0.000000
  120        2.440159   0.000000
 
  0.5000000E+00  0.1110223E-15  0.0000000E+00  0.1562500E-01
    1      -17.503220   1.000000
    2      -17.353717   1.000000
    3      -16.741295   1.000000
    4      -16.654272   1.000000
    5      -16.650259   1.000000
    6      -16.409467   1.000000
    7      -16.299094   1.000000
    8      -16.194191   1.000000
    9      -16.027182   1.000000
   10      -15.966490   1.000000
   11      -15.932901   1.000000
   12      -15.873830   1.000000
   13      -15.819764   1.000000
   14      -15.712667   1.000000
   15      -15.594042   1.000000
   16      -15.486993   1.000000
   17      -15.420895   1.000000
   18      -15.347450   1.000000
   19       -9.743841   1.000000
   20       -9.387898   1.000000
   21       -9.262656   1.000000
   22       -9.039734   1.000000
   23       -8.957481   1.000000
   24       -8.829842   1.000000
   25       -8.500569   1.000000
   26       -8.461390   1.000000
   27       -8.421380   1.000000
   28       -8.302663   1.000000
   29       -8.269364   1.000000
   30       -8.215994   1.000000
   31       -8.113753   1.000000
   32       -8.037601   1.000000
   33       -7.933074   1.000000
   34       -7.872376   1.000000
   35       -7.804667   1.000000
   36       -7.698375   1.000000
   37       -7.508892   1.000000
   38       -7.401006   1.000000
   39       -7.342804   1.000000
   40       -7.197240   1.000000
   41       -7.162718   1.000000
   42       -7.097249   1.000000
   43       -7.060104   1.000000
   44       -6.936339   1.000000
   45       -6.904224   1.000000
   46       -6.738910   1.000000
   47       -6.664668   1.000000
   48       -6.623890   1.000000
   49       -6.500430   1.000000
   50       -6.495930   1.000000
   51       -6.415771   1.000000
   52       -6.351075   1.000000
   53       -6.247353   1.000000
   54       -6.236598   1.000000
   55       -6.169328   1.000000
   56       -6.115886   1.000000
   57       -6.019802   1.000000
   58       -5.915326   1.000000
   59       -5.860413   1.000000
   60       -5.790656   1.000000
   61       -5.757529   1.000000
   62       -5.668983   1.000000
   63       -5.594084   1.000000
   64       -5.569143   1.000000
   65       -5.181343   1.000000
   66       -5.150021   1.000000
   67       -4.795637   1.000000
   68       -4.723653   1.000000
   69       -4.677225   1.000000
   70       -4.634398   1.000000
   71       -4.577511   1.000000
   72       -4.419520   1.000000
   73       -4.351042   1.000000
   74       -4.262890   1.000000
   75       -4.211762   1.000000
   76       -4.147543   1.000000
   77       -3.944229   0.999994
   78       -3.815035   0.999737
   79       -3.595454   0.972238
   80       -3.325319   0.501836
   81       -3.135916   0.090990
   82       -2.691774   0.000004
   83       -2.605154   0.000000
   84       -2.452687   0.000000
   85       -2.417536   0.000000
   86       -2.330484   0.000000
   87       -2.179817   0.000000
   88       -2.118620   0.000000
   89       -1.974179   0.000000
   90       -1.915331   0.000000
   91       -1.702255   0.000000
   92       -1.591856   0.000000
   93       -1.497931   0.000000
   94       -1.400812   0.000000
   95       -1.280753   0.000000
   96       -1.262703   0.000000
   97       -1.129634   0.000000
   98       -1.100016   0.000000
   99       -1.055579   0.000000
  100       -0.883854   0.000000
  101       -0.780388   0.000000
  102       -0.713777   0.000000
  103       -0.656671   0.000000
  104       -0.595142   0.000000
  105       -0.475197   0.000000
  106       -0.262339   0.000000
  107       -0.172742   0.000000
  108       -0.057251   0.000000
  109        0.053421   0.000000
  110        0.230808   0.000000
  111        0.421968   0.000000
  112        0.572874   0.000000
  113        0.716609   0.000000
  114        0.900329   0.000000
  115        1.036189   0.000000
  116        1.122739   0.000000
  117        1.384779   0.000000
  118        2.184882   0.000000
  119        2.229196   0.000000
  120        2.378779   0.000000
 
  0.0000000E+00  0.1250000E+00  0.0000000E+00  0.3125000E-01
    1      -17.789104   1.000000
    2      -16.763316   1.000000
    3      -16.716850   1.000000
    4      -16.667367   1.000000
    5      -16.541225   1.000000
    6      -16.424714   1.000000
    7      -16.386171   1.000000
    8      -16.261165   1.000000
    9      -16.170338   1.000000
   10      -16.084427   1.000000
   11      -16.019022   1.000000
   12      -15.915487   1.000000
   13      -15.843545   1.000000
   14      -15.705584   1.000000
   15      -15.555706   1.000000
   16      -15.488797   1.000000
   17      -15.396786   1.000000
   18      -15.318322   1.000000
   19       -9.358023   1.000000
   20       -9.140939   1.000000
   21       -9.087325   1.000000
   22       -8.989016   1.000000
   23       -8.766804   1.000000
   24       -8.684721   1.000000
   25       -8.658299   1.000000
   26       -8.563822   1.000000
   27       -8.471046   1.000000
   28       -8.432460   1.000000
   29       -8.333588   1.000000
   30       -8.276214   1.000000
   31       -8.194537   1.000000
   32       -8.067165   1.000000
   33       -8.014171   1.000000
   34       -7.901705   1.000000
   35       -7.788229   1.000000
   36       -7.764715   1.000000
   37       -7.668665   1.000000
   38       -7.573313   1.000000
   39       -7.506511   1.000000
   40       -7.402823   1.000000
   41       -7.335931   1.000000
   42       -7.196542   1.000000
   43       -7.119004   1.000000
   44       -6.981897   1.000000
   45       -6.935536   1.000000
   46       -6.840253   1.000000
   47       -6.701897   1.000000
   48       -6.648670   1.000000
   49       -6.609862   1.000000
   50       -6.509208   1.000000
   51       -6.426172   1.000000
   52       -6.339943   1.000000
   53       -6.288537   1.000000
   54       -6.221153   1.000000
   55       -6.175567   1.000000
   56       -6.095206   1.000000
   57       -5.969071   1.000000
   58       -5.873280   1.000000
   59       -5.748984   1.000000
   60       -5.592470   1.000000
   61       -5.541473   1.000000
   62       -5.428780   1.000000
   63       -5.333082   1.000000
   64       -5.175757   1.000000
   65       -5.076656   1.000000
   66       -5.064273   1.000000
   67       -4.941919   1.000000
   68       -4.867891   1.000000
   69       -4.760676   1.000000
   70       -4.694306   1.000000
   71       -4.602407   1.000000
   72       -4.518915   1.000000
   73       -4.439219   1.000000
   74       -4.346446   1.000000
   75       -4.162861   1.000000
   76       -4.003637   0.999999
   77       -3.817994   0.999757
   78       -3.737257   0.998235
   79       -3.605872   0.976617
   80       -3.461481   0.833331
   81       -3.091695   0.049741
   82       -2.773809   0.000049
   83       -2.704509   0.000006
   84       -2.597419   0.000000
   85       -2.544457   0.000000
   86       -2.422318   0.000000
   87       -2.282414   0.000000
   88       -2.202187   0.000000
   89       -2.178757   0.000000
   90       -2.086277   0.000000
   91       -1.761951   0.000000
   92       -1.660648   0.000000
   93       -1.428084   0.000000
   94       -1.263535   0.000000
   95       -1.194720   0.000000
   96       -1.044545   0.000000
   97       -0.984546   0.000000
   98       -0.901026   0.000000
   99       -0.788992   0.000000
  100       -0.709429   0.000000
  101       -0.618930   0.000000
  102       -0.573000   0.000000
  103       -0.545737   0.000000
  104       -0.405255   0.000000
  105       -0.253453   0.000000
  106       -0.193035   0.000000
  107       -0.058909   0.000000
  108       -0.040241   0.000000
  109        0.155399   0.000000
  110        0.394067   0.000000
  111        0.427073   0.000000
  112        0.545536   0.000000
  113        0.667076   0.000000
  114        0.735263   0.000000
  115        0.881859   0.000000
  116        0.994732   0.000000
  117        1.257823   0.000000
  118        1.686992   0.000000
  119        1.871624   0.000000
  120        2.183041   0.000000
 
  0.1250000E+00  0.1250000E+00  0.0000000E+00  0.3125000E-01
    1      -17.741180   1.000000
    2      -16.919049   1.000000
    3      -16.763139   1.000000
    4      -16.697320   1.000000
    5      -16.476468   1.000000
    6      -16.405243   1.000000
    7      -16.360407   1.000000
    8      -16.253367   1.000000
    9      -16.210255   1.000000
   10      -16.012458   1.000000
   11      -15.970306   1.000000
   12      -15.895241   1.000000
   13      -15.782628   1.000000
   14      -15.742046   1.000000
   15      -15.577235   1.000000
   16      -15.501478   1.000000
   17      -15.394242   1.000000
   18      -15.327853   1.000000
   19       -9.401249   1.000000
   20       -9.309746   1.000000
   21       -9.188977   1.000000
   22       -9.051695   1.000000
   23       -8.780934   1.000000
   24       -8.744542   1.000000
   25       -8.618568   1.000000
   26       -8.540039   1.000000
   27       -8.468902   1.000000
   28       -8.378502   1.000000
   29       -8.268418   1.000000
   30       -8.231075   1.000000
   31       -8.137983   1.000000
   32       -8.076232   1.000000
   33       -7.940850   1.000000
   34       -7.884378   1.000000
   35       -7.771768   1.000000
   36       -7.662675   1.000000
   37       -7.599970   1.000000
   38       -7.531778   1.000000
   39       -7.473733   1.000000
   40       -7.410328   1.000000
   41       -7.290886   1.000000
   42       -7.190747   1.000000
   43       -7.110191   1.000000
   44       -7.057724   1.000000
   45       -6.938777   1.000000
   46       -6.833957   1.000000
   47       -6.716009   1.000000
   48       -6.643653   1.000000
   49       -6.557659   1.000000
   50       -6.454776   1.000000
   51       -6.410025   1.000000
   52       -6.364611   1.000000
   53       -6.295269   1.000000
   54       -6.217934   1.000000
   55       -6.152687   1.000000
   56       -6.114672   1.000000
   57       -5.929454   1.000000
   58       -5.898718   1.000000
   59       -5.730415   1.000000
   60       -5.676422   1.000000
   61       -5.621547   1.000000
   62       -5.520809   1.000000
   63       -5.422040   1.000000
   64       -5.284337   1.000000
   65       -5.174994   1.000000
   66       -5.022986   1.000000
   67       -4.910525   1.000000
   68       -4.799849   1.000000
   69       -4.787461   1.000000
   70       -4.636443   1.000000
   71       -4.535713   1.000000
   72       -4.442510   1.000000
   73       -4.361027   1.000000
   74       -4.339285   1.000000
   75       -4.198223   1.000000
   76       -4.102427   1.000000
   77       -3.899648   0.999976
   78       -3.799742   0.999609
   79       -3.597783   0.973272
   80       -3.378530   0.648347
   81       -3.105229   0.060370
   82       -2.745817   0.000021
   83       -2.647221   0.000001
   84       -2.602895   0.000000
   85       -2.526412   0.000000
   86       -2.398711   0.000000
   87       -2.237402   0.000000
   88       -2.185147   0.000000
   89       -2.135745   0.000000
   90       -2.023175   0.000000
   91       -1.779134   0.000000
   92       -1.639018   0.000000
   93       -1.414196   0.000000
   94       -1.303129   0.000000
   95       -1.195411   0.000000
   96       -1.080537   0.000000
   97       -0.989142   0.000000
   98       -0.969401   0.000000
   99       -0.887086   0.000000
  100       -0.812414   0.000000
  101       -0.682734   0.000000
  102       -0.601526   0.000000
  103       -0.562373   0.000000
  104       -0.464694   0.000000
  105       -0.320431   0.000000
  106       -0.195941   0.000000
  107       -0.134551   0.000000
  108       -0.014931   0.000000
  109        0.157500   0.000000
  110        0.353136   0.000000
  111        0.435882   0.000000
  112        0.531829   0.000000
  113        0.683063   0.000000
  114        0.795047   0.000000
  115        0.952357   0.000000
  116        1.028869   0.000000
  117        1.238071   0.000000
  118        1.765832   0.000000
  119        1.948401   0.000000
  120        2.251423   0.000000
 
  0.2500000E+00  0.1250000E+00  0.0000000E+00  0.3125000E-01
    1      -17.648842   1.000000
    2      -17.111425   1.000000
    3      -16.847168   1.000000
    4      -16.684839   1.000000
    5      -16.463736   1.000000
    6      -16.392503   1.000000
    7      -16.320898   1.000000
    8      -16.239893   1.000000
    9      -16.171493   1.000000
   10      -15.989164   1.000000
   11      -15.915076   1.000000
   12      -15.866987   1.000000
   13      -15.789824   1.000000
   14      -15.701898   1.000000
   15      -15.613861   1.000000
   16      -15.515848   1.000000
   17      -15.392959   1.000000
   18      -15.337870   1.000000
   19       -9.578605   1.000000
   20       -9.430590   1.000000
   21       -9.249066   1.000000
   22       -9.095471   1.000000
   23       -8.812910   1.000000
   24       -8.746968   1.000000
   25       -8.533319   1.000000
   26       -8.497552   1.000000
   27       -8.411045   1.000000
   28       -8.355236   1.000000
   29       -8.299811   1.000000
   30       -8.196350   1.000000
   31       -8.126587   1.000000
   32       -8.079069   1.000000
   33       -7.948245   1.000000
   34       -7.860906   1.000000
   35       -7.776336   1.000000
   36       -7.633416   1.000000
   37       -7.554073   1.000000
   38       -7.490922   1.000000
   39       -7.386938   1.000000
   40       -7.281761   1.000000
   41       -7.206173   1.000000
   42       -7.178311   1.000000
   43       -7.097214   1.000000
   44       -7.015128   1.000000
   45       -6.905573   1.000000
   46       -6.786603   1.000000
   47       -6.703820   1.000000