       N       E                     dE             d eps       ncg     rms          rms(c)
DAV:   1     0.112456754274E+04    0.11246E+04   -0.35868E+04  8160   0.577E+02
DAV:   2    -0.187355778495E+01   -0.11264E+04   -0.10847E+04 11000   0.173E+02
DAV:   3    -0.199847321356E+03   -0.19797E+03   -0.18997E+03 11000   0.821E+01
DAV:   4    -0.208992064192E+03   -0.91447E+01   -0.88277E+01 12040   0.257E+01
DAV:   5    -0.209313161462E+03   -0.32110E+00   -0.32017E+00 11480   0.364E+00    0.275E+01
DAV:   6    -0.237228136293E+03   -0.27915E+02   -0.10604E+02 12440   0.605E+01    0.595E+01
DAV:   7    -0.196468250894E+03    0.40760E+02   -0.17629E+02 13400   0.152E+02    0.200E+01
DAV:   8    -0.189437771644E+03    0.70305E+01   -0.17581E+01 11800   0.127E+01    0.125E+01
DAV:   9    -0.188232579929E+03    0.12052E+01   -0.36043E+00 12480   0.614E+00    0.929E+00
DAV:  10    -0.187081047585E+03    0.11515E+01   -0.19995E+00 13280   0.736E+00    0.318E+00
DAV:  11    -0.187030881085E+03    0.50167E-01   -0.72327E-01 13520   0.318E+00    0.341E+00
DAV:  12    -0.187176674175E+03   -0.14579E+00   -0.11539E+00 12560   0.555E+00    0.487E+00
DAV:  13    -0.186930661900E+03    0.24601E+00   -0.49475E-01 13120   0.360E+00    0.218E+00
DAV:  14    -0.186882003041E+03    0.48659E-01   -0.11349E-01 13440   0.165E+00    0.752E-01
DAV:  15    -0.186883397451E+03   -0.13944E-02   -0.40072E-02 12440   0.114E+00    0.114E+00
DAV:  16    -0.186875194370E+03    0.82031E-02   -0.19457E-02 13240   0.788E-01    0.567E-01
DAV:  17    -0.186871807290E+03    0.33871E-02   -0.97159E-03 12600   0.518E-01    0.217E-01
DAV:  18    -0.186871626070E+03    0.18122E-03   -0.20807E-03 12040   0.149E-01    0.153E-01
DAV:  19    -0.186871275199E+03    0.35087E-03   -0.89886E-04 11040   0.103E-01    0.506E-02
DAV:  20    -0.186872034360E+03   -0.75916E-03   -0.73380E-04  9240   0.618E-02    0.531E-02
DAV:  21    -0.186872651031E+03   -0.61667E-03   -0.20833E-04  8240   0.450E-02    0.327E-02
DAV:  22    -0.186873760495E+03   -0.11095E-02   -0.18209E-04  7480   0.425E-02    0.337E-02
DAV:  23    -0.186874981366E+03   -0.12209E-02   -0.13120E-04  7480   0.413E-02    0.119E-02
DAV:  24    -0.186875565653E+03   -0.58429E-03   -0.25120E-05  6760   0.133E-02    0.799E-03
DAV:  25    -0.186875943497E+03   -0.37784E-03   -0.15642E-05  5480   0.119E-02    0.488E-03
DAV:  26    -0.186876164522E+03   -0.22103E-03   -0.84236E-06  6880   0.716E-03    0.207E-03
DAV:  27    -0.186876266114E+03   -0.10159E-03   -0.37937E-06  7000   0.414E-03    0.129E-03
DAV:  28    -0.186876316607E+03   -0.50492E-04   -0.20943E-06  7280   0.306E-03
   1 F= -.18687632E+03 E0= -.18670456E+03  d E =-.186876E+03
       N       E                     dE             d eps       ncg     rms          rms(c)
DAV:   1    -0.187498004535E+03   -0.62174E+00   -0.26980E+02  8160   0.349E+01    0.463E+00
DAV:   2    -0.189498917318E+03   -0.20009E+01   -0.20236E+01 12240   0.156E+01    0.990E+00
DAV:   3    -0.189331801501E+03    0.16712E+00   -0.49099E+00 12400   0.126E+01    0.623E+00
DAV:   4    -0.188767086115E+03    0.56472E+00   -0.54893E-01 11920   0.432E+00    0.202E+00
DAV:   5    -0.188894414927E+03   -0.12733E+00   -0.49205E-01 12400   0.389E+00    0.539E+00
DAV:   6    -0.188746264139E+03    0.14815E+00   -0.73631E-01 12760   0.430E+00    0.236E+00
DAV:   7    -0.188707005012E+03    0.39259E-01   -0.21019E-01 11720   0.219E+00    0.194E+00
DAV:   8    -0.188694334196E+03    0.12671E-01   -0.11790E-01 12880   0.210E+00    0.171E+00
DAV:   9    -0.188668640807E+03    0.25693E-01   -0.47033E-02 11880   0.113E+00    0.480E-01
DAV:  10    -0.188667282976E+03    0.13578E-02   -0.60071E-03 11280   0.263E-01    0.271E-01
DAV:  11    -0.188666537012E+03    0.74596E-03   -0.29560E-03 13200   0.230E-01    0.131E-01
DAV:  12    -0.188666587176E+03   -0.50164E-04   -0.98793E-04 12040   0.950E-02
   2 F= -.18866659E+03 E0= -.18852682E+03  d E =-.179027E+01
       N       E                     dE             d eps       ncg     rms          rms(c)
DAV:   1    -0.190581858656E+03   -0.19153E+01   -0.30768E+01  9200   0.141E+01    0.445E+00
DAV:   2    -0.190566084840E+03    0.15774E-01   -0.28044E+00 11000   0.966E+00    0.739E+00
DAV:   3    -0.190056642633E+03    0.50944E+00   -0.13015E+00 12280   0.865E+00    0.414E+00
DAV:   4    -0.189852137732E+03    0.20450E+00   -0.68352E-01 12760   0.411E+00    0.247E+00
DAV:   5    -0.189785740214E+03    0.66398E-01   -0.30758E-01 11120   0.233E+00    0.192E+00
DAV:   6    -0.189756506522E+03    0.29234E-01   -0.10152E-01 12640   0.190E+00    0.853E-01
DAV:   7    -0.189748935203E+03    0.75713E-02   -0.15049E-02 12600   0.596E-01    0.192E-01
DAV:   8    -0.189748970619E+03   -0.35416E-04   -0.26155E-03 11080   0.178E-01    0.156E-01
DAV:   9    -0.189749493129E+03   -0.52251E-03   -0.14713E-03 10840   0.266E-01    0.261E-01
DAV:  10    -0.189749236901E+03    0.25623E-03   -0.12739E-03 10360   0.234E-01    0.110E-01
DAV:  11    -0.189749057425E+03    0.17948E-03   -0.38314E-04  7880   0.792E-02    0.293E-02
DAV:  12    -0.189749068375E+03   -0.10950E-04   -0.76417E-05  7720   0.307E-02
   3 F= -.18974907E+03 E0= -.18963165E+03  d E =-.108248E+01
       N       E                     dE             d eps       ncg     rms          rms(c)
DAV:   1    -0.191290110105E+03   -0.15411E+01   -0.70401E+01  8160   0.192E+01    0.460E+00
DAV:   2    -0.191182202390E+03    0.10791E+00   -0.53599E+00 13400   0.839E+00    0.521E+00
DAV:   3    -0.191222957325E+03   -0.40755E-01   -0.15649E+00 11800   0.919E+00    0.678E+00
DAV:   4    -0.190900916094E+03    0.32204E+00   -0.15350E+00 12480   0.778E+00    0.407E+00
DAV:   5    -0.190889313553E+03    0.11603E-01   -0.85382E-01 11200   0.584E+00    0.359E+00
DAV:   6    -0.190707768859E+03    0.18154E+00   -0.20557E-01 11120   0.297E+00    0.605E-01
DAV:   7    -0.190706113055E+03    0.16558E-02   -0.37058E-02 11360   0.701E-01    0.455E-01
DAV:   8    -0.190703061814E+03    0.30512E-02   -0.77876E-03 10480   0.414E-01    0.254E-01
DAV:   9    -0.190702948515E+03    0.11330E-03   -0.20528E-03 12440   0.316E-01    0.197E-01
DAV:  10    -0.190703000256E+03   -0.51741E-04   -0.12028E-03 11520   0.185E-01    0.999E-02
DAV:  11    -0.190702901230E+03    0.99026E-04   -0.55775E-04  9640   0.867E-02
   4 F= -.19070290E+03 E0= -.19060440E+03  d E =-.953833E+00
       N       E                     dE             d eps       ncg     rms          rms(c)
DAV:   1    -0.192140737548E+03   -0.14377E+01   -0.15406E+02  8160   0.279E+01    0.591E+00
DAV:   2    -0.191983253125E+03    0.15748E+00   -0.10121E+01 12200   0.969E+00    0.564E+00
DAV:   3    -0.192445274026E+03   -0.46202E+00   -0.34683E+00 12240   0.129E+01    0.952E+00
DAV:   4    -0.191550833782E+03    0.89444E+00   -0.22367E+00 12280   0.107E+01    0.309E+00
DAV:   5    -0.191529561480E+03    0.21272E-01   -0.57791E-01 11800   0.514E+00    0.437E+00
DAV:   6    -0.191375766843E+03    0.15379E+00   -0.64486E-01 12200   0.536E+00    0.160E+00
DAV:   7    -0.191351218496E+03    0.24548E-01   -0.73467E-02 11920   0.147E+00    0.725E-01
DAV:   8    -0.191349438450E+03    0.17800E-02   -0.26366E-02 11960   0.116E+00    0.771E-01
DAV:   9    -0.191343535587E+03    0.59029E-02   -0.10337E-02 11440   0.762E-01    0.236E-01
DAV:  10    -0.191343674637E+03   -0.13905E-03   -0.29118E-03 11720   0.228E-01    0.123E-01
DAV:  11    -0.191343519083E+03    0.15555E-03   -0.92315E-04 10640   0.112E-01    0.665E-02
DAV:  12    -0.191343484338E+03    0.34745E-04   -0.14564E-04  7000   0.482E-02
   5 F= -.19134348E+03 E0= -.19125035E+03  d E =-.640583E+00
       N       E                     dE             d eps       ncg     rms          rms(c)
DAV:   1    -0.191393624693E+03   -0.50106E-01   -0.42921E+00  8160   0.439E+00    0.620E-01
DAV:   2    -0.191454294022E+03   -0.60669E-01   -0.24397E-01 12840   0.276E+00    0.232E+00
DAV:   3    -0.191404116202E+03    0.50178E-01   -0.11530E-01 12120   0.230E+00    0.525E-01
DAV:   4    -0.191404382498E+03   -0.26630E-03   -0.14922E-02 11440   0.831E-01    0.572E-01
DAV:   5    -0.191401029026E+03    0.33535E-02   -0.66617E-03 11440   0.592E-01    0.184E-01
DAV:   6    -0.191401105450E+03   -0.76423E-04   -0.21617E-03 11400   0.289E-01    0.224E-01
DAV:   7    -0.191401070918E+03    0.34531E-04   -0.23904E-03 11320   0.368E-01    0.204E-01
DAV:   8    -0.191400583963E+03    0.48696E-03   -0.82161E-04  9880   0.191E-01    0.291E-02
DAV:   9    -0.191400599919E+03   -0.15957E-04   -0.89176E-05  6040   0.363E-02
   6 F= -.19140060E+03 E0= -.19130508E+03  d E =-.571156E-01
       N       E                     dE             d eps       ncg     rms          rms(c)
DAV:   1    -0.191463019362E+03   -0.62435E-01   -0.81393E+00  8160   0.602E+00    0.796E-01
DAV:   2    -0.191554556421E+03   -0.91537E-01   -0.34431E-01 13080   0.310E+00    0.304E+00
DAV:   3    -0.191475594084E+03    0.78962E-01   -0.21964E-01 12080   0.298E+00    0.753E-01
DAV:   4    -0.191475258549E+03    0.33553E-03   -0.26850E-02 11600   0.111E+00    0.766E-01
DAV:   5    -0.191469315651E+03    0.59429E-02   -0.12598E-02 11640   0.807E-01    0.269E-01
DAV:   6    -0.191469404952E+03   -0.89301E-04   -0.45024E-03 11400   0.439E-01    0.331E-01
DAV:   7    -0.191468862526E+03    0.54243E-03   -0.41201E-03 11200   0.486E-01    0.222E-01
DAV:   8    -0.191468272158E+03    0.59037E-03   -0.11312E-03  9960   0.219E-01    0.402E-02
DAV:   9    -0.191468263473E+03    0.86851E-05   -0.12740E-04  6720   0.470E-02
   7 F= -.19146826E+03 E0= -.19137090E+03  d E =-.676636E-01
       N       E                     dE             d eps       ncg     rms          rms(c)
DAV:   1    -0.191510597760E+03   -0.42326E-01   -0.34665E+00  8160   0.397E+00    0.568E-01
DAV:   2    -0.191558290847E+03   -0.47693E-01   -0.17753E-01 12560   0.244E+00    0.219E+00
DAV:   3    -0.191515799802E+03    0.42491E-01   -0.10138E-01 12120   0.209E+00    0.488E-01
DAV:   4    -0.191516320787E+03   -0.52098E-03   -0.13490E-02 11480   0.798E-01    0.558E-01
DAV:   5    -0.191513162315E+03    0.31585E-02   -0.69168E-03 11520   0.579E-01    0.198E-01
DAV:   6    -0.191513370721E+03   -0.20841E-03   -0.27828E-03 11240   0.360E-01    0.266E-01
DAV:   7    -0.191512848867E+03    0.52185E-03   -0.22348E-03 11080   0.353E-01    0.131E-01
DAV:   8    -0.191512612530E+03    0.23634E-03   -0.45912E-04  8560   0.129E-01    0.281E-02
DAV:   9    -0.191512607464E+03    0.50660E-05   -0.73524E-05  7040   0.353E-02
   8 F= -.19151261E+03 E0= -.19141488E+03  d E =-.443440E-01
       N       E                     dE             d eps       ncg     rms          rms(c)
DAV:   1    -0.191563013013E+03   -0.50400E-01   -0.52779E+00  8160   0.490E+00    0.612E-01
DAV:   2    -0.191611042663E+03   -0.48030E-01   -0.21236E-01 13120   0.237E+00    0.215E+00
DAV:   3    -0.191571697711E+03    0.39345E-01   -0.10753E-01 12240   0.212E+00    0.555E-01
DAV:   4    -0.191572673762E+03   -0.97605E-03   -0.16575E-02 11480   0.875E-01    0.656E-01
DAV:   5    -0.191568253920E+03    0.44198E-02   -0.92309E-03 11200   0.691E-01    0.228E-01
DAV:   6    -0.191568354451E+03   -0.10053E-03   -0.30741E-03 11440   0.371E-01    0.265E-01
DAV:   7    -0.191568048285E+03    0.30617E-03   -0.27588E-03 11240   0.407E-01    0.187E-01
DAV:   8    -0.191567558776E+03    0.48951E-03   -0.79465E-04  9600   0.192E-01    0.312E-02
DAV:   9    -0.191567557376E+03    0.14004E-05   -0.90706E-05  6800   0.379E-02
   9 F= -.19156756E+03 E0= -.19147121E+03  d E =-.549499E-01
       N       E                     dE             d eps       ncg     rms          rms(c)
DAV:   1    -0.191560012361E+03    0.75464E-02   -0.12234E-01  8160   0.744E-01    0.898E-02
DAV:   2    -0.191560934334E+03   -0.92197E-03   -0.46315E-03 12600   0.312E-01    0.280E-01
DAV:   3    -0.191560164558E+03    0.76978E-03   -0.18352E-03  9840   0.298E-01    0.825E-02
DAV:   4    -0.191560142223E+03    0.22335E-04   -0.23412E-04  6040   0.928E-02
  10 F= -.19156014E+03 E0= -.19146337E+03  d E =0.741515E-02
       N       E                     dE             d eps       ncg     rms          rms(c)
DAV:   1    -0.191566039658E+03   -0.58751E-02   -0.73470E-02  8160   0.592E-01    0.971E-02
DAV:   2    -0.191566385169E+03   -0.34551E-03   -0.33543E-03 11840   0.262E-01    0.193E-01
DAV:   3    -0.191566023077E+03    0.36209E-03   -0.11324E-03 10200   0.252E-01    0.857E-02
DAV:   4    -0.191566007917E+03    0.15159E-04   -0.38815E-04  7760   0.131E-01
  11 F= -.19156601E+03 E0= -.19146920E+03  d E =-.586569E-02
       N       E                     dE             d eps       ncg     rms          rms(c)
DAV:   1    -0.191580278908E+03   -0.14256E-01   -0.37622E-01  8160   0.133E+00    0.218E-01
DAV:   2    -0.191588827577E+03   -0.85487E-02   -0.26416E-02 12240   0.955E-01    0.981E-01
DAV:   3    -0.191580491045E+03    0.83365E-02   -0.17066E-02 10760   0.835E-01    0.132E-01
DAV:   4    -0.191580655647E+03   -0.16460E-03   -0.13475E-03 10080   0.237E-01    0.188E-01
DAV:   5    -0.191580301234E+03    0.35441E-03   -0.86104E-04  9520   0.221E-01    0.766E-02
DAV:   6    -0.191580263889E+03    0.37345E-04   -0.22825E-04  6280   0.953E-02
  12 F= -.19158026E+03 E0= -.19148421E+03  d E =-.142560E-01
       N       E                     dE             d eps       ncg     rms          rms(c)
DAV:   1    -0.191615731655E+03   -0.35430E-01   -0.22801E+00  8160   0.322E+00    0.362E-01
DAV:   2    -0.191626494993E+03   -0.10763E-01   -0.75027E-02 13120   0.117E+00    0.842E-01
DAV:   3    -0.191619802587E+03    0.66924E-02   -0.21290E-02 12320   0.104E+00    0.355E-01
DAV:   4    -0.191619922259E+03   -0.11967E-03   -0.55249E-03 11080   0.503E-01    0.393E-01
DAV:   5    -0.191618437793E+03    0.14845E-02   -0.34367E-03 11360   0.433E-01    0.157E-01
DAV:   6    -0.191618590214E+03   -0.15242E-03   -0.15179E-03 10120   0.249E-01    0.188E-01
DAV:   7    -0.191618399797E+03    0.19042E-03   -0.13042E-03  9760   0.276E-01    0.128E-01
DAV:   8    -0.191618176071E+03    0.22373E-03   -0.35058E-04  8000   0.130E-01    0.174E-02
DAV:   9    -0.191618181459E+03   -0.53884E-05   -0.43901E-05  6880   0.246E-02
  13 F= -.19161818E+03 E0= -.19152443E+03  d E =-.379176E-01
       N       E                     dE             d eps       ncg     rms          rms(c)
DAV:   1    -0.191601873666E+03    0.16302E-01   -0.38975E-01  8160   0.133E+00    0.138E-01
DAV:   2    -0.191603098767E+03   -0.12251E-02   -0.11478E-02 12400   0.382E-01    0.259E-01
DAV:   3    -0.191602644060E+03    0.45471E-03   -0.27118E-03 11320   0.358E-01    0.181E-01
DAV:   4    -0.191602451566E+03    0.19249E-03   -0.93633E-04  8840   0.193E-01    0.121E-01
DAV:   5    -0.191602329321E+03    0.12225E-03   -0.44081E-04  8320   0.156E-01    0.713E-02
DAV:   6    -0.191602311095E+03    0.18225E-04   -0.23243E-04  6320   0.997E-02
  14 F= -.19160231E+03 E0= -.19150757E+03  d E =0.158704E-01
       N       E                     dE             d eps       ncg     rms          rms(c)
DAV:   1    -0.191552677312E+03    0.49652E-01   -0.44415E+00  8160   0.451E+00    0.523E-01
DAV:   2    -0.191569153819E+03   -0.16477E-01   -0.15397E-01 13440   0.156E+00    0.929E-01
DAV:   3    -0.191561183523E+03    0.79703E-02   -0.29164E-02 12080   0.132E+00    0.524E-01
DAV:   4    -0.191559402411E+03    0.17811E-02   -0.98728E-03 12360   0.655E-01    0.424E-01
DAV:   5    -0.191558142075E+03    0.12603E-02   -0.60497E-03 11600   0.551E-01    0.282E-01
DAV:   6    -0.191558001252E+03    0.14082E-03   -0.36940E-03 10720   0.367E-01    0.245E-01
DAV:   7    -0.191557796840E+03    0.20441E-03   -0.25888E-03 11200   0.368E-01    0.219E-01
DAV:   8    -0.191557266156E+03    0.53068E-03   -0.88588E-04  9160   0.215E-01    0.344E-02
DAV:   9    -0.191557264394E+03    0.17627E-05   -0.75600E-05  6280   0.368E-02
  15 F= -.19155726E+03 E0= -.19146113E+03  d E =0.450467E-01
       N       E                     dE             d eps       ncg     rms          rms(c)
DAV:   1    -0.191526503919E+03    0.30762E-01   -0.27353E+00  8160   0.353E+00    0.358E-01
DAV:   2    -0.191532630844E+03   -0.61269E-02   -0.75472E-02 12240   0.787E-01    0.419E-01
DAV:   3    -0.191532809201E+03   -0.17836E-03   -0.13011E-02 12440   0.776E-01    0.547E-01
DAV:   4    -0.191530574378E+03    0.22348E-02   -0.70320E-03 11640   0.563E-01    0.280E-01
DAV:   5    -0.191530048965E+03    0.52541E-03   -0.28556E-03 10800   0.373E-01    0.231E-01
DAV:   6    -0.191529753151E+03    0.29581E-03   -0.19980E-03  9840   0.303E-01    0.145E-01
DAV:   7    -0.191529799465E+03   -0.46314E-04   -0.10815E-03 10480   0.230E-01    0.164E-01
DAV:   8    -0.191529494549E+03    0.30492E-03   -0.44823E-04  8280   0.171E-01    0.233E-02
DAV:   9    -0.191529502791E+03   -0.82419E-05   -0.35906E-05  5760   0.273E-02
  16 F= -.19152950E+03 E0= -.19143337E+03  d E =0.277616E-01
       N       E                     dE             d eps       ncg     rms          rms(c)
DAV:   1    -0.191550343832E+03   -0.20849E-01   -0.13740E+00  8160   0.252E+00    0.348E-01
DAV:   2    -0.191568205262E+03   -0.17861E-01   -0.65020E-02 13440   0.146E+00    0.130E+00
DAV:   3    -0.191552232610E+03    0.15973E-01   -0.30020E-02 12240   0.126E+00    0.249E-01
DAV:   4    -0.191553205172E+03   -0.97256E-03   -0.47298E-03 11040   0.462E-01    0.404E-01
DAV:   5    -0.191551598212E+03    0.16070E-02   -0.33580E-03 10240   0.418E-01    0.116E-01
DAV:   6    -0.191551569790E+03    0.28422E-04   -0.67618E-04 10120   0.122E-01
  17 F= -.19155157E+03 E0= -.19145696E+03  d E =-.220670E-01
       N       E                     dE             d eps       ncg     rms          rms(c)
DAV:   1    -0.191572743021E+03   -0.21145E-01   -0.11580E+00  8160   0.231E+00    0.341E-01
DAV:   2    -0.191586222092E+03   -0.13479E-01   -0.56325E-02 12960   0.134E+00    0.113E+00
DAV:   3    -0.191574153251E+03    0.12069E-01   -0.25044E-02 11880   0.113E+00    0.293E-01
DAV:   4    -0.191574702746E+03   -0.54949E-03   -0.51401E-03 11240   0.510E-01    0.384E-01
DAV:   5    -0.191573210706E+03    0.14920E-02   -0.29914E-03 11080   0.394E-01    0.127E-01
DAV:   6    -0.191573317749E+03   -0.10704E-03   -0.10817E-03 10000   0.234E-01    0.168E-01
DAV:   7    -0.191573086604E+03    0.23114E-03   -0.81580E-04  9440   0.223E-01    0.791E-02
DAV:   8    -0.191572997761E+03    0.88843E-04   -0.15775E-04  6400   0.843E-02
  18 F= -.19157300E+03 E0= -.19147907E+03  d E =-.214280E-01
       N       E                     dE             d eps       ncg     rms          rms(c)
DAV:   1    -0.191626707136E+03   -0.53621E-01   -0.11641E+01  8160   0.733E+00    0.930E-01
DAV:   2    -0.191746190066E+03   -0.11948E+00   -0.47639E-01 12720   0.363E+00    0.365E+00
DAV:   3    -0.191647809101E+03    0.98381E-01   -0.26041E-01 12240   0.330E+00    0.840E-01
DAV:   4    -0.191651006111E+03   -0.31970E-02   -0.37810E-02 10800   0.142E+00    0.104E+00
DAV:   5    -0.191638733009E+03    0.12273E-01   -0.20078E-02 11600   0.112E+00    0.302E-01
DAV:   6    -0.191638625356E+03    0.10765E-03   -0.53106E-03 12400   0.406E-01    0.283E-01
DAV:   7    -0.191638446255E+03    0.17910E-03   -0.40356E-03 11720   0.513E-01    0.282E-01
DAV:   8    -0.191637393582E+03    0.10527E-02   -0.14490E-03 10320   0.313E-01    0.466E-02
DAV:   9    -0.191637386266E+03    0.73165E-05   -0.19346E-04  7680   0.580E-02
  19 F= -.19163739E+03 E0= -.19154911E+03  d E =-.643885E-01
       N       E                     dE             d eps       ncg     rms          rms(c)
DAV:   1    -0.191660831804E+03   -0.23438E-01   -0.18504E+00  8160   0.293E+00    0.376E-01
DAV:   2    -0.191674605970E+03   -0.13774E-01   -0.75928E-02 13280   0.130E+00    0.114E+00
DAV:   3    -0.191664061384E+03    0.10545E-01   -0.26446E-02 11800   0.113E+00    0.347E-01
DAV:   4    -0.191664121380E+03   -0.59995E-04   -0.52221E-03 11440   0.525E-01    0.374E-01
DAV:   5    -0.191662607603E+03    0.15138E-02   -0.31455E-03 10600   0.448E-01    0.151E-01
DAV:   6    -0.191662679720E+03   -0.72117E-04   -0.13900E-03  9960   0.248E-01    0.168E-01
DAV:   7    -0.191662461100E+03    0.21862E-03   -0.94012E-04 10040   0.255E-01    0.105E-01
DAV:   8    -0.191662316353E+03    0.14475E-03   -0.24407E-04  7720   0.118E-01    0.230E-02
DAV:   9    -0.191662309096E+03    0.72562E-05   -0.40088E-05  7080   0.278E-02
  20 F= -.19166231E+03 E0= -.19157614E+03  d E =-.249228E-01
       N       E                     dE             d eps       ncg     rms          rms(c)
DAV:   1    -0.191680051481E+03   -0.17735E-01   -0.11209E+00  8160   0.225E+00    0.240E-01
DAV:   2    -0.191685612191E+03   -0.55607E-02   -0.34177E-02 12920   0.771E-01    0.669E-01
DAV:   3    -0.191681981998E+03    0.36302E-02   -0.95979E-03 11880   0.701E-01    0.232E-01
DAV:   4    -0.191681713741E+03    0.26826E-03   -0.15495E-03  9720   0.247E-01    0.173E-01
DAV:   5    -0.191681485310E+03    0.22843E-03   -0.10192E-03 10480   0.254E-01    0.121E-01
DAV:   6    -0.191681435676E+03    0.49634E-04   -0.56658E-04  9120   0.160E-01
  21 F= -.19168144E+03 E0= -.19159729E+03  d E =-.191266E-01
       N       E                     dE             d eps       ncg     rms          rms(c)
DAV:   1    -0.191684569105E+03   -0.30838E-02   -0.34740E-02  8160   0.412E-01    0.708E-02
DAV:   2    -0.191685249038E+03   -0.67993E-03   -0.19559E-03 12680   0.293E-01    0.234E-01
DAV:   3    -0.191684585680E+03    0.66336E-03   -0.91413E-04  9800   0.258E-01    0.489E-02
DAV:   4    -0.191684622131E+03   -0.36451E-04   -0.13180E-04  5800   0.892E-02
  22 F= -.19168462E+03 E0= -.19160066E+03  d E =-.318646E-02
       N       E                     dE             d eps       ncg     rms          rms(c)
DAV:   1    -0.191690549951E+03   -0.59643E-02   -0.27538E-01  8160   0.112E+00    0.142E-01
DAV:   2    -0.191692051245E+03   -0.15013E-02   -0.99849E-03 13400   0.494E-01    0.337E-01
DAV:   3    -0.191690874064E+03    0.11772E-02   -0.25116E-03 11400   0.410E-01    0.113E-01
DAV:   4    -0.191690813112E+03    0.60952E-04   -0.54461E-04  8200   0.155E-01
  23 F= -.19169081E+03 E0= -.19160824E+03  d E =-.619098E-02
       N       E                     dE             d eps       ncg     rms          rms(c)
DAV:   1    -0.191702192948E+03   -0.11319E-01   -0.57071E-01  8160   0.170E+00    0.366E-01
DAV:   2    -0.191714501019E+03   -0.12308E-01   -0.46522E-02 12160   0.141E+00    0.114E+00
DAV:   3    -0.191700809945E+03    0.13691E-01   -0.23984E-02 11960   0.124E+00    0.214E-01
DAV:   4    -0.191701004965E+03   -0.19502E-03   -0.33671E-03 11400   0.411E-01    0.306E-01
DAV:   5    -0.191700461052E+03    0.54391E-03   -0.31618E-03 10600   0.435E-01    0.250E-01
DAV:   6    -0.191699965876E+03    0.49518E-03   -0.15569E-03  9920   0.270E-01    0.130E-01
DAV:   7    -0.191699830488E+03    0.13539E-03   -0.51144E-04  8480   0.190E-01    0.704E-02
DAV:   8    -0.191699766354E+03    0.64134E-04   -0.98058E-05  6720   0.758E-02
  24 F= -.19169977E+03 E0= -.19161707E+03  d E =-.895324E-02
       N       E                     dE             d eps       ncg     rms          rms(c)
DAV:   1    -0.191714960923E+03   -0.15130E-01   -0.76111E-01  8160   0.185E+00    0.186E-01
DAV:   2    -0.191717091146E+03   -0.21302E-02   -0.20321E-02 12720   0.498E-01    0.353E-01
DAV:   3    -0.191716420267E+03    0.67088E-03   -0.42430E-03 12240   0.476E-01    0.245E-01
DAV:   4    -0.191715843734E+03    0.57653E-03   -0.95216E-04  9520   0.201E-01    0.706E-02
DAV:   5    -0.191715816171E+03    0.27563E-04   -0.40192E-04  8960   0.919E-02
  25 F= -.19171582E+03 E0= -.19163465E+03  d E =-.160498E-01
       N       E                     dE             d eps       ncg     rms          rms(c)
DAV:   1    -0.191727982591E+03   -0.12139E-01   -0.46499E-01  8160   0.146E+00    0.187E-01
DAV:   2    -0.191732182853E+03   -0.42003E-02   -0.16278E-02 12960   0.701E-01    0.600E-01
DAV:   3    -0.191728518407E+03    0.36644E-02   -0.58835E-03 11600   0.638E-01    0.135E-01
DAV:   4    -0.191728824677E+03   -0.30627E-03   -0.11158E-03  9960   0.254E-01    0.217E-01
DAV:   5    -0.191728344700E+03    0.47998E-03   -0.76098E-04  8400   0.227E-01    0.517E-02
DAV:   6    -0.191728371526E+03   -0.26826E-04   -0.16611E-04  6240   0.702E-02
  26 F= -.19172837E+03 E0= -.19164860E+03  d E =-.125554E-01
       N       E                     dE             d eps       ncg     rms          rms(c)
DAV:   1    -0.191738148788E+03   -0.98041E-02   -0.27134E-01  8160   0.113E+00    0.130E-01
DAV:   2    -0.191738970933E+03   -0.82215E-03   -0.83025E-03 13080   0.338E-01    0.247E-01
DAV:   3    -0.191738591710E+03    0.37922E-03   -0.18646E-03 11120   0.329E-01    0.151E-01
DAV:   4    -0.191738369359E+03    0.22235E-03   -0.41081E-04  8200   0.147E-01    0.697E-02
DAV:   5    -0.191738407521E+03   -0.38162E-04   -0.27340E-04  7800   0.151E-01
  27 F= -.19173841E+03 E0= -.19165958E+03  d E =-.100360E-01
       N       E                     dE             d eps       ncg     rms          rms(c)
DAV:   1    -0.191737807040E+03    0.56232E-03   -0.24998E-02  8160   0.355E-01    0.560E-02
DAV:   2    -0.191738345534E+03   -0.53849E-03   -0.18796E-03 12920   0.255E-01    0.206E-01
DAV:   3    -0.191737851126E+03    0.49441E-03   -0.63456E-04  8880   0.223E-01    0.325E-02
DAV:   4    -0.191737865336E+03   -0.14210E-04   -0.65176E-05  5480   0.538E-02
  28 F= -.19173787E+03 E0= -.19165880E+03  d E =0.542185E-03
       N       E                     dE             d eps       ncg     rms          rms(c)
DAV:   1    -0.191728540405E+03    0.93107E-02   -0.37489E-01  8160   0.138E+00    0.271E-01
DAV:   2    -0.191730386415E+03   -0.18460E-02   -0.18555E-02 11760   0.719E-01    0.548E-01
DAV:   3    -0.191727627109E+03    0.27593E-02   -0.69679E-03 12040   0.691E-01    0.247E-01
DAV:   4    -0.191727612576E+03    0.14533E-04   -0.29121E-03 11040   0.396E-01    0.289E-01
DAV:   5    -0.191726955527E+03    0.65705E-03   -0.22390E-03 10120   0.383E-01    0.162E-01
DAV:   6    -0.191726705815E+03    0.24971E-03   -0.79566E-04  9960   0.199E-01    0.887E-02
DAV:   7    -0.191726639977E+03    0.65838E-04   -0.25778E-04  8400   0.132E-01
  29 F= -.19172664E+03 E0= -.19164682E+03  d E =0.112254E-01
       N       E                     dE             d eps       ncg     rms          rms(c)
DAV:   1    -0.191763520212E+03   -0.36814E-01   -0.36911E+00  8160   0.413E+00    0.481E-01
DAV:   2    -0.191776678359E+03   -0.13158E-01   -0.10793E-01 12400   0.138E+00    0.107E+00
DAV:   3    -0.191767974980E+03    0.87034E-02   -0.27243E-02 12000   0.126E+00    0.469E-01
DAV:   4    -0.191767029223E+03    0.94576E-03   -0.72184E-03 11480   0.648E-01    0.435E-01
DAV:   5    -0.191765250380E+03    0.17788E-02   -0.52391E-03 11120   0.607E-01    0.241E-01
DAV:   6    -0.191764942307E+03    0.30807E-03   -0.24639E-03 11200   0.341E-01    0.181E-01
DAV:   7    -0.191764704832E+03    0.23747E-03   -0.11750E-03 10120   0.293E-01    0.123E-01
DAV:   8    -0.191764497769E+03    0.20706E-03   -0.31126E-04  8600   0.140E-01    0.258E-02
DAV:   9    -0.191764490174E+03    0.75950E-05   -0.51597E-05  6720   0.303E-02
  30 F= -.19176449E+03 E0= -.19168734E+03  d E =-.378502E-01
       N       E                     dE             d eps       ncg     rms          rms(c)
DAV:   1    -0.191795084170E+03   -0.30586E-01   -0.28185E+00  8160   0.359E+00    0.362E-01
DAV:   2    -0.191801542871E+03   -0.64587E-02   -0.74443E-02 12360   0.947E-01    0.551E-01
DAV:   3    -0.191800526957E+03    0.10159E-02   -0.12419E-02 12280   0.873E-01    0.457E-01
DAV:   4    -0.191798734953E+03    0.17920E-02   -0.40115E-03 11640   0.504E-01    0.260E-01
DAV:   5    -0.191798286665E+03    0.44829E-03   -0.20783E-03 10680   0.414E-01    0.191E-01
DAV:   6    -0.191798048523E+03    0.23814E-03   -0.13396E-03 10600   0.254E-01    0.102E-01
DAV:   7    -0.191797949806E+03    0.98717E-04   -0.56365E-04  9400   0.177E-01
  31 F= -.19179795E+03 E0= -.19172278E+03  d E =-.334596E-01
       N       E                     dE             d eps       ncg     rms          rms(c)
DAV:   1    -0.191812708150E+03   -0.14660E-01   -0.60677E-01  8160   0.166E+00    0.168E-01
DAV:   2    -0.191813943095E+03   -0.12349E-02   -0.16853E-02 11840   0.386E-01    0.179E-01
DAV:   3    -0.191814249699E+03   -0.30660E-03   -0.24139E-03 12520   0.393E-01    0.256E-01
DAV:   4    -0.191813621320E+03    0.62838E-03   -0.11254E-03  9960   0.275E-01    0.979E-02
DAV:   5    -0.191813608400E+03    0.12920E-04   -0.36007E-04  8080   0.162E-01
  32 F= -.19181361E+03 E0= -.19173899E+03  d E =-.156586E-01
       N       E                     dE             d eps       ncg     rms          rms(c)
DAV:   1    -0.191816064329E+03   -0.24430E-02   -0.33590E-02  8160   0.445E-01    0.967E-02
DAV:   2    -0.191816830464E+03   -0.76613E-03   -0.26388E-03 11640   0.352E-01    0.279E-01
DAV:   3    -0.191815983728E+03    0.84674E-03   -0.12114E-03 10080   0.316E-01    0.789E-02
DAV:   4    -0.191815962153E+03    0.21575E-04   -0.25368E-04  7120   0.101E-01
  33 F= -.19181596E+03 E0= -.19174154E+03  d E =-.235375E-02
       N       E                     dE             d eps       ncg     rms          rms(c)
DAV:   1    -0.191842774785E+03   -0.26791E-01   -0.22104E+00  8160   0.318E+00    0.331E-01
DAV:   2    -0.191847633306E+03   -0.48585E-02   -0.62109E-02 12160   0.862E-01    0.422E-01
DAV:   3    -0.191847408326E+03    0.22498E-03   -0.90542E-03 12320   0.778E-01    0.401E-01
DAV:   4    -0.191845814015E+03    0.15943E-02   -0.34368E-03 11440   0.483E-01    0.230E-01
DAV:   5    -0.191845642946E+03    0.17107E-03   -0.16845E-03 10360   0.380E-01    0.199E-01
DAV:   6    -0.191845405867E+03    0.23708E-03   -0.11531E-03 10440   0.257E-01    0.125E-01
DAV:   7    -0.191845269161E+03    0.13671E-03   -0.45245E-04  9240   0.190E-01    0.762E-02
DAV:   8    -0.191845193170E+03    0.75991E-04   -0.10221E-04  6120   0.847E-02
  34 F= -.19184519E+03 E0= -.19177130E+03  d E =-.292310E-01
       N       E                     dE             d eps       ncg     rms          rms(c)
DAV:   1    -0.191894080741E+03   -0.48812E-01   -0.16679E+01  8160   0.871E+00    0.891E-01
DAV:   2    -0.191936744424E+03   -0.42664E-01   -0.47756E-01 11960   0.238E+00    0.126E+00
DAV:   3    -0.191930588123E+03    0.61563E-02   -0.73739E-02 11960   0.227E+00    0.105E+00
DAV:   4    -0.191916894014E+03    0.13694E-01   -0.21170E-02 12440   0.113E+00    0.327E-01
DAV:   5    -0.191920477325E+03   -0.35833E-02   -0.10509E-02 12520   0.855E-01    0.677E-01
DAV:   6    -0.191916142995E+03    0.43343E-02   -0.79034E-03 12520   0.815E-01    0.231E-01
DAV:   7    -0.191915312577E+03    0.83042E-03   -0.19952E-03 11400   0.252E-01    0.740E-02
DAV:   8    -0.191915276257E+03    0.36320E-04   -0.37002E-04  9760   0.120E-01
  35 F= -.19191528E+03 E0= -.19184275E+03  d E =-.700831E-01
       N       E                     dE             d eps       ncg     rms          rms(c)
DAV:   1    -0.191874618994E+03    0.40694E-01   -0.56352E+00  8160   0.507E+00    0.579E-01
DAV:   2    -0.191896108538E+03   -0.21490E-01   -0.17950E-01 12000   0.186E+00    0.116E+00
DAV:   3    -0.191883561551E+03    0.12547E-01   -0.36410E-02 12360   0.162E+00    0.486E-01
DAV:   4    -0.191880342869E+03    0.32187E-02   -0.63422E-03 12360   0.569E-01    0.237E-01
DAV:   5    -0.191881121813E+03   -0.77894E-03   -0.43184E-03 10600   0.569E-01    0.378E-01
DAV:   6    -0.191879648195E+03    0.14736E-02   -0.32219E-03 11640   0.486E-01    0.151E-01
DAV:   7    -0.191879653783E+03   -0.55887E-05   -0.11707E-03 10520   0.267E-01    0.169E-01
DAV:   8    -0.191879338110E+03    0.31567E-03   -0.40404E-04  8760   0.173E-01    0.320E-02
DAV:   9    -0.191879329314E+03    0.87961E-05   -0.60476E-05  6520   0.358E-02
  36 F= -.19187933E+03 E0= -.19180580E+03  d E =0.359469E-01
       N       E                     dE             d eps       ncg     rms          rms(c)
DAV:   1    -0.191903488018E+03   -0.24150E-01   -0.21028E+00  8160   0.309E+00    0.316E-01
DAV:   2    -0.191908872939E+03   -0.53849E-02   -0.62583E-02 11680   0.857E-01    0.423E-01
DAV:   3    -0.191908442046E+03    0.43089E-03   -0.91884E-03 12440   0.795E-01    0.391E-01
DAV:   4    -0.191906696703E+03    0.17453E-02   -0.31001E-03 11560   0.433E-01    0.146E-01
DAV:   5    -0.191906884308E+03   -0.18760E-03   -0.13545E-03 10560   0.310E-01    0.212E-01
DAV:   6    -0.191906594949E+03    0.28936E-03   -0.10678E-03 10320   0.286E-01    0.117E-01
DAV:   7    -0.191906460894E+03    0.13405E-03   -0.44390E-04  8680   0.164E-01    0.753E-02
DAV:   8    -0.191906392731E+03    0.68164E-04   -0.10145E-04  7080   0.909E-02
  37 F= -.19190639E+03 E0= -.19183288E+03  d E =-.270634E-01
       N       E                     dE             d eps       ncg     rms          rms(c)
DAV:   1    -0.191939755380E+03   -0.33294E-01   -0.55352E+00  8160   0.504E+00    0.547E-01
DAV:   2    -0.191956091271E+03   -0.16336E-01   -0.17719E-01 11560   0.154E+00    0.819E-01
DAV:   3    -0.191952246236E+03    0.38450E-02   -0.28529E-02 12360   0.140E+00    0.600E-01
DAV:   4    -0.191948275189E+03    0.39710E-02   -0.88155E-03 12320   0.701E-01    0.285E-01
DAV:   5    -0.191948246449E+03    0.28740E-04   -0.44237E-03 11440   0.554E-01    0.331E-01
DAV:   6    -0.191947639807E+03    0.60664E-03   -0.29980E-03 11760   0.467E-01    0.207E-01
DAV:   7    -0.191947274034E+03    0.36577E-03   -0.14465E-03 10320   0.310E-01    0.152E-01
DAV:   8    -0.191946993472E+03    0.28056E-03   -0.37184E-04  9400   0.165E-01    0.276E-02
DAV:   9    -0.191946990319E+03    0.31526E-05   -0.63324E-05  6280   0.331E-02
  38 F= -.19194699E+03 E0= -.19187292E+03  d E =-.405976E-01
       N       E                     dE             d eps       ncg     rms          rms(c)
DAV:   1    -0.191967907378E+03   -0.20914E-01   -0.24388E+00  8160   0.332E+00    0.361E-01
DAV:   2    -0.191975302849E+03   -0.73955E-02   -0.80617E-02 12160   0.996E-01    0.508E-01
DAV:   3    -0.191974207072E+03    0.10958E-02   -0.12160E-02 12320   0.930E-01    0.434E-01
DAV:   4    -0.191972035255E+03    0.21718E-02   -0.38582E-03 12000   0.478E-01    0.144E-01
DAV:   5    -0.191972173369E+03   -0.13811E-03   -0.15922E-03 10960   0.275E-01    0.196E-01
DAV:   6    -0.191972061516E+03    0.11185E-03   -0.13162E-03 11280   0.315E-01    0.161E-01
DAV:   7    -0.191971773521E+03    0.28799E-03   -0.51949E-04  8840   0.186E-01    0.638E-02
DAV:   8    -0.191971734786E+03    0.38735E-04   -0.10092E-04  6320   0.952E-02
  39 F= -.19197173E+03 E0= -.19189758E+03  d E =-.247445E-01
       N       E                     dE             d eps       ncg     rms          rms(c)
DAV:   1    -0.191973760517E+03   -0.19870E-02   -0.31121E-02  8160   0.414E-01    0.859E-02
DAV:   2    -0.191973819175E+03   -0.58658E-04   -0.17034E-03 11760   0.209E-01    0.134E-01
DAV:   3    -0.191973646035E+03    0.17314E-03   -0.50397E-04  8920   0.203E-01    0.683E-02
DAV:   4    -0.191973601571E+03    0.44464E-04   -0.20919E-04  7240   0.110E-01
  40 F= -.19197360E+03 E0= -.19189911E+03  d E =-.186679E-02
       N       E                     dE             d eps       ncg     rms          rms(c)
DAV:   1    -0.191990790694E+03   -0.17145E-01   -0.13126E+00  8160   0.248E+00    0.322E-01
DAV:   2    -0.191994467210E+03   -0.36765E-02   -0.46548E-02 12080   0.805E-01    0.466E-01
DAV:   3    -0.191993226626E+03    0.12406E-02   -0.94378E-03 12280   0.809E-01    0.368E-01
DAV:   4    -0.191991862052E+03    0.13646E-02   -0.38211E-03 12200   0.444E-01    0.178E-01
DAV:   5    -0.191991689097E+03    0.17295E-03   -0.17856E-03 10600   0.321E-01    0.188E-01
DAV:   6    -0.191991461567E+03    0.22753E-03   -0.99701E-04 10480   0.282E-01    0.112E-01
DAV:   7    -0.191991346242E+03    0.11532E-03   -0.38116E-04  8720   0.157E-01    0.720E-02
DAV:   8    -0.191991285091E+03    0.61151E-04   -0.10562E-04  7160   0.950E-02
  41 F= -.19199129E+03 E0= -.19191605E+03  d E =-.176835E-01
       N       E                     dE             d eps       ncg     rms          rms(c)
DAV:   1    -0.191999553456E+03   -0.82072E-02   -0.31171E-01  8160   0.120E+00    0.158E-01
DAV:   2    -0.192000917114E+03   -0.13637E-02   -0.12266E-02 11160   0.488E-01    0.291E-01
DAV:   3    -0.192000141082E+03    0.77603E-03   -0.27036E-03 12280   0.434E-01    0.146E-01
DAV:   4    -0.191999912259E+03    0.22882E-03   -0.55245E-04  8200   0.179E-01    0.767E-02
DAV:   5    -0.191999948873E+03   -0.36614E-04   -0.37109E-04  9040   0.167E-01
  42 F= -.19199995E+03 E0= -.19192517E+03  d E =-.866378E-02
       N       E                     dE             d eps       ncg     rms          rms(c)
DAV:   1    -0.192015552308E+03   -0.15640E-01   -0.12689E+00  8160   0.242E+00    0.289E-01
DAV:   2    -0.192020620124E+03   -0.50678E-02   -0.42007E-02 11400   0.876E-01    0.541E-01
DAV:   3    -0.192017916832E+03    0.27033E-02   -0.89696E-03 12360   0.817E-01    0.265E-01
DAV:   4    -0.192017043228E+03    0.87360E-03   -0.14542E-03 10320   0.264E-01    0.882E-02
DAV:   5    -0.192017238016E+03   -0.19479E-03   -0.85666E-04 11120   0.187E-01    0.150E-01
DAV:   6    -0.192017095191E+03    0.14282E-03   -0.69083E-04 10920   0.232E-01    0.107E-01
DAV:   7    -0.192016962676E+03    0.13252E-03   -0.20280E-04  7200   0.118E-01    0.274E-02
DAV:   8    -0.192016961771E+03    0.90514E-06   -0.43703E-05  6560   0.484E-02
  43 F= -.19201696E+03 E0= -.19194217E+03  d E =-.170129E-01
       N       E                     dE             d eps       ncg     rms          rms(c)
DAV:   1    -0.192020758512E+03   -0.37958E-02   -0.54121E-02  8160   0.520E-01    0.795E-02
DAV:   2    -0.192020852657E+03   -0.94145E-04   -0.20664E-03 10880   0.173E-01    0.103E-01
DAV:   3    -0.192020802715E+03    0.49942E-04   -0.44401E-04 10000   0.189E-01
  44 F= -.19202080E+03 E0= -.19194577E+03  d E =-.384094E-02
       N       E                     dE             d eps       ncg     rms          rms(c)
DAV:   1    -0.192029243284E+03   -0.83906E-02   -0.32587E-01  8160   0.125E+00    0.182E-01
DAV:   2    -0.192030201810E+03   -0.95853E-03   -0.13669E-02 12680   0.479E-01    0.249E-01
DAV:   3    -0.192029639031E+03    0.56278E-03   -0.25292E-03 12000   0.414E-01    0.156E-01
DAV:   4    -0.192029372190E+03    0.26684E-03   -0.77939E-04 10240   0.221E-01    0.997E-02
DAV:   5    -0.192029263512E+03    0.10868E-03   -0.37915E-04  8320   0.134E-01    0.806E-02
DAV:   6    -0.192029279325E+03   -0.15813E-04   -0.34088E-04  9480   0.163E-01
  45 F= -.19202928E+03 E0= -.19195420E+03  d E =-.847661E-02
       N       E                     dE             d eps       ncg     rms          rms(c)
DAV:   1    -0.192028807121E+03    0.45639E-03   -0.25363E-01  8160   0.121E+00    0.340E-01
DAV:   2    -0.192030716401E+03   -0.19093E-02   -0.19477E-02 11040   0.948E-01    0.652E-01
DAV:   3    -0.192025808081E+03    0.49083E-02   -0.88623E-03 11040   0.872E-01    0.226E-01
DAV:   4    -0.192025532351E+03    0.27573E-03   -0.33022E-03 11200   0.423E-01    0.249E-01
DAV:   5    -0.192025136467E+03    0.39588E-03   -0.25164E-03 10800   0.430E-01    0.194E-01
DAV:   6    -0.192024623198E+03    0.51327E-03   -0.87058E-04 10080   0.216E-01    0.495E-02
DAV:   7    -0.192024625444E+03   -0.22463E-05   -0.11385E-04  5880   0.868E-02
  46 F= -.19202463E+03 E0= -.19195022E+03  d E =0.465388E-02
       N       E                     dE             d eps       ncg     rms          rms(c)
DAV:   1    -0.192047239588E+03   -0.22616E-01   -0.16947E+00  8160   0.285E+00    0.440E-01
DAV:   2    -0.192059482819E+03   -0.12243E-01   -0.65284E-02 12400   0.150E+00    0.108E+00
DAV:   3    -0.192046733996E+03    0.12749E-01   -0.22703E-02 12080   0.134E+00    0.271E-01
DAV:   4    -0.192046219838E+03    0.51416E-03   -0.42060E-03 12240   0.445E-01    0.266E-01
DAV:   5    -0.192045717696E+03    0.50214E-03   -0.29583E-03 11080   0.471E-01    0.210E-01
DAV:   6    -0.192045297718E+03    0.41998E-03   -0.11796E-03 11440   0.269E-01    0.104E-01
DAV:   7    -0.192045252872E+03    0.44846E-04   -0.40635E-04  9040   0.182E-01
  47 F= -.19204525E+03 E0= -.19197051E+03  d E =-.206274E-01
       N       E                     dE             d eps       ncg     rms          rms(c)
DAV:   1    -0.192061730268E+03   -0.16433E-01   -0.11306E+00  8160   0.230E+00    0.278E-01
DAV:   2    -0.192065490277E+03   -0.37600E-02   -0.34350E-02 11440   0.767E-01    0.474E-01
DAV:   3    -0.192063556608E+03    0.19337E-02   -0.71493E-03 12320   0.747E-01    0.267E-01
DAV:   4    -0.192062771712E+03    0.78490E-03   -0.17080E-03 11160   0.291E-01    0.106E-01
DAV:   5    -0.192062703314E+03    0.68399E-04   -0.90216E-04 10640   0.167E-01
  48 F= -.19206270E+03 E0= -.19198776E+03  d E =-.174504E-01
       N       E                     dE             d eps       ncg     rms          rms(c)
DAV:   1    -0.192053904062E+03    0.88677E-02   -0.27259E-01  8160   0.117E+00    0.183E-01
DAV:   2    -0.192056890149E+03   -0.29861E-02   -0.12321E-02 12240   0.656E-01    0.484E-01
DAV:   3    -0.192054042886E+03    0.28473E-02   -0.48122E-03 11480   0.616E-01    0.131E-01
DAV:   4    -0.192054003744E+03    0.39142E-04   -0.88462E-04  9200   0.198E-01
  49 F= -.19205400E+03 E0= -.19197946E+03  d E =0.869957E-02
       N       E                     dE             d eps       ncg     rms          rms(c)
DAV:   1    -0.192062146440E+03   -0.81036E-02   -0.43996E-01  8160   0.143E+00    0.202E-01
DAV:   2    -0.192064833759E+03   -0.26873E-02   -0.17864E-02 12280   0.697E-01    0.455E-01
DAV:   3    -0.192062532323E+03    0.23014E-02   -0.44526E-03 12120   0.600E-01    0.144E-01
DAV:   4    -0.192062373703E+03    0.15862E-03   -0.69189E-04  9200   0.217E-01    0.116E-01
DAV:   5    -0.192062309569E+03    0.64135E-04   -0.52442E-04  9840   0.214E-01
  50 F= -.19206231E+03 E0= -.19198811E+03  d E =-.830582E-02
       N       E                     dE             d eps       ncg     rms          rms(c)
DAV:   1    -0.192070110516E+03   -0.77368E-02   -0.16546E-01  8160   0.949E-01    0.186E-01
DAV:   2    -0.192070905961E+03   -0.79544E-03   -0.78188E-03 11440   0.483E-01    0.347E-01
DAV:   3    -0.192069710149E+03    0.11958E-02   -0.33487E-03 12080   0.508E-01    0.163E-01
DAV:   4    -0.192069428492E+03    0.28166E-03   -0.10491E-03 10080   0.212E-01    0.938E-02
DAV:   5    -0.192069415095E+03    0.13398E-04   -0.56701E-04  9880   0.192E-01
  51 F= -.19206942E+03 E0= -.19199486E+03  d E =-.710553E-02
       N       E                     dE             d eps       ncg     rms          rms(c)
DAV:   1    -0.192069573986E+03   -0.14549E-03   -0.42026E-01  8160   0.147E+00    0.292E-01
DAV:   2    -0.192073430888E+03   -0.38569E-02   -0.25670E-02 11960   0.905E-01    0.653E-01
DAV:   3    -0.192068924775E+03    0.45061E-02   -0.82315E-03 12200   0.836E-01    0.218E-01
DAV:   4    -0.192068321034E+03    0.60374E-03   -0.18030E-03 11000   0.272E-01    0.120E-01
DAV:   5    -0.192068251716E+03    0.69318E-04   -0.98996E-04 10440   0.223E-01
  52 F= -.19206825E+03 E0= -.19199458E+03  d E =0.116338E-02
       N       E                     dE             d eps       ncg     rms          rms(c)
DAV:   1    -0.192089137030E+03   -0.20816E-01   -0.12093E+00  8160   0.247E+00    0.410E-01
DAV:   2    -0.192094668200E+03   -0.55312E-02   -0.52812E-02 12400   0.113E+00    0.768E-01
DAV:   3    -0.192088869966E+03    0.57982E-02   -0.17316E-02 12200   0.112E+00    0.355E-01
DAV:   4    -0.192087432738E+03    0.14372E-02   -0.43028E-03 12240   0.434E-01    0.196E-01
DAV:   5    -0.192087239683E+03    0.19305E-03   -0.24387E-03 12040   0.365E-01    0.220E-01
DAV:   6    -0.192086863512E+03    0.37617E-03   -0.12931E-03 11240   0.330E-01    0.125E-01
DAV:   7    -0.192086677513E+03    0.18600E-03   -0.37494E-04  8400   0.150E-01    0.535E-02
DAV:   8    -0.192086656195E+03    0.21318E-04   -0.10379E-04  7240   0.893E-02
  53 F= -.19208666E+03 E0= -.19201223E+03  d E =-.184045E-01
       N       E                     dE             d eps       ncg     rms          rms(c)
DAV:   1    -0.192100816225E+03   -0.14139E-01   -0.82492E-01  8160   0.196E+00    0.259E-01
DAV:   2    -0.192104533351E+03   -0.37171E-02   -0.27706E-02 11800   0.796E-01    0.517E-01
DAV:   3    -0.192101767363E+03    0.27660E-02   -0.65706E-03 12480   0.733E-01    0.210E-01
DAV:   4    -0.192101335359E+03    0.43200E-03   -0.11531E-03 10160   0.267E-01    0.124E-01
DAV:   5    -0.192101346804E+03   -0.11445E-04   -0.76179E-04 10360   0.256E-01
  54 F= -.19210135E+03 E0= -.19202759E+03  d E =-.146906E-01
       N       E                     dE             d eps       ncg     rms          rms(c)
DAV:   1    -0.192110954904E+03   -0.96195E-02   -0.32649E-01  8160   0.128E+00    0.200E-01
DAV:   2    -0.192113196716E+03   -0.22418E-02   -0.14009E-02 12360   0.631E-01    0.444E-01
DAV:   3    -0.192110992688E+03    0.22040E-02   -0.48704E-03 12120   0.596E-01    0.146E-01
DAV:   4    -0.192110808125E+03    0.18456E-03   -0.69264E-04 10120   0.167E-01    0.929E-02
DAV:   5    -0.192110786306E+03    0.21819E-04   -0.54487E-04 10800   0.184E-01
  55 F= -.19211079E+03 E0= -.19203705E+03  d E =-.943950E-02
       N       E                     dE             d eps       ncg     rms          rms(c)
DAV:   1    -0.192122838149E+03   -0.12030E-01   -0.57004E-01  8160   0.165E+00    0.230E-01
DAV:   2    -0.192126192821E+03   -0.33547E-02   -0.20836E-02 12000   0.740E-01    0.501E-01
DAV:   3    -0.192123472038E+03    0.27208E-02   -0.54105E-03 12280   0.682E-01    0.180E-01
DAV:   4    -0.192123178442E+03    0.29360E-03   -0.10662E-03  9960   0.209E-01    0.971E-02
DAV:   5    -0.192123049654E+03    0.12879E-03   -0.53122E-04 10680   0.133E-01    0.787E-02
DAV:   6    -0.192123119865E+03   -0.70210E-04   -0.42690E-04  9520   0.182E-01
  56 F= -.19212312E+03 E0= -.19204951E+03  d E =-.123336E-01
       N       E                     dE             d eps       ncg     rms          rms(c)
DAV:   1    -0.192149279393E+03   -0.26230E-01   -0.37737E+00  8160   0.417E+00    0.494E-01
DAV:   2    -0.192162529826E+03   -0.13250E-01   -0.11719E-01 10920   0.144E+00    0.885E-01
DAV:   3    -0.192155182447E+03    0.73474E-02   -0.25293E-02 12480   0.136E+00    0.440E-01
DAV:   4    -0.192152900487E+03    0.22820E-02   -0.46257E-03 11600   0.474E-01    0.179E-01
DAV:   5    -0.192152659728E+03    0.24076E-03   -0.27448E-03 12080   0.270E-01    0.160E-01
DAV:   6    -0.192152822115E+03   -0.16239E-03   -0.16359E-03 10760   0.339E-01    0.208E-01
DAV:   7    -0.192152283585E+03    0.53853E-03   -0.70207E-04 10560   0.236E-01    0.430E-02
DAV:   8    -0.192152282975E+03    0.61071E-06   -0.77603E-05  6280   0.766E-02
  57 F= -.19215228E+03 E0= -.19207889E+03  d E =-.291631E-01
       N       E                     dE             d eps       ncg     rms          rms(c)
DAV:   1    -0.192173228196E+03   -0.20945E-01   -0.34090E+00  8160   0.396E+00    0.466E-01
DAV:   2    -0.192184830348E+03   -0.11602E-01   -0.11014E-01 11280   0.128E+00    0.755E-01
DAV:   3    -0.192179904494E+03    0.49259E-02   -0.18891E-02 12320   0.123E+00    0.462E-01
DAV:   4    -0.192177718806E+03    0.21857E-02   -0.47077E-03 12240   0.548E-01    0.208E-01
DAV:   5    -0.192177327694E+03    0.39111E-03   -0.23004E-03 11360   0.340E-01    0.182E-01
DAV:   6    -0.192177451680E+03   -0.12399E-03   -0.17975E-03 10840   0.364E-01    0.190E-01
DAV:   7    -0.192176977183E+03    0.47450E-03   -0.88583E-04  9920   0.226E-01    0.650E-02
DAV:   8    -0.192176938840E+03    0.38344E-04   -0.10997E-04  6960   0.945E-02
  58 F= -.19217694E+03 E0= -.19210385E+03  d E =-.246559E-01
       N       E                     dE             d eps       ncg     rms          rms(c)
DAV:   1    -0.192194770146E+03   -0.17793E-01   -0.74786E+00  8160   0.585E+00    0.648E-01
DAV:   2    -0.192216586372E+03   -0.21816E-01   -0.23442E-01 10960   0.171E+00    0.923E-01
DAV:   3    -0.192210575267E+03    0.60111E-02   -0.38208E-02 12480   0.167E+00    0.685E-01
DAV:   4    -0.192205524555E+03    0.50507E-02   -0.10731E-02 12320   0.837E-01    0.293E-01
DAV:   5    -0.192204598941E+03    0.92561E-03   -0.50718E-03 12200   0.466E-01    0.239E-01
DAV:   6    -0.192204900539E+03   -0.30160E-03   -0.32168E-03 12040   0.498E-01    0.261E-01
DAV:   7    -0.192203883053E+03    0.10175E-02   -0.13976E-03 11800   0.298E-01    0.367E-02
DAV:   8    -0.192203892542E+03   -0.94892E-05   -0.12920E-04  7000   0.680E-02
  59 F= -.19220389E+03 E0= -.19213125E+03  d E =-.269537E-01
       N       E                     dE             d eps       ncg     rms          rms(c)
DAV:   1    -0.192204242490E+03   -0.35944E-03   -0.83047E-01  8160   0.197E+00    0.231E-01
DAV:   2    -0.192207404514E+03   -0.31620E-02   -0.21602E-02 12520   0.749E-01    0.478E-01
DAV:   3    -0.192204922565E+03    0.24819E-02   -0.50855E-03 12480   0.664E-01    0.177E-01
DAV:   4    -0.192204584483E+03    0.33808E-03   -0.85035E-04 10400   0.187E-01    0.965E-02
DAV:   5    -0.192204585103E+03   -0.62032E-06   -0.76799E-04 10680   0.191E-01
  60 F= -.19220459E+03 E0= -.19213211E+03  d E =-.692561E-03
       N       E                     dE             d eps       ncg     rms          rms(c)
DAV:   1    -0.192213118873E+03   -0.85344E-02   -0.12883E+00  8160   0.241E+00    0.240E-01
DAV:   2    -0.192216728256E+03   -0.36094E-02   -0.34023E-02 11400   0.672E-01    0.388E-01
DAV:   3    -0.192215359791E+03    0.13685E-02   -0.52479E-03 11800   0.625E-01    0.234E-01
DAV:   4    -0.192214916973E+03    0.44282E-03   -0.13233E-03 11120   0.296E-01    0.133E-01
DAV:   5    -0.192214783019E+03    0.13395E-03   -0.72376E-04 11320   0.227E-01    0.106E-01
DAV:   6    -0.192214780479E+03    0.25401E-05   -0.44983E-04  9400   0.169E-01
  61 F= -.19221478E+03 E0= -.19214256E+03  d E =-.101954E-01
       N       E                     dE             d eps       ncg     rms          rms(c)
DAV:   1    -0.192222947827E+03   -0.81648E-02   -0.20228E+00  8160   0.304E+00    0.343E-01
DAV:   2    -0.192227964225E+03   -0.50164E-02   -0.57521E-02 11000   0.845E-01    0.465E-01
DAV:   3    -0.192226365151E+03    0.15991E-02   -0.99545E-03 12440   0.847E-01    0.365E-01
DAV:   4    -0.192225154462E+03    0.12107E-02   -0.31428E-03 12360   0.472E-01    0.182E-01
DAV:   5    -0.192224766799E+03    0.38766E-03   -0.14965E-03 10200   0.285E-01    0.138E-01
DAV:   6    -0.192224823963E+03   -0.57165E-04   -0.92689E-04 10760   0.269E-01
  62 F= -.19222482E+03 E0= -.19215285E+03  d E =-.100435E-01
       N       E                     dE             d eps       ncg     rms          rms(c)
DAV:   1    -0.192228929198E+03   -0.41624E-02   -0.51865E-01  8160   0.152E+00    0.162E-01
DAV:   2    -0.192230245549E+03   -0.13164E-02   -0.14176E-02 11360   0.423E-01    0.216E-01
DAV:   3    -0.192229724598E+03    0.52095E-03   -0.25055E-03 12520   0.371E-01    0.149E-01
DAV:   4    -0.192229565078E+03    0.15952E-03   -0.66573E-04 10120   0.215E-01    0.897E-02
DAV:   5    -0.192229473233E+03    0.91845E-04   -0.27872E-04  8240   0.128E-01
  63 F= -.19222947E+03 E0= -.19215774E+03  d E =-.464927E-02
       N       E                     dE             d eps       ncg     rms          rms(c)
DAV:   1    -0.192231701882E+03   -0.21368E-02   -0.10965E-01  8160   0.711E-01    0.106E-01
DAV:   2    -0.192232762060E+03   -0.10602E-02   -0.41341E-03 12600   0.414E-01    0.280E-01
DAV:   3    -0.192231740453E+03    0.10216E-02   -0.13623E-03 11000   0.340E-01    0.543E-02
DAV:   4    -0.192231785070E+03   -0.44617E-04   -0.17449E-04  6720   0.112E-01
  64 F= -.19223179E+03 E0= -.19216023E+03  d E =-.231184E-02
       N       E                     dE             d eps       ncg     rms          rms(c)
DAV:   1    -0.192236511859E+03   -0.47714E-02   -0.69036E-01  8160   0.176E+00    0.189E-01
DAV:   2    -0.192238169552E+03   -0.16577E-02   -0.17220E-02 12720   0.507E-01    0.268E-01
DAV:   3    -0.192237261996E+03    0.90756E-03   -0.33303E-03 12320   0.426E-01    0.159E-01
DAV:   4    -0.192237118880E+03    0.14312E-03   -0.95354E-04 11080   0.252E-01    0.118E-01
DAV:   5    -0.192236972587E+03    0.14629E-03   -0.42516E-04  8960   0.163E-01    0.788E-02
DAV:   6    -0.192236991576E+03   -0.18989E-04   -0.31465E-04  9520   0.158E-01
  65 F= -.19223699E+03 E0= -.19216597E+03  d E =-.520651E-02
       N       E                     dE             d eps       ncg     rms          rms(c)
DAV:   1    -0.192240079429E+03   -0.31068E-02   -0.36803E-01  8160   0.128E+00    0.131E-01
DAV:   2    -0.192241099953E+03   -0.10205E-02   -0.10483E-02 12480   0.370E-01    0.187E-01
DAV:   3    -0.192240766723E+03    0.33323E-03   -0.16404E-03 11640   0.317E-01    0.136E-01
DAV:   4    -0.192240617887E+03    0.14884E-03   -0.48882E-04  9080   0.185E-01    0.753E-02
DAV:   5    -0.192240541254E+03    0.76633E-04   -0.16503E-04  6440   0.894E-02
  66 F= -.19224054E+03 E0= -.19216980E+03  d E =-.354968E-02
       N       E                     dE             d eps       ncg     rms          rms(c)
DAV:   1    -0.192242380486E+03   -0.17626E-02   -0.10173E-01  8160   0.680E-01    0.114E-01
DAV:   2    -0.192243775713E+03   -0.13952E-02   -0.49708E-03 11760   0.495E-01    0.323E-01
DAV:   3    -0.192242383028E+03    0.13927E-02   -0.18118E-03 11520   0.393E-01    0.489E-02
DAV:   4    -0.192242425593E+03   -0.42565E-04   -0.15010E-04  6200   0.108E-01
  67 F= -.19224243E+03 E0= -.19217193E+03  d E =-.188434E-02
       N       E                     dE             d eps       ncg     rms          rms(c)
DAV:   1    -0.192245087109E+03   -0.27041E-02   -0.34181E-01  8160   0.124E+00    0.132E-01
DAV:   2    -0.192245863124E+03   -0.77601E-03   -0.86997E-03 12760   0.309E-01    0.166E-01
DAV:   3    -0.192245507563E+03    0.35556E-03   -0.15573E-03 11480   0.266E-01    0.119E-01
DAV:   4    -0.192245432913E+03    0.74650E-04   -0.46399E-04 10120   0.186E-01
  68 F= -.19224543E+03 E0= -.19217530E+03  d E =-.300732E-02
       N       E                     dE             d eps       ncg     rms          rms(c)
DAV:   1    -0.192247211048E+03   -0.17035E-02   -0.16811E-01  8160   0.878E-01    0.113E-01
DAV:   2    -0.192247967372E+03   -0.75632E-03   -0.52490E-03 12160   0.328E-01    0.229E-01
DAV:   3    -0.192247394120E+03    0.57325E-03   -0.12827E-03 11000   0.317E-01    0.950E-02
DAV:   4    -0.192247333403E+03    0.60717E-04   -0.28640E-04  7560   0.121E-01
  69 F= -.19224733E+03 E0= -.19217741E+03  d E =-.190049E-02
       N       E                     dE             d eps       ncg     rms          rms(c)
DAV:   1    -0.192248796048E+03   -0.14019E-02   -0.12745E-01  8160   0.758E-01    0.860E-02
DAV:   2    -0.192249131844E+03   -0.33580E-03   -0.34112E-03 12720   0.225E-01    0.131E-01
DAV:   3    -0.192248982333E+03    0.14951E-03   -0.54137E-04 10320   0.206E-01    0.825E-02
DAV:   4    -0.192248935490E+03    0.46843E-04   -0.16325E-04  6560   0.114E-01
  70 F= -.19224894E+03 E0= -.19217916E+03  d E =-.160209E-02
       N       E                     dE             d eps       ncg     rms          rms(c)
DAV:   1    -0.192251490383E+03   -0.25081E-02   -0.13897E+00  8160   0.250E+00    0.266E-01
DAV:   2    -0.192255427559E+03   -0.39372E-02   -0.41710E-02 12280   0.652E-01    0.355E-01
DAV:   3    -0.192254247014E+03    0.11805E-02   -0.67096E-03 12040   0.630E-01    0.275E-01
DAV:   4    -0.192253594858E+03    0.65216E-03   -0.18947E-03 12040   0.365E-01    0.148E-01
DAV:   5    -0.192253354496E+03    0.24036E-03   -0.80861E-04 10280   0.221E-01    0.112E-01
DAV:   6    -0.192253400518E+03   -0.46022E-04   -0.61011E-04 10360   0.219E-01
  71 F= -.19225340E+03 E0= -.19218392E+03  d E =-.446503E-02
       N       E                     dE             d eps       ncg     rms          rms(c)
DAV:   1    -0.192254344280E+03   -0.98978E-03   -0.42625E-01  8160   0.139E+00    0.153E-01
DAV:   2    -0.192256066931E+03   -0.17227E-02   -0.14813E-02 13440   0.523E-01    0.268E-01
DAV:   3    -0.192255191648E+03    0.87528E-03   -0.25210E-03 12240   0.410E-01    0.119E-01
DAV:   4    -0.192255085784E+03    0.10586E-03   -0.48899E-04  9040   0.168E-01    0.799E-02
DAV:   5    -0.192255027685E+03    0.58099E-04   -0.22057E-04  8040   0.121E-01
  72 F= -.19225503E+03 E0= -.19218593E+03  d E =-.162717E-02
       N       E                     dE             d eps       ncg     rms          rms(c)
DAV:   1    -0.192255187311E+03   -0.10153E-03   -0.26983E-03  9920   0.154E-01    0.602E-02
DAV:   2    -0.192255666959E+03   -0.47965E-03   -0.88555E-04 11000   0.264E-01    0.202E-01
DAV:   3    -0.192255136609E+03    0.53035E-03   -0.51056E-04  9480   0.226E-01    0.330E-02
DAV:   4    -0.192255137161E+03   -0.55258E-06   -0.42536E-05  5600   0.498E-02
  73 F= -.19225514E+03 E0= -.19218610E+03  d E =-.109477E-03
