<?xml version="1.0" encoding="ISO-8859-1"?>
<modeling>
 <generator>
  <i name="program" type="string">vasp </i>
  <i name="version" type="string">5.4.1  </i>
  <i name="subversion" type="string">05Feb16 (build Jul 05 2020 17:13:04) complex                          parallel </i>
  <i name="platform" type="string">IFC91_ompi </i>
  <i name="date" type="string">2024 04 30 </i>
  <i name="time" type="string">07:49:03 </i>
 </generator>
 <incar>
  <i type="int" name="ISTART">     0</i>
  <i type="string" name="PREC">normal</i>
  <i type="string" name="ALGO"> Normal</i>
  <i type="int" name="ISPIN">     1</i>
  <i type="int" name="ICHARG">     2</i>
  <i type="int" name="IBRION">     1</i>
  <i type="int" name="NSW">   100</i>
  <i type="int" name="ISIF">     3</i>
  <i type="int" name="ISYM">     0</i>
  <i name="SYMPREC">      0.00000001</i>
  <i name="POTIM">      0.50000000</i>
  <i type="logical" name="LREAL"> F  </i>
  <i type="logical" name="LPLANE"> F  </i>
  <i type="int" name="ISMEAR">     0</i>
  <i type="logical" name="LWAVE"> F  </i>
  <i type="logical" name="LCHARG"> F  </i>
  <v type="int" name="KPOINT_BSE">    -1     0     0     0</v>
 </incar>
 <kpoints>
  <generation param="Gamma">
   <v type="int" name="divisions">       8        8        1 </v>
   <v name="usershift">      0.00000000       0.00000000       0.00000000 </v>
   <v name="genvec1">      0.12500000       0.00000000       0.00000000 </v>
   <v name="genvec2">     -0.00000000       0.12500000       0.00000000 </v>
   <v name="genvec3">      0.00000000       0.00000000       1.00000000 </v>
   <v name="shift">      0.00000000       0.00000000       0.00000000 </v>
  </generation>
  <varray name="kpointlist" >
   <v>       0.00000000       0.00000000       0.00000000 </v>
   <v>       0.12500000       0.00000000       0.00000000 </v>
   <v>       0.25000000       0.00000000       0.00000000 </v>
   <v>       0.37500000       0.00000000       0.00000000 </v>
   <v>       0.50000000       0.00000000       0.00000000 </v>
   <v>       0.00000000       0.12500000       0.00000000 </v>
   <v>       0.12500000       0.12500000       0.00000000 </v>
   <v>       0.25000000       0.12500000       0.00000000 </v>
   <v>       0.37500000       0.12500000       0.00000000 </v>
   <v>       0.50000000       0.12500000       0.00000000 </v>
   <v>      -0.37500000       0.12500000       0.00000000 </v>
   <v>      -0.25000000       0.12500000       0.00000000 </v>
   <v>      -0.12500000       0.12500000       0.00000000 </v>
   <v>       0.00000000       0.25000000       0.00000000 </v>
   <v>       0.12500000       0.25000000       0.00000000 </v>
   <v>       0.25000000       0.25000000       0.00000000 </v>
   <v>       0.37500000       0.25000000       0.00000000 </v>
   <v>       0.50000000       0.25000000       0.00000000 </v>
   <v>      -0.37500000       0.25000000       0.00000000 </v>
   <v>      -0.25000000       0.25000000       0.00000000 </v>
   <v>      -0.12500000       0.25000000       0.00000000 </v>
   <v>      -0.00000000       0.37500000       0.00000000 </v>
   <v>       0.12500000       0.37500000       0.00000000 </v>
   <v>       0.25000000       0.37500000       0.00000000 </v>
   <v>       0.37500000       0.37500000       0.00000000 </v>
   <v>       0.50000000       0.37500000       0.00000000 </v>
   <v>      -0.37500000       0.37500000       0.00000000 </v>
   <v>      -0.25000000       0.37500000       0.00000000 </v>
   <v>      -0.12500000       0.37500000       0.00000000 </v>
   <v>       0.00000000       0.50000000       0.00000000 </v>
   <v>       0.12500000       0.50000000       0.00000000 </v>
   <v>       0.25000000       0.50000000       0.00000000 </v>
   <v>       0.37500000       0.50000000       0.00000000 </v>
   <v>       0.50000000       0.50000000       0.00000000 </v>
  </varray>
  <varray name="weights" >
   <v>       0.01562500 </v>
   <v>       0.03125000 </v>
   <v>       0.03125000 </v>
   <v>       0.03125000 </v>
   <v>       0.01562500 </v>
   <v>       0.03125000 </v>
   <v>       0.03125000 </v>
   <v>       0.03125000 </v>
   <v>       0.03125000 </v>
   <v>       0.03125000 </v>
   <v>       0.03125000 </v>
   <v>       0.03125000 </v>
   <v>       0.03125000 </v>
   <v>       0.03125000 </v>
   <v>       0.03125000 </v>
   <v>       0.03125000 </v>
   <v>       0.03125000 </v>
   <v>       0.03125000 </v>
   <v>       0.03125000 </v>
   <v>       0.03125000 </v>
   <v>       0.03125000 </v>
   <v>       0.03125000 </v>
   <v>       0.03125000 </v>
   <v>       0.03125000 </v>
   <v>       0.03125000 </v>
   <v>       0.03125000 </v>
   <v>       0.03125000 </v>
   <v>       0.03125000 </v>
   <v>       0.03125000 </v>
   <v>       0.01562500 </v>
   <v>       0.03125000 </v>
   <v>       0.03125000 </v>
   <v>       0.03125000 </v>
   <v>       0.01562500 </v>
  </varray>
 </kpoints>
 <parameters>
  <separator name="general" >
   <i type="string" name="SYSTEM">unknown system</i>
   <i type="logical" name="LCOMPAT"> F  </i>
  </separator>
  <separator name="electronic" >
   <i type="string" name="PREC">normal</i>
   <i name="ENMAX">    280.00000000</i>
   <i name="ENAUG">    373.43800000</i>
   <i name="EDIFF">      0.00010000</i>
   <i type="int" name="IALGO">    38</i>
   <i type="int" name="IWAVPR">    11</i>
   <i type="int" name="NBANDS">   120</i>
   <i name="NELECT">    159.00000000</i>
   <i type="int" name="TURBO">     0</i>
   <i type="int" name="IRESTART">     0</i>
   <i type="int" name="NREBOOT">     0</i>
   <i type="int" name="NMIN">     0</i>
   <i name="EREF">      0.00000000</i>
   <separator name="electronic smearing" >
    <i type="int" name="ISMEAR">     0</i>
    <i name="SIGMA">      0.20000000</i>
    <i name="KSPACING">      0.50000000</i>
    <i type="logical" name="KGAMMA"> T  </i>
   </separator>
   <separator name="electronic projectors" >
    <i type="logical" name="LREAL"> F  </i>
    <v name="ROPT">      0.00000000      0.00000000      0.00000000      0.00000000</v>
    <i type="int" name="LMAXPAW">  -100</i>
    <i type="int" name="LMAXMIX">     2</i>
    <i type="logical" name="NLSPLINE"> F  </i>
   </separator>
   <separator name="electronic startup" >
    <i type="int" name="ISTART">     0</i>
    <i type="int" name="ICHARG">     2</i>
    <i type="int" name="INIWAV">     1</i>
   </separator>
   <separator name="electronic spin" >
    <i type="int" name="ISPIN">     1</i>
    <i type="logical" name="LNONCOLLINEAR"> F  </i>
    <v name="MAGMOM">      1.00000000      1.00000000      1.00000000      1.00000000      1.00000000      1.00000000      1.00000000      1.00000000      1.00000000      1.00000000      1.00000000      1.00000000      1.00000000      1.00000000      1.00000000      1.00000000      1.00000000      1.00000000      1.00000000      1.00000000
      1.00000000      1.00000000      1.00000000      1.00000000      1.00000000      1.00000000      1.00000000</v>
    <i name="NUPDOWN">     -1.00000000</i>
    <i type="logical" name="LSORBIT"> F  </i>
    <v name="SAXIS">      0.00000000      0.00000000      1.00000000</v>
    <i type="logical" name="LSPIRAL"> F  </i>
    <v name="QSPIRAL">      0.00000000      0.00000000      0.00000000</v>
    <i type="logical" name="LZEROZ"> F  </i>
   </separator>
   <separator name="electronic exchange-correlation" >
    <i type="logical" name="LASPH"> F  </i>
    <i type="logical" name="LMETAGGA"> F  </i>
   </separator>
   <separator name="electronic convergence" >
    <i type="int" name="NELM">    60</i>
    <i type="int" name="NELMDL">    -5</i>
    <i type="int" name="NELMIN">     2</i>
    <i name="ENINI">    280.00000000</i>
    <separator name="electronic convergence detail" >
     <i type="logical" name="LDIAG"> T  </i>
     <i type="logical" name="LSUBROT"> F  </i>
     <i name="WEIMIN">      0.00100000</i>
     <i name="EBREAK">      0.00000021</i>
     <i name="DEPER">      0.30000000</i>
     <i type="int" name="NRMM">     4</i>
     <i name="TIME">      0.40000000</i>
    </separator>
   </separator>
   <separator name="electronic mixer" >
    <i name="AMIX">      0.40000000</i>
    <i name="BMIX">      1.00000000</i>
    <i name="AMIN">      0.10000000</i>
    <i name="AMIX_MAG">      1.60000000</i>
    <i name="BMIX_MAG">      1.00000000</i>
    <separator name="electronic mixer details" >
     <i type="int" name="IMIX">     4</i>
     <i type="logical" name="MIXFIRST"> F  </i>
     <i type="int" name="MAXMIX">   -45</i>
     <i name="WC">    100.00000000</i>
     <i type="int" name="INIMIX">     1</i>
     <i type="int" name="MIXPRE">     1</i>
     <i type="int" name="MREMOVE">     5</i>
    </separator>
   </separator>
   <separator name="electronic dipolcorrection" >
    <i type="logical" name="LDIPOL"> F  </i>
    <i type="logical" name="LMONO"> F  </i>
    <i type="int" name="IDIPOL">     0</i>
    <i name="EPSILON">      1.00000000</i>
    <v name="DIPOL">   -100.00000000   -100.00000000   -100.00000000</v>
    <i name="EFIELD">      0.00000000</i>
   </separator>
  </separator>
  <separator name="grids" >
   <i type="int" name="NGX">    42</i>
   <i type="int" name="NGY">    42</i>
   <i type="int" name="NGZ">   126</i>
   <i type="int" name="NGXF">    84</i>
   <i type="int" name="NGYF">    84</i>
   <i type="int" name="NGZF">   252</i>
   <i type="logical" name="ADDGRID"> F  </i>
  </separator>
  <separator name="ionic" >
   <i type="int" name="NSW">   100</i>
   <i type="int" name="IBRION">     1</i>
   <i type="int" name="ISIF">     3</i>
   <i name="PSTRESS">      0.00000000</i>
   <i name="EDIFFG">      0.00100000</i>
   <i type="int" name="NFREE">     0</i>
   <i name="POTIM">      0.50000000</i>
   <i name="SMASS">     -3.00000000</i>
   <i name="SCALEE">      1.00000000</i>
  </separator>
  <separator name="ionic md" >
   <i name="TEBEG">      0.00010000</i>
   <i name="TEEND">      0.00010000</i>
   <i type="int" name="NBLOCK">     1</i>
   <i type="int" name="KBLOCK">   100</i>
   <i type="int" name="NPACO">   256</i>
   <i name="APACO">     16.00000000</i>
  </separator>
  <separator name="symmetry" >
   <i type="int" name="ISYM">     0</i>
   <i name="SYMPREC">      0.00000001</i>
  </separator>
  <separator name="dos" >
   <i type="logical" name="LORBIT"> F  </i>
   <v name="RWIGS">     -1.00000000     -1.00000000     -1.00000000     -1.00000000</v>
   <i type="int" name="NEDOS">   301</i>
   <i name="EMIN">     10.00000000</i>
   <i name="EMAX">    -10.00000000</i>
   <i name="EFERMI">      0.00000000</i>
  </separator>
  <separator name="writing" >
   <i type="int" name="NWRITE">     2</i>
   <i type="logical" name="LWAVE"> F  </i>
   <i type="logical" name="LCHARG"> F  </i>
   <i type="logical" name="LPARD"> F  </i>
   <i type="logical" name="LVTOT"> F  </i>
   <i type="logical" name="LVHAR"> F  </i>
   <i type="logical" name="LELF"> F  </i>
   <i type="logical" name="LOPTICS"> F  </i>
   <v name="STM">      0.00000000      0.00000000      0.00000000      0.00000000      0.00000000      0.00000000      0.00000000</v>
  </separator>
  <separator name="performance" >
   <i type="int" name="NPAR">    40</i>
   <i type="int" name="NSIM">     4</i>
   <i type="int" name="NBLK">    -1</i>
   <i type="logical" name="LPLANE"> F  </i>
   <i type="logical" name="LSCALAPACK"> T  </i>
   <i type="logical" name="LSCAAWARE"> F  </i>
   <i type="logical" name="LSCALU"> F  </i>
   <i type="logical" name="LASYNC"> F  </i>
   <i type="logical" name="LORBITALREAL"> F  </i>
  </separator>
  <separator name="miscellaneous" >
   <i type="int" name="IDIOT">     3</i>
   <i type="logical" name="LMUSIC"> F  </i>
   <v name="POMASS">     50.94100000     95.94000000    183.85000000     32.06600000</v>
   <v name="DARWINR">      0.00000000      0.00000000      0.00000000      0.00000000</v>
   <v name="DARWINV">      1.00000000      1.00000000      1.00000000      1.00000000</v>
   <i type="logical" name="LCORR"> T  </i>
  </separator>
  <i type="logical" name="GGA_COMPAT"> T  </i>
  <i type="logical" name="LBERRY"> F  </i>
  <i type="int" name="ICORELEVEL">     0</i>
  <i type="logical" name="LDAU"> F  </i>
  <i type="int" name="I_CONSTRAINED_M">     0</i>
  <separator name="electronic exchange-correlation" >
   <i type="string" name="GGA">--</i>
   <i type="int" name="VOSKOWN">     0</i>
   <i type="logical" name="LHFCALC"> F  </i>
   <i type="string" name="PRECFOCK"></i>
   <i type="logical" name="LSYMGRAD"> F  </i>
   <i type="logical" name="LHFONE"> F  </i>
   <i type="logical" name="LRHFCALC"> F  </i>
   <i type="logical" name="LTHOMAS"> F  </i>
   <i type="logical" name="LMODELHF"> F  </i>
   <i name="ENCUT4O">     -1.00000000</i>
   <i type="int" name="EXXOEP">     0</i>
   <i type="int" name="FOURORBIT">     0</i>
   <i name="AEXX">      0.00000000</i>
   <i name="HFALPHA">      0.00000000</i>
   <i name="MCALPHA">      0.00000000</i>
   <i name="ALDAX">      1.00000000</i>
   <i name="AGGAX">      1.00000000</i>
   <i name="ALDAC">      1.00000000</i>
   <i name="AGGAC">      1.00000000</i>
   <i type="int" name="NKREDX">     1</i>
   <i type="int" name="NKREDY">     1</i>
   <i type="int" name="NKREDZ">     1</i>
   <i type="logical" name="SHIFTRED"> F  </i>
   <i type="logical" name="ODDONLY"> F  </i>
   <i type="logical" name="EVENONLY"> F  </i>
   <i type="int" name="LMAXFOCK">     0</i>
   <i type="int" name="NMAXFOCKAE">     0</i>
   <i type="logical" name="LFOCKAEDFT"> F  </i>
   <i name="HFSCREEN">      0.00000000</i>
   <i name="HFSCREENC">      0.00000000</i>
   <i type="int" name="NBANDSGWLOW">     0</i>
  </separator>
  <separator name="vdW DFT" >
   <i type="logical" name="LUSE_VDW"> F  </i>
   <i name="Zab_VDW">     -0.84910000</i>
   <i name="PARAM1">      0.12340000</i>
   <i name="PARAM2">      1.00000000</i>
   <i name="PARAM3">      0.00000000</i>
  </separator>
  <separator name="model GW" >
   <i type="int" name="MODEL_GW">     0</i>
   <i name="MODEL_EPS0">     58.26239943</i>
   <i name="MODEL_ALPHA">      1.00000000</i>
  </separator>
  <separator name="linear response parameters" >
   <i type="logical" name="LEPSILON"> F  </i>
   <i type="logical" name="LRPA"> F  </i>
   <i type="logical" name="LNABLA"> F  </i>
   <i type="logical" name="LVEL"> F  </i>
   <i type="int" name="KINTER">     0</i>
   <i name="CSHIFT">      0.10000000</i>
   <i name="OMEGAMAX">     -1.00000000</i>
   <i name="DEG_THRESHOLD">      0.00200000</i>
  </separator>
  <separator name="orbital magnetization" >
   <i type="logical" name="NUCIND"> F  </i>
   <v name="MAGPOS">      0.00000000      0.00000000      0.00000000</v>
   <i type="logical" name="LNICSALL"> T  </i>
   <i type="logical" name="ORBITALMAG"> F  </i>
   <i type="logical" name="LMAGBLOCH"> F  </i>
   <i type="logical" name="LCHIMAG"> F  </i>
   <i type="logical" name="LGAUGE"> T  </i>
   <i type="int" name="MAGATOM">     0</i>
   <v name="MAGDIPOL">      0.00000000      0.00000000      0.00000000</v>
   <v name="AVECCONST">      0.00000000      0.00000000      0.00000000</v>
  </separator>
  <separator name="response functions" >
   <i type="logical" name="LADDER"> F  </i>
   <i type="logical" name="LFXC"> F  </i>
   <i type="logical" name="LHARTREE"> T  </i>
   <i type="int" name="IBSE">     0</i>
   <v type="int" name="KPOINT">    -1     0     0     0</v>
   <i type="logical" name="LTCTE"> F  </i>
   <i type="logical" name="LTETE"> F  </i>
   <i type="logical" name="LTRIPLET"> F  </i>
   <i type="logical" name="LFXCEPS"> F  </i>
   <i type="logical" name="LFXHEG"> F  </i>
   <i type="int" name="NATURALO">     0</i>
   <i type="logical" name="L2ORDER"> F  </i>
   <i type="logical" name="LUSEW"> F  </i>
   <i name="ENCUTGW">     -2.00000000</i>
   <i name="ENCUTGWSOFT">     -2.00000000</i>
   <i name="ENCUTLF">     -1.00000000</i>
   <i type="int" name="LMAXMP2">    -1</i>
   <i name="SCISSOR">      0.00000000</i>
   <i type="int" name="NOMEGA">     0</i>
   <i type="int" name="NOMEGAR">     0</i>
   <i type="int" name="NBANDSGW">    -1</i>
   <i type="int" name="NBANDSO">    -1</i>
   <i type="int" name="NBANDSV">    -1</i>
   <i type="int" name="NELM">     1</i>
   <i type="int" name="NELMHF">     1</i>
   <i type="int" name="DIM">     3</i>
   <i type="int" name="ANTIRES">     0</i>
   <i name="OMEGAMAX">    -30.00000000</i>
   <i name="OMEGAMIN">    -30.00000000</i>
   <i name="OMEGATL">   -200.00000000</i>
   <i type="int" name="OMEGAGRID">     0</i>
   <i name="CSHIFT">     -0.10000000</i>
   <i type="logical" name="SELFENERGY"> F  </i>
   <i type="logical" name="LSPECTRAL"> F  </i>
   <i type="logical" name="LSPECTRALGW"> F  </i>
   <i type="logical" name="LSINGLES"> F  </i>
   <i type="logical" name="LFERMIGW"> F  </i>
   <i type="logical" name="ODDONLYGW"> F  </i>
   <i type="logical" name="EVENONLYGW"> F  </i>
   <i type="int" name="NKREDLFX">     1</i>
   <i type="int" name="NKREDLFY">     1</i>
   <i type="int" name="NKREDLFZ">     1</i>
   <i type="int" name="MAXMEM">  1800</i>
   <i type="int" name="TELESCOPE">     0</i>
   <i type="int" name="TAUPAR">     1</i>
   <i type="int" name="OMEGAPAR">    -1</i>
   <i name="LAMBDA">      1.00000000</i>
  </separator>
  <separator name="External order field" >
   <i name="OFIELD_KAPPA">      0.00000000</i>
   <v name="OFIELD_K">      0.00000000      0.00000000      0.00000000</v>
   <i name="OFIELD_Q6_NEAR">      0.00000000</i>
   <i name="OFIELD_Q6_FAR">      0.00000000</i>
   <i name="OFIELD_A">      0.00000000</i>
  </separator>
 </parameters>
 <atominfo>
  <atoms>      27 </atoms>
  <types>       4 </types>
  <array name="atoms" >
   <dimension dim="1">ion</dimension>
   <field type="string">element</field>
   <field type="int">atomtype</field>
   <set>
    <rc><c>V </c><c>   1</c></rc>
    <rc><c>V </c><c>   1</c></rc>
    <rc><c>V </c><c>   1</c></rc>
    <rc><c>Mo</c><c>   2</c></rc>
    <rc><c>Mo</c><c>   2</c></rc>
    <rc><c>Mo</c><c>   2</c></rc>
    <rc><c>W </c><c>   3</c></rc>
    <rc><c>W </c><c>   3</c></rc>
    <rc><c>W </c><c>   3</c></rc>
    <rc><c>S </c><c>   4</c></rc>
    <rc><c>S </c><c>   4</c></rc>
    <rc><c>S </c><c>   4</c></rc>
    <rc><c>S </c><c>   4</c></rc>
    <rc><c>S </c><c>   4</c></rc>
    <rc><c>S </c><c>   4</c></rc>
    <rc><c>S </c><c>   4</c></rc>
    <rc><c>S </c><c>   4</c></rc>
    <rc><c>S </c><c>   4</c></rc>
    <rc><c>S </c><c>   4</c></rc>
    <rc><c>S </c><c>   4</c></rc>
    <rc><c>S </c><c>   4</c></rc>
    <rc><c>S </c><c>   4</c></rc>
    <rc><c>S </c><c>   4</c></rc>
    <rc><c>S </c><c>   4</c></rc>
    <rc><c>S </c><c>   4</c></rc>
    <rc><c>S </c><c>   4</c></rc>
    <rc><c>S </c><c>   4</c></rc>
   </set>
  </array>
  <array name="atomtypes" >
   <dimension dim="1">type</dimension>
   <field type="int">atomspertype</field>
   <field type="string">element</field>
   <field>mass</field>
   <field>valence</field>
   <field type="string">pseudopotential</field>
   <set>
    <rc><c>   3</c><c>V </c><c>     50.94100000</c><c>      5.00000000</c><c> PAW_PBE V 08Apr2002                    </c></rc>
    <rc><c>   3</c><c>Mo</c><c>     95.94000000</c><c>      6.00000000</c><c> PAW_PBE Mo 08Apr2002                   </c></rc>
    <rc><c>   3</c><c>W </c><c>    183.85000000</c><c>      6.00000000</c><c> PAW_PBE W 08Apr2002                    </c></rc>
    <rc><c>  18</c><c>S </c><c>     32.06600000</c><c>      6.00000000</c><c>  PAW_PBE S 17Jan2003                   </c></rc>
   </set>
  </array>
 </atominfo>
 <structure name="initialpos" >
  <crystal>
   <varray name="basis" >
    <v>       8.66999996       5.03999989       0.00000000 </v>
    <v>      -8.66999982       5.04000013       0.00000000 </v>
    <v>       0.00000000       0.00000000      30.00000000 </v>
   </varray>
   <i name="volume">   2621.80797419 </i>
   <varray name="rec_basis" >
    <v>       0.05767013       0.09920635       0.00000000 </v>
    <v>      -0.05767013       0.09920635       0.00000000 </v>
    <v>       0.00000000       0.00000000       0.03333333 </v>
   </varray>
  </crystal>
  <varray name="positions" >
   <v>       0.33333334       0.66666669       0.00000000 </v>
   <v>       0.66666669       0.33333334       0.00000000 </v>
   <v>       0.66666669       0.00000000       0.00000000 </v>
   <v>       0.00000000       0.66666669       0.00000000 </v>
   <v>       0.33333334       0.33333334       0.00000000 </v>
   <v>       1.00000000       0.33333334       0.00000000 </v>
   <v>       0.00000000       0.00000000       0.00000000 </v>
   <v>       0.33333334       0.00000000       0.00000000 </v>
   <v>       0.66666669       0.66666669       0.00000000 </v>
   <v>       0.11068511       0.22244981       0.95539999 </v>
   <v>       0.22244981       0.11068511       0.04460000 </v>
   <v>       0.11068511       0.55578315       0.95539999 </v>
   <v>       0.22244981       0.44401845       0.04460000 </v>
   <v>       0.11068511       0.88911647       0.95539999 </v>
   <v>       0.22244981       0.77735180       0.04460000 </v>
   <v>       0.44401845       0.22244981       0.95539999 </v>
   <v>       0.55578315       0.11068511       0.04460000 </v>
   <v>       0.44401845       0.55578315       0.95539999 </v>
   <v>       0.55578315       0.44401845       0.04460000 </v>
   <v>       0.44401845       0.88911647       0.95539999 </v>
   <v>       0.55578315       0.77735180       0.04460000 </v>
   <v>       0.77735180       0.22244981       0.95539999 </v>
   <v>       0.88911647       0.11068511       0.04460000 </v>
   <v>       0.77735180       0.55578315       0.95539999 </v>
   <v>       0.88911647       0.44401845       0.04460000 </v>
   <v>       0.77735180       0.88911647       0.95539999 </v>
   <v>       0.88911647       0.77735180       0.04460000 </v>
  </varray>
 </structure>
 <calculation>
  <scstep>
   <time name="dav">   22.09   22.14</time>
   <time name="total">   22.13   22.19</time>
   <energy>
    <i name="alphaZ">     81.65567618 </i>
    <i name="ewald">  41890.23010370 </i>
    <i name="hartreedc"> -47722.86569337 </i>
    <i name="XCdc">   -242.92873458 </i>
    <i name="pawpsdc">   3467.42045192 </i>
    <i name="pawaedc">  -2871.19716117 </i>
    <i name="eentropy">     -0.52629561 </i>
    <i name="bandstr">   -238.66332862 </i>
    <i name="atom">   6761.44252427 </i>
    <i name="e_fr_energy">   1124.56754274 </i>
    <i name="e_wo_entrp">   1125.09383834 </i>
    <i name="e_0_energy">   1124.83069054 </i>
   </energy>
  </scstep>
  <scstep>
   <time name="dav">   28.16   28.22</time>
   <time name="total">   28.16   28.23</time>
   <energy>
    <i name="e_fr_energy">     -1.87355778 </i>
    <i name="e_wo_entrp">     -1.70903192 </i>
    <i name="e_0_energy">     -1.79129485 </i>
   </energy>
  </scstep>
  <scstep>
   <time name="dav">   28.16   28.23</time>
   <time name="total">   28.17   28.24</time>
   <energy>
    <i name="e_fr_energy">   -199.84732136 </i>
    <i name="e_wo_entrp">   -199.59460984 </i>
    <i name="e_0_energy">   -199.72096560 </i>
   </energy>
  </scstep>
  <scstep>
   <time name="dav">   30.33   30.41</time>
   <time name="total">   30.34   30.41</time>
   <energy>
    <i name="e_fr_energy">   -208.99206419 </i>
    <i name="e_wo_entrp">   -208.70811023 </i>
    <i name="e_0_energy">   -208.85008721 </i>
   </energy>
  </scstep>
  <scstep>
   <time name="dav">   29.08   29.15</time>
   <time name="total">   29.55   29.63</time>
   <energy>
    <i name="e_fr_energy">   -209.31316146 </i>
    <i name="e_wo_entrp">   -209.03245840 </i>
    <i name="e_0_energy">   -209.17280993 </i>
   </energy>
  </scstep>
  <scstep>
   <time name="dav">   31.09   31.17</time>
   <time name="total">   31.59   31.68</time>
   <energy>
    <i name="e_fr_energy">   -237.22813629 </i>
    <i name="e_wo_entrp">   -236.95321344 </i>
    <i name="e_0_energy">   -237.09067486 </i>
   </energy>
  </scstep>
  <scstep>
   <time name="dav">   33.22   33.30</time>
   <time name="total">   33.72   33.81</time>
   <energy>
    <i name="e_fr_energy">   -196.46825089 </i>
    <i name="e_wo_entrp">   -196.13979112 </i>
    <i name="e_0_energy">   -196.30402101 </i>
   </energy>
  </scstep>
  <scstep>
   <time name="dav">   29.78   29.85</time>
   <time name="total">   30.29   30.37</time>
   <energy>
    <i name="e_fr_energy">   -189.43777164 </i>
    <i name="e_wo_entrp">   -189.14610676 </i>
    <i name="e_0_energy">   -189.29193920 </i>
   </energy>
  </scstep>
  <scstep>
   <time name="dav">   31.30   31.38</time>
   <time name="total">   31.83   31.91</time>
   <energy>
    <i name="e_fr_energy">   -188.23257993 </i>
    <i name="e_wo_entrp">   -187.91188688 </i>
    <i name="e_0_energy">   -188.07223340 </i>
   </energy>
  </scstep>
  <scstep>
   <time name="dav">   32.92   33.00</time>
   <time name="total">   33.45   33.54</time>
   <energy>
    <i name="e_fr_energy">   -187.08104758 </i>
    <i name="e_wo_entrp">   -186.73385216 </i>
    <i name="e_0_energy">   -186.90744987 </i>
   </energy>
  </scstep>
  <scstep>
   <time name="dav">   33.45   33.53</time>
   <time name="total">   33.98   34.07</time>
   <energy>
    <i name="e_fr_energy">   -187.03088108 </i>
    <i name="e_wo_entrp">   -186.68272930 </i>
    <i name="e_0_energy">   -186.85680519 </i>
   </energy>
  </scstep>
  <scstep>
   <time name="dav">   31.39   31.47</time>
   <time name="total">   31.93   32.01</time>
   <energy>
    <i name="e_fr_energy">   -187.17667417 </i>
    <i name="e_wo_entrp">   -186.83813432 </i>
    <i name="e_0_energy">   -187.00740424 </i>
   </energy>
  </scstep>
  <scstep>
   <time name="dav">   32.61   32.69</time>
   <time name="total">   33.15   33.24</time>
   <energy>
    <i name="e_fr_energy">   -186.93066190 </i>
    <i name="e_wo_entrp">   -186.59576919 </i>
    <i name="e_0_energy">   -186.76321554 </i>
   </energy>
  </scstep>
  <scstep>
   <time name="dav">   33.31   33.39</time>
   <time name="total">   33.85   33.94</time>
   <energy>
    <i name="e_fr_energy">   -186.88200304 </i>
    <i name="e_wo_entrp">   -186.53806145 </i>
    <i name="e_0_energy">   -186.71003225 </i>
   </energy>
  </scstep>
  <scstep>
   <time name="dav">   31.15   31.23</time>
   <time name="total">   31.68   31.77</time>
   <energy>
    <i name="e_fr_energy">   -186.88339745 </i>
    <i name="e_wo_entrp">   -186.53820426 </i>
    <i name="e_0_energy">   -186.71080085 </i>
   </energy>
  </scstep>
  <scstep>
   <time name="dav">   32.85   32.92</time>
   <time name="total">   33.38   33.47</time>
   <energy>
    <i name="e_fr_energy">   -186.87519437 </i>
    <i name="e_wo_entrp">   -186.52964024 </i>
    <i name="e_0_energy">   -186.70241731 </i>
   </energy>
  </scstep>
  <scstep>
   <time name="dav">   31.36   31.44</time>
   <time name="total">   31.90   31.98</time>
   <energy>
    <i name="e_fr_energy">   -186.87180729 </i>
    <i name="e_wo_entrp">   -186.52856125 </i>
    <i name="e_0_energy">   -186.70018427 </i>
   </energy>
  </scstep>
  <scstep>
   <time name="dav">   30.27   30.34</time>
   <time name="total">   30.80   30.88</time>
   <energy>
    <i name="e_fr_energy">   -186.87162607 </i>
    <i name="e_wo_entrp">   -186.52799525 </i>
    <i name="e_0_energy">   -186.69981066 </i>
   </energy>
  </scstep>
  <scstep>
   <time name="dav">   28.13   28.19</time>
   <time name="total">   28.66   28.74</time>
   <energy>
    <i name="e_fr_energy">   -186.87127520 </i>
    <i name="e_wo_entrp">   -186.52751821 </i>
    <i name="e_0_energy">   -186.69939670 </i>
   </energy>
  </scstep>
  <scstep>
   <time name="dav">   24.31   24.37</time>
   <time name="total">   24.85   24.92</time>
   <energy>
    <i name="e_fr_energy">   -186.87203436 </i>
    <i name="e_wo_entrp">   -186.52853950 </i>
    <i name="e_0_energy">   -186.70028693 </i>
   </energy>
  </scstep>
  <scstep>
   <time name="dav">   22.30   22.36</time>
   <time name="total">   22.84   22.90</time>
   <energy>
    <i name="e_fr_energy">   -186.87265103 </i>
    <i name="e_wo_entrp">   -186.52914001 </i>
    <i name="e_0_energy">   -186.70089552 </i>
   </energy>
  </scstep>
  <scstep>
   <time name="dav">   20.72   20.77</time>
   <time name="total">   21.25   21.31</time>
   <energy>
    <i name="e_fr_energy">   -186.87376050 </i>
    <i name="e_wo_entrp">   -186.53021981 </i>
    <i name="e_0_energy">   -186.70199015 </i>
   </energy>
  </scstep>
  <scstep>
   <time name="dav">   20.71   20.76</time>
   <time name="total">   21.25   21.31</time>
   <energy>
    <i name="e_fr_energy">   -186.87498137 </i>
    <i name="e_wo_entrp">   -186.53151898 </i>
    <i name="e_0_energy">   -186.70325017 </i>
   </energy>
  </scstep>
  <scstep>
   <time name="dav">   19.31   19.36</time>
   <time name="total">   19.85   19.90</time>
   <energy>
    <i name="e_fr_energy">   -186.87556565 </i>
    <i name="e_wo_entrp">   -186.53207777 </i>
    <i name="e_0_energy">   -186.70382171 </i>
   </energy>
  </scstep>
  <scstep>
   <time name="dav">   16.63   16.67</time>
   <time name="total">   17.17   17.21</time>
   <energy>
    <i name="e_fr_energy">   -186.87594350 </i>
    <i name="e_wo_entrp">   -186.53241778 </i>
    <i name="e_0_energy">   -186.70418064 </i>
   </energy>
  </scstep>
  <scstep>
   <time name="dav">   19.56   19.61</time>
   <time name="total">   20.10   20.16</time>
   <energy>
    <i name="e_fr_energy">   -186.87616452 </i>
    <i name="e_wo_entrp">   -186.53265290 </i>
    <i name="e_0_energy">   -186.70440871 </i>
   </energy>
  </scstep>
  <scstep>
   <time name="dav">   19.82   19.87</time>
   <time name="total">   20.36   20.42</time>
   <energy>
    <i name="e_fr_energy">   -186.87626611 </i>
    <i name="e_wo_entrp">   -186.53275863 </i>
    <i name="e_0_energy">   -186.70451237 </i>
   </energy>
  </scstep>
  <scstep>
   <time name="dav">   20.44   20.49</time>
   <time name="total">   20.48   20.54</time>
   <energy>
    <i name="alphaZ">     81.65567618 </i>
    <i name="ewald">  41890.23010370 </i>
    <i name="hartreedc"> -47833.05112813 </i>
    <i name="XCdc">   -231.60063647 </i>
    <i name="pawpsdc">   4192.09534115 </i>
    <i name="pawaedc">  -3610.11439987 </i>
    <i name="eentropy">     -0.34350761 </i>
    <i name="bandstr">  -1437.19028983 </i>
    <i name="atom">   6761.44252427 </i>
    <i name="e_fr_energy">   -186.87631661 </i>
    <i name="e_wo_entrp">   -186.53280900 </i>
    <i name="e_0_energy">   -186.70456280 </i>
   </energy>
  </scstep>
  <structure>
   <crystal>
    <varray name="basis" >
     <v>       8.66999996       5.03999989       0.00000000 </v>
     <v>      -8.66999982       5.04000013       0.00000000 </v>
     <v>       0.00000000       0.00000000      30.00000000 </v>
    </varray>
    <i name="volume">   2621.80797419 </i>
    <varray name="rec_basis" >
     <v>       0.05767013       0.09920635       0.00000000 </v>
     <v>      -0.05767013       0.09920635       0.00000000 </v>
     <v>       0.00000000       0.00000000       0.03333333 </v>
    </varray>
   </crystal>
   <varray name="positions" >
    <v>       0.33333334       0.66666669       0.00000000 </v>
    <v>       0.66666669       0.33333334       0.00000000 </v>
    <v>       0.66666669       0.00000000       0.00000000 </v>
    <v>       0.00000000       0.66666669       0.00000000 </v>
    <v>       0.33333334       0.33333334       0.00000000 </v>
    <v>       1.00000000       0.33333334       0.00000000 </v>
    <v>       0.00000000       0.00000000       0.00000000 </v>
    <v>       0.33333334       0.00000000       0.00000000 </v>
    <v>       0.66666669       0.66666669       0.00000000 </v>
    <v>       0.11068511       0.22244981       0.95539999 </v>
    <v>       0.22244981       0.11068511       0.04460000 </v>
    <v>       0.11068511       0.55578315       0.95539999 </v>
    <v>       0.22244981       0.44401845       0.04460000 </v>
    <v>       0.11068511       0.88911647       0.95539999 </v>
    <v>       0.22244981       0.77735180       0.04460000 </v>
    <v>       0.44401845       0.22244981       0.95539999 </v>
    <v>       0.55578315       0.11068511       0.04460000 </v>
    <v>       0.44401845       0.55578315       0.95539999 </v>
    <v>       0.55578315       0.44401845       0.04460000 </v>
    <v>       0.44401845       0.88911647       0.95539999 </v>
    <v>       0.55578315       0.77735180       0.04460000 </v>
    <v>       0.77735180       0.22244981       0.95539999 </v>
    <v>       0.88911647       0.11068511       0.04460000 </v>
    <v>       0.77735180       0.55578315       0.95539999 </v>
    <v>       0.88911647       0.44401845       0.04460000 </v>
    <v>       0.77735180       0.88911647       0.95539999 </v>
    <v>       0.88911647       0.77735180       0.04460000 </v>
   </varray>
  </structure>
  <varray name="forces" >
   <v>      -0.00269004      -0.41630657       0.10207790 </v>
   <v>       0.08057028       0.21418516      -0.12216781 </v>
   <v>      -0.06620217       0.19501851      -0.01132562 </v>
   <v>       0.26536741      -0.13685187      -0.08327891 </v>
   <v>      -0.24667027      -0.16601710       0.10076005 </v>
   <v>      -0.05190826       0.27597804      -0.01343618 </v>
   <v>      -0.04218958       0.31180025       0.02760989 </v>
   <v>      -0.12223289      -0.07303588      -0.04030804 </v>
   <v>       0.18337957      -0.21803276       0.05850125 </v>
   <v>       0.20222717      -0.17441359      -2.89601190 </v>
   <v>      -0.07324768      -0.12588555       2.95628269 </v>
   <v>       0.50893474       0.68998397      -2.17902971 </v>
   <v>      -0.52210219       0.72554325       2.20000892 </v>
   <v>       0.05185503       0.10465569      -2.92457907 </v>
   <v>       0.69773714       0.16016159       2.12050515 </v>
   <v>       0.63698624       0.56782331      -2.12927080 </v>
   <v>       0.23893984       0.52444410       1.41168426 </v>
   <v>      -0.66163771       0.16383394      -2.09747978 </v>
   <v>       0.64330011       0.14816146       2.10498935 </v>
   <v>       0.73465110      -0.00040264      -1.43884684 </v>
   <v>      -0.74179399      -0.01688547       1.45821486 </v>
   <v>      -0.34860826      -0.67322107      -1.42145365 </v>
   <v>      -0.35535942      -0.69913860       2.14365880 </v>
   <v>       0.38440889      -0.71405907      -2.20958541 </v>
   <v>      -0.51556190      -0.70261173       2.15277314 </v>
   <v>      -0.58459911       0.01534154      -2.11166130 </v>
   <v>      -0.29355406       0.01993108       2.84136876 </v>
  </varray>
  <varray name="stress" >
   <v>       7.27536626       0.08572245      -1.50618301 </v>
   <v>       0.08572247       4.47026785       0.04432192 </v>
   <v>      -1.50618295       0.04432192      30.30705230 </v>
  </varray>
  <energy>
   <i name="e_fr_energy">   -186.87631661 </i>
   <i name="e_wo_entrp">   -186.70456280 </i>
   <i name="e_0_energy">     -0.34350761 </i>
  </energy>
  <time name="totalsc">  818.59  820.78</time>
 </calculation>
 <calculation>
  <scstep>
   <time name="dav">   22.02   22.07</time>
   <time name="total">   22.56   22.62</time>
   <energy>
    <i name="alphaZ">     78.92329983 </i>
    <i name="ewald">  39380.74368050 </i>
    <i name="hartreedc"> -45338.30764033 </i>
    <i name="XCdc">   -239.05504547 </i>
    <i name="pawpsdc">   4192.09529871 </i>
    <i name="pawaedc">  -3610.11437018 </i>
    <i name="eentropy">     -0.28039453 </i>
    <i name="bandstr">  -1412.94535735 </i>
    <i name="atom">   6761.44252427 </i>
    <i name="e_fr_energy">   -187.49800454 </i>
    <i name="e_wo_entrp">   -187.21761001 </i>
    <i name="e_0_energy">   -187.35780727 </i>
   </energy>
  </scstep>
  <scstep>
   <time name="dav">   30.77   30.84</time>
   <time name="total">   31.31   31.51</time>
   <energy>
    <i name="e_fr_energy">   -189.49891732 </i>
    <i name="e_wo_entrp">   -189.16633841 </i>
    <i name="e_0_energy">   -189.33262786 </i>
   </energy>
  </scstep>
  <scstep>
   <time name="dav">   30.90   30.97</time>
   <time name="total">   31.45   31.53</time>
   <energy>
    <i name="e_fr_energy">   -189.33180150 </i>
    <i name="e_wo_entrp">   -189.06828321 </i>
    <i name="e_0_energy">   -189.20004236 </i>
   </energy>
  </scstep>
  <scstep>
   <time name="dav">   29.92   29.99</time>
   <time name="total">   30.46   30.54</time>
   <energy>
    <i name="e_fr_energy">   -188.76708612 </i>
    <i name="e_wo_entrp">   -188.48341074 </i>
    <i name="e_0_energy">   -188.62524843 </i>
   </energy>
  </scstep>
  <scstep>
   <time name="dav">   30.97   31.04</time>
   <time name="total">   31.50   31.59</time>
   <energy>
    <i name="e_fr_energy">   -188.89441493 </i>
    <i name="e_wo_entrp">   -188.60868874 </i>
    <i name="e_0_energy">   -188.75155183 </i>
   </energy>
  </scstep>
  <scstep>
   <time name="dav">   31.69   31.77</time>
   <time name="total">   32.24   32.32</time>
   <energy>
    <i name="e_fr_energy">   -188.74626414 </i>
    <i name="e_wo_entrp">   -188.46326993 </i>
    <i name="e_0_energy">   -188.60476703 </i>
   </energy>
  </scstep>
  <scstep>
   <time name="dav">   29.60   29.67</time>
   <time name="total">   30.14   30.22</time>
   <energy>
    <i name="e_fr_energy">   -188.70700501 </i>
    <i name="e_wo_entrp">   -188.42207490 </i>
    <i name="e_0_energy">   -188.56453996 </i>
   </energy>
  </scstep>
  <scstep>
   <time name="dav">   31.97   32.05</time>
   <time name="total">   32.52   32.60</time>
   <energy>
    <i name="e_fr_energy">   -188.69433420 </i>
    <i name="e_wo_entrp">   -188.41276570 </i>
    <i name="e_0_energy">   -188.55354995 </i>
   </energy>
  </scstep>
  <scstep>
   <time name="dav">   29.88   29.95</time>
   <time name="total">   30.42   30.50</time>
   <energy>
    <i name="e_fr_energy">   -188.66864081 </i>
    <i name="e_wo_entrp">   -188.38712463 </i>
    <i name="e_0_energy">   -188.52788272 </i>
   </energy>
  </scstep>
  <scstep>
   <time name="dav">   28.60   28.67</time>
   <time name="total">   29.15   29.23</time>
   <energy>
    <i name="e_fr_energy">   -188.66728298 </i>
    <i name="e_wo_entrp">   -188.38683529 </i>
    <i name="e_0_energy">   -188.52705913 </i>
   </energy>
  </scstep>
  <scstep>
   <time name="dav">   32.81   32.89</time>
   <time name="total">   33.35   33.44</time>
   <energy>
    <i name="e_fr_energy">   -188.66653701 </i>
    <i name="e_wo_entrp">   -188.38704483 </i>
    <i name="e_0_energy">   -188.52679092 </i>
   </energy>
  </scstep>
  <scstep>
   <time name="dav">   30.27   30.34</time>
   <time name="total">   30.31   30.39</time>
   <energy>
    <i name="alphaZ">     78.92329983 </i>
    <i name="ewald">  39380.74368050 </i>
    <i name="hartreedc"> -45349.18136360 </i>
    <i name="XCdc">   -237.96894628 </i>
    <i name="pawpsdc">   3952.50190463 </i>
    <i name="pawaedc">  -3367.03848535 </i>
    <i name="eentropy">     -0.27953334 </i>
    <i name="bandstr">  -1407.80966783 </i>
    <i name="atom">   6761.44252427 </i>
    <i name="e_fr_energy">   -188.66658718 </i>
    <i name="e_wo_entrp">   -188.38705383 </i>
    <i name="e_0_energy">   -188.52682050 </i>
   </energy>
  </scstep>
  <structure>
   <crystal>
    <varray name="basis" >
     <v>       8.85569324       5.10804813       0.00000000 </v>
     <v>      -8.85316663       5.10370225       0.00000000 </v>
     <v>       0.00000000       0.00000000      30.00000000 </v>
    </varray>
    <i name="volume">   2712.57668381 </i>
    <varray name="rec_basis" >
     <v>       0.05644488       0.09791244       0.00000000 </v>
     <v>      -0.05649294       0.09794038       0.00000000 </v>
     <v>       0.00000000       0.00000000       0.03333333 </v>
    </varray>
   </crystal>
   <varray name="positions" >
    <v>       0.33133343       0.66468174       0.00016415 </v>
    <v>       0.66791593       0.33413427      -0.00019646 </v>
    <v>       0.66741586       0.00111754      -0.00001821 </v>
    <v>       0.00008332       0.66527342      -0.00013392 </v>
    <v>       0.33185251       0.33322507       0.00016203 </v>
    <v>       1.00117641       0.33479859      -0.00002161 </v>
    <v>       0.00137489       0.00160965       0.00004440 </v>
    <v>       0.33264372      -0.00000948      -0.00006482 </v>
    <v>       0.66613338       0.66511300       0.00009408 </v>
    <v>       0.11041300       0.22105244       0.95074295 </v>
    <v>       0.22164354       0.11028641       0.04935396 </v>
    <v>       0.11540330       0.55766946       0.95189592 </v>
    <v>       0.22446967       0.44894346       0.04813781 </v>
    <v>       0.11133026       0.88947308       0.95069701 </v>
    <v>       0.22515756       0.77617711       0.04800996 </v>
    <v>       0.44850824       0.22339520       0.95197593 </v>
    <v>       0.55895790       0.11253032       0.04687011 </v>
    <v>       0.44296178       0.55840804       0.95202706 </v>
    <v>       0.55828201       0.44293779       0.04798501 </v>
    <v>       0.44606044       0.88707062       0.95308620 </v>
    <v>       0.55363855       0.77933477       0.04694494 </v>
    <v>       0.77315989       0.22019767       0.95311417 </v>
    <v>       0.88478174       0.10832772       0.04804719 </v>
    <v>       0.77500381       0.55129619       0.95184678 </v>
    <v>       0.88431941       0.44209015       0.04806185 </v>
    <v>       0.77579877       0.89081634       0.95200425 </v>
    <v>       0.88839514       0.77826390       0.04916917 </v>
   </varray>
  </structure>
  <varray name="forces" >
   <v>       0.01170934      -0.39021538       0.03036329 </v>
   <v>       0.02564252       0.27414614      -0.04324259 </v>
   <v>      -0.00581718       0.15697319      -0.01248254 </v>
   <v>       0.10386114      -0.09807072       0.04049371 </v>
   <v>      -0.20243108      -0.37005013      -0.03424085 </v>
   <v>       0.09448224       0.31098839       0.00390340 </v>
   <v>       0.11579525       0.44105211       0.00410710 </v>
   <v>      -0.38845460      -0.21410098      -0.09852574 </v>
   <v>       0.25131635      -0.11109942       0.08495565 </v>
   <v>       0.04435611      -0.10512279      -0.14024612 </v>
   <v>       0.06686254      -0.09647621       0.14198490 </v>
   <v>       0.03997103       0.07854249      -0.15684396 </v>
   <v>      -0.05078858       0.08336807       0.20111952 </v>
   <v>      -0.07596908       0.09193264      -0.02641175 </v>
   <v>      -0.00244799       0.11572552      -0.00542997 </v>
   <v>       0.08220792      -0.05660581       0.10367657 </v>
   <v>      -0.06804816      -0.07115790      -0.15318654 </v>
   <v>       0.00945059       0.11555159       0.05125802 </v>
   <v>      -0.01124842       0.09466678      -0.01662835 </v>
   <v>      -0.10364747      -0.00764129       0.24593943 </v>
   <v>       0.10459794      -0.01184542      -0.20731827 </v>
   <v>      -0.01548112      -0.03080662       0.03867764 </v>
   <v>       0.09511133      -0.04379380      -0.04542005 </v>
   <v>      -0.09008796      -0.07416920      -0.09075082 </v>
   <v>      -0.02096299      -0.08063788       0.04327694 </v>
   <v>       0.09901626      -0.00330080       0.14297139 </v>
   <v>      -0.10899589       0.00214745      -0.10200002 </v>
  </varray>
  <varray name="stress" >
   <v>     -20.01311689      -0.01401385       0.01436093 </v>
   <v>      -0.01401388     -19.57986964      -0.02043702 </v>
   <v>       0.01436088      -0.02043702      -1.79773718 </v>
  </varray>
  <energy>
   <i name="e_fr_energy">   -188.66658718 </i>
   <i name="e_wo_entrp">   -188.52682050 </i>
   <i name="e_0_energy">     -0.27953334 </i>
  </energy>
  <time name="totalsc">  407.64  408.84</time>
 </calculation>
 <calculation>
  <scstep>
   <time name="dav">   24.17   24.23</time>
   <time name="total">   24.71   24.77</time>
   <energy>
    <i name="alphaZ">     82.34446765 </i>
    <i name="ewald">  41301.85966125 </i>
    <i name="hartreedc"> -47300.81363185 </i>
    <i name="XCdc">   -233.85409700 </i>
    <i name="pawpsdc">   3950.48514212 </i>
    <i name="pawaedc">  -3364.99820929 </i>
    <i name="eentropy">     -0.23303028 </i>
    <i name="bandstr">  -1386.81468553 </i>
    <i name="atom">   6761.44252427 </i>
    <i name="e_fr_energy">   -190.58185866 </i>
    <i name="e_wo_entrp">   -190.34882837 </i>
    <i name="e_0_energy">   -190.46534351 </i>
   </energy>
  </scstep>
  <scstep>
   <time name="dav">   27.94   28.00</time>
   <time name="total">   28.46   28.53</time>
   <energy>
    <i name="e_fr_energy">   -190.56608484 </i>
    <i name="e_wo_entrp">   -190.33781605 </i>
    <i name="e_0_energy">   -190.45195045 </i>
   </energy>
  </scstep>
  <scstep>
   <time name="dav">   30.66   30.73</time>
   <time name="total">   31.19   31.27</time>
   <energy>
    <i name="e_fr_energy">   -190.05664263 </i>
    <i name="e_wo_entrp">   -189.80819565 </i>
    <i name="e_0_energy">   -189.93241914 </i>
   </energy>
  </scstep>
  <scstep>
   <time name="dav">   31.72   31.80</time>
   <time name="total">   32.26   32.34</time>
   <energy>
    <i name="e_fr_energy">   -189.85213773 </i>
    <i name="e_wo_entrp">   -189.62335665 </i>
    <i name="e_0_energy">   -189.73774719 </i>
   </energy>
  </scstep>
  <scstep>
   <time name="dav">   28.19   28.26</time>
   <time name="total">   28.72   28.80</time>
   <energy>
    <i name="e_fr_energy">   -189.78574021 </i>
    <i name="e_wo_entrp">   -189.54359643 </i>
    <i name="e_0_energy">   -189.66466832 </i>
   </energy>
  </scstep>
  <scstep>
   <time name="dav">   31.41   31.49</time>
   <time name="total">   31.95   32.03</time>
   <energy>
    <i name="e_fr_energy">   -189.75650652 </i>
    <i name="e_wo_entrp">   -189.52390067 </i>
    <i name="e_0_energy">   -189.64020360 </i>
   </energy>
  </scstep>
  <scstep>
   <time name="dav">   31.39   31.46</time>
   <time name="total">   31.92   32.01</time>
   <energy>
    <i name="e_fr_energy">   -189.74893520 </i>
    <i name="e_wo_entrp">   -189.51406447 </i>
    <i name="e_0_energy">   -189.63149984 </i>
   </energy>
  </scstep>
  <scstep>
   <time name="dav">   28.14   28.21</time>
   <time name="total">   28.68   28.76</time>
   <energy>
    <i name="e_fr_energy">   -189.74897062 </i>
    <i name="e_wo_entrp">   -189.51440953 </i>
    <i name="e_0_energy">   -189.63169007 </i>
   </energy>
  </scstep>
  <scstep>
   <time name="dav">   27.72   27.79</time>
   <time name="total">   28.26   28.33</time>
   <energy>
    <i name="e_fr_energy">   -189.74949313 </i>
    <i name="e_wo_entrp">   -189.51474111 </i>
    <i name="e_0_energy">   -189.63211712 </i>
   </energy>
  </scstep>
  <scstep>
   <time name="dav">   26.62   26.68</time>
   <time name="total">   27.15   27.22</time>
   <energy>
    <i name="e_fr_energy">   -189.74923690 </i>
    <i name="e_wo_entrp">   -189.51432605 </i>
    <i name="e_0_energy">   -189.63178148 </i>
   </energy>
  </scstep>
  <scstep>
   <time name="dav">   21.61   21.66</time>
   <time name="total">   22.15   22.21</time>
   <energy>
    <i name="e_fr_energy">   -189.74905742 </i>
    <i name="e_wo_entrp">   -189.51420818 </i>
    <i name="e_0_energy">   -189.63163280 </i>
   </energy>
  </scstep>
  <scstep>
   <time name="dav">   21.42   21.48</time>
   <time name="total">   21.46   21.52</time>
   <energy>
    <i name="alphaZ">     82.34446765 </i>
    <i name="ewald">  41301.85966125 </i>
    <i name="hartreedc"> -47274.11835768 </i>
    <i name="XCdc">   -235.24778501 </i>
    <i name="pawpsdc">   4038.40822432 </i>
    <i name="pawaedc">  -3454.11044522 </i>
    <i name="eentropy">     -0.23482695 </i>
    <i name="bandstr">  -1410.09253101 </i>
    <i name="atom">   6761.44252427 </i>
    <i name="e_fr_energy">   -189.74906837 </i>
    <i name="e_wo_entrp">   -189.51424143 </i>
    <i name="e_0_energy">   -189.63165490 </i>
   </energy>
  </scstep>
  <structure>
   <crystal>
    <varray name="basis" >
     <v>       8.66766778       5.00185233       0.00000000 </v>
     <v>      -8.66534656       4.99785988       0.00000000 </v>
     <v>       0.00000000       0.00000000      30.00000000 </v>
    </varray>
    <i name="volume">   2599.87718709 </i>
    <varray name="rec_basis" >
     <v>       0.05767034       0.09998949       0.00000000 </v>
     <v>      -0.05771641       0.10001628       0.00000000 </v>
     <v>       0.00000000       0.00000000       0.03333333 </v>
    </varray>
   </crystal>
   <varray name="positions" >
    <v>       0.33069845       0.66402421       0.00018127 </v>
    <v>       0.66839437       0.33456386      -0.00022083 </v>
    <v>       0.66767023       0.00138310      -0.00002525 </v>
    <v>       0.00002008       0.66501175      -0.00011109 </v>
    <v>       0.33104651       0.33280553       0.00014273 </v>
    <v>       1.00178157       0.33522343      -0.00001941 </v>
    <v>       0.00221577       0.00222956       0.00004671 </v>
    <v>       0.33191838       0.00000703      -0.00012036 </v>
    <v>       0.66618931       0.66468886       0.00014197 </v>
    <v>       0.11028127       0.22083594       0.95066389 </v>
    <v>       0.22154761       0.11006273       0.04943400 </v>
    <v>       0.11557151       0.55776137       0.95180750 </v>
    <v>       0.22455924       0.44913007       0.04825119 </v>
    <v>       0.11140997       0.88969793       0.95068212 </v>
    <v>       0.22534685       0.77637113       0.04800690 </v>
    <v>       0.44849298       0.22322290       0.95203438 </v>
    <v>       0.55877511       0.11247747       0.04678376 </v>
    <v>       0.44316214       0.55859041       0.95205595 </v>
    <v>       0.55842803       0.44310534       0.04797563 </v>
    <v>       0.44594885       0.88715699       0.95322484 </v>
    <v>       0.55371878       0.77921522       0.04682806 </v>
    <v>       0.77309410       0.22016144       0.95313597 </v>
    <v>       0.88480001       0.10816431       0.04802159 </v>
    <v>       0.77479500       0.55125941       0.95179562 </v>
    <v>       0.88416587       0.44197661       0.04808625 </v>
    <v>       0.77588783       0.89071627       0.95208485 </v>
    <v>       0.88829465       0.77837159       0.04911167 </v>
   </varray>
  </structure>
  <varray name="forces" >
   <v>       0.01989159      -0.39230354       0.00465021 </v>
   <v>      -0.01045950       0.30619750      -0.01360073 </v>
   <v>       0.03176320       0.14806911      -0.00913351 </v>
   <v>       0.04033031      -0.08886270       0.05344694 </v>
   <v>      -0.18618899      -0.43107702      -0.05074760 </v>
   <v>       0.14228982       0.31038139       0.00911930 </v>
   <v>       0.16673221       0.46013564       0.00023136 </v>
   <v>      -0.46915064      -0.25416971      -0.08202849 </v>
   <v>       0.27378897      -0.06543425       0.06604294 </v>
   <v>      -0.00947767      -0.03632117      -0.70398919 </v>
   <v>       0.03233832      -0.02344305       0.73024383 </v>
   <v>       0.07884889       0.14491147      -0.65129557 </v>
   <v>      -0.08914662       0.14163153       0.71255204 </v>
   <v>      -0.04129286       0.01087008      -0.59149010 </v>
   <v>       0.10309460       0.05184001       0.48730639 </v>
   <v>       0.06846035       0.07790941      -0.38639990 </v>
   <v>       0.00231350       0.05337254       0.28611181 </v>
   <v>      -0.09626322       0.05006068      -0.43082742 </v>
   <v>       0.10487097       0.00367647       0.47308000 </v>
   <v>       0.05492773      -0.01085887      -0.19428169 </v>
   <v>      -0.05428906      -0.01062190       0.23904711 </v>
   <v>      -0.04126160      -0.08025002      -0.40581286 </v>
   <v>      -0.02807340      -0.09456627       0.44514887 </v>
   <v>       0.02802493      -0.12935540      -0.60875200 </v>
   <v>      -0.04847702      -0.14539045       0.52728963 </v>
   <v>      -0.03392865      -0.00623723      -0.33998783 </v>
   <v>      -0.03966615       0.00983577       0.43407647 </v>
  </varray>
  <varray name="stress" >
   <v>     -10.17698733      -0.02392268      -0.01861399 </v>
   <v>      -0.02392263      -9.88112061      -0.03812760 </v>
   <v>      -0.01861383      -0.03812761       6.49639938 </v>
  </varray>
  <energy>
   <i name="e_fr_energy">   -189.74906837 </i>
   <i name="e_wo_entrp">   -189.63165490 </i>
   <i name="e_0_energy">     -0.23482695 </i>
  </energy>
  <time name="totalsc">  379.38  380.38</time>
 </calculation>
 <calculation>
  <scstep>
   <time name="dav">   22.04   22.09</time>
   <time name="total">   22.56   22.61</time>
   <energy>
    <i name="alphaZ">     85.81207482 </i>
    <i name="ewald">  42828.39411183 </i>
    <i name="hartreedc"> -48845.06311427 </i>
    <i name="XCdc">   -232.96722500 </i>
    <i name="pawpsdc">   4038.54422897 </i>
    <i name="pawaedc">  -3454.24427031 </i>
    <i name="eentropy">     -0.19140697 </i>
    <i name="bandstr">  -1373.01703344 </i>
    <i name="atom">   6761.44252427 </i>
    <i name="e_fr_energy">   -191.29011011 </i>
    <i name="e_wo_entrp">   -191.09870314 </i>
    <i name="e_0_energy">   -191.19440662 </i>
   </energy>
  </scstep>
  <scstep>
   <time name="dav">   33.17   33.25</time>
   <time name="total">   33.68   33.77</time>
   <energy>
    <i name="e_fr_energy">   -191.18220239 </i>
    <i name="e_wo_entrp">   -190.98387327 </i>
    <i name="e_0_energy">   -191.08303783 </i>
   </energy>
  </scstep>
  <scstep>
   <time name="dav">   29.67   29.74</time>
   <time name="total">   30.18   30.26</time>
   <energy>
    <i name="e_fr_energy">   -191.22295732 </i>
    <i name="e_wo_entrp">   -191.01141886 </i>
    <i name="e_0_energy">   -191.11718809 </i>
   </energy>
  </scstep>
  <scstep>
   <time name="dav">   31.10   31.17</time>
   <time name="total">   31.62   31.70</time>
   <energy>
    <i name="e_fr_energy">   -190.90091609 </i>
    <i name="e_wo_entrp">   -190.69186686 </i>
    <i name="e_0_energy">   -190.79639148 </i>
   </energy>
  </scstep>
  <scstep>
   <time name="dav">   28.42   28.48</time>
   <time name="total">   28.93   29.01</time>
   <energy>
    <i name="e_fr_energy">   -190.88931355 </i>
    <i name="e_wo_entrp">   -190.70361577 </i>
    <i name="e_0_energy">   -190.79646466 </i>
   </energy>
  </scstep>
  <scstep>
   <time name="dav">   28.20   28.27</time>
   <time name="total">   28.72   28.80</time>
   <energy>
    <i name="e_fr_energy">   -190.70776886 </i>
    <i name="e_wo_entrp">   -190.51011131 </i>
    <i name="e_0_energy">   -190.60894008 </i>
   </energy>
  </scstep>
  <scstep>
   <time name="dav">   28.79   28.86</time>
   <time name="total">   29.30   29.38</time>
   <energy>
    <i name="e_fr_energy">   -190.70611306 </i>
    <i name="e_wo_entrp">   -190.50967065 </i>
    <i name="e_0_energy">   -190.60789185 </i>
   </energy>
  </scstep>
  <scstep>
   <time name="dav">   26.87   26.93</time>
   <time name="total">   27.38   27.46</time>
   <energy>
    <i name="e_fr_energy">   -190.70306181 </i>
    <i name="e_wo_entrp">   -190.50602557 </i>
    <i name="e_0_energy">   -190.60454369 </i>
   </energy>
  </scstep>
  <scstep>
   <time name="dav">   31.08   31.15</time>
   <time name="total">   31.59   31.68</time>
   <energy>
    <i name="e_fr_energy">   -190.70294852 </i>
    <i name="e_wo_entrp">   -190.50591641 </i>
    <i name="e_0_energy">   -190.60443246 </i>
   </energy>
  </scstep>
  <scstep>
   <time name="dav">   29.08   29.15</time>
   <time name="total">   29.60   29.68</time>
   <energy>
    <i name="e_fr_energy">   -190.70300026 </i>
    <i name="e_wo_entrp">   -190.50604248 </i>
    <i name="e_0_energy">   -190.60452137 </i>
   </energy>
  </scstep>
  <scstep>
   <time name="dav">   25.21   25.28</time>
   <time name="total">   25.25   25.32</time>
   <energy>
    <i name="alphaZ">     85.81207482 </i>
    <i name="ewald">  42828.39411183 </i>
    <i name="hartreedc"> -48816.29903596 </i>
    <i name="XCdc">   -234.29887716 </i>
    <i name="pawpsdc">   4062.51807220 </i>
    <i name="pawaedc">  -3478.38711697 </i>
    <i name="eentropy">     -0.19700922 </i>
    <i name="bandstr">  -1399.68764504 </i>
    <i name="atom">   6761.44252427 </i>
    <i name="e_fr_energy">   -190.70290123 </i>
    <i name="e_wo_entrp">   -190.50589201 </i>
    <i name="e_0_energy">   -190.60439662 </i>
   </energy>
  </scstep>
  <structure>
   <crystal>
    <varray name="basis" >
     <v>       8.48661196       4.90094603       0.00000000 </v>
     <v>      -8.48536338       4.89880885       0.00000000 </v>
     <v>       0.00000000       0.00000000      30.00000000 </v>
    </varray>
    <i name="volume">   2494.81793079 </i>
    <varray name="rec_basis" >
     <v>       0.05890781       0.10203586       0.00000000 </v>
     <v>      -0.05893351       0.10205088       0.00000000 </v>
     <v>       0.00000000       0.00000000       0.03333333 </v>
    </varray>
   </crystal>
   <varray name="positions" >
    <v>       0.32832374       0.66148174       0.00016903 </v>
    <v>       0.67029931       0.33664877      -0.00022375 </v>
    <v>       0.66874252       0.00211817      -0.00004128 </v>
    <v>      -0.00045854       0.66442487       0.00001038 </v>
    <v>       0.32755046       0.33060570       0.00002381 </v>
    <v>       1.00430288       0.33658067       0.00000388 </v>
    <v>       0.00581531       0.00447987       0.00004390 </v>
    <v>       0.32842063       0.00012710      -0.00027588 </v>
    <v>       0.66691410       0.66337291       0.00026240 </v>
    <v>       0.11011425       0.22089233       0.94872972 </v>
    <v>       0.22165031       0.11003147       0.05144327 </v>
    <v>       0.11698368       0.55849281       0.95004114 </v>
    <v>       0.22521353       0.45053846       0.05015859 </v>
    <v>       0.11117653       0.88966261       0.94897934 </v>
    <v>       0.22603528       0.77601165       0.04943286 </v>
    <v>       0.44954311       0.22381875       0.95081924 </v>
    <v>       0.55952933       0.11301256       0.04774846 </v>
    <v>       0.44281230       0.55923974       0.95075578 </v>
    <v>       0.55876927       0.44235528       0.04936962 </v>
    <v>       0.44629926       0.88665434       0.95244915 </v>
    <v>       0.55323093       0.77957668       0.04770150 </v>
    <v>       0.77228294       0.21972213       0.95191945 </v>
    <v>       0.88380340       0.10772483       0.04935857 </v>
    <v>       0.77411946       0.55004126       0.95009718 </v>
    <v>       0.88288065       0.44112019       0.04958743 </v>
    <v>       0.77552778       0.89098390       0.95097168 </v>
    <v>       0.88833204       0.77849564       0.05046445 </v>
   </varray>
  </structure>
  <varray name="forces" >
   <v>       0.02752181      -0.34007780      -0.04818218 </v>
   <v>       0.00291202       0.36055602       0.04298602 </v>
   <v>       0.04045602       0.11774427      -0.00277673 </v>
   <v>      -0.00779446      -0.10087755       0.03191099 </v>
   <v>      -0.16835111      -0.52331002      -0.02623294 </v>
   <v>       0.17251068       0.27838708       0.01357924 </v>
   <v>       0.18850761       0.50327907      -0.00663289 </v>
   <v>      -0.50647944      -0.24292299      -0.02533088 </v>
   <v>       0.28097331      -0.03039532       0.02181111 </v>
   <v>      -0.05468389      -0.00845070      -0.54232149 </v>
   <v>      -0.01950420       0.03228167       0.59764187 </v>
   <v>       0.02533310       0.04500589      -0.44279294 </v>
   <v>      -0.02174055       0.03688806       0.54760690 </v>
   <v>      -0.01995202      -0.06502831      -0.45779069 </v>
   <v>       0.01957011       0.01247490       0.31028283 </v>
   <v>      -0.01201621       0.02048253      -0.23842216 </v>
   <v>      -0.04913770      -0.00267158       0.13997094 </v>
   <v>      -0.00693211      -0.02049007      -0.22574260 </v>
   <v>       0.03019667      -0.07341865       0.26427891 </v>
   <v>      -0.01998720      -0.03911168      -0.09179448 </v>
   <v>      -0.01640991      -0.03019663       0.17709447 </v>
   <v>       0.00313209       0.04335033      -0.32250407 </v>
   <v>      -0.00523314       0.03216010       0.29222148 </v>
   <v>       0.06295074      -0.03674276      -0.46699556 </v>
   <v>       0.02604446      -0.03897403       0.36779615 </v>
   <v>       0.03709972       0.02654861      -0.17831497 </v>
   <v>      -0.00898640       0.04350958       0.26865368 </v>
  </varray>
  <varray name="stress" >
   <v>      -5.93058496       0.07513046      -0.05250726 </v>
   <v>       0.07513030      -5.81272469       0.04975915 </v>
   <v>      -0.05250726       0.04975919       4.55794709 </v>
  </varray>
  <energy>
   <i name="e_fr_energy">   -190.70290123 </i>
   <i name="e_wo_entrp">   -190.60439662 </i>
   <i name="e_0_energy">     -0.19700922 </i>
  </energy>
  <time name="totalsc">  360.96  361.92</time>
 </calculation>
 <calculation>
  <scstep>
   <time name="dav">   22.04   22.10</time>
   <time name="total">   22.55   22.61</time>
   <energy>
    <i name="alphaZ">     90.35025480 </i>
    <i name="ewald">  44742.39258657 </i>
    <i name="hartreedc"> -50787.84317693 </i>
    <i name="XCdc">   -231.71992135 </i>
    <i name="pawpsdc">   4062.94269467 </i>
    <i name="pawaedc">  -3478.81115604 </i>
    <i name="eentropy">     -0.17714924 </i>
    <i name="bandstr">  -1350.71739429 </i>
    <i name="atom">   6761.44252427 </i>
    <i name="e_fr_energy">   -192.14073755 </i>
    <i name="e_wo_entrp">   -191.96358831 </i>
    <i name="e_0_energy">   -192.05216293 </i>
   </energy>
  </scstep>
  <scstep>
   <time name="dav">   30.49   30.57</time>
   <time name="total">   31.00   31.08</time>
   <energy>
    <i name="e_fr_energy">   -191.98325312 </i>
    <i name="e_wo_entrp">   -191.78372407 </i>
    <i name="e_0_energy">   -191.88348860 </i>
   </energy>
  </scstep>
  <scstep>
   <time name="dav">   30.60   30.67</time>
   <time name="total">   31.11   31.19</time>
   <energy>
    <i name="e_fr_energy">   -192.44527403 </i>
    <i name="e_wo_entrp">   -192.25417232 </i>
    <i name="e_0_energy">   -192.34972318 </i>
   </energy>
  </scstep>
  <scstep>
   <time name="dav">   30.65   30.72</time>
   <time name="total">   31.15   31.25</time>
   <energy>
    <i name="e_fr_energy">   -191.55083378 </i>
    <i name="e_wo_entrp">   -191.37146125 </i>
    <i name="e_0_energy">   -191.46114752 </i>
   </energy>
  </scstep>
  <scstep>
   <time name="dav">   29.66   29.73</time>
   <time name="total">   30.16   30.24</time>
   <energy>
    <i name="e_fr_energy">   -191.52956148 </i>
    <i name="e_wo_entrp">   -191.33214152 </i>
    <i name="e_0_energy">   -191.43085150 </i>
   </energy>
  </scstep>
  <scstep>
   <time name="dav">   30.46   30.53</time>
   <time name="total">   30.96   31.04</time>
   <energy>
    <i name="e_fr_energy">   -191.37576684 </i>
    <i name="e_wo_entrp">   -191.19342464 </i>
    <i name="e_0_energy">   -191.28459574 </i>
   </energy>
  </scstep>
  <scstep>
   <time name="dav">   29.99   30.06</time>
   <time name="total">   30.49   30.58</time>
   <energy>
    <i name="e_fr_energy">   -191.35121850 </i>
    <i name="e_wo_entrp">   -191.16635021 </i>
    <i name="e_0_energy">   -191.25878435 </i>
   </energy>
  </scstep>
  <scstep>
   <time name="dav">   29.99   30.07</time>
   <time name="total">   30.50   30.58</time>
   <energy>
    <i name="e_fr_energy">   -191.34943845 </i>
    <i name="e_wo_entrp">   -191.16285874 </i>
    <i name="e_0_energy">   -191.25614859 </i>
   </energy>
  </scstep>
  <scstep>
   <time name="dav">   28.92   28.99</time>
   <time name="total">   29.42   29.50</time>
   <energy>
    <i name="e_fr_energy">   -191.34353559 </i>
    <i name="e_wo_entrp">   -191.15778985 </i>
    <i name="e_0_energy">   -191.25066272 </i>
   </energy>
  </scstep>
  <scstep>
   <time name="dav">   29.49   29.56</time>
   <time name="total">   30.00   30.08</time>
   <energy>
    <i name="e_fr_energy">   -191.34367464 </i>
    <i name="e_wo_entrp">   -191.15761870 </i>
    <i name="e_0_energy">   -191.25064667 </i>
   </energy>
  </scstep>
  <scstep>
   <time name="dav">   27.30   27.37</time>
   <time name="total">   27.81   27.88</time>
   <energy>
    <i name="e_fr_energy">   -191.34351908 </i>
    <i name="e_wo_entrp">   -191.15715260 </i>
    <i name="e_0_energy">   -191.25033584 </i>
   </energy>
  </scstep>
  <scstep>
   <time name="dav">   19.86   19.90</time>
   <time name="total">   19.89   19.95</time>
   <energy>
    <i name="alphaZ">     90.35025480 </i>
    <i name="ewald">  44742.39258657 </i>
    <i name="hartreedc"> -50752.46196131 </i>
    <i name="XCdc">   -233.32537028 </i>
    <i name="pawpsdc">   4085.33835860 </i>
    <i name="pawaedc">  -3501.28406051 </i>
    <i name="eentropy">     -0.18626399 </i>
    <i name="bandstr">  -1383.60955249 </i>
    <i name="atom">   6761.44252427 </i>
    <i name="e_fr_energy">   -191.34348434 </i>
    <i name="e_wo_entrp">   -191.15722034 </i>
    <i name="e_0_energy">   -191.25035234 </i>
   </energy>
  </scstep>
  <structure>
   <crystal>
    <varray name="basis" >
     <v>       8.26989139       4.78155042       0.00000000 </v>
     <v>      -8.26452830       4.77228594       0.00000000 </v>
     <v>       0.00000000       0.00000000      30.00000000 </v>
    </varray>
    <i name="volume">   2369.50635518 </i>
    <varray name="rec_basis" >
     <v>       0.06042127       0.10463608       0.00000000 </v>
     <v>      -0.06053856       0.10470398       0.00000000 </v>
     <v>       0.00000000       0.00000000       0.03333333 </v>
    </varray>
   </crystal>
   <varray name="positions" >
    <v>       0.32413558       0.65687778      -0.00002656 </v>
    <v>       0.67480433       0.34126514      -0.00004761 </v>
    <v>       0.67060870       0.00327995      -0.00005280 </v>
    <v>      -0.00180458       0.66331819       0.00016722 </v>
    <v>       0.31969280       0.32518353      -0.00011497 </v>
    <v>       1.00918763       0.33884099       0.00006271 </v>
    <v>       0.01360264       0.00938181       0.00001640 </v>
    <v>       0.32140934       0.00071641      -0.00039480 </v>
    <v>       0.66869002       0.66098289       0.00035737 </v>
    <v>       0.10971987       0.22139396       0.94582336 </v>
    <v>       0.22203239       0.11071521       0.05458663 </v>
    <v>       0.11823386       0.55913001       0.94759023 </v>
    <v>       0.22574512       0.45165699       0.05303453 </v>
    <v>       0.11013411       0.88883276       0.94643541 </v>
    <v>       0.22647863       0.77563251       0.05131858 </v>
    <v>       0.45027871       0.22461665       0.94924848 </v>
    <v>       0.55978667       0.11363797       0.04886019 </v>
    <v>       0.44215216       0.55922976       0.94921368 </v>
    <v>       0.55819738       0.44078634       0.05108041 </v>
    <v>       0.44605072       0.88599244       0.95155927 </v>
    <v>       0.55245138       0.77966852       0.04892652 </v>
    <v>       0.77239956       0.21997225       0.95008545 </v>
    <v>       0.88355935       0.10803395       0.05115422 </v>
    <v>       0.77395771       0.54861717       0.94755945 </v>
    <v>       0.88207405       0.44017893       0.05169129 </v>
    <v>       0.77576457       0.89128674       0.94964826 </v>
    <v>       0.88887176       0.77898558       0.05221697 </v>
   </varray>
  </structure>
  <varray name="forces" >
   <v>       0.01996665      -0.19669103       0.00751466 </v>
   <v>       0.15338754       0.38499992       0.01147120 </v>
   <v>       0.02074945       0.08136187      -0.00298251 </v>
   <v>      -0.05190789      -0.10591374      -0.03390291 </v>
   <v>      -0.08646060      -0.32480235       0.06312173 </v>
   <v>       0.08496236       0.04414117      -0.02456624 </v>
   <v>       0.04853349       0.23730552      -0.08872173 </v>
   <v>      -0.30603162      -0.13007752       0.02776243 </v>
   <v>       0.19531916       0.08358263       0.00810355 </v>
   <v>      -0.09105621      -0.04229593      -0.23177794 </v>
   <v>      -0.06019801       0.05381043       0.33666235 </v>
   <v>      -0.03336210      -0.04885722      -0.08394638 </v>
   <v>       0.06442759      -0.05791027       0.14623588 </v>
   <v>      -0.05014712      -0.11621592      -0.17287131 </v>
   <v>      -0.08063340      -0.01081255      -0.00858804 </v>
   <v>      -0.10910484      -0.07031474       0.09328155 </v>
   <v>      -0.11537036      -0.05980067      -0.12246146 </v>
   <v>       0.12586555      -0.10906319       0.08366893 </v>
   <v>      -0.05478589      -0.14040629      -0.09326811 </v>
   <v>      -0.16153655      -0.07882735       0.12975739 </v>
   <v>       0.06789884      -0.05620966      -0.06917214 </v>
   <v>       0.01659778       0.14804613      -0.02644010 </v>
   <v>       0.09712480       0.15193439       0.01638806 </v>
   <v>       0.05959513       0.05367752      -0.15745405 </v>
   <v>       0.11642411       0.09773672       0.11232131 </v>
   <v>       0.15229050       0.09481370       0.08293016 </v>
   <v>      -0.02254838       0.11678842      -0.00306630 </v>
  </varray>
  <varray name="stress" >
   <v>      -0.09441083       0.25707485       0.11681100 </v>
   <v>       0.25707499       0.19191572       0.29525898 </v>
   <v>       0.11681111       0.29525890      -0.50336363 </v>
  </varray>
  <energy>
   <i name="e_fr_energy">   -191.34348434 </i>
   <i name="e_wo_entrp">   -191.25035234 </i>
   <i name="e_0_energy">     -0.18626399 </i>
  </energy>
  <time name="totalsc">  387.21  388.26</time>
 </calculation>
 <calculation>
  <scstep>
   <time name="dav">   21.98   22.03</time>
   <time name="total">   22.49   22.54</time>
   <energy>
    <i name="alphaZ">     90.34015325 </i>
    <i name="ewald">  44715.76438406 </i>
    <i name="hartreedc"> -50726.50351942 </i>
    <i name="XCdc">   -233.42224888 </i>
    <i name="pawpsdc">   4085.21581033 </i>
    <i name="pawaedc">  -3501.15685921 </i>
    <i name="eentropy">     -0.18922297 </i>
    <i name="bandstr">  -1382.88464613 </i>
    <i name="atom">   6761.44252427 </i>
    <i name="e_fr_energy">   -191.39362469 </i>
    <i name="e_wo_entrp">   -191.20440172 </i>
    <i name="e_0_energy">   -191.29901321 </i>
   </energy>
  </scstep>
  <scstep>
   <time name="dav">   31.97   32.04</time>
   <time name="total">   32.47   32.56</time>
   <energy>
    <i name="e_fr_energy">   -191.45429402 </i>
    <i name="e_wo_entrp">   -191.25301062 </i>
    <i name="e_0_energy">   -191.35365232 </i>
   </energy>
  </scstep>
  <scstep>
   <time name="dav">   30.30   30.38</time>
   <time name="total">   30.81   30.89</time>
   <energy>
    <i name="e_fr_energy">   -191.40411620 </i>
    <i name="e_wo_entrp">   -191.21443463 </i>
    <i name="e_0_energy">   -191.30927542 </i>
   </energy>
  </scstep>
  <scstep>
   <time name="dav">   28.88   28.95</time>
   <time name="total">   29.39   29.47</time>
   <energy>
    <i name="e_fr_energy">   -191.40438250 </i>
    <i name="e_wo_entrp">   -191.21314853 </i>
    <i name="e_0_energy">   -191.30876551 </i>
   </energy>
  </scstep>
  <scstep>
   <time name="dav">   28.93   29.00</time>
   <time name="total">   29.43   29.51</time>
   <energy>
    <i name="e_fr_energy">   -191.40102903 </i>
    <i name="e_wo_entrp">   -191.21003876 </i>
    <i name="e_0_energy">   -191.30553389 </i>
   </energy>
  </scstep>
  <scstep>
   <time name="dav">   28.84   28.90</time>
   <time name="total">   29.34   29.42</time>
   <energy>
    <i name="e_fr_energy">   -191.40110545 </i>
    <i name="e_wo_entrp">   -191.20984409 </i>
    <i name="e_0_energy">   -191.30547477 </i>
   </energy>
  </scstep>
  <scstep>
   <time name="dav">   28.65   28.72</time>
   <time name="total">   29.15   29.23</time>
   <energy>
    <i name="e_fr_energy">   -191.40107092 </i>
    <i name="e_wo_entrp">   -191.21006860 </i>
    <i name="e_0_energy">   -191.30556976 </i>
   </energy>
  </scstep>
  <scstep>
   <time name="dav">   25.67   25.74</time>
   <time name="total">   26.19   26.25</time>
   <energy>
    <i name="e_fr_energy">   -191.40058396 </i>
    <i name="e_wo_entrp">   -191.20955695 </i>
    <i name="e_0_energy">   -191.30507045 </i>
   </energy>
  </scstep>
  <scstep>
   <time name="dav">   17.79   17.83</time>
   <time name="total">   17.83   17.88</time>
   <energy>
    <i name="alphaZ">     90.34015325 </i>
    <i name="ewald">  44715.76438406 </i>
    <i name="hartreedc"> -50727.58004926 </i>
    <i name="XCdc">   -233.39682795 </i>
    <i name="pawpsdc">   4082.25378629 </i>
    <i name="pawaedc">  -3498.14919595 </i>
    <i name="eentropy">     -0.19104383 </i>
    <i name="bandstr">  -1381.88433079 </i>
    <i name="atom">   6761.44252427 </i>
    <i name="e_fr_energy">   -191.40059992 </i>
    <i name="e_wo_entrp">   -191.20955609 </i>
    <i name="e_0_energy">   -191.30507800 </i>
   </energy>
  </scstep>
  <structure>
   <crystal>
    <varray name="basis" >
     <v>       8.27047308       4.78932622       0.00000000 </v>
     <v>      -8.25855361       4.76870780       0.00000000 </v>
     <v>       0.00000000       0.00000000      30.00000000 </v>
    </varray>
    <i name="volume">   2369.77130592 </i>
    <varray name="rec_basis" >
     <v>       0.06036922       0.10454874       0.00000000 </v>
     <v>      -0.06063023       0.10469964       0.00000000 </v>
     <v>       0.00000000       0.00000000       0.03333333 </v>
    </varray>
   </crystal>
   <varray name="positions" >
    <v>       0.32317310       0.65579517      -0.00001531 </v>
    <v>       0.67723519       0.34279614      -0.00002817 </v>
    <v>       0.67109284       0.00363859      -0.00005769 </v>
    <v>      -0.00250246       0.66292679       0.00011310 </v>
    <v>       0.31774842       0.32375825      -0.00001342 </v>
    <v>       1.00968565       0.33882650       0.00002319 </v>
    <v>       0.01499021       0.01047041      -0.00012753 </v>
    <v>       0.31981396       0.00095773      -0.00035042 </v>
    <v>       0.66969798       0.66082212       0.00037098 </v>
    <v>       0.10923561       0.22144972       0.94543167 </v>
    <v>       0.22213151       0.11117005       0.05514949 </v>
    <v>       0.11789481       0.55898333       0.94744046 </v>
    <v>       0.22564302       0.45117942       0.05328727 </v>
    <v>       0.10939027       0.88838425       0.94614098 </v>
    <v>       0.22618930       0.77581178       0.05131559 </v>
    <v>       0.44960571       0.22458506       0.94939031 </v>
    <v>       0.55914671       0.11367706       0.04866869 </v>
    <v>       0.44196280       0.55830459       0.94933999 </v>
    <v>       0.55731974       0.44022395       0.05093938 </v>
    <v>       0.44517511       0.88606247       0.95176372 </v>
    <v>       0.55236027       0.77918402       0.04882182 </v>
    <v>       0.77320070       0.22067746       0.95003222 </v>
    <v>       0.88461463       0.10852263       0.05119123 </v>
    <v>       0.77440463       0.54870663       0.94729017 </v>
    <v>       0.88290791       0.44032849       0.05188527 </v>
    <v>       0.77669437       0.89132335       0.94977449 </v>
    <v>       0.88940247       0.77964850       0.05222241 </v>
   </varray>
  </structure>
  <varray name="forces" >
   <v>       0.02749510      -0.19819382      -0.00430984 </v>
   <v>       0.17991780       0.38507569       0.02113499 </v>
   <v>       0.01144916       0.08109153       0.02370859 </v>
   <v>      -0.05538637      -0.11438807      -0.01634210 </v>
   <v>      -0.12208838      -0.35266480       0.01687329 </v>
   <v>       0.07627530       0.05052421      -0.01340175 </v>
   <v>       0.06511882       0.26672236      -0.02531865 </v>
   <v>      -0.32951311      -0.16610047       0.00686247 </v>
   <v>       0.21435204       0.10211802       0.03238533 </v>
   <v>      -0.06432742      -0.02057257      -0.16201693 </v>
   <v>      -0.05948482      -0.00425670       0.21290287 </v>
   <v>      -0.01877962      -0.02000565      -0.04459576 </v>
   <v>       0.02514065      -0.04860543       0.10564360 </v>
   <v>      -0.02993738      -0.07066238      -0.10176220 </v>
   <v>      -0.05544994      -0.02001548      -0.02634605 </v>
   <v>      -0.07205789      -0.02752668       0.13908130 </v>
   <v>      -0.08192806      -0.03012927      -0.14300875 </v>
   <v>       0.09692730      -0.06659087       0.12256939 </v>
   <v>      -0.01551144      -0.08907235      -0.13149696 </v>
   <v>      -0.11247513      -0.05356858       0.15665043 </v>
   <v>       0.05072035      -0.03766200      -0.10821763 </v>
   <v>       0.00773322       0.09453390      -0.02643476 </v>
   <v>       0.06555347       0.08803475      -0.00986301 </v>
   <v>       0.04793710       0.03646228      -0.13353591 </v>
   <v>       0.07531732       0.07394825       0.08564014 </v>
   <v>       0.09520335       0.05901236       0.05373509 </v>
   <v>      -0.02220142       0.08249176      -0.03053718 </v>
  </varray>
  <varray name="stress" >
   <v>      -0.10774346       0.01873480       0.03292603 </v>
   <v>       0.01873485      -0.04475781       0.08935724 </v>
   <v>       0.03292606       0.08935720      -1.26529968 </v>
  </varray>
  <energy>
   <i name="e_fr_energy">   -191.40059992 </i>
   <i name="e_wo_entrp">   -191.30507800 </i>
   <i name="e_0_energy">     -0.19104383 </i>
  </energy>
  <time name="totalsc">  289.58  290.34</time>
 </calculation>
 <calculation>
  <scstep>
   <time name="dav">   21.98   22.03</time>
   <time name="total">   22.48   22.54</time>
   <energy>
    <i name="alphaZ">     90.42814294 </i>
    <i name="ewald">  44755.16789988 </i>
    <i name="hartreedc"> -50767.87127250 </i>
    <i name="XCdc">   -233.34155411 </i>
    <i name="pawpsdc">   4082.15961066 </i>
    <i name="pawaedc">  -3498.05356966 </i>
    <i name="eentropy">     -0.19099765 </i>
    <i name="bandstr">  -1381.20380319 </i>
    <i name="atom">   6761.44252427 </i>
    <i name="e_fr_energy">   -191.46301936 </i>
    <i name="e_wo_entrp">   -191.27202172 </i>
    <i name="e_0_energy">   -191.36752054 </i>
   </energy>
  </scstep>
  <scstep>
   <time name="dav">   32.44   32.52</time>
   <time name="total">   32.95   33.04</time>
   <energy>
    <i name="e_fr_energy">   -191.55455642 </i>
    <i name="e_wo_entrp">   -191.33944054 </i>
    <i name="e_0_energy">   -191.44699848 </i>
   </energy>
  </scstep>
  <scstep>
   <time name="dav">   30.22   30.30</time>
   <time name="total">   30.73   30.81</time>
   <energy>
    <i name="e_fr_energy">   -191.47559408 </i>
    <i name="e_wo_entrp">   -191.28345611 </i>
    <i name="e_0_energy">   -191.37952510 </i>
   </energy>
  </scstep>
  <scstep>
   <time name="dav">   29.23   29.30</time>
   <time name="total">   29.74   29.82</time>
   <energy>
    <i name="e_fr_energy">   -191.47525855 </i>
    <i name="e_wo_entrp">   -191.28140612 </i>
    <i name="e_0_energy">   -191.37833233 </i>
   </energy>
  </scstep>
  <scstep>
   <time name="dav">   29.36   29.43</time>
   <time name="total">   29.87   29.95</time>
   <energy>
    <i name="e_fr_energy">   -191.46931565 </i>
    <i name="e_wo_entrp">   -191.27519782 </i>
    <i name="e_0_energy">   -191.37225673 </i>
   </energy>
  </scstep>
  <scstep>
   <time name="dav">   28.84   28.92</time>
   <time name="total">   29.35   29.43</time>
   <energy>
    <i name="e_fr_energy">   -191.46940495 </i>
    <i name="e_wo_entrp">   -191.27460809 </i>
    <i name="e_0_energy">   -191.37200652 </i>
   </energy>
  </scstep>
  <scstep>
   <time name="dav">   28.44   28.50</time>
   <time name="total">   28.94   29.02</time>
   <energy>
    <i name="e_fr_energy">   -191.46886253 </i>
    <i name="e_wo_entrp">   -191.27431171 </i>
    <i name="e_0_energy">   -191.37158712 </i>
   </energy>
  </scstep>
  <scstep>
   <time name="dav">   25.83   25.89</time>
   <time name="total">   26.33   26.40</time>
   <energy>
    <i name="e_fr_energy">   -191.46827216 </i>
    <i name="e_wo_entrp">   -191.27355670 </i>
    <i name="e_0_energy">   -191.37091443 </i>
   </energy>
  </scstep>
  <scstep>
[...]
      <set comment="kpoint 31">
       <r>  -17.5469    1.0000 </r>
       <r>  -17.2226    1.0000 </r>
       <r>  -16.9370    1.0000 </r>
       <r>  -16.6648    1.0000 </r>
       <r>  -16.5181    1.0000 </r>
       <r>  -16.4066    1.0000 </r>
       <r>  -16.3245    1.0000 </r>
       <r>  -16.2110    1.0000 </r>
       <r>  -16.0625    1.0000 </r>
       <r>  -16.0560    1.0000 </r>
       <r>  -15.8937    1.0000 </r>
       <r>  -15.8047    1.0000 </r>
       <r>  -15.7420    1.0000 </r>
       <r>  -15.6906    1.0000 </r>
       <r>  -15.5809    1.0000 </r>
       <r>  -15.5374    1.0000 </r>
       <r>  -15.4481    1.0000 </r>
       <r>  -15.3320    1.0000 </r>
       <r>   -9.7369    1.0000 </r>
       <r>   -9.4618    1.0000 </r>
       <r>   -9.3414    1.0000 </r>
       <r>   -9.0386    1.0000 </r>
       <r>   -8.7990    1.0000 </r>
       <r>   -8.7592    1.0000 </r>
       <r>   -8.6295    1.0000 </r>
       <r>   -8.4662    1.0000 </r>
       <r>   -8.3765    1.0000 </r>
       <r>   -8.3011    1.0000 </r>
       <r>   -8.2198    1.0000 </r>
       <r>   -8.1648    1.0000 </r>
       <r>   -8.1114    1.0000 </r>
       <r>   -8.0764    1.0000 </r>
       <r>   -7.9908    1.0000 </r>
       <r>   -7.9198    1.0000 </r>
       <r>   -7.7639    1.0000 </r>
       <r>   -7.7421    1.0000 </r>
       <r>   -7.5851    1.0000 </r>
       <r>   -7.4426    1.0000 </r>
       <r>   -7.3675    1.0000 </r>
       <r>   -7.2880    1.0000 </r>
       <r>   -7.1925    1.0000 </r>
       <r>   -7.0967    1.0000 </r>
       <r>   -6.9498    1.0000 </r>
       <r>   -6.9040    1.0000 </r>
       <r>   -6.7936    1.0000 </r>
       <r>   -6.7288    1.0000 </r>
       <r>   -6.6457    1.0000 </r>
       <r>   -6.6011    1.0000 </r>
       <r>   -6.5524    1.0000 </r>
       <r>   -6.4911    1.0000 </r>
       <r>   -6.4524    1.0000 </r>
       <r>   -6.3510    1.0000 </r>
       <r>   -6.2584    1.0000 </r>
       <r>   -6.2013    1.0000 </r>
       <r>   -6.1054    1.0000 </r>
       <r>   -6.0407    1.0000 </r>
       <r>   -5.9626    1.0000 </r>
       <r>   -5.8919    1.0000 </r>
       <r>   -5.8459    1.0000 </r>
       <r>   -5.7502    1.0000 </r>
       <r>   -5.7291    1.0000 </r>
       <r>   -5.6851    1.0000 </r>
       <r>   -5.5524    1.0000 </r>
       <r>   -5.3691    1.0000 </r>
       <r>   -5.3005    1.0000 </r>
       <r>   -5.1344    1.0000 </r>
       <r>   -5.0639    1.0000 </r>
       <r>   -4.9156    1.0000 </r>
       <r>   -4.8001    1.0000 </r>
       <r>   -4.6441    1.0000 </r>
       <r>   -4.6140    1.0000 </r>
       <r>   -4.4262    1.0000 </r>
       <r>   -4.3501    1.0000 </r>
       <r>   -4.2591    1.0000 </r>
       <r>   -4.1262    1.0000 </r>
       <r>   -3.9695    1.0000 </r>
       <r>   -3.8414    0.9999 </r>
       <r>   -3.7911    0.9995 </r>
       <r>   -3.6394    0.9870 </r>
       <r>   -3.2213    0.2323 </r>
       <r>   -2.9844    0.0081 </r>
       <r>   -2.8250    0.0002 </r>
       <r>   -2.6901    0.0000 </r>
       <r>   -2.6206    0.0000 </r>
       <r>   -2.4989    0.0000 </r>
       <r>   -2.3709    0.0000 </r>
       <r>   -2.2376    0.0000 </r>
       <r>   -2.1866    0.0000 </r>
       <r>   -2.0515    0.0000 </r>
       <r>   -1.8980    0.0000 </r>
       <r>   -1.7966    0.0000 </r>
       <r>   -1.6239    0.0000 </r>
       <r>   -1.3607    0.0000 </r>
       <r>   -1.3027    0.0000 </r>
       <r>   -1.2446    0.0000 </r>
       <r>   -1.1998    0.0000 </r>
       <r>   -1.0445    0.0000 </r>
       <r>   -1.0254    0.0000 </r>
       <r>   -0.9163    0.0000 </r>
       <r>   -0.8537    0.0000 </r>
       <r>   -0.7891    0.0000 </r>
       <r>   -0.6782    0.0000 </r>
       <r>   -0.6015    0.0000 </r>
       <r>   -0.5844    0.0000 </r>
       <r>   -0.4851    0.0000 </r>
       <r>   -0.4334    0.0000 </r>
       <r>   -0.2685    0.0000 </r>
       <r>   -0.1413    0.0000 </r>
       <r>    0.0390    0.0000 </r>
       <r>    0.2597    0.0000 </r>
       <r>    0.3445    0.0000 </r>
       <r>    0.5168    0.0000 </r>
       <r>    0.7283    0.0000 </r>
       <r>    0.9117    0.0000 </r>
       <r>    1.1647    0.0000 </r>
       <r>    1.2202    0.0000 </r>
       <r>    1.3840    0.0000 </r>
       <r>    2.1328    0.0000 </r>
       <r>    2.2814    0.0000 </r>
       <r>    2.3802    0.0000 </r>
      </set>
      <set comment="kpoint 32">
       <r>  -17.5557    1.0000 </r>
       <r>  -17.1178    1.0000 </r>
       <r>  -17.0841    1.0000 </r>
       <r>  -16.6636    1.0000 </r>
       <r>  -16.4343    1.0000 </r>
       <r>  -16.3858    1.0000 </r>
       <r>  -16.3076    1.0000 </r>
       <r>  -16.2052    1.0000 </r>
       <r>  -16.1429    1.0000 </r>
       <r>  -16.0371    1.0000 </r>
       <r>  -15.9237    1.0000 </r>
       <r>  -15.8113    1.0000 </r>
       <r>  -15.7366    1.0000 </r>
       <r>  -15.7055    1.0000 </r>
       <r>  -15.5765    1.0000 </r>
       <r>  -15.5195    1.0000 </r>
       <r>  -15.4438    1.0000 </r>
       <r>  -15.3291    1.0000 </r>
       <r>   -9.6653    1.0000 </r>
       <r>   -9.5729    1.0000 </r>
       <r>   -9.3854    1.0000 </r>
       <r>   -9.0233    1.0000 </r>
       <r>   -8.7060    1.0000 </r>
       <r>   -8.6662    1.0000 </r>
       <r>   -8.5441    1.0000 </r>
       <r>   -8.4321    1.0000 </r>
       <r>   -8.3876    1.0000 </r>
       <r>   -8.2985    1.0000 </r>
       <r>   -8.2748    1.0000 </r>
       <r>   -8.2450    1.0000 </r>
       <r>   -8.1592    1.0000 </r>
       <r>   -8.1117    1.0000 </r>
       <r>   -8.0501    1.0000 </r>
       <r>   -7.9762    1.0000 </r>
       <r>   -7.7930    1.0000 </r>
       <r>   -7.6838    1.0000 </r>
       <r>   -7.5070    1.0000 </r>
       <r>   -7.4268    1.0000 </r>
       <r>   -7.3528    1.0000 </r>
       <r>   -7.2784    1.0000 </r>
       <r>   -7.2053    1.0000 </r>
       <r>   -7.0957    1.0000 </r>
       <r>   -6.9913    1.0000 </r>
       <r>   -6.8605    1.0000 </r>
       <r>   -6.8337    1.0000 </r>
       <r>   -6.7424    1.0000 </r>
       <r>   -6.6969    1.0000 </r>
       <r>   -6.6028    1.0000 </r>
       <r>   -6.5270    1.0000 </r>
       <r>   -6.4928    1.0000 </r>
       <r>   -6.4321    1.0000 </r>
       <r>   -6.3824    1.0000 </r>
       <r>   -6.3427    1.0000 </r>
       <r>   -6.1737    1.0000 </r>
       <r>   -6.1177    1.0000 </r>
       <r>   -6.0407    1.0000 </r>
       <r>   -5.9366    1.0000 </r>
       <r>   -5.8636    1.0000 </r>
       <r>   -5.8339    1.0000 </r>
       <r>   -5.7676    1.0000 </r>
       <r>   -5.6554    1.0000 </r>
       <r>   -5.6204    1.0000 </r>
       <r>   -5.5062    1.0000 </r>
       <r>   -5.4202    1.0000 </r>
       <r>   -5.3003    1.0000 </r>
       <r>   -5.0699    1.0000 </r>
       <r>   -5.0274    1.0000 </r>
       <r>   -4.9513    1.0000 </r>
       <r>   -4.8717    1.0000 </r>
       <r>   -4.7096    1.0000 </r>
       <r>   -4.6489    1.0000 </r>
       <r>   -4.4332    1.0000 </r>
       <r>   -4.3176    1.0000 </r>
       <r>   -4.2542    1.0000 </r>
       <r>   -4.1173    1.0000 </r>
       <r>   -3.9658    1.0000 </r>
       <r>   -3.8287    0.9998 </r>
       <r>   -3.7732    0.9992 </r>
       <r>   -3.6478    0.9888 </r>
       <r>   -3.2274    0.2458 </r>
       <r>   -2.9920    0.0093 </r>
       <r>   -2.8013    0.0001 </r>
       <r>   -2.6693    0.0000 </r>
       <r>   -2.5970    0.0000 </r>
       <r>   -2.4705    0.0000 </r>
       <r>   -2.3761    0.0000 </r>
       <r>   -2.2658    0.0000 </r>
       <r>   -2.1832    0.0000 </r>
       <r>   -2.0844    0.0000 </r>
       <r>   -1.9223    0.0000 </r>
       <r>   -1.8242    0.0000 </r>
       <r>   -1.6057    0.0000 </r>
       <r>   -1.3538    0.0000 </r>
       <r>   -1.2934    0.0000 </r>
       <r>   -1.2316    0.0000 </r>
       <r>   -1.1872    0.0000 </r>
       <r>   -1.0604    0.0000 </r>
       <r>   -1.0040    0.0000 </r>
       <r>   -0.9450    0.0000 </r>
       <r>   -0.9129    0.0000 </r>
       <r>   -0.8033    0.0000 </r>
       <r>   -0.7068    0.0000 </r>
       <r>   -0.6042    0.0000 </r>
       <r>   -0.5750    0.0000 </r>
       <r>   -0.4867    0.0000 </r>
       <r>   -0.3895    0.0000 </r>
       <r>   -0.1717    0.0000 </r>
       <r>   -0.1547    0.0000 </r>
       <r>   -0.0399    0.0000 </r>
       <r>    0.1918    0.0000 </r>
       <r>    0.3659    0.0000 </r>
       <r>    0.5163    0.0000 </r>
       <r>    0.7309    0.0000 </r>
       <r>    0.9446    0.0000 </r>
       <r>    1.1141    0.0000 </r>
       <r>    1.2336    0.0000 </r>
       <r>    1.4416    0.0000 </r>
       <r>    2.1012    0.0000 </r>
       <r>    2.2514    0.0000 </r>
       <r>    2.5600    0.0000 </r>
      </set>
      <set comment="kpoint 33">
       <r>  -17.5449    1.0000 </r>
       <r>  -17.2373    1.0000 </r>
       <r>  -16.9227    1.0000 </r>
       <r>  -16.6626    1.0000 </r>
       <r>  -16.5235    1.0000 </r>
       <r>  -16.4145    1.0000 </r>
       <r>  -16.2895    1.0000 </r>
       <r>  -16.2241    1.0000 </r>
       <r>  -16.0824    1.0000 </r>
       <r>  -15.9981    1.0000 </r>
       <r>  -15.9186    1.0000 </r>
       <r>  -15.8345    1.0000 </r>
       <r>  -15.7450    1.0000 </r>
       <r>  -15.7028    1.0000 </r>
       <r>  -15.5944    1.0000 </r>
       <r>  -15.5121    1.0000 </r>
       <r>  -15.4494    1.0000 </r>
       <r>  -15.3251    1.0000 </r>
       <r>   -9.7412    1.0000 </r>
       <r>   -9.4673    1.0000 </r>
       <r>   -9.3226    1.0000 </r>
       <r>   -9.0146    1.0000 </r>
       <r>   -8.7958    1.0000 </r>
       <r>   -8.7558    1.0000 </r>
       <r>   -8.5501    1.0000 </r>
       <r>   -8.4226    1.0000 </r>
       <r>   -8.4157    1.0000 </r>
       <r>   -8.2979    1.0000 </r>
       <r>   -8.2575    1.0000 </r>
       <r>   -8.2314    1.0000 </r>
       <r>   -8.1658    1.0000 </r>
       <r>   -8.1114    1.0000 </r>
       <r>   -8.0403    1.0000 </r>
       <r>   -7.8723    1.0000 </r>
       <r>   -7.8209    1.0000 </r>
       <r>   -7.6643    1.0000 </r>
       <r>   -7.5295    1.0000 </r>
       <r>   -7.4328    1.0000 </r>
       <r>   -7.3403    1.0000 </r>
       <r>   -7.2096    1.0000 </r>
       <r>   -7.1413    1.0000 </r>
       <r>   -7.0710    1.0000 </r>
       <r>   -7.0283    1.0000 </r>
       <r>   -6.8984    1.0000 </r>
       <r>   -6.8614    1.0000 </r>
       <r>   -6.7682    1.0000 </r>
       <r>   -6.6958    1.0000 </r>
       <r>   -6.6127    1.0000 </r>
       <r>   -6.5698    1.0000 </r>
       <r>   -6.5090    1.0000 </r>
       <r>   -6.4390    1.0000 </r>
       <r>   -6.3756    1.0000 </r>
       <r>   -6.3283    1.0000 </r>
       <r>   -6.2016    1.0000 </r>
       <r>   -6.1260    1.0000 </r>
       <r>   -6.0139    1.0000 </r>
       <r>   -5.9721    1.0000 </r>
       <r>   -5.8896    1.0000 </r>
       <r>   -5.8191    1.0000 </r>
       <r>   -5.7737    1.0000 </r>
       <r>   -5.6798    1.0000 </r>
       <r>   -5.6557    1.0000 </r>
       <r>   -5.5042    1.0000 </r>
       <r>   -5.3774    1.0000 </r>
       <r>   -5.2515    1.0000 </r>
       <r>   -5.1225    1.0000 </r>
       <r>   -5.0782    1.0000 </r>
       <r>   -4.8703    1.0000 </r>
       <r>   -4.7850    1.0000 </r>
       <r>   -4.6664    1.0000 </r>
       <r>   -4.6047    1.0000 </r>
       <r>   -4.4531    1.0000 </r>
       <r>   -4.3568    1.0000 </r>
       <r>   -4.2672    1.0000 </r>
       <r>   -4.1096    1.0000 </r>
       <r>   -3.9627    1.0000 </r>
       <r>   -3.8382    0.9999 </r>
       <r>   -3.7900    0.9995 </r>
       <r>   -3.6540    0.9901 </r>
       <r>   -3.2404    0.2757 </r>
       <r>   -3.0067    0.0123 </r>
       <r>   -2.7623    0.0000 </r>
       <r>   -2.6583    0.0000 </r>
       <r>   -2.5943    0.0000 </r>
       <r>   -2.4550    0.0000 </r>
       <r>   -2.4038    0.0000 </r>
       <r>   -2.2640    0.0000 </r>
       <r>   -2.1906    0.0000 </r>
       <r>   -2.0836    0.0000 </r>
       <r>   -1.9078    0.0000 </r>
       <r>   -1.8263    0.0000 </r>
       <r>   -1.5972    0.0000 </r>
       <r>   -1.3596    0.0000 </r>
       <r>   -1.2698    0.0000 </r>
       <r>   -1.2085    0.0000 </r>
       <r>   -1.1821    0.0000 </r>
       <r>   -1.0941    0.0000 </r>
       <r>   -1.0369    0.0000 </r>
       <r>   -0.9956    0.0000 </r>
       <r>   -0.9030    0.0000 </r>
       <r>   -0.8169    0.0000 </r>
       <r>   -0.7433    0.0000 </r>
       <r>   -0.6012    0.0000 </r>
       <r>   -0.5488    0.0000 </r>
       <r>   -0.5263    0.0000 </r>
       <r>   -0.3264    0.0000 </r>
       <r>   -0.2021    0.0000 </r>
       <r>   -0.1600    0.0000 </r>
       <r>   -0.0595    0.0000 </r>
       <r>    0.1073    0.0000 </r>
       <r>    0.3860    0.0000 </r>
       <r>    0.5647    0.0000 </r>
       <r>    0.7233    0.0000 </r>
       <r>    0.9855    0.0000 </r>
       <r>    1.0964    0.0000 </r>
       <r>    1.2588    0.0000 </r>
       <r>    1.4998    0.0000 </r>
       <r>    2.1285    0.0000 </r>
       <r>    2.2866    0.0000 </r>
       <r>    2.3815    0.0000 </r>
      </set>
      <set comment="kpoint 34">
       <r>  -17.5325    1.0000 </r>
       <r>  -17.2901    1.0000 </r>
       <r>  -16.7669    1.0000 </r>
       <r>  -16.6749    1.0000 </r>
       <r>  -16.6610    1.0000 </r>
       <r>  -16.4219    1.0000 </r>
       <r>  -16.2943    1.0000 </r>
       <r>  -16.2197    1.0000 </r>
       <r>  -16.0518    1.0000 </r>
       <r>  -15.9754    1.0000 </r>
       <r>  -15.8921    1.0000 </r>
       <r>  -15.8393    1.0000 </r>
       <r>  -15.7670    1.0000 </r>
       <r>  -15.7017    1.0000 </r>
       <r>  -15.6006    1.0000 </r>
       <r>  -15.5169    1.0000 </r>
       <r>  -15.4532    1.0000 </r>
       <r>  -15.3231    1.0000 </r>
       <r>   -9.7786    1.0000 </r>
       <r>   -9.4024    1.0000 </r>
       <r>   -9.2172    1.0000 </r>
       <r>   -9.0058    1.0000 </r>
       <r>   -8.9361    1.0000 </r>
       <r>   -8.8424    1.0000 </r>
       <r>   -8.5731    1.0000 </r>
       <r>   -8.4446    1.0000 </r>
       <r>   -8.4006    1.0000 </r>
       <r>   -8.3011    1.0000 </r>
       <r>   -8.2194    1.0000 </r>
       <r>   -8.2015    1.0000 </r>
       <r>   -8.1620    1.0000 </r>
       <r>   -8.0785    1.0000 </r>
       <r>   -8.0508    1.0000 </r>
       <r>   -7.8501    1.0000 </r>
       <r>   -7.8022    1.0000 </r>
       <r>   -7.6627    1.0000 </r>
       <r>   -7.4845    1.0000 </r>
       <r>   -7.4036    1.0000 </r>
       <r>   -7.3881    1.0000 </r>
       <r>   -7.2424    1.0000 </r>
       <r>   -7.1268    1.0000 </r>
       <r>   -7.0668    1.0000 </r>
       <r>   -6.9841    1.0000 </r>
       <r>   -6.8907    1.0000 </r>
       <r>   -6.8719    1.0000 </r>
       <r>   -6.7525    1.0000 </r>
       <r>   -6.6813    1.0000 </r>
       <r>   -6.6538    1.0000 </r>
       <r>   -6.5968    1.0000 </r>
       <r>   -6.5487    1.0000 </r>
       <r>   -6.4552    1.0000 </r>
       <r>   -6.3729    1.0000 </r>
       <r>   -6.2847    1.0000 </r>
       <r>   -6.2116    1.0000 </r>
       <r>   -6.1157    1.0000 </r>
       <r>   -6.0653    1.0000 </r>
       <r>   -5.9701    1.0000 </r>
       <r>   -5.8992    1.0000 </r>
       <r>   -5.8127    1.0000 </r>
       <r>   -5.7674    1.0000 </r>
       <r>   -5.7375    1.0000 </r>
       <r>   -5.6442    1.0000 </r>
       <r>   -5.5036    1.0000 </r>
       <r>   -5.4090    1.0000 </r>
       <r>   -5.2819    1.0000 </r>
       <r>   -5.0877    1.0000 </r>
       <r>   -5.0355    1.0000 </r>
       <r>   -4.8774    1.0000 </r>
       <r>   -4.7297    1.0000 </r>
       <r>   -4.6269    1.0000 </r>
       <r>   -4.5043    1.0000 </r>
       <r>   -4.4944    1.0000 </r>
       <r>   -4.3772    1.0000 </r>
       <r>   -4.3031    1.0000 </r>
       <r>   -4.1091    1.0000 </r>
       <r>   -3.9654    1.0000 </r>
       <r>   -3.8503    0.9999 </r>
       <r>   -3.8034    0.9996 </r>
       <r>   -3.6568    0.9906 </r>
       <r>   -3.2456    0.2881 </r>
       <r>   -3.0148    0.0142 </r>
       <r>   -2.7453    0.0000 </r>
       <r>   -2.6527    0.0000 </r>
       <r>   -2.6006    0.0000 </r>
       <r>   -2.4593    0.0000 </r>
       <r>   -2.4161    0.0000 </r>
       <r>   -2.2398    0.0000 </r>
       <r>   -2.2077    0.0000 </r>
       <r>   -2.0812    0.0000 </r>
       <r>   -1.8861    0.0000 </r>
       <r>   -1.8175    0.0000 </r>
       <r>   -1.5966    0.0000 </r>
       <r>   -1.3668    0.0000 </r>
       <r>   -1.2456    0.0000 </r>
       <r>   -1.2060    0.0000 </r>
       <r>   -1.1963    0.0000 </r>
       <r>   -1.0911    0.0000 </r>
       <r>   -1.0711    0.0000 </r>
       <r>   -1.0070    0.0000 </r>
       <r>   -0.8724    0.0000 </r>
       <r>   -0.8428    0.0000 </r>
       <r>   -0.7772    0.0000 </r>
       <r>   -0.5803    0.0000 </r>
       <r>   -0.5600    0.0000 </r>
       <r>   -0.5362    0.0000 </r>
       <r>   -0.2949    0.0000 </r>
       <r>   -0.2064    0.0000 </r>
       <r>   -0.1972    0.0000 </r>
       <r>   -0.0735    0.0000 </r>
       <r>    0.0987    0.0000 </r>
       <r>    0.3764    0.0000 </r>
       <r>    0.6037    0.0000 </r>
       <r>    0.7173    0.0000 </r>
       <r>    0.9990    0.0000 </r>
       <r>    1.1039    0.0000 </r>
       <r>    1.2704    0.0000 </r>
       <r>    1.5263    0.0000 </r>
       <r>    2.1955    0.0000 </r>
       <r>    2.2503    0.0000 </r>
       <r>    2.3680    0.0000 </r>
      </set>
     </set>
    </set>
   </array>
  </eigenvalues>
  <separator name="orbital magnetization" >
   <v name="MAGDIPOLOUT">      0.00000000      0.00000000      0.00000000</v>
  </separator>
 </calculation>
 <structure name="finalpos" >
  <crystal>
   <varray name="basis" >
    <v>       8.35780002       4.85948634       0.00000000 </v>
    <v>      -8.33466836       4.81944650       0.00000000 </v>
    <v>       0.00000000       0.00000000      30.00000000 </v>
   </varray>
   <i name="volume">   2423.46531316 </i>
   <varray name="rec_basis" >
    <v>       0.05965977       0.10317459       0.00000000 </v>
    <v>      -0.06015543       0.10346094       0.00000000 </v>
    <v>       0.00000000       0.00000000       0.03333333 </v>
   </varray>
  </crystal>
  <varray name="positions" >
   <v>       0.30860296       0.65285846       0.00028519 </v>
   <v>       0.70747049       0.35759982      -0.00219459 </v>
   <v>       0.62619839      -0.01623685       0.00419461 </v>
   <v>       0.00168628       0.67011417      -0.00067679 </v>
   <v>       0.29319967       0.31264153       0.00297920 </v>
   <v>       1.02160699       0.36227037      -0.00086903 </v>
   <v>       0.01916949      -0.00735158      -0.00044386 </v>
   <v>       0.30643324      -0.01221413       0.00029773 </v>
   <v>       0.70845310       0.68068145      -0.00209610 </v>
   <v>       0.10106333       0.21686175       0.94669011 </v>
   <v>       0.21746546       0.10657177       0.05714071 </v>
   <v>       0.11962544       0.56197523       0.94453660 </v>
   <v>       0.22274124       0.45141127       0.05558470 </v>
   <v>       0.11055012       0.88701702       0.94279503 </v>
   <v>       0.22716359       0.77613145       0.05310902 </v>
   <v>       0.45119635       0.22790954       0.95674878 </v>
   <v>       0.55404708       0.12169748       0.04806484 </v>
   <v>       0.44832077       0.55569210       0.95707581 </v>
   <v>       0.55833422       0.44266104       0.04358135 </v>
   <v>       0.43568687       0.88138501       0.95041998 </v>
   <v>       0.55229335       0.76776982       0.04692508 </v>
   <v>       0.77305802       0.21659897       0.95193970 </v>
   <v>       0.88001853       0.10641757       0.04118927 </v>
   <v>       0.78586737       0.55329220       0.94408304 </v>
   <v>       0.89278366       0.44741528       0.05275479 </v>
   <v>       0.77626426       0.89557531       0.95082854 </v>
   <v>       0.89891418       0.78146841       0.05505616 </v>
  </varray>
 </structure>
</modeling>
