unknown system                          
           1
     8.855693    5.108048    0.000000
    -8.853167    5.103702    0.000000
     0.000000    0.000000   30.000000
   V    Mo   W    S 
   3   3   3  18
Direct configuration=     1
   0.33333334  0.66666669  0.00000000
   0.66666669  0.33333334  0.00000000
   0.66666669  0.00000000  0.00000000
   0.00000000  0.66666669  0.00000000
   0.33333334  0.33333334  0.00000000
   1.00000000  0.33333334  0.00000000
   0.00000000  0.00000000  0.00000000
   0.33333334  0.00000000  0.00000000
   0.66666669  0.66666669  0.00000000
   0.11068511  0.22244981  0.95539999
   0.22244981  0.11068511  0.04460000
   0.11068511  0.55578315  0.95539999
   0.22244981  0.44401845  0.04460000
   0.11068511  0.88911647  0.95539999
   0.22244981  0.77735180  0.04460000
   0.44401845  0.22244981  0.95539999
   0.55578315  0.11068511  0.04460000
   0.44401845  0.55578315  0.95539999
   0.55578315  0.44401845  0.04460000
   0.44401845  0.88911647  0.95539999
   0.55578315  0.77735180  0.04460000
   0.77735180  0.22244981  0.95539999
   0.88911647  0.11068511  0.04460000
   0.77735180  0.55578315  0.95539999
   0.88911647  0.44401845  0.04460000
   0.77735180  0.88911647  0.95539999
   0.88911647  0.77735180  0.04460000
unknown system                          
           1
     8.667668    5.001852    0.000000
    -8.665347    4.997860    0.000000
     0.000000    0.000000   30.000000
   V    Mo   W    S 
   3   3   3  18
Direct configuration=     2
   0.33133343  0.66468174  0.00016415
   0.66791593  0.33413427 -0.00019646
   0.66741586  0.00111754 -0.00001821
   0.00008332  0.66527342 -0.00013392
   0.33185251  0.33322507  0.00016203
   1.00117641  0.33479859 -0.00002161
   0.00137489  0.00160965  0.00004440
   0.33264372 -0.00000948 -0.00006482
   0.66613338  0.66511300  0.00009408
   0.11041300  0.22105244  0.95074295
   0.22164354  0.11028641  0.04935396
   0.11540330  0.55766946  0.95189592
   0.22446967  0.44894346  0.04813781
   0.11133026  0.88947308  0.95069701
   0.22515756  0.77617711  0.04800996
   0.44850824  0.22339520  0.95197593
   0.55895790  0.11253032  0.04687011
   0.44296178  0.55840804  0.95202706
   0.55828201  0.44293779  0.04798501
   0.44606044  0.88707062  0.95308620
   0.55363855  0.77933477  0.04694494
   0.77315989  0.22019767  0.95311417
   0.88478174  0.10832772  0.04804719
   0.77500381  0.55129619  0.95184678
   0.88431941  0.44209015  0.04806185
   0.77579877  0.89081634  0.95200425
   0.88839514  0.77826390  0.04916917
unknown system                          
           1
     8.486612    4.900946    0.000000
    -8.485363    4.898809    0.000000
     0.000000    0.000000   30.000000
   V    Mo   W    S 
   3   3   3  18
Direct configuration=     3
   0.33069845  0.66402421  0.00018127
   0.66839437  0.33456386 -0.00022083
   0.66767023  0.00138310 -0.00002525
   0.00002008  0.66501175 -0.00011109
   0.33104651  0.33280553  0.00014273
   1.00178157  0.33522343 -0.00001941
   0.00221577  0.00222956  0.00004671
   0.33191838  0.00000703 -0.00012036
   0.66618931  0.66468886  0.00014197
   0.11028127  0.22083594  0.95066389
   0.22154761  0.11006273  0.04943400
   0.11557151  0.55776137  0.95180750
   0.22455924  0.44913007  0.04825119
   0.11140997  0.88969793  0.95068212
   0.22534685  0.77637113  0.04800690
   0.44849298  0.22322290  0.95203438
   0.55877511  0.11247747  0.04678376
   0.44316214  0.55859041  0.95205595
   0.55842803  0.44310534  0.04797563
   0.44594885  0.88715699  0.95322484
   0.55371878  0.77921522  0.04682806
   0.77309410  0.22016144  0.95313597
   0.88480001  0.10816431  0.04802159
   0.77479500  0.55125941  0.95179562
   0.88416587  0.44197661  0.04808625
   0.77588783  0.89071627  0.95208485
   0.88829465  0.77837159  0.04911167
unknown system                          
           1
     8.269891    4.781550    0.000000
    -8.264528    4.772286    0.000000
     0.000000    0.000000   30.000000
   V    Mo   W    S 
   3   3   3  18
Direct configuration=     4
   0.32832374  0.66148174  0.00016903
   0.67029931  0.33664877 -0.00022375
   0.66874252  0.00211817 -0.00004128
  -0.00045854  0.66442487  0.00001038
   0.32755046  0.33060570  0.00002381
   1.00430288  0.33658067  0.00000388
   0.00581531  0.00447987  0.00004390
   0.32842063  0.00012710 -0.00027588
   0.66691410  0.66337291  0.00026240
   0.11011425  0.22089233  0.94872972
   0.22165031  0.11003147  0.05144327
   0.11698368  0.55849281  0.95004114
   0.22521353  0.45053846  0.05015859
   0.11117653  0.88966261  0.94897934
   0.22603528  0.77601165  0.04943286
   0.44954311  0.22381875  0.95081924
   0.55952933  0.11301256  0.04774846
   0.44281230  0.55923974  0.95075578
   0.55876927  0.44235528  0.04936962
   0.44629926  0.88665434  0.95244915
   0.55323093  0.77957668  0.04770150
   0.77228294  0.21972213  0.95191945
   0.88380340  0.10772483  0.04935857
   0.77411946  0.55004126  0.95009718
   0.88288065  0.44112019  0.04958743
   0.77552778  0.89098390  0.95097168
   0.88833204  0.77849564  0.05046445
unknown system                          
           1
     8.270473    4.789326    0.000000
    -8.258554    4.768708    0.000000
     0.000000    0.000000   30.000000
   V    Mo   W    S 
   3   3   3  18
Direct configuration=     5
   0.32413558  0.65687778 -0.00002656
   0.67480433  0.34126514 -0.00004761
   0.67060870  0.00327995 -0.00005280
  -0.00180458  0.66331819  0.00016722
   0.31969280  0.32518353 -0.00011497
   1.00918763  0.33884099  0.00006271
   0.01360264  0.00938181  0.00001640
   0.32140934  0.00071641 -0.00039480
   0.66869002  0.66098289  0.00035737
   0.10971987  0.22139396  0.94582336
   0.22203239  0.11071521  0.05458663
   0.11823386  0.55913001  0.94759023
   0.22574512  0.45165699  0.05303453
   0.11013411  0.88883276  0.94643541
   0.22647863  0.77563251  0.05131858
   0.45027871  0.22461665  0.94924848
   0.55978667  0.11363797  0.04886019
   0.44215216  0.55922976  0.94921368
   0.55819738  0.44078634  0.05108041
   0.44605072  0.88599244  0.95155927
   0.55245138  0.77966852  0.04892652
   0.77239956  0.21997225  0.95008545
   0.88355935  0.10803395  0.05115422
   0.77395771  0.54861717  0.94755945
   0.88207405  0.44017893  0.05169129
   0.77576457  0.89128674  0.94964826
   0.88887176  0.77898558  0.05221697
unknown system                          
           1
     8.265820    4.788341    0.000000
    -8.253059    4.766262    0.000000
     0.000000    0.000000   30.000000
   V    Mo   W    S 
   3   3   3  18
Direct configuration=     6
   0.32317310  0.65579517 -0.00001531
   0.67723519  0.34279614 -0.00002817
   0.67109284  0.00363859 -0.00005769
  -0.00250246  0.66292679  0.00011310
   0.31774842  0.32375825 -0.00001342
   1.00968565  0.33882650  0.00002319
   0.01499021  0.01047041 -0.00012753
   0.31981396  0.00095773 -0.00035042
   0.66969798  0.66082212  0.00037098
   0.10923561  0.22144972  0.94543167
   0.22213151  0.11117005  0.05514949
   0.11789481  0.55898333  0.94744046
   0.22564302  0.45117942  0.05328727
   0.10939027  0.88838425  0.94614098
   0.22618930  0.77581178  0.05131559
   0.44960571  0.22458506  0.94939031
   0.55914671  0.11367706  0.04866869
   0.44196280  0.55830459  0.94933999
   0.55731974  0.44022395  0.05093938
   0.44517511  0.88606247  0.95176372
   0.55236027  0.77918402  0.04882182
   0.77320070  0.22067746  0.95003222
   0.88461463  0.10852263  0.05119123
   0.77440463  0.54870663  0.94729017
   0.88290791  0.44032849  0.05188527
   0.77669437  0.89132335  0.94977449
   0.88940247  0.77964850  0.05222241
unknown system                          
           1
     8.272109    4.796216    0.000000
    -8.256266    4.768797    0.000000
     0.000000    0.000000   30.000000
   V    Mo   W    S 
   3   3   3  18
Direct configuration=     7
   0.32182746  0.65421812 -0.00002726
   0.68074535  0.34484741  0.00002145
   0.67173893  0.00417998 -0.00000550
  -0.00355283  0.66233153  0.00007810
   0.31465906  0.32169117  0.00002403
   1.01042147  0.33890147 -0.00000653
   0.01724149  0.01215360 -0.00018719
   0.31720571  0.00114276 -0.00033600
   0.67131405  0.66063299  0.00044430
   0.10881962  0.22157565  0.94501842
   0.22187206  0.11140075  0.05568255
   0.11769461  0.55892755  0.94729919
   0.22541339  0.45074932  0.05357175
   0.10874802  0.88799069  0.94586838
   0.22582896  0.77589121  0.05128849
   0.44912574  0.22469801  0.94967453
   0.55860403  0.11380954  0.04836788
   0.44187263  0.55743229  0.94958750
   0.55661284  0.43962926  0.05067418
   0.44433275  0.88613257  0.95209827
   0.55228692  0.77871150  0.04860117
   0.77390355  0.22132038  0.94994286
   0.88550349  0.10888478  0.05120013
   0.77485633  0.54874515  0.94694829
   0.88372634  0.44052748  0.05211326
   0.77750654  0.89135742  0.94987288
   0.88990596  0.78033187  0.05218472
unknown system                          
           1
     8.275959    4.804390    0.000000
    -8.256082    4.769981    0.000000
     0.000000    0.000000   30.000000
   V    Mo   W    S 
   3   3   3  18
Direct configuration=     8
   0.32087384  0.65312181 -0.00003324
   0.68329219  0.34615882  0.00003726
   0.67222999  0.00462235  0.00002624
  -0.00430366  0.66187451  0.00005777
   0.31270016  0.32052950  0.00007224
   1.01070144  0.33890644 -0.00004231
   0.01831123  0.01305499 -0.00028763
   0.31551816  0.00112219 -0.00031571
   0.67266045  0.66065619  0.00047986
   0.10845075  0.22158994  0.94477616
   0.22172573  0.11156650  0.05601004
   0.11757970  0.55891068  0.94724305
   0.22526570  0.45049332  0.05372277
   0.10828828  0.88774468  0.94572386
   0.22565064  0.77596311  0.05123984
   0.44892839  0.22483310  0.94993834
   0.55832535  0.11394147  0.04812511
   0.44183698  0.55690426  0.94980713
   0.55623552  0.43923500  0.05042357
   0.44382107  0.88618401  0.95237682
   0.55228468  0.77843775  0.04840329
   0.77424644  0.22164335  0.94989047
   0.88597891  0.10904451  0.05119827
   0.77512334  0.54877341  0.94674464
   0.88429684  0.44071529  0.05226512
   0.77791336  0.89137966  0.94995425
   0.89027898  0.78080761  0.05216268
unknown system                          
           1
     8.277292    4.804760    0.000000
    -8.257595    4.770662    0.000000
     0.000000    0.000000   30.000000
   V    Mo   W    S 
   3   3   3  18
Direct configuration=     9
   0.31947797  0.65159791 -0.00003892
   0.68646531  0.34758002  0.00003048
   0.67307667  0.00538851  0.00008670
  -0.00523171  0.66126651  0.00005600
   0.31038381  0.31937939  0.00014540
   1.01083925  0.33887850 -0.00008561
   0.01911796  0.01389234 -0.00041089
   0.31342684  0.00088142 -0.00028097
   0.67479835  0.66094224  0.00053584
   0.10794417  0.22157892  0.94452880
   0.22145267  0.11170360  0.05629881
   0.11748771  0.55893011  0.94719217
   0.22504397  0.45024019  0.05387568
   0.10777331  0.88748820  0.94559409
   0.22554050  0.77607617  0.05116196
   0.44886822  0.22505766  0.95036509
   0.55808664  0.11416620  0.04777973
   0.44187823  0.55641649  0.95013951
   0.55595615  0.43879066  0.05001798
   0.44331826  0.88625418  0.95278286
   0.55236497  0.77815510  0.04808894
   0.77451154  0.22189018  0.94980093
   0.88634090  0.10911868  0.05118667
   0.77542944  0.54882128  0.94651669
   0.88498513  0.44099846  0.05245887
   0.77814781  0.89139094  0.95002751
   0.89073039  0.78133061  0.05214557
unknown system                          
           1
     8.280096    4.806181    0.000000
    -8.260578    4.772394    0.000000
     0.000000    0.000000   30.000000
   V    Mo   W    S 
   3   3   3  18
Direct configuration=    10
   0.31965233  0.65180354 -0.00003823
   0.68600272  0.34734597  0.00002693
   0.67299086  0.00530723  0.00007669
  -0.00508898  0.66135167  0.00005728
   0.31075064  0.31959541  0.00013717
   1.01078440  0.33887775 -0.00008215
   0.01890108  0.01371538 -0.00040432
   0.31374475  0.00088245 -0.00028498
   0.67454669  0.66094036  0.00052375
   0.10800399  0.22157114  0.94456246
   0.22149726  0.11168743  0.05626029
   0.11750860  0.55893246  0.94719442
   0.22507911  0.45029219  0.05385867
   0.10784302  0.88752571  0.94560956
   0.22557602  0.77605876  0.05118021
   0.44891071  0.22504104  0.95030545
   0.55814107  0.11414413  0.04783279
   0.44187576  0.55650836  0.95009104
   0.55601458  0.43885134  0.05007511
   0.44341039  0.88623928  0.95272562
   0.55235831  0.77820755  0.04813352
   0.77444700  0.22182979  0.94980377
   0.88625497  0.10909379  0.05119977
   0.77537909  0.54880943  0.94654434
   0.88488069  0.44096081  0.05244015
   0.77807507  0.89139006  0.95000703
   0.89067431  0.78125142  0.05216357
unknown system                          
           1
     8.283023    4.808406    0.000000
    -8.262952    4.773663    0.000000
     0.000000    0.000000   30.000000
   V    Mo   W    S 
   3   3   3  18
Direct configuration=    11
   0.31938038  0.65156202 -0.00003933
   0.68624097  0.34742538  0.00002286
   0.67314592  0.00541337  0.00008479
  -0.00511008  0.66131331  0.00006106
   0.31054870  0.31959592  0.00013931
   1.01082435  0.33896134 -0.00008197
   0.01884348  0.01368261 -0.00040388
   0.31354893  0.00076888 -0.00028668
   0.67487262  0.66105717  0.00053553
   0.10796219  0.22156709  0.94456396
   0.22142396  0.11167163  0.05624289
   0.11752760  0.55893923  0.94720482
   0.22504411  0.45029645  0.05385474
   0.10781813  0.88752658  0.94561765
   0.22558951  0.77605719  0.05116570
   0.44892202  0.22505367  0.95037277
   0.55811562  0.11418780  0.04779753
   0.44189281  0.55651893  0.95014607
   0.55602787  0.43883072  0.05001554
   0.44336043  0.88621366  0.95277580
   0.55235096  0.77815382  0.04808658
   0.77446686  0.22183344  0.94978679
   0.88627555  0.10910046  0.05119408
   0.77541840  0.54882140  0.94652995
   0.88493679  0.44098791  0.05245346
   0.77806381  0.89139376  0.94999523
   0.89072259  0.78128070  0.05216467
unknown system                          
           1
     8.284747    4.813384    0.000000
    -8.262371    4.774640    0.000000
     0.000000    0.000000   30.000000
   V    Mo   W    S 
   3   3   3  18
Direct configuration=    12
   0.31897600  0.65109842 -0.00004173
   0.68707303  0.34786038  0.00002235
   0.67329969  0.00559999  0.00010088
  -0.00536810  0.66111008  0.00006181
   0.30998045  0.31937692  0.00015687
   1.01092626  0.33904033 -0.00008722
   0.01907618  0.01389537 -0.00042338
   0.31298187  0.00067632 -0.00027976
   0.67542334  0.66104548  0.00055399
   0.10784747  0.22158399  0.94448397
   0.22132196  0.11169756  0.05632492
   0.11754023  0.55895753  0.94719677
   0.22498517  0.45025305  0.05389036
   0.10770062  0.88746826  0.94557725
   0.22557484  0.77607574  0.05114310
   0.44895586  0.22513912  0.95048512
   0.55804982  0.11430451  0.04772356
   0.44187840  0.55638433  0.95022949
   0.55596220  0.43866911  0.04991371
   0.44319375  0.88620344  0.95286816
   0.55232848  0.77804524  0.04802066
   0.77454376  0.22193060  0.94974318
   0.88638899  0.10912212  0.05120705
   0.77549172  0.54879838  0.94645380
   0.88510807  0.44104824  0.05251415
   0.77814103  0.89139706  0.94999509
   0.89083336  0.78143288  0.05216573
unknown system                          
           1
     8.283868    4.811921    0.000000
    -8.262141    4.774301    0.000000
     0.000000    0.000000   30.000000
   V    Mo   W    S 
   3   3   3  18
Direct configuration=    13
   0.31789505  0.65007902 -0.00004060
   0.68890085  0.34849030 -0.00001391
   0.67429710  0.00639024  0.00014927
  -0.00585616  0.66079934  0.00006656
   0.30856231  0.31868817  0.00019263
   1.01076532  0.33883091 -0.00013036
   0.01913408  0.01420903 -0.00052411
   0.31171038  0.00042601 -0.00025415
   0.67719002  0.66162026  0.00057781
   0.10749820  0.22156878  0.94438628
   0.22108771  0.11177124  0.05644164
   0.11740623  0.55894273  0.94713342
   0.22479338  0.45008538  0.05401318
   0.10736669  0.88728795  0.94551260
   0.22555463  0.77615482  0.05112435
   0.44895037  0.22529074  0.95079802
   0.55791504  0.11441486  0.04747647
   0.44199692  0.55618244  0.95047278
   0.55581761  0.43843522  0.04961751
   0.44298026  0.88626397  0.95317144
   0.55247026  0.77789917  0.04776046
   0.77469196  0.22201500  0.94966912
   0.88650168  0.10916397  0.05121675
   0.77575214  0.54888984  0.94632238
   0.88556795  0.44125509  0.05264142
   0.77808825  0.89137738  0.95000595
   0.89117622  0.78168261  0.05221299
unknown system                          
           1
     8.276356    4.807237    0.000000
    -8.254874    4.770042    0.000000
     0.000000    0.000000   30.000000
   V    Mo   W    S 
   3   3   3  18
Direct configuration=    14
   0.31842989  0.65053684 -0.00004138
   0.68822549  0.34824564 -0.00000382
   0.67378965  0.00600898  0.00013102
  -0.00570719  0.66092253  0.00006036
   0.30910764  0.31892430  0.00016855
   1.01080936  0.33886679 -0.00012316
   0.01919204  0.01415139 -0.00049454
   0.31224726  0.00057714 -0.00026365
   0.67639378  0.66134192  0.00056542
   0.10763706  0.22157443  0.94443790
   0.22121574  0.11175734  0.05639917
   0.11745439  0.55895418  0.94715985
   0.22488185  0.45015211  0.05397086
   0.10749150  0.88735495  0.94554095
   0.22554729  0.77612961  0.05112568
   0.44892696  0.22521885  0.95067814
   0.55798005  0.11435885  0.04756940
   0.44194732  0.55625297  0.95036927
   0.55586999  0.43852433  0.04974484
   0.44305991  0.88624732  0.95304713
   0.55242662  0.77796569  0.04786495
   0.77463098  0.22198525  0.94972056
   0.88645880  0.10914372  0.05119117
   0.77564686  0.54886289  0.94638211
   0.88539468  0.44118077  0.05259233
   0.77813253  0.89138966  0.95002883
   0.89102402  0.78158601  0.05217796
unknown system                          
           1
     8.277802    4.807212    0.000000
    -8.256612    4.770527    0.000000
     0.000000    0.000000   30.000000
   V    Mo   W    S 
   3   3   3  18
Direct configuration=    15
   0.32013189  0.65162782 -0.00004637
   0.68678475  0.34765484  0.00007589
   0.67101563  0.00409519  0.00009938
  -0.00527386  0.66117348  0.00004273
   0.31041520  0.31978548  0.00017331
   1.01149634  0.33957595 -0.00004055
   0.02015019  0.01437566 -0.00037225
   0.31357488  0.00092417 -0.00030062
   0.67349341  0.66004594  0.00057452
   0.10794026  0.22161804  0.94448311
   0.22178986  0.11185501  0.05631463
   0.11776843  0.55913517  0.94730852
   0.22521467  0.45043717  0.05378464
   0.10781310  0.88748819  0.94561973
   0.22542921  0.77602410  0.05102390
   0.44886364  0.22501206  0.95032114
   0.55817722  0.11423020  0.04788269
   0.44169633  0.55638754  0.94999119
   0.55597316  0.43868634  0.05017086
   0.44313104  0.88611103  0.95261923
   0.55215360  0.77809568  0.04824397
   0.77453446  0.22188252  0.94991939
   0.88642192  0.10904028  0.05094999
   0.77531243  0.54885467  0.94652143
   0.88513800  0.44106927  0.05246900
   0.77855644  0.89152048  0.95024981
   0.89051228  0.78150817  0.05192060
unknown system                          
           1
     8.280432    4.811601    0.000000
    -8.256743    4.770590    0.000000
     0.000000    0.000000   30.000000
   V    Mo   W    S 
   3   3   3  18
Direct configuration=    16
   0.32176526  0.65272012 -0.00005384
   0.68556050  0.34720821  0.00008131
   0.66888916  0.00274630  0.00006284
  -0.00511871  0.66133332  0.00001343
   0.31165745  0.32038921  0.00009449
   1.01175399  0.33979350 -0.00004454
   0.02079904  0.01456269 -0.00032746
   0.31483697  0.00138439 -0.00032737
   0.67118278  0.65895255  0.00053548
   0.10823277  0.22167510  0.94457625
   0.22220843  0.11193238  0.05627858
   0.11793349  0.55923791  0.94736331
   0.22547347  0.45065489  0.05373738
   0.10805872  0.88759290  0.94565652
   0.22538744  0.77597902  0.05099643
   0.44883703  0.22489535  0.95008342
   0.55835083  0.11416753  0.04812009
   0.44151243  0.55646147  0.94970466
   0.55606772  0.43877768  0.05049191
   0.44319662  0.88601800  0.95227931
   0.55197549  0.77818828  0.04853918
   0.77444066  0.22185999  0.95008251
   0.88636418  0.10897015  0.05081256
   0.77504970  0.54877462  0.94665610
   0.88486669  0.44095634  0.05240258
   0.77879114  0.89157125  0.95040159
   0.89014118  0.78141130  0.05178316
unknown system                          
           1
     8.286250    4.816844    0.000000
    -8.261523    4.774031    0.000000
     0.000000    0.000000   30.000000
   V    Mo   W    S 
   3   3   3  18
Direct configuration=    17
   0.32206505  0.65225662 -0.00001839
   0.68721375  0.34782763  0.00003551
   0.66760637  0.00250549  0.00008841
  -0.00589784  0.66082474  0.00003962
   0.31092337  0.32013569  0.00015074
   1.01190656  0.33987368 -0.00005698
   0.02179749  0.01535423 -0.00040528
   0.31415364  0.00146756 -0.00028622
   0.67131228  0.65832647  0.00052484
   0.10800593  0.22174532  0.94445918
   0.22223235  0.11219564  0.05640195
   0.11791029  0.55935110  0.94731134
   0.22540997  0.45060111  0.05385544
   0.10786600  0.88746019  0.94558987
   0.22537795  0.77611652  0.05089435
   0.44898944  0.22512951  0.95036256
   0.55830915  0.11437212  0.04799852
   0.44149868  0.55615844  0.94976297
   0.55599870  0.43846911  0.05029837
   0.44286652  0.88599534  0.95237150
   0.55195486  0.77795560  0.04845848
   0.77460590  0.22196509  0.95010718
   0.88646935  0.10891851  0.05066048
   0.77515578  0.54875982  0.94657548
   0.88533673  0.44117851  0.05251369
   0.77886092  0.89151737  0.95061929
   0.89028525  0.78175304  0.05168699
unknown system                          
           1
     8.294387    4.828214    0.000000
    -8.265089    4.777478    0.000000
     0.000000    0.000000   30.000000
   V    Mo   W    S 
   3   3   3  18
Direct configuration=    18
   0.32139529  0.65146932 -0.00001921
   0.68857222  0.34829887 -0.00000103
   0.66791755  0.00303617  0.00012365
  -0.00631970  0.66052653  0.00003674
   0.30998492  0.31981265  0.00017026
   1.01185990  0.33983798 -0.00008607
   0.02186388  0.01555717 -0.00047871
   0.31325975  0.00123771 -0.00027385
   0.67255279  0.65860391  0.00053264
   0.10778672  0.22178499  0.94437053
   0.22201946  0.11226227  0.05650666
   0.11784802  0.55935629  0.94728168
   0.22524992  0.45050399  0.05395818
   0.10765773  0.88734310  0.94554324
   0.22540641  0.77618701  0.05088329
   0.44911254  0.22531182  0.95060107
   0.55822882  0.11455063  0.04786479
   0.44156708  0.55599702  0.94991631
   0.55594175  0.43822962  0.05008690
   0.44265715  0.88598818  0.95255538
   0.55202943  0.77780221  0.04829636
   0.77474393  0.22203579  0.95001950
   0.88652173  0.10891445  0.05066673
   0.77536129  0.54878194  0.94645623
   0.88567639  0.44131284  0.05262740
   0.77879255  0.89150925  0.95063106
   0.89052693  0.78196276  0.05173015
unknown system                          
           1
     8.301603    4.835783    0.000000
    -8.269193    4.779665    0.000000
     0.000000    0.000000   30.000000
   V    Mo   W    S 
   3   3   3  18
Direct configuration=    19
   0.32045825  0.64910708  0.00001518
   0.69336028  0.34989247 -0.00011362
   0.66603446  0.00362658  0.00026578
  -0.00814314  0.65932054  0.00006881
   0.30703565  0.31904130  0.00031037
   1.01228853  0.34015886 -0.00011551
   0.02343683  0.01693736 -0.00068572
   0.31060380  0.00078982 -0.00020016
   0.67530663  0.65834028  0.00056292
   0.10715606  0.22200854  0.94407549
   0.22155604  0.11274728  0.05678370
   0.11781190  0.55955771  0.94727397
   0.22482192  0.45023639  0.05422434
   0.10706627  0.88698477  0.94543551
   0.22546375  0.77651351  0.05067618
   0.44964297  0.22599388  0.95145315
   0.55808410  0.11533859  0.04753225
   0.44166186  0.55530380  0.95026795
   0.55583711  0.43728974  0.04943176
   0.44172205  0.88582970  0.95297211
   0.55220482  0.77718091  0.04788088
   0.77528877  0.22228247  0.94984018
   0.88669618  0.10874194  0.05038025
   0.77599980  0.54883442  0.94608062
   0.88694613  0.44184869  0.05297274
   0.77876788  0.89152268  0.95098260
   0.89110555  0.78278511  0.05162819
unknown system                          
           1
     8.302057    4.837039    0.000000
    -8.268860    4.779559    0.000000
     0.000000    0.000000   30.000000
   V    Mo   W    S 
   3   3   3  18
Direct configuration=    20
   0.31964210  0.64803564  0.00001796
   0.69462030  0.35020321 -0.00020661
   0.66538550  0.00416690  0.00033782
  -0.00857035  0.65906106  0.00010910
   0.30613202  0.31886294  0.00036143
   1.01242932  0.34018548 -0.00013946
   0.02337499  0.01702570 -0.00078773
   0.30974704  0.00053824 -0.00016364
   0.67718833  0.65881568  0.00054236
   0.10686343  0.22205097  0.94397825
   0.22125405  0.11290699  0.05687055
   0.11780167  0.55960409  0.94725724
   0.22463614  0.45015543  0.05435768
   0.10676426  0.88676853  0.94536731
   0.22554785  0.77660164  0.05063506
   0.44991070  0.22626821  0.95179787
   0.55807206  0.11578724  0.04747625
   0.44172728  0.55508470  0.95044152
   0.55579639  0.43692926  0.04915644
   0.44136473  0.88566193  0.95311610
   0.55235529  0.77696775  0.04768763
   0.77555628  0.22233294  0.94972005
   0.88666001  0.10862644  0.05029572
   0.77634850  0.54885618  0.94590288
   0.88749123  0.44206559  0.05311358
   0.77864253  0.89160445  0.95104282
   0.89147282  0.78304727  0.05171171
unknown system                          
           1
     8.301895    4.837113    0.000000
    -8.268567    4.779406    0.000000
     0.000000    0.000000   30.000000
   V    Mo   W    S 
   3   3   3  18
Direct configuration=    21
   0.31891516  0.64725506  0.00002536
   0.69550195  0.35046417 -0.00025291
   0.66484433  0.00463145  0.00040063
  -0.00887715  0.65890203  0.00013510
   0.30537964  0.31863932  0.00040882
   1.01255418  0.34020341 -0.00013971
   0.02337868  0.01702195 -0.00084190
   0.30909699  0.00031073 -0.00015023
   0.67880790  0.65933915  0.00052900
   0.10668968  0.22206286  0.94393410
   0.22095864  0.11296647  0.05688184
   0.11777171  0.55960580  0.94724840
   0.22449075  0.45006459  0.05442983
   0.10662801  0.88665281  0.94535224
   0.22563301  0.77667560  0.05060700
   0.45008078  0.22643080  0.95204920
   0.55804127  0.11612187  0.04743953
   0.44185140  0.55497384  0.95060954
   0.55581275  0.43678871  0.04891474
   0.44110762  0.88553646  0.95322534
   0.55249923  0.77679275  0.04750993
   0.77574254  0.22235174  0.94964645
   0.88660566  0.10853500  0.05021392
   0.77665707  0.54888995  0.94579413
   0.88780796  0.44217634  0.05315961
   0.77848885  0.89164475  0.95107931
   0.89174586  0.78317683  0.05179063
unknown system                          
           1
     8.299649    4.837388    0.000000
    -8.264508    4.776550    0.000000
     0.000000    0.000000   30.000000
   V    Mo   W    S 
   3   3   3  18
Direct configuration=    22
   0.31879460  0.64711198  0.00002651
   0.69567138  0.35051351 -0.00026053
   0.66474906  0.00470533  0.00041141
  -0.00893851  0.65886682  0.00013965
   0.30524141  0.31860342  0.00041713
   1.01258115  0.34021457 -0.00013912
   0.02339115  0.01703336 -0.00085106
   0.30897349  0.00027009 -0.00014810
   0.67907715  0.65941538  0.00052824
   0.10665901  0.22206773  0.94392599
   0.22090827  0.11297961  0.05688350
   0.11776792  0.55960944  0.94724853
   0.22446453  0.45004927  0.05444169
   0.10660237  0.88663257  0.94535078
   0.22564518  0.77668828  0.05059985
   0.45011078  0.22645974  0.95209523
   0.55803567  0.11617866  0.04743097
   0.44186991  0.55495183  0.95063754
   0.55581612  0.43675939  0.04887258
   0.44106154  0.88551572  0.95324614
   0.55252202  0.77676138  0.04747933
   0.77577762  0.22235652  0.94963367
   0.88659906  0.10852042  0.05019840
   0.77671017  0.54889755  0.94577564
   0.88786788  0.44219916  0.05316814
   0.77846568  0.89165160  0.95108799
   0.89178984  0.78320111  0.05179982
unknown system                          
           1
     8.309535    4.842295    0.000000
    -8.276270    4.784685    0.000000
     0.000000    0.000000   30.000000
   V    Mo   W    S 
   3   3   3  18
Direct configuration=    23
   0.31844869  0.64685489  0.00002633
   0.69591071  0.35034156 -0.00027964
   0.66454005  0.00474463  0.00044101
  -0.00886209  0.65899756  0.00014392
   0.30491899  0.31864198  0.00042808
   1.01271115  0.34045365 -0.00014646
   0.02311126  0.01685677 -0.00088467
   0.30878853  0.00005464 -0.00014373
   0.67988986  0.65997992  0.00051541
   0.10656328  0.22205917  0.94389829
   0.22089043  0.11306653  0.05693004
   0.11767549  0.55964099  0.94724153
   0.22442197  0.45000634  0.05449431
   0.10639394  0.88639844  0.94531933
   0.22552268  0.77654473  0.05061301
   0.45012689  0.22652503  0.95213372
   0.55808775  0.11613596  0.04742933
   0.44190723  0.55490879  0.95067214
   0.55573268  0.43670656  0.04882729
   0.44116973  0.88549602  0.95327659
   0.55258739  0.77682941  0.04741731
   0.77580801  0.22216767  0.94960619
   0.88646889  0.10845180  0.05016131
   0.77688490  0.54901478  0.94572247
   0.88815681  0.44237388  0.05322508
   0.77838346  0.89172516  0.95109916
   0.89197575  0.78323759  0.05183255
unknown system                          
           1
     8.309271    4.843208    0.000000
    -8.274682    4.783316    0.000000
     0.000000    0.000000   30.000000
   V    Mo   W    S 
   3   3   3  18
Direct configuration=    24
   0.31839857  0.64666677  0.00004344
   0.69623933  0.35071437 -0.00031668
   0.66428045  0.00529859  0.00044378
  -0.00922568  0.65878724  0.00017553
   0.30474789  0.31830731  0.00044817
   1.01247536  0.33980441 -0.00016247
   0.02341654  0.01711403 -0.00093485
   0.30859821  0.00022329 -0.00012348
   0.68027580  0.65971674  0.00049513
   0.10654085  0.22204325  0.94389407
   0.22067291  0.11302429  0.05693956
   0.11773199  0.55952426  0.94723965
   0.22434581  0.44994219  0.05450211
   0.10653218  0.88660394  0.94533016
   0.22581076  0.77686943  0.05057249
   0.45028296  0.22661630  0.95229300
   0.55803806  0.11652804  0.04739770
   0.44200201  0.55483762  0.95078031
   0.55581167  0.43662493  0.04869715
   0.44081822  0.88545919  0.95334434