   27   27  100    1
  0.9710400E+02  0.1002848E-08  0.1002848E-08  0.3000000E-08  0.5000000E-15
  1.000000000000000E-004
  CAR 
 unknown system                          
    159     34    120
 
  0.0000000E+00  0.0000000E+00  0.0000000E+00  0.1562500E-01
    1      -17.822835   1.000000
    2      -16.778065   1.000000
    3      -16.688037   1.000000
    4      -16.594397   1.000000
    5      -16.551635   1.000000
    6      -16.465793   1.000000
    7      -16.450285   1.000000
    8      -16.233629   1.000000
    9      -16.132394   1.000000
   10      -16.107260   1.000000
   11      -16.086408   1.000000
   12      -15.960577   1.000000
   13      -15.872728   1.000000
   14      -15.779600   1.000000
   15      -15.590556   1.000000
   16      -15.402583   1.000000
   17      -15.374685   1.000000
   18      -15.199527   1.000000
   19       -9.349782   1.000000
   20       -9.018331   1.000000
   21       -9.006526   1.000000
   22       -8.926136   1.000000
   23       -8.758916   1.000000
   24       -8.653766   1.000000
   25       -8.608515   1.000000
   26       -8.605564   1.000000
   27       -8.544471   1.000000
   28       -8.508297   1.000000
   29       -8.435733   1.000000
   30       -8.424229   1.000000
   31       -8.311542   1.000000
   32       -8.112708   1.000000
   33       -8.090429   1.000000
   34       -8.012287   1.000000
   35       -7.796086   1.000000
   36       -7.770318   1.000000
   37       -7.664545   1.000000
   38       -7.561917   1.000000
   39       -7.452632   1.000000
   40       -7.409428   1.000000
   41       -7.349963   1.000000
   42       -7.234848   1.000000
   43       -7.109034   1.000000
   44       -6.875409   1.000000
   45       -6.806477   1.000000
   46       -6.803215   1.000000
   47       -6.772039   1.000000
   48       -6.647161   1.000000
   49       -6.547595   1.000000
   50       -6.468353   1.000000
   51       -6.428117   1.000000
   52       -6.325703   1.000000
   53       -6.279160   1.000000
   54       -6.261799   1.000000
   55       -6.233963   1.000000
   56       -6.153589   1.000000
   57       -6.028045   1.000000
   58       -5.973873   1.000000
   59       -5.860636   1.000000
   60       -5.525604   1.000000
   61       -5.396290   1.000000
   62       -5.303653   1.000000
   63       -5.266861   1.000000
   64       -5.221829   1.000000
   65       -5.069444   1.000000
   66       -4.998420   1.000000
   67       -4.964895   1.000000
   68       -4.843075   1.000000
   69       -4.840115   1.000000
   70       -4.679594   1.000000
   71       -4.667351   1.000000
   72       -4.597620   1.000000
   73       -4.533750   1.000000
   74       -4.418338   1.000000
   75       -4.085798   1.000000
   76       -3.984469   0.999996
   77       -3.861581   0.999853
   78       -3.581531   0.949517
   79       -3.487047   0.834497
   80       -3.443780   0.747341
   81       -3.172598   0.105394
   82       -2.983393   0.004809
   83       -2.831587   0.000125
   84       -2.711649   0.000003
   85       -2.537269   0.000000
   86       -2.435350   0.000000
   87       -2.392501   0.000000
   88       -2.337530   0.000000
   89       -2.245168   0.000000
   90       -2.175963   0.000000
   91       -1.746336   0.000000
   92       -1.635592   0.000000
   93       -1.433182   0.000000
   94       -1.234346   0.000000
   95       -1.084779   0.000000
   96       -0.923579   0.000000
   97       -0.915901   0.000000
   98       -0.820790   0.000000
   99       -0.785213   0.000000
  100       -0.655581   0.000000
  101       -0.593427   0.000000
  102       -0.524633   0.000000
  103       -0.504561   0.000000
  104       -0.299789   0.000000
  105       -0.225893   0.000000
  106       -0.188848   0.000000
  107       -0.139585   0.000000
  108       -0.054331   0.000000
  109       -0.005697   0.000000
  110        0.256430   0.000000
  111        0.258806   0.000000
  112        0.714644   0.000000
  113        0.795360   0.000000
  114        0.845270   0.000000
  115        0.882385   0.000000
  116        0.953854   0.000000
  117        1.285325   0.000000
  118        1.647581   0.000000
  119        1.836749   0.000000
  120        2.157830   0.000000
 
  0.1250000E+00  0.2775558E-16  0.0000000E+00  0.3125000E-01
    1      -17.797489   1.000000
    2      -16.825597   1.000000
    3      -16.757605   1.000000
    4      -16.604559   1.000000
    5      -16.546397   1.000000
    6      -16.490288   1.000000
    7      -16.379153   1.000000
    8      -16.287764   1.000000
    9      -16.141299   1.000000
   10      -16.082500   1.000000
   11      -16.015526   1.000000
   12      -15.921392   1.000000
   13      -15.859196   1.000000
   14      -15.766934   1.000000
   15      -15.597927   1.000000
   16      -15.419129   1.000000
   17      -15.379025   1.000000
   18      -15.207503   1.000000
   19       -9.328871   1.000000
   20       -9.183201   1.000000
   21       -9.092698   1.000000
   22       -9.029504   1.000000
   23       -8.750251   1.000000
   24       -8.736513   1.000000
   25       -8.616387   1.000000
   26       -8.591693   1.000000
   27       -8.527339   1.000000
   28       -8.452978   1.000000
   29       -8.391149   1.000000
   30       -8.329598   1.000000
   31       -8.297771   1.000000
   32       -8.038544   1.000000
   33       -7.978941   1.000000
   34       -7.889066   1.000000
   35       -7.819364   1.000000
   36       -7.753406   1.000000
   37       -7.689054   1.000000
   38       -7.522146   1.000000
   39       -7.466803   1.000000
   40       -7.382925   1.000000
   41       -7.323530   1.000000
   42       -7.270379   1.000000
   43       -7.109017   1.000000
   44       -6.942990   1.000000
   45       -6.864121   1.000000
   46       -6.794434   1.000000
   47       -6.772820   1.000000
   48       -6.654963   1.000000
   49       -6.560949   1.000000
   50       -6.465020   1.000000
   51       -6.406904   1.000000
   52       -6.348019   1.000000
   53       -6.293247   1.000000
   54       -6.251455   1.000000
   55       -6.180295   1.000000
   56       -6.121708   1.000000
   57       -6.044339   1.000000
   58       -5.924917   1.000000
   59       -5.806700   1.000000
   60       -5.522730   1.000000
   61       -5.423659   1.000000
   62       -5.369114   1.000000
   63       -5.305530   1.000000
   64       -5.216766   1.000000
   65       -5.201865   1.000000
   66       -5.006841   1.000000
   67       -4.982392   1.000000
   68       -4.903265   1.000000
   69       -4.832407   1.000000
   70       -4.677690   1.000000
   71       -4.601635   1.000000
   72       -4.557486   1.000000
   73       -4.499132   1.000000
   74       -4.374476   1.000000
   75       -4.057045   1.000000
   76       -3.914742   0.999968
   77       -3.896044   0.999944
   78       -3.713259   0.994939
   79       -3.608958   0.966682
   80       -3.332463   0.451852
   81       -3.138356   0.067649
   82       -3.002402   0.007047
   83       -2.802486   0.000055
   84       -2.702396   0.000002
   85       -2.555193   0.000000
   86       -2.390573   0.000000
   87       -2.383251   0.000000
   88       -2.318503   0.000000
   89       -2.242441   0.000000
   90       -2.137386   0.000000
   91       -1.765807   0.000000
   92       -1.629076   0.000000
   93       -1.427566   0.000000
   94       -1.218908   0.000000
   95       -1.073489   0.000000
   96       -0.977429   0.000000
   97       -0.898539   0.000000
   98       -0.834498   0.000000
   99       -0.794956   0.000000
  100       -0.705862   0.000000
  101       -0.620842   0.000000
  102       -0.573781   0.000000
  103       -0.514013   0.000000
  104       -0.433920   0.000000
  105       -0.346591   0.000000
  106       -0.275907   0.000000
  107       -0.179405   0.000000
  108        0.025845   0.000000
  109        0.121032   0.000000
  110        0.270413   0.000000
  111        0.323020   0.000000
  112        0.615429   0.000000
  113        0.742713   0.000000
  114        0.848493   0.000000
  115        0.887850   0.000000
  116        1.029275   0.000000
  117        1.344269   0.000000
  118        1.691812   0.000000
  119        1.875495   0.000000
  120        2.193198   0.000000
 
  0.2500000E+00  0.5551115E-16  0.0000000E+00  0.3125000E-01
    1      -17.722656   1.000000
    2      -17.018253   1.000000
    3      -16.752285   1.000000
    4      -16.675253   1.000000
    5      -16.587195   1.000000
    6      -16.449270   1.000000
    7      -16.376041   1.000000
    8      -16.246114   1.000000
    9      -16.152384   1.000000
   10      -16.018363   1.000000
   11      -15.996340   1.000000
   12      -15.843095   1.000000
   13      -15.808726   1.000000
   14      -15.706994   1.000000
   15      -15.615781   1.000000
   16      -15.466465   1.000000
   17      -15.388887   1.000000
   18      -15.226544   1.000000
   19       -9.501164   1.000000
   20       -9.298542   1.000000
   21       -9.198419   1.000000
   22       -9.138536   1.000000
   23       -8.811871   1.000000
   24       -8.738739   1.000000
   25       -8.699567   1.000000
   26       -8.566389   1.000000
   27       -8.519248   1.000000
   28       -8.425367   1.000000
   29       -8.262047   1.000000
   30       -8.220067   1.000000
   31       -8.114897   1.000000
   32       -8.026755   1.000000
   33       -7.918776   1.000000
   34       -7.865568   1.000000
   35       -7.760552   1.000000
   36       -7.712667   1.000000
   37       -7.555223   1.000000
   38       -7.531580   1.000000
   39       -7.414506   1.000000
   40       -7.398808   1.000000
   41       -7.278806   1.000000
   42       -7.206630   1.000000
   43       -7.153110   1.000000
   44       -6.990507   1.000000
   45       -6.845941   1.000000
   46       -6.820001   1.000000
   47       -6.735036   1.000000
   48       -6.695976   1.000000
   49       -6.529941   1.000000
   50       -6.494606   1.000000
   51       -6.454420   1.000000
   52       -6.337007   1.000000
   53       -6.280803   1.000000
   54       -6.173517   1.000000
   55       -6.138725   1.000000
   56       -6.098753   1.000000
   57       -5.974067   1.000000
   58       -5.881628   1.000000
   59       -5.745534   1.000000
   60       -5.646437   1.000000
   61       -5.547841   1.000000
   62       -5.507822   1.000000
   63       -5.431315   1.000000
   64       -5.321846   1.000000
   65       -5.236415   1.000000
   66       -5.118780   1.000000
   67       -4.900281   1.000000
   68       -4.867443   1.000000
   69       -4.832966   1.000000
   70       -4.695601   1.000000
   71       -4.515531   1.000000
   72       -4.480332   1.000000
   73       -4.400451   1.000000
   74       -4.339230   1.000000
   75       -4.170456   1.000000
   76       -3.994568   0.999997
   77       -3.925788   0.999977
   78       -3.729307   0.996375
   79       -3.613163   0.968830
   80       -3.223073   0.185531
   81       -3.140471   0.069627
   82       -3.025769   0.011021
   83       -2.771801   0.000022
   84       -2.679978   0.000001
   85       -2.547867   0.000000
   86       -2.449163   0.000000
   87       -2.309512   0.000000
   88       -2.224124   0.000000
   89       -2.197728   0.000000
   90       -2.053524   0.000000
   91       -1.800084   0.000000
   92       -1.622748   0.000000
   93       -1.409588   0.000000
   94       -1.191628   0.000000
   95       -1.108323   0.000000
   96       -1.012052   0.000000
   97       -0.941676   0.000000
   98       -0.880456   0.000000
   99       -0.860935   0.000000
  100       -0.764388   0.000000
  101       -0.743234   0.000000
  102       -0.668978   0.000000
  103       -0.569360   0.000000
  104       -0.515951   0.000000
  105       -0.460997   0.000000
  106       -0.396524   0.000000
  107       -0.307623   0.000000
  108        0.037331   0.000000
  109        0.187848   0.000000
  110        0.315034   0.000000
  111        0.398340   0.000000
  112        0.512220   0.000000
  113        0.674355   0.000000
  114        0.853607   0.000000
  115        0.942085   0.000000
  116        1.144733   0.000000
  117        1.451436   0.000000
  118        1.816224   0.000000
  119        1.987104   0.000000
  120        2.298291   0.000000
 
  0.3750000E+00  0.0000000E+00  0.0000000E+00  0.3125000E-01
    1      -17.603116   1.000000
    2      -17.226816   1.000000
    3      -16.741337   1.000000
    4      -16.721398   1.000000
    5      -16.624153   1.000000
    6      -16.473876   1.000000
    7      -16.338203   1.000000
    8      -16.198347   1.000000
    9      -16.156745   1.000000
   10      -16.015556   1.000000
   11      -15.904416   1.000000
   12      -15.812676   1.000000
   13      -15.773994   1.000000
   14      -15.665847   1.000000
   15      -15.602395   1.000000
   16      -15.518917   1.000000
   17      -15.398424   1.000000
   18      -15.244933   1.000000
   19       -9.722959   1.000000
   20       -9.365079   1.000000
   21       -9.303536   1.000000
   22       -9.048488   1.000000
   23       -8.874083   1.000000
   24       -8.827484   1.000000
   25       -8.660314   1.000000
   26       -8.612658   1.000000
   27       -8.436569   1.000000
   28       -8.304365   1.000000
   29       -8.251483   1.000000
   30       -8.162640   1.000000
   31       -8.120381   1.000000
   32       -7.973603   1.000000
   33       -7.904580   1.000000
   34       -7.831750   1.000000
   35       -7.782386   1.000000
   36       -7.745431   1.000000
   37       -7.639768   1.000000
   38       -7.459633   1.000000
   39       -7.394719   1.000000
   40       -7.319799   1.000000
   41       -7.222459   1.000000
   42       -7.095575   1.000000
   43       -7.069781   1.000000
   44       -6.959238   1.000000
   45       -6.852314   1.000000
   46       -6.797762   1.000000
   47       -6.711588   1.000000
   48       -6.590007   1.000000
   49       -6.562559   1.000000
   50       -6.461517   1.000000
   51       -6.378559   1.000000
   52       -6.337729   1.000000
   53       -6.209467   1.000000
   54       -6.149422   1.000000
   55       -6.114115   1.000000
   56       -6.039253   1.000000
   57       -6.019319   1.000000
   58       -5.924479   1.000000
   59       -5.897398   1.000000
   60       -5.726425   1.000000
   61       -5.645209   1.000000
   62       -5.618462   1.000000
   63       -5.532329   1.000000
   64       -5.333918   1.000000
   65       -5.313224   1.000000
   66       -5.139532   1.000000
   67       -4.921153   1.000000
   68       -4.818954   1.000000
   69       -4.769831   1.000000
   70       -4.687185   1.000000
   71       -4.626812   1.000000
   72       -4.445464   1.000000
   73       -4.387877   1.000000
   74       -4.296428   1.000000
   75       -4.229540   1.000000
   76       -4.106556   1.000000
   77       -3.938487   0.999984
   78       -3.560903   0.932456
   79       -3.552085   0.923925
   80       -3.244111   0.227917
   81       -3.101928   0.039963
   82       -3.012209   0.008527
   83       -2.818265   0.000086
   84       -2.628374   0.000000
   85       -2.524073   0.000000
   86       -2.498712   0.000000
   87       -2.242924   0.000000
   88       -2.173899   0.000000
   89       -2.150143   0.000000
   90       -1.939680   0.000000
   91       -1.818054   0.000000
   92       -1.620686   0.000000
   93       -1.375304   0.000000
   94       -1.258423   0.000000
   95       -1.115936   0.000000
   96       -1.063955   0.000000
   97       -1.025221   0.000000
   98       -0.975619   0.000000
   99       -0.889397   0.000000
  100       -0.828340   0.000000
  101       -0.808688   0.000000
  102       -0.735417   0.000000
  103       -0.627659   0.000000
  104       -0.566186   0.000000
  105       -0.522891   0.000000
  106       -0.495595   0.000000
  107       -0.378859   0.000000
  108        0.010678   0.000000
  109        0.154715   0.000000
  110        0.232717   0.000000
  111        0.430024   0.000000
  112        0.535543   0.000000
  113        0.671268   0.000000
  114        0.859590   0.000000
  115        1.035602   0.000000
  116        1.228703   0.000000
  117        1.534182   0.000000
  118        2.003610   0.000000
  119        2.163045   0.000000
  120        2.470635   0.000000
 
  0.5000000E+00  0.1110223E-15  0.0000000E+00  0.1562500E-01
    1      -17.483599   1.000000
    2      -17.378351   1.000000
    3      -16.748522   1.000000
    4      -16.722227   1.000000
    5      -16.641905   1.000000
    6      -16.483149   1.000000
    7      -16.326858   1.000000
    8      -16.176947   1.000000
    9      -16.158589   1.000000
   10      -16.018000   1.000000
   11      -15.850522   1.000000
   12      -15.789424   1.000000
   13      -15.766940   1.000000
   14      -15.681844   1.000000
   15      -15.612374   1.000000
   16      -15.514559   1.000000
   17      -15.402844   1.000000
   18      -15.252058   1.000000
   19       -9.802957   1.000000
   20       -9.394319   1.000000
   21       -9.347317   1.000000
   22       -8.935103   1.000000
   23       -8.904604   1.000000
   24       -8.877629   1.000000
   25       -8.702024   1.000000
   26       -8.627903   1.000000
   27       -8.352292   1.000000
   28       -8.298189   1.000000
   29       -8.220830   1.000000
   30       -8.144466   1.000000
   31       -8.069593   1.000000
   32       -8.028918   1.000000
   33       -7.906263   1.000000
   34       -7.888804   1.000000
   35       -7.764512   1.000000
   36       -7.756559   1.000000
   37       -7.664691   1.000000
   38       -7.459862   1.000000
   39       -7.428171   1.000000
   40       -7.343863   1.000000
   41       -7.086042   1.000000
   42       -7.051996   1.000000
   43       -6.987764   1.000000
   44       -6.894884   1.000000
   45       -6.827010   1.000000
   46       -6.780981   1.000000
   47       -6.671410   1.000000
   48       -6.596736   1.000000
   49       -6.543029   1.000000
   50       -6.456122   1.000000
   51       -6.445599   1.000000
   52       -6.312877   1.000000
   53       -6.283573   1.000000
   54       -6.183149   1.000000
   55       -6.108154   1.000000
   56       -6.024314   1.000000
   57       -5.952582   1.000000
   58       -5.926241   1.000000
   59       -5.789841   1.000000
   60       -5.756021   1.000000
   61       -5.744841   1.000000
   62       -5.579602   1.000000
   63       -5.550765   1.000000
   64       -5.481359   1.000000
   65       -5.323592   1.000000
   66       -5.127798   1.000000
   67       -5.124393   1.000000
   68       -4.817394   1.000000
   69       -4.707407   1.000000
   70       -4.703309   1.000000
   71       -4.484938   1.000000
   72       -4.474721   1.000000
   73       -4.421973   1.000000
   74       -4.363503   1.000000
   75       -4.236101   1.000000
   76       -4.054722   1.000000
   77       -3.956677   0.999991
   78       -3.537624   0.908195
   79       -3.389295   0.610597
   80       -3.379766   0.584530
   81       -3.061700   0.020897
   82       -2.952385   0.002488
   83       -2.892489   0.000614
   84       -2.580109   0.000000
   85       -2.565771   0.000000
   86       -2.482314   0.000000
   87       -2.203702   0.000000
   88       -2.176791   0.000000
   89       -2.133239   0.000000
   90       -1.885341   0.000000
   91       -1.816942   0.000000
   92       -1.619537   0.000000
   93       -1.363380   0.000000
   94       -1.286267   0.000000
   95       -1.130742   0.000000
   96       -1.096958   0.000000
   97       -1.072550   0.000000
   98       -0.998053   0.000000
   99       -0.931050   0.000000
  100       -0.840376   0.000000
  101       -0.831336   0.000000
  102       -0.724907   0.000000
  103       -0.647986   0.000000
  104       -0.610081   0.000000
  105       -0.589033   0.000000
  106       -0.489285   0.000000
  107       -0.393810   0.000000
  108       -0.002928   0.000000
  109        0.111385   0.000000
  110        0.213617   0.000000
  111        0.439481   0.000000
  112        0.535097   0.000000
  113        0.686717   0.000000
  114        0.863919   0.000000
  115        1.078252   0.000000
  116        1.257953   0.000000
  117        1.563472   0.000000
  118        2.225717   0.000000
  119        2.259398   0.000000
  120        2.390456   0.000000
 
  0.0000000E+00  0.1250000E+00  0.0000000E+00  0.3125000E-01
    1      -17.798874   1.000000
    2      -16.810213   1.000000
    3      -16.745113   1.000000
    4      -16.655582   1.000000
    5      -16.546877   1.000000
    6      -16.469389   1.000000
    7      -16.393904   1.000000
    8      -16.257346   1.000000
    9      -16.126675   1.000000
   10      -16.077021   1.000000
   11      -16.015027   1.000000
   12      -15.955950   1.000000
   13      -15.857637   1.000000
   14      -15.770564   1.000000
   15      -15.599412   1.000000
   16      -15.412660   1.000000
   17      -15.385109   1.000000
   18      -15.202796   1.000000
   19       -9.344815   1.000000
   20       -9.175351   1.000000
   21       -9.063473   1.000000
   22       -9.017909   1.000000
   23       -8.787448   1.000000
   24       -8.711191   1.000000
   25       -8.647496   1.000000
   26       -8.583336   1.000000
   27       -8.537672   1.000000
   28       -8.502290   1.000000
   29       -8.388100   1.000000
   30       -8.270549   1.000000
   31       -8.227580   1.000000
   32       -8.072639   1.000000
   33       -8.010304   1.000000
   34       -7.923835   1.000000
   35       -7.804647   1.000000
   36       -7.739780   1.000000
   37       -7.603798   1.000000
   38       -7.577852   1.000000
   39       -7.489736   1.000000
   40       -7.446335   1.000000
   41       -7.308446   1.000000
   42       -7.205707   1.000000
   43       -7.152729   1.000000
   44       -6.941494   1.000000
   45       -6.854834   1.000000
   46       -6.783618   1.000000
   47       -6.722192   1.000000
   48       -6.672205   1.000000
   49       -6.507086   1.000000
   50       -6.442549   1.000000
   51       -6.434980   1.000000
   52       -6.379253   1.000000
   53       -6.300692   1.000000
   54       -6.260740   1.000000
   55       -6.234567   1.000000
   56       -6.113251   1.000000
   57       -6.033854   1.000000
   58       -5.957477   1.000000
   59       -5.812290   1.000000
   60       -5.500519   1.000000
   61       -5.427295   1.000000
   62       -5.403408   1.000000
   63       -5.322001   1.000000
   64       -5.244597   1.000000
   65       -5.093779   1.000000
   66       -5.020576   1.000000
   67       -4.950264   1.000000
   68       -4.887305   1.000000
   69       -4.816106   1.000000
   70       -4.718576   1.000000
   71       -4.669718   1.000000
   72       -4.578254   1.000000
   73       -4.476126   1.000000
   74       -4.299886   1.000000
   75       -4.079894   1.000000
   76       -3.945656   0.999988
   77       -3.877087   0.999904
   78       -3.690383   0.992021
   79       -3.604799   0.964441
   80       -3.419566   0.689673
   81       -3.075674   0.026387
   82       -2.969630   0.003609
   83       -2.799532   0.000050
   84       -2.702435   0.000002
   85       -2.543727   0.000000
   86       -2.413325   0.000000
   87       -2.368068   0.000000
   88       -2.335322   0.000000
   89       -2.239428   0.000000
   90       -2.148584   0.000000
   91       -1.751157   0.000000
   92       -1.632296   0.000000
   93       -1.424791   0.000000
   94       -1.237126   0.000000
   95       -1.068974   0.000000
   96       -0.963152   0.000000
   97       -0.905043   0.000000
   98       -0.847875   0.000000
   99       -0.795492   0.000000
  100       -0.744025   0.000000
  101       -0.649122   0.000000
  102       -0.587549   0.000000
  103       -0.545238   0.000000
  104       -0.386111   0.000000
  105       -0.344751   0.000000
  106       -0.152982   0.000000
  107       -0.125582   0.000000
  108       -0.017017   0.000000
  109        0.072439   0.000000
  110        0.205968   0.000000
  111        0.304758   0.000000
  112        0.677538   0.000000
  113        0.746272   0.000000
  114        0.849529   0.000000
  115        0.897555   0.000000
  116        1.028480   0.000000
  117        1.321284   0.000000
  118        1.690624   0.000000
  119        1.877035   0.000000
  120        2.192836   0.000000
 
  0.1250000E+00  0.1250000E+00  0.0000000E+00  0.3125000E-01
    1      -17.749024   1.000000
    2      -16.942405   1.000000
    3      -16.760050   1.000000
    4      -16.719749   1.000000
    5      -16.524704   1.000000
    6      -16.452760   1.000000
    7      -16.370719   1.000000
    8      -16.255313   1.000000
    9      -16.151567   1.000000
   10      -16.052584   1.000000
   11      -15.984218   1.000000
   12      -15.882580   1.000000
   13      -15.809130   1.000000
   14      -15.742673   1.000000
   15      -15.609847   1.000000
   16      -15.446999   1.000000
   17      -15.387937   1.000000
   18      -15.217748   1.000000
   19       -9.411856   1.000000
   20       -9.297399   1.000000
   21       -9.223252   1.000000
   22       -9.084946   1.000000
   23       -8.806288   1.000000
   24       -8.736184   1.000000
   25       -8.644651   1.000000
   26       -8.551180   1.000000
   27       -8.465436   1.000000
   28       -8.433205   1.000000
   29       -8.381179   1.000000
   30       -8.288724   1.000000
   31       -8.139777   1.000000
   32       -8.042816   1.000000
   33       -7.954108   1.000000
   34       -7.858015   1.000000
   35       -7.740207   1.000000
   36       -7.654332   1.000000
   37       -7.621773   1.000000
   38       -7.532460   1.000000
   39       -7.461918   1.000000
   40       -7.354413   1.000000
   41       -7.300911   1.000000
   42       -7.216056   1.000000
   43       -7.130406   1.000000
   44       -7.049912   1.000000
   45       -6.849471   1.000000
   46       -6.801173   1.000000
   47       -6.772575   1.000000
   48       -6.651850   1.000000
   49       -6.530281   1.000000
   50       -6.488637   1.000000
   51       -6.409783   1.000000
   52       -6.375967   1.000000
   53       -6.297505   1.000000
   54       -6.242412   1.000000
   55       -6.151205   1.000000
   56       -6.111017   1.000000
   57       -5.974293   1.000000
   58       -5.897252   1.000000
   59       -5.753300   1.000000
   60       -5.623915   1.000000
   61       -5.511485   1.000000
   62       -5.443946   1.000000
   63       -5.369877   1.000000
   64       -5.299157   1.000000
   65       -5.221497   1.000000
   66       -5.096947   1.000000
   67       -4.941722   1.000000
   68       -4.892197   1.000000
   69       -4.792333   1.000000
   70       -4.710418   1.000000
   71       -4.608236   1.000000
   72       -4.499974   1.000000
   73       -4.355267   1.000000
   74       -4.303756   1.000000
   75       -4.121965   1.000000
   76       -4.028876   0.999999
   77       -3.830125   0.999661
   78       -3.789185   0.999060
   79       -3.653690   0.984239
   80       -3.308547   0.385872
   81       -3.070580   0.024260
   82       -2.998753   0.006557
   83       -2.762281   0.000016
   84       -2.681786   0.000001
   85       -2.554519   0.000000
   86       -2.418676   0.000000
   87       -2.341452   0.000000
   88       -2.267666   0.000000
   89       -2.212475   0.000000
   90       -2.085044   0.000000
   91       -1.779245   0.000000
   92       -1.624982   0.000000
   93       -1.419009   0.000000
   94       -1.212206   0.000000
   95       -1.076587   0.000000
   96       -1.018388   0.000000
   97       -0.930693   0.000000
   98       -0.885737   0.000000
   99       -0.822415   0.000000
  100       -0.788815   0.000000
  101       -0.706683   0.000000
  102       -0.637847   0.000000
  103       -0.570613   0.000000
  104       -0.519759   0.000000
  105       -0.454909   0.000000
  106       -0.281580   0.000000
  107       -0.189747   0.000000
  108        0.010529   0.000000
  109        0.135032   0.000000
  110        0.298416   0.000000
  111        0.354871   0.000000
  112        0.560494   0.000000
  113        0.702923   0.000000
  114        0.850287   0.000000
  115        0.926068   0.000000
  116        1.109051   0.000000
  117        1.417264   0.000000
  118        1.774772   0.000000
  119        1.952280   0.000000
  120        2.262960   0.000000
 
  0.2500000E+00  0.1250000E+00  0.0000000E+00  0.3125000E-01
    1      -17.652204   1.000000
    2      -17.122951   1.000000
    3      -16.843087   1.000000
    4      -16.732875   1.000000
    5      -16.505265   1.000000
    6      -16.433967   1.000000
    7      -16.360246   1.000000
    8      -16.228966   1.000000
    9      -16.148935   1.000000
   10      -16.033879   1.000000
   11      -15.938278   1.000000
   12      -15.849461   1.000000
   13      -15.770707   1.000000
   14      -15.668088   1.000000
   15      -15.613372   1.000000
   16      -15.497530   1.000000
   17      -15.394222   1.000000
   18      -15.236604   1.000000
   19       -9.618792   1.000000
   20       -9.438387   1.000000
   21       -9.291316   1.000000
   22       -9.098114   1.000000
   23       -8.783416   1.000000
   24       -8.755556   1.000000
   25       -8.614540   1.000000
   26       -8.540594   1.000000
   27       -8.471946   1.000000
   28       -8.365193   1.000000
   29       -8.260691   1.000000
   30       -8.220263   1.000000
   31       -8.125914   1.000000
   32       -8.059657   1.000000
   33       -7.961167   1.000000
   34       -7.889287   1.000000
   35       -7.794174   1.000000
   36       -7.680179   1.000000
   37       -7.542903   1.000000
   38       -7.449895   1.000000
   39       -7.371459   1.000000
   40       -7.295885   1.000000
   41       -7.248407   1.000000
   42       -7.168568   1.000000
   43       -7.124459   1.000000
   44       -6.973350   1.000000
   45       -6.857082   1.000000
   46       -6.773898   1.000000
   47       -6.711503   1.000000