       N       E                     dE             d eps       ncg     rms          rms(c)
DAV:   1     0.112360840332E+04    0.11236E+04   -0.35870E+04  8160   0.577E+02
DAV:   2    -0.956876706285E+00   -0.11246E+04   -0.10800E+04 11360   0.173E+02
DAV:   3    -0.199901987091E+03   -0.19895E+03   -0.19115E+03 10920   0.822E+01
DAV:   4    -0.208981518004E+03   -0.90795E+01   -0.88231E+01 12040   0.261E+01
DAV:   5    -0.209305609006E+03   -0.32409E+00   -0.32326E+00 11560   0.363E+00    0.275E+01
DAV:   6    -0.236754453493E+03   -0.27449E+02   -0.10813E+02 12600   0.605E+01    0.594E+01
DAV:   7    -0.196679928478E+03    0.40075E+02   -0.17842E+02 13040   0.151E+02    0.202E+01
DAV:   8    -0.189953270575E+03    0.67267E+01   -0.20232E+01 11840   0.133E+01    0.134E+01
DAV:   9    -0.188233579638E+03    0.17197E+01   -0.28888E+00 12000   0.622E+00    0.919E+00
DAV:  10    -0.187050060840E+03    0.11835E+01   -0.18579E+00 13400   0.774E+00    0.292E+00
DAV:  11    -0.187025071311E+03    0.24990E-01   -0.61183E-01 13560   0.300E+00    0.304E+00
DAV:  12    -0.187176414163E+03   -0.15134E+00   -0.82190E-01 13240   0.524E+00    0.582E+00
DAV:  13    -0.186921064764E+03    0.25535E+00   -0.78946E-01 12840   0.420E+00    0.210E+00
DAV:  14    -0.186876514956E+03    0.44550E-01   -0.11696E-01 13160   0.202E+00    0.855E-01
DAV:  15    -0.186874619413E+03    0.18955E-02   -0.16453E-02 13040   0.678E-01    0.793E-01
DAV:  16    -0.186868618093E+03    0.60013E-02   -0.10655E-02 13200   0.548E-01    0.187E-01
DAV:  17    -0.186868615022E+03    0.30716E-05   -0.37612E-03 12800   0.227E-01    0.215E-01
DAV:  18    -0.186867918066E+03    0.69696E-03   -0.17039E-03 11720   0.133E-01    0.101E-01
DAV:  19    -0.186867952697E+03   -0.34631E-04   -0.56052E-04  9320   0.746E-02
   1 F= -.18686795E+03 E0= -.18669625E+03  d E =-.186868E+03
       N       E                     dE             d eps       ncg     rms          rms(c)
DAV:   1    -0.187481335849E+03   -0.61342E+00   -0.27039E+02  8160   0.349E+01    0.466E+00
DAV:   2    -0.189426839854E+03   -0.19455E+01   -0.20269E+01 11920   0.155E+01    0.942E+00
DAV:   3    -0.189343289200E+03    0.83551E-01   -0.45737E+00 12240   0.124E+01    0.664E+00
DAV:   4    -0.188750818255E+03    0.59247E+00   -0.61091E-01 12200   0.456E+00    0.210E+00
DAV:   5    -0.188846219485E+03   -0.95401E-01   -0.43379E-01 11320   0.350E+00    0.499E+00
DAV:   6    -0.188747438282E+03    0.98781E-01   -0.73570E-01 12360   0.435E+00    0.270E+00
DAV:   7    -0.188665454966E+03    0.81983E-01   -0.22289E-01 12280   0.168E+00    0.115E+00
DAV:   8    -0.188662019703E+03    0.34353E-02   -0.81869E-02 11800   0.141E+00    0.146E+00
DAV:   9    -0.188646692935E+03    0.15327E-01   -0.33144E-02 11360   0.105E+00    0.561E-01
DAV:  10    -0.188644014542E+03    0.26784E-02   -0.67585E-03 12200   0.358E-01    0.314E-01
DAV:  11    -0.188643589287E+03    0.42525E-03   -0.33000E-03 12600   0.245E-01    0.132E-01
DAV:  12    -0.188643583451E+03    0.58364E-05   -0.12347E-03 11280   0.108E-01    0.103E-01
DAV:  13    -0.188643729938E+03   -0.14649E-03   -0.30074E-04  6720   0.688E-02    0.401E-02
DAV:  14    -0.188643796697E+03   -0.66759E-04   -0.11718E-04  7840   0.343E-02
   2 F= -.18864380E+03 E0= -.18850253E+03  d E =-.177584E+01
       N       E                     dE             d eps       ncg     rms          rms(c)
DAV:   1    -0.190574900679E+03   -0.19312E+01   -0.31099E+01  9200   0.142E+01    0.447E+00
DAV:   2    -0.190571318362E+03    0.35823E-02   -0.28474E+00 11800   0.977E+00    0.754E+00
DAV:   3    -0.190046979919E+03    0.52434E+00   -0.13754E+00 12280   0.868E+00    0.419E+00
DAV:   4    -0.189848374166E+03    0.19861E+00   -0.74082E-01 13000   0.413E+00    0.270E+00
DAV:   5    -0.189895697090E+03   -0.47323E-01   -0.48889E-01 12360   0.424E+00    0.385E+00
DAV:   6    -0.189740057338E+03    0.15564E+00   -0.22205E-01 12240   0.324E+00    0.625E-01
DAV:   7    -0.189734069524E+03    0.59878E-02   -0.15267E-02 12080   0.468E-01    0.218E-01
DAV:   8    -0.189734442513E+03   -0.37299E-03   -0.34998E-03 11480   0.258E-01    0.266E-01
DAV:   9    -0.189734141995E+03    0.30052E-03   -0.18623E-03 10320   0.278E-01    0.180E-01
DAV:  10    -0.189734337273E+03   -0.19528E-03   -0.11392E-03 10000   0.177E-01    0.145E-01
DAV:  11    -0.189734086239E+03    0.25103E-03   -0.52880E-04  8520   0.907E-02    0.170E-02
DAV:  12    -0.189734141939E+03   -0.55701E-04   -0.70962E-05  6880   0.249E-02
   3 F= -.18973414E+03 E0= -.18961500E+03  d E =-.109035E+01
       N       E                     dE             d eps       ncg     rms          rms(c)
DAV:   1    -0.191296283368E+03   -0.15622E+01   -0.70536E+01  8160   0.192E+01    0.464E+00
DAV:   2    -0.191171313391E+03    0.12497E+00   -0.54060E+00 13480   0.838E+00    0.525E+00
DAV:   3    -0.191198565038E+03   -0.27252E-01   -0.15722E+00 12200   0.928E+00    0.624E+00
DAV:   4    -0.190809678932E+03    0.38889E+00   -0.11368E+00 12960   0.680E+00    0.255E+00
DAV:   5    -0.190710407633E+03    0.99271E-01   -0.28235E-01 11280   0.210E+00    0.102E+00
DAV:   6    -0.190707737779E+03    0.26699E-02   -0.89830E-02 12240   0.176E+00    0.127E+00
DAV:   7    -0.190697993471E+03    0.97443E-02   -0.47422E-02 11920   0.149E+00    0.684E-01
DAV:   8    -0.190692100552E+03    0.58929E-02   -0.82925E-03 10520   0.519E-01    0.152E-01
DAV:   9    -0.190692404610E+03   -0.30406E-03   -0.17371E-03 11440   0.149E-01    0.154E-01
DAV:  10    -0.190692601225E+03   -0.19661E-03   -0.17163E-03 11960   0.242E-01    0.204E-01
DAV:  11    -0.190692271099E+03    0.33013E-03   -0.94035E-04  9480   0.204E-01    0.662E-02
DAV:  12    -0.190692246238E+03    0.24861E-04   -0.11533E-04  6280   0.571E-02
   4 F= -.19069225E+03 E0= -.19059092E+03  d E =-.958104E+00
       N       E                     dE             d eps       ncg     rms          rms(c)
DAV:   1    -0.192087831393E+03   -0.13956E+01   -0.14576E+02  8160   0.271E+01    0.568E+00
DAV:   2    -0.191793296770E+03    0.29453E+00   -0.92798E+00 12400   0.807E+00    0.383E+00
DAV:   3    -0.191862684828E+03   -0.69388E-01   -0.17217E+00 12400   0.877E+00    0.615E+00
DAV:   4    -0.191608788179E+03    0.25390E+00   -0.15593E+00 12560   0.958E+00    0.385E+00
DAV:   5    -0.191370774935E+03    0.23801E+00   -0.41656E-01 12480   0.362E+00    0.828E-01
DAV:   6    -0.191368479981E+03    0.22950E-02   -0.10326E-01 12480   0.145E+00    0.102E+00
DAV:   7    -0.191367567965E+03    0.91202E-03   -0.68278E-02 12000   0.167E+00    0.973E-01
DAV:   8    -0.191356351765E+03    0.11216E-01   -0.17632E-02 12120   0.858E-01    0.166E-01
DAV:   9    -0.191357426182E+03   -0.10744E-02   -0.40550E-03 11760   0.324E-01    0.304E-01
DAV:  10    -0.191356681356E+03    0.74483E-03   -0.23139E-03 12120   0.347E-01    0.110E-01
DAV:  11    -0.191356611868E+03    0.69489E-04   -0.40856E-04  9040   0.110E-01
   5 F= -.19135661E+03 E0= -.19126073E+03  d E =-.664366E+00
       N       E                     dE             d eps       ncg     rms          rms(c)
DAV:   1    -0.191452088663E+03   -0.95407E-01   -0.89414E+00  8160   0.631E+00    0.783E-01
DAV:   2    -0.191521246650E+03   -0.69158E-01   -0.32358E-01 12640   0.288E+00    0.224E+00
DAV:   3    -0.191465271120E+03    0.55976E-01   -0.11890E-01 12440   0.261E+00    0.546E-01
DAV:   4    -0.191462703031E+03    0.25681E-02   -0.11175E-02 10920   0.525E-01    0.344E-01
DAV:   5    -0.191462424290E+03    0.27874E-03   -0.65010E-03 11200   0.559E-01    0.417E-01
DAV:   6    -0.191461333044E+03    0.10912E-02   -0.52887E-03 11600   0.524E-01    0.229E-01
DAV:   7    -0.191460772379E+03    0.56067E-03   -0.17147E-03 11400   0.221E-01    0.715E-02
DAV:   8    -0.191460765300E+03    0.70796E-05   -0.44551E-04  8920   0.118E-01
   6 F= -.19146077E+03 E0= -.19136212E+03  d E =-.104153E+00
       N       E                     dE             d eps       ncg     rms          rms(c)
DAV:   1    -0.191479860268E+03   -0.19088E-01   -0.30764E-01  8160   0.118E+00    0.172E-01
DAV:   2    -0.191483352525E+03   -0.34923E-02   -0.14930E-02 12760   0.702E-01    0.527E-01
DAV:   3    -0.191480208581E+03    0.31439E-02   -0.55655E-03 11600   0.565E-01    0.971E-02
DAV:   4    -0.191480354142E+03   -0.14556E-03   -0.87997E-04  9200   0.180E-01    0.154E-01
DAV:   5    -0.191480143623E+03    0.21052E-03   -0.70627E-04  8520   0.181E-01    0.700E-02
DAV:   6    -0.191480119273E+03    0.24350E-04   -0.16353E-04  5880   0.723E-02
   7 F= -.19148012E+03 E0= -.19138109E+03  d E =-.193540E-01
       N       E                     dE             d eps       ncg     rms          rms(c)
DAV:   1    -0.191204437296E+03    0.27571E+00   -0.50547E+01  8160   0.151E+01    0.200E+00
DAV:   2    -0.191637232049E+03   -0.43279E+00   -0.21610E+00 13080   0.800E+00    0.517E+00
DAV:   3    -0.191264767541E+03    0.37246E+00   -0.50130E-01 12320   0.578E+00    0.975E-01
DAV:   4    -0.191255500812E+03    0.92667E-02   -0.57763E-02 12160   0.102E+00    0.784E-01
DAV:   5    -0.191250211228E+03    0.52896E-02   -0.33175E-02 12160   0.108E+00    0.794E-01
DAV:   6    -0.191251201405E+03   -0.99018E-03   -0.35661E-02 12440   0.135E+00    0.800E-01
DAV:   7    -0.191243773870E+03    0.74275E-02   -0.13283E-02 11920   0.748E-01    0.150E-01
DAV:   8    -0.191243652004E+03    0.12187E-03   -0.20779E-03 12000   0.244E-01    0.161E-01
DAV:   9    -0.191243499701E+03    0.15230E-03   -0.98783E-04  9960   0.214E-01    0.970E-02
DAV:  10    -0.191243376259E+03    0.12344E-03   -0.25044E-04  6320   0.906E-02    0.249E-02
DAV:  11    -0.191243386289E+03   -0.10030E-04   -0.16970E-04  7480   0.402E-02
   8 F= -.19124339E+03 E0= -.19115560E+03  d E =0.236733E+00
       N       E                     dE             d eps       ncg     rms          rms(c)
DAV:   1    -0.191114352171E+03    0.12902E+00   -0.16997E+01  8160   0.876E+00    0.114E+00
DAV:   2    -0.191246301411E+03   -0.13195E+00   -0.66149E-01 13600   0.434E+00    0.297E+00
DAV:   3    -0.191131231024E+03    0.11507E+00   -0.17906E-01 12280   0.336E+00    0.636E-01
DAV:   4    -0.191128776684E+03    0.24543E-02   -0.23639E-02 11880   0.749E-01    0.575E-01
DAV:   5    -0.191126309819E+03    0.24669E-02   -0.15005E-02 12120   0.865E-01    0.546E-01
DAV:   6    -0.191124586069E+03    0.17238E-02   -0.10152E-02 12320   0.753E-01    0.339E-01
DAV:   7    -0.191123182290E+03    0.14038E-02   -0.33326E-03 11720   0.337E-01    0.976E-02
DAV:   8    -0.191123102507E+03    0.79783E-04   -0.75002E-04 10760   0.154E-01
   9 F= -.19112310E+03 E0= -.19104261E+03  d E =0.120284E+00
       N       E                     dE             d eps       ncg     rms          rms(c)
DAV:   1    -0.191296502465E+03   -0.17332E+00   -0.48882E+01  8160   0.149E+01    0.198E+00
DAV:   2    -0.191799883640E+03   -0.50338E+00   -0.21688E+00 13560   0.816E+00    0.654E+00
DAV:   3    -0.191379669083E+03    0.42021E+00   -0.10672E+00 12320   0.729E+00    0.139E+00
DAV:   4    -0.191382093303E+03   -0.24242E-02   -0.12910E-01 12320   0.229E+00    0.179E+00
DAV:   5    -0.191351842261E+03    0.30251E-01   -0.91581E-02 12360   0.208E+00    0.809E-01
DAV:   6    -0.191344432778E+03    0.74095E-02   -0.26611E-02 12000   0.846E-01    0.408E-01
DAV:   7    -0.191346820531E+03   -0.23878E-02   -0.17664E-02 12760   0.813E-01    0.687E-01
DAV:   8    -0.191342041012E+03    0.47795E-02   -0.96632E-03 11560   0.714E-01    0.156E-01
DAV:   9    -0.191341714538E+03    0.32647E-03   -0.93795E-04 10200   0.147E-01    0.605E-02
DAV:  10    -0.191341648144E+03    0.66394E-04   -0.35063E-04 10120   0.567E-02
  10 F= -.19134165E+03 E0= -.19124841E+03  d E =-.218546E+00
       N       E                     dE             d eps       ncg     rms          rms(c)
DAV:   1    -0.191394209088E+03   -0.52495E-01   -0.31172E+00  8160   0.372E+00    0.494E-01
DAV:   2    -0.191429436694E+03   -0.35228E-01   -0.12950E-01 13360   0.221E+00    0.167E+00
DAV:   3    -0.191397455712E+03    0.31981E-01   -0.53620E-02 12360   0.178E+00    0.241E-01
DAV:   4    -0.191397224439E+03    0.23127E-03   -0.33177E-03 10160   0.250E-01    0.200E-01
DAV:   5    -0.191397091702E+03    0.13274E-03   -0.21883E-03 11680   0.316E-01    0.230E-01
DAV:   6    -0.191396773260E+03    0.31844E-03   -0.17974E-03 10120   0.293E-01    0.129E-01
DAV:   7    -0.191396598579E+03    0.17468E-03   -0.55384E-04  9160   0.126E-01    0.479E-02
DAV:   8    -0.191396594453E+03    0.41260E-05   -0.16772E-04  6800   0.870E-02
  11 F= -.19139659E+03 E0= -.19130040E+03  d E =-.549463E-01
       N       E                     dE             d eps       ncg     rms          rms(c)
DAV:   1    -0.191368690905E+03    0.27908E-01   -0.91250E-01  8160   0.203E+00    0.269E-01
DAV:   2    -0.191378021008E+03   -0.93301E-02   -0.38322E-02 12480   0.116E+00    0.832E-01
DAV:   3    -0.191369616525E+03    0.84045E-02   -0.12857E-02 12280   0.890E-01    0.123E-01
DAV:   4    -0.191369556018E+03    0.60508E-04   -0.86486E-04 10120   0.123E-01
  12 F= -.19136956E+03 E0= -.19127477E+03  d E =0.270384E-01
       N       E                     dE             d eps       ncg     rms          rms(c)
DAV:   1    -0.191414165974E+03   -0.44549E-01   -0.25732E+00  8160   0.341E+00    0.407E-01
DAV:   2    -0.191433056381E+03   -0.18890E-01   -0.93605E-02 13600   0.156E+00    0.118E+00
DAV:   3    -0.191418084226E+03    0.14972E-01   -0.33739E-02 12280   0.134E+00    0.307E-01
DAV:   4    -0.191418479752E+03   -0.39553E-03   -0.64395E-03 10800   0.490E-01    0.371E-01
DAV:   5    -0.191417166051E+03    0.13137E-02   -0.39035E-03 10560   0.430E-01    0.175E-01
DAV:   6    -0.191416899168E+03    0.26688E-03   -0.12201E-03  9920   0.178E-01    0.875E-02
DAV:   7    -0.191416881700E+03    0.17468E-04   -0.51715E-04 10680   0.126E-01
  13 F= -.19141688E+03 E0= -.19132037E+03  d E =-.473257E-01
       N       E                     dE             d eps       ncg     rms          rms(c)
DAV:   1    -0.191419797813E+03   -0.28986E-02   -0.20460E-01  8160   0.978E-01    0.113E-01
DAV:   2    -0.191420732815E+03   -0.93500E-03   -0.52942E-03 13080   0.331E-01    0.275E-01
DAV:   3    -0.191419946809E+03    0.78601E-03   -0.17600E-03 10200   0.316E-01    0.889E-02
DAV:   4    -0.191420025649E+03   -0.78840E-04   -0.42883E-04  8360   0.147E-01
  14 F= -.19142003E+03 E0= -.19132328E+03  d E =-.314395E-02
       N       E                     dE             d eps       ncg     rms          rms(c)
DAV:   1    -0.191443158088E+03   -0.23211E-01   -0.27754E+00  8160   0.357E+00    0.418E-01
DAV:   2    -0.191454322420E+03   -0.11164E-01   -0.67995E-02 13000   0.122E+00    0.929E-01
DAV:   3    -0.191445192703E+03    0.91297E-02   -0.22740E-02 12280   0.114E+00    0.330E-01
DAV:   4    -0.191444784383E+03    0.40832E-03   -0.39412E-03 11120   0.400E-01    0.293E-01
DAV:   5    -0.191444394947E+03    0.38944E-03   -0.38752E-03 11800   0.451E-01    0.261E-01
DAV:   6    -0.191443838450E+03    0.55650E-03   -0.18162E-03  9960   0.271E-01    0.888E-02
DAV:   7    -0.191443737102E+03    0.10135E-03   -0.43499E-04  9120   0.113E-01    0.707E-02
DAV:   8    -0.191443696308E+03    0.40794E-04   -0.17758E-04  6560   0.967E-02
  15 F= -.19144370E+03 E0= -.19134555E+03  d E =-.236707E-01
       N       E                     dE             d eps       ncg     rms          rms(c)
DAV:   1    -0.191523510253E+03   -0.79773E-01   -0.64613E+00  8160   0.542E+00    0.742E-01
DAV:   2    -0.191589727460E+03   -0.66217E-01   -0.27452E-01 13480   0.309E+00    0.237E+00
DAV:   3    -0.191530388858E+03    0.59339E-01   -0.11339E-01 12400   0.252E+00    0.442E-01
DAV:   4    -0.191531451691E+03   -0.10628E-02   -0.13419E-02 12320   0.734E-01    0.620E-01
DAV:   5    -0.191528166513E+03    0.32852E-02   -0.10422E-02 11160   0.766E-01    0.354E-01
DAV:   6    -0.191526952366E+03    0.12141E-02   -0.40865E-03 11240   0.364E-01    0.144E-01
DAV:   7    -0.191526715850E+03    0.23652E-03   -0.13462E-03 11080   0.162E-01    0.100E-01
DAV:   8    -0.191526664682E+03    0.51168E-04   -0.60330E-04  9240   0.157E-01
  16 F= -.19152666E+03 E0= -.19142639E+03  d E =-.829684E-01
       N       E                     dE             d eps       ncg     rms          rms(c)
DAV:   1    -0.191597019161E+03   -0.70303E-01   -0.58884E+00  8160   0.515E+00    0.635E-01
DAV:   2    -0.191645232510E+03   -0.48213E-01   -0.21325E-01 12760   0.256E+00    0.193E+00
DAV:   3    -0.191604684098E+03    0.40548E-01   -0.76829E-02 12400   0.213E+00    0.388E-01
DAV:   4    -0.191604946647E+03   -0.26255E-03   -0.84568E-03 12200   0.551E-01    0.480E-01
DAV:   5    -0.191603066673E+03    0.18800E-02   -0.67362E-03 11760   0.587E-01    0.259E-01
DAV:   6    -0.191602664881E+03    0.40179E-03   -0.25223E-03 10880   0.280E-01    0.142E-01
DAV:   7    -0.191602768730E+03   -0.10385E-03   -0.17532E-03 10640   0.259E-01    0.212E-01
DAV:   8    -0.191602318710E+03    0.45002E-03   -0.87747E-04  8680   0.204E-01    0.342E-02
DAV:   9    -0.191602326956E+03   -0.82462E-05   -0.70045E-05  5720   0.388E-02
  17 F= -.19160233E+03 E0= -.19150174E+03  d E =-.756623E-01
       N       E                     dE             d eps       ncg     rms          rms(c)
DAV:   1    -0.191675139520E+03   -0.72821E-01   -0.50212E+00  8160   0.476E+00    0.564E-01
DAV:   2    -0.191711971737E+03   -0.36832E-01   -0.18030E-01 13120   0.224E+00    0.167E+00
DAV:   3    -0.191682951844E+03    0.29020E-01   -0.58476E-02 12360   0.185E+00    0.404E-01
DAV:   4    -0.191683678590E+03   -0.72675E-03   -0.90232E-03 11560   0.645E-01    0.518E-01
DAV:   5    -0.191680962364E+03    0.27162E-02   -0.55553E-03 10840   0.575E-01    0.201E-01
DAV:   6    -0.191680780148E+03    0.18222E-03   -0.19310E-03 10840   0.217E-01    0.128E-01
DAV:   7    -0.191680479236E+03    0.30091E-03   -0.77806E-04 10960   0.106E-01    0.345E-02
DAV:   8    -0.191680489685E+03   -0.10449E-04   -0.13277E-04  6640   0.681E-02
  18 F= -.19168049E+03 E0= -.19158149E+03  d E =-.781627E-01
       N       E                     dE             d eps       ncg     rms          rms(c)
DAV:   1    -0.191723361919E+03   -0.42883E-01   -0.16562E+00  8160   0.275E+00    0.356E-01
DAV:   2    -0.191737364009E+03   -0.14002E-01   -0.69275E-02 12840   0.142E+00    0.104E+00
DAV:   3    -0.191725880849E+03    0.11483E-01   -0.21619E-02 12240   0.114E+00    0.236E-01
DAV:   4    -0.191726426628E+03   -0.54578E-03   -0.38061E-03 10800   0.427E-01    0.353E-01
DAV:   5    -0.191725155362E+03    0.12713E-02   -0.25252E-03 10000   0.382E-01    0.114E-01
DAV:   6    -0.191725163769E+03   -0.84065E-05   -0.83154E-04  9680   0.145E-01
  19 F= -.19172516E+03 E0= -.19162718E+03  d E =-.446741E-01
       N       E                     dE             d eps       ncg     rms          rms(c)
DAV:   1    -0.191875475923E+03   -0.15032E+00   -0.65412E+01  8160   0.174E+01    0.200E+00
DAV:   2    -0.192233200449E+03   -0.35772E+00   -0.24615E+00 13000   0.718E+00    0.503E+00
DAV:   3    -0.192011706151E+03    0.22149E+00   -0.64915E-01 12200   0.623E+00    0.162E+00
DAV:   4    -0.192007126874E+03    0.45793E-02   -0.11127E-01 12440   0.255E+00    0.178E+00
DAV:   5    -0.191969014321E+03    0.38113E-01   -0.63290E-02 11160   0.212E+00    0.681E-01
DAV:   6    -0.191969866651E+03   -0.85233E-03   -0.35685E-02 12600   0.981E-01    0.701E-01
DAV:   7    -0.191965863328E+03    0.40033E-02   -0.23410E-02 12400   0.103E+00    0.585E-01
DAV:   8    -0.191962331813E+03    0.35315E-02   -0.76203E-03 11600   0.574E-01    0.110E-01
DAV:   9    -0.191962161539E+03    0.17027E-03   -0.86366E-04 10120   0.108E-01    0.548E-02
DAV:  10    -0.191962124175E+03    0.37364E-04   -0.33377E-04 10200   0.559E-02
  20 F= -.19196212E+03 E0= -.19187111E+03  d E =-.236960E+00
       N       E                     dE             d eps       ncg     rms          rms(c)
DAV:   1    -0.192006104929E+03   -0.43943E-01   -0.20442E+01  8160   0.973E+00    0.109E+00
DAV:   2    -0.192077397154E+03   -0.71292E-01   -0.85010E-01 11960   0.311E+00    0.149E+00
DAV:   3    -0.192069993493E+03    0.74037E-02   -0.11487E-01 12240   0.269E+00    0.122E+00
DAV:   4    -0.192051844166E+03    0.18149E-01   -0.30352E-02 12360   0.140E+00    0.615E-01
DAV:   5    -0.192050999860E+03    0.84431E-03   -0.17744E-02 11840   0.111E+00    0.620E-01
DAV:   6    -0.192047894173E+03    0.31057E-02   -0.13393E-02 11880   0.758E-01    0.292E-01
DAV:   7    -0.192046481436E+03    0.14127E-02   -0.40178E-03 11880   0.344E-01    0.179E-01
DAV:   8    -0.192046261813E+03    0.21962E-03   -0.11323E-03 11480   0.240E-01    0.910E-02
DAV:   9    -0.192046133037E+03    0.12878E-03   -0.23926E-04  6360   0.898E-02    0.315E-02
DAV:  10    -0.192046134694E+03   -0.16567E-05   -0.22363E-04  8560   0.432E-02
  21 F= -.19204613E+03 E0= -.19195678E+03  d E =-.840105E-01
       N       E                     dE             d eps       ncg     rms          rms(c)
DAV:   1    -0.192062742809E+03   -0.16610E-01   -0.25741E+00  8160   0.341E+00    0.377E-01
DAV:   2    -0.192070097378E+03   -0.73546E-02   -0.10870E-01 11920   0.872E-01    0.266E-01
DAV:   3    -0.192071985715E+03   -0.18883E-02   -0.80202E-03 12480   0.704E-01    0.527E-01
DAV:   4    -0.192068855184E+03    0.31305E-02   -0.46217E-03 11560   0.601E-01    0.147E-01
DAV:   5    -0.192069130737E+03   -0.27555E-03   -0.19485E-03 11400   0.293E-01    0.204E-01
DAV:   6    -0.192068724776E+03    0.40596E-03   -0.13282E-03 12280   0.313E-01    0.104E-01
DAV:   7    -0.192068561733E+03    0.16304E-03   -0.24722E-04  7560   0.102E-01    0.213E-02
DAV:   8    -0.192068557962E+03    0.37705E-05   -0.57196E-05  7520   0.270E-02
  22 F= -.19206856E+03 E0= -.19197955E+03  d E =-.224233E-01
       N       E                     dE             d eps       ncg     rms          rms(c)
DAV:   1    -0.192082007947E+03   -0.13446E-01   -0.18771E+00  8160   0.291E+00    0.336E-01
DAV:   2    -0.192087013555E+03   -0.50056E-02   -0.78472E-02 11360   0.701E-01    0.214E-01
DAV:   3    -0.192088327180E+03   -0.13136E-02   -0.58585E-03 12520   0.561E-01    0.441E-01
DAV:   4    -0.192086144523E+03    0.21827E-02   -0.38038E-03 11600   0.515E-01    0.133E-01
DAV:   5    -0.192086408078E+03   -0.26355E-03   -0.16482E-03 10280   0.256E-01    0.191E-01
DAV:   6    -0.192086017393E+03    0.39069E-03   -0.10174E-03 10680   0.268E-01    0.925E-02
DAV:   7    -0.192085907742E+03    0.10965E-03   -0.29865E-04  8960   0.119E-01    0.330E-02
DAV:   8    -0.192085907427E+03    0.31536E-06   -0.62081E-05  8040   0.605E-02
  23 F= -.19208591E+03 E0= -.19199721E+03  d E =-.173495E-01
       N       E                     dE             d eps       ncg     rms          rms(c)
DAV:   1    -0.192099178340E+03   -0.13271E-01   -0.18817E+00  8160   0.292E+00    0.342E-01
DAV:   2    -0.192104442117E+03   -0.52638E-02   -0.74947E-02 10760   0.733E-01    0.288E-01
DAV:   3    -0.192105572585E+03   -0.11305E-02   -0.70192E-03 13000   0.708E-01    0.433E-01
DAV:   4    -0.192103051222E+03    0.25214E-02   -0.28421E-03 11440   0.497E-01    0.949E-02
DAV:   5    -0.192103164601E+03   -0.11338E-03   -0.12176E-03 10800   0.143E-01    0.114E-01
DAV:   6    -0.192103105110E+03    0.59491E-04   -0.71657E-04 10720   0.204E-01
  24 F= -.19210311E+03 E0= -.19201499E+03  d E =-.171977E-01
       N       E                     dE             d eps       ncg     rms          rms(c)
DAV:   1    -0.192111838819E+03   -0.86742E-02   -0.59764E-01  8160   0.167E+00    0.207E-01
DAV:   2    -0.192113543559E+03   -0.17047E-02   -0.22690E-02 10920   0.475E-01    0.230E-01
DAV:   3    -0.192113700966E+03   -0.15741E-03   -0.34319E-03 12200   0.479E-01    0.269E-01
DAV:   4    -0.192112955016E+03    0.74595E-03   -0.14867E-03 10200   0.314E-01    0.118E-01
DAV:   5    -0.192112919970E+03    0.35046E-04   -0.61137E-04  9120   0.205E-01
  25 F= -.19211292E+03 E0= -.19202543E+03  d E =-.981486E-02
       N       E                     dE             d eps       ncg     rms          rms(c)
DAV:   1    -0.192115968697E+03   -0.30137E-02   -0.60271E-02  8160   0.547E-01    0.884E-02
DAV:   2    -0.192116320068E+03   -0.35137E-03   -0.28512E-03 11640   0.236E-01    0.150E-01
DAV:   3    -0.192116064407E+03    0.25566E-03   -0.74796E-04 10840   0.234E-01    0.788E-02
DAV:   4    -0.192116030730E+03    0.33677E-04   -0.22468E-04  7320   0.107E-01
  26 F= -.19211603E+03 E0= -.19202860E+03  d E =-.311076E-02
       N       E                     dE             d eps       ncg     rms          rms(c)
DAV:   1    -0.192126866656E+03   -0.10802E-01   -0.90037E-01  8160   0.205E+00    0.260E-01
DAV:   2    -0.192130018845E+03   -0.31522E-02   -0.32121E-02 11120   0.658E-01    0.403E-01
DAV:   3    -0.192128888095E+03    0.11308E-02   -0.61794E-03 11880   0.640E-01    0.276E-01
DAV:   4    -0.192128249068E+03    0.63903E-03   -0.17868E-03 10720   0.329E-01    0.159E-01
DAV:   5    -0.192128093109E+03    0.15596E-03   -0.87176E-04 10400   0.269E-01    0.115E-01
DAV:   6    -0.192127977283E+03    0.11583E-03   -0.36399E-04  8560   0.134E-01    0.373E-02
DAV:   7    -0.192127967008E+03    0.10275E-04   -0.79242E-05  8000   0.651E-02
  27 F= -.19212797E+03 E0= -.19204134E+03  d E =-.119363E-01
       N       E                     dE             d eps       ncg     rms          rms(c)
DAV:   1    -0.192146036331E+03   -0.18059E-01   -0.48233E+00  8160   0.474E+00    0.568E-01
DAV:   2    -0.192159869349E+03   -0.13833E-01   -0.17629E-01 10880   0.128E+00    0.626E-01
DAV:   3    -0.192160157601E+03   -0.28825E-03   -0.22673E-02 12240   0.127E+00    0.685E-01
DAV:   4    -0.192155120004E+03    0.50376E-02   -0.97401E-03 11240   0.818E-01    0.313E-01
DAV:   5    -0.192155080308E+03    0.39696E-04   -0.47170E-03 12360   0.577E-01    0.312E-01
DAV:   6    -0.192154348753E+03    0.73155E-03   -0.30508E-03 11280   0.394E-01    0.127E-01
DAV:   7    -0.192153980153E+03    0.36860E-03   -0.80229E-04 10920   0.130E-01    0.269E-02
DAV:   8    -0.192153991212E+03   -0.11059E-04   -0.82152E-05  7360   0.523E-02
  28 F= -.19215399E+03 E0= -.19206923E+03  d E =-.260242E-01
       N       E                     dE             d eps       ncg     rms          rms(c)
DAV:   1    -0.192161170770E+03   -0.71906E-02   -0.49233E-01  8160   0.152E+00    0.201E-01
DAV:   2    -0.192162639032E+03   -0.14683E-02   -0.19216E-02 10240   0.500E-01    0.262E-01
DAV:   3    -0.192162350886E+03    0.28815E-03   -0.32178E-03 11920   0.472E-01    0.224E-01
DAV:   4    -0.192161884026E+03    0.46686E-03   -0.12474E-03 10240   0.287E-01    0.128E-01
DAV:   5    -0.192161815246E+03    0.68780E-04   -0.62324E-04  9200   0.218E-01
  29 F= -.19216182E+03 E0= -.19207818E+03  d E =-.782403E-02
       N       E                     dE             d eps       ncg     rms          rms(c)
DAV:   1    -0.192167571266E+03   -0.56872E-02   -0.37067E-01  8160   0.132E+00    0.177E-01
DAV:   2    -0.192168427076E+03   -0.85581E-03   -0.14325E-02 10480   0.367E-01    0.172E-01
DAV:   3    -0.192168586085E+03   -0.15901E-03   -0.18765E-03 12400   0.389E-01    0.213E-01
DAV:   4    -0.192168042681E+03    0.54340E-03   -0.79934E-04 10240   0.248E-01    0.786E-02
DAV:   5    -0.192168142865E+03   -0.10018E-03   -0.47901E-04  9200   0.184E-01    0.120E-01
DAV:   6    -0.192168012362E+03    0.13050E-03   -0.30919E-04  8320   0.147E-01    0.377E-02
DAV:   7    -0.192167993049E+03    0.19312E-04   -0.61150E-05  6640   0.390E-02
  30 F= -.19216799E+03 E0= -.19208490E+03  d E =-.617780E-02
       N       E                     dE             d eps       ncg     rms          rms(c)
DAV:   1    -0.192171097454E+03   -0.30851E-02   -0.10086E-01  8160   0.697E-01    0.100E-01
DAV:   2    -0.192171252510E+03   -0.15506E-03   -0.41433E-03 10160   0.195E-01    0.914E-02
DAV:   3    -0.192171372466E+03   -0.11996E-03   -0.79217E-04 10640   0.221E-01    0.146E-01
DAV:   4    -0.192171130972E+03    0.24149E-03   -0.42704E-04  8840   0.175E-01    0.434E-02
DAV:   5    -0.192171118429E+03    0.12543E-04   -0.11488E-04  5960   0.627E-02
  31 F= -.19217112E+03 E0= -.19208802E+03  d E =-.312538E-02
       N       E                     dE             d eps       ncg     rms          rms(c)
DAV:   1    -0.192176498649E+03   -0.53677E-02   -0.39571E-01  8160   0.135E+00    0.160E-01
DAV:   2    -0.192177281760E+03   -0.78311E-03   -0.13884E-02 10280   0.320E-01    0.101E-01
DAV:   3    -0.192177700659E+03   -0.41890E-03   -0.13240E-03 12040   0.287E-01    0.225E-01
DAV:   4    -0.192177121222E+03    0.57944E-03   -0.91137E-04 10320   0.258E-01    0.534E-02
DAV:   5    -0.192177156158E+03   -0.34936E-04   -0.19699E-04  6560   0.770E-02
  32 F= -.19217716E+03 E0= -.19209463E+03  d E =-.603773E-02
       N       E                     dE             d eps       ncg     rms          rms(c)
DAV:   1    -0.192179796032E+03   -0.26748E-02   -0.93960E-02  8160   0.663E-01    0.977E-02
DAV:   2    -0.192180287450E+03   -0.49142E-03   -0.43824E-03 11040   0.299E-01    0.172E-01
DAV:   3    -0.192179963758E+03    0.32369E-03   -0.75100E-04 10680   0.255E-01    0.685E-02
DAV:   4    -0.192179899488E+03    0.64270E-04   -0.75391E-05  5760   0.748E-02
  33 F= -.19217990E+03 E0= -.19209762E+03  d E =-.274333E-02
       N       E                     dE             d eps       ncg     rms          rms(c)
DAV:   1    -0.192185153467E+03   -0.51897E-02   -0.47707E-01  8160   0.149E+00    0.192E-01
DAV:   2    -0.192186747361E+03   -0.15939E-02   -0.17521E-02 10440   0.458E-01    0.276E-01
DAV:   3    -0.192186356449E+03    0.39091E-03   -0.27720E-03 11440   0.467E-01    0.225E-01
DAV:   4    -0.192185879591E+03    0.47686E-03   -0.92065E-04  9920   0.247E-01    0.102E-01
DAV:   5    -0.192185850992E+03    0.28599E-04   -0.45165E-04  9240   0.186E-01
  34 F= -.19218585E+03 E0= -.19210433E+03  d E =-.595150E-02
       N       E                     dE             d eps       ncg     rms          rms(c)
DAV:   1    -0.192191899649E+03   -0.60201E-02   -0.12583E+00  8160   0.242E+00    0.304E-01
DAV:   2    -0.192195464038E+03   -0.35644E-02   -0.48293E-02 10240   0.746E-01    0.346E-01
DAV:   3    -0.192195552222E+03   -0.88184E-04   -0.62136E-03 11960   0.698E-01    0.374E-01
DAV:   4    -0.192194092389E+03    0.14598E-02   -0.24090E-03 10320   0.434E-01    0.180E-01
DAV:   5    -0.192194035748E+03    0.56641E-04   -0.11945E-03 10120   0.322E-01    0.158E-01
DAV:   6    -0.192193817755E+03    0.21799E-03   -0.70940E-04 10560   0.187E-01    0.553E-02
DAV:   7    -0.192193762010E+03    0.55745E-04   -0.15100E-04  6160   0.532E-02
  35 F= -.19219376E+03 E0= -.19211290E+03  d E =-.791102E-02
       N       E                     dE             d eps       ncg     rms          rms(c)
DAV:   1    -0.192198377732E+03   -0.45600E-02   -0.19567E+00  8160   0.301E+00    0.353E-01
DAV:   2    -0.192202928609E+03   -0.45509E-02   -0.71385E-02 10560   0.731E-01    0.264E-01
DAV:   3    -0.192204842956E+03   -0.19143E-02   -0.72154E-03 12920   0.716E-01    0.501E-01
DAV:   4    -0.192201928758E+03    0.29142E-02   -0.40484E-03 11560   0.571E-01    0.142E-01
DAV:   5    -0.192202312680E+03   -0.38392E-03   -0.17072E-03 10400   0.321E-01    0.220E-01
DAV:   6    -0.192201848915E+03    0.46377E-03   -0.11053E-03 10480   0.292E-01    0.841E-02
DAV:   7    -0.192201731962E+03    0.11695E-03   -0.26737E-04  9160   0.106E-01    0.310E-02
DAV:   8    -0.192201733754E+03   -0.17920E-05   -0.58179E-05  7720   0.606E-02
  36 F= -.19220173E+03 E0= -.19212146E+03  d E =-.797174E-02
       N       E                     dE             d eps       ncg     rms          rms(c)
DAV:   1    -0.192203800256E+03   -0.20683E-02   -0.74629E-01  8160   0.184E+00    0.222E-01
DAV:   2    -0.192206940615E+03   -0.31404E-02   -0.30433E-02 10520   0.641E-01    0.349E-01
DAV:   3    -0.192205943030E+03    0.99759E-03   -0.40916E-03 12480   0.562E-01    0.213E-01
DAV:   4    -0.192205621478E+03    0.32155E-03   -0.11795E-03 10000   0.287E-01    0.157E-01
DAV:   5    -0.192205411591E+03    0.20989E-03   -0.54582E-04  9560   0.215E-01    0.812E-02
DAV:   6    -0.192205388851E+03    0.22739E-04   -0.25778E-04  7960   0.962E-02
  37 F= -.19220539E+03 E0= -.19212536E+03  d E =-.365510E-02
       N       E                     dE             d eps       ncg     rms          rms(c)
DAV:   1    -0.192205077878E+03    0.33371E-03   -0.42195E-02  8160   0.461E-01    0.908E-02
DAV:   2    -0.192205410214E+03   -0.33234E-03   -0.23969E-03 10880   0.291E-01    0.195E-01
DAV:   3    -0.192204982248E+03    0.42797E-03   -0.86012E-04 10280   0.254E-01    0.650E-02
DAV:   4    -0.192204966020E+03    0.16228E-04   -0.23019E-04  8160   0.119E-01
  38 F= -.19220497E+03 E0= -.19212469E+03  d E =0.422831E-03
