<?xml version="1.0" encoding="ISO-8859-1"?>
<modeling>
 <generator>
  <i name="program" type="string">vasp </i>
  <i name="version" type="string">5.4.1  </i>
  <i name="subversion" type="string">05Feb16 (build Jul 05 2020 17:13:04) complex                          parallel </i>
  <i name="platform" type="string">IFC91_ompi </i>
  <i name="date" type="string">2024 04 27 </i>
  <i name="time" type="string">06:39:44 </i>
 </generator>
 <incar>
  <i type="int" name="ISTART">     0</i>
  <i type="string" name="PREC">normal</i>
  <i type="string" name="ALGO"> Normal</i>
  <i type="int" name="ISPIN">     1</i>
  <i type="int" name="ICHARG">     2</i>
  <i type="int" name="IBRION">     1</i>
  <i type="int" name="NSW">   100</i>
  <i type="int" name="ISIF">     3</i>
  <i type="int" name="ISYM">     0</i>
  <i name="SYMPREC">      0.00000001</i>
  <i name="POTIM">      0.50000000</i>
  <i type="logical" name="LREAL"> F  </i>
  <i type="logical" name="LPLANE"> F  </i>
  <i type="int" name="ISMEAR">     0</i>
  <i type="logical" name="LWAVE"> F  </i>
  <i type="logical" name="LCHARG"> F  </i>
  <v type="int" name="KPOINT_BSE">    -1     0     0     0</v>
 </incar>
 <kpoints>
  <generation param="Gamma">
   <v type="int" name="divisions">       8        8        1 </v>
   <v name="usershift">      0.00000000       0.00000000       0.00000000 </v>
   <v name="genvec1">      0.12500000       0.00000000       0.00000000 </v>
   <v name="genvec2">     -0.00000000       0.12500000       0.00000000 </v>
   <v name="genvec3">      0.00000000       0.00000000       1.00000000 </v>
   <v name="shift">      0.00000000       0.00000000       0.00000000 </v>
  </generation>
  <varray name="kpointlist" >
   <v>       0.00000000       0.00000000       0.00000000 </v>
   <v>       0.12500000       0.00000000       0.00000000 </v>
   <v>       0.25000000       0.00000000       0.00000000 </v>
   <v>       0.37500000       0.00000000       0.00000000 </v>
   <v>       0.50000000       0.00000000       0.00000000 </v>
   <v>       0.00000000       0.12500000       0.00000000 </v>
   <v>       0.12500000       0.12500000       0.00000000 </v>
   <v>       0.25000000       0.12500000       0.00000000 </v>
   <v>       0.37500000       0.12500000       0.00000000 </v>
   <v>       0.50000000       0.12500000       0.00000000 </v>
   <v>      -0.37500000       0.12500000       0.00000000 </v>
   <v>      -0.25000000       0.12500000       0.00000000 </v>
   <v>      -0.12500000       0.12500000       0.00000000 </v>
   <v>       0.00000000       0.25000000       0.00000000 </v>
   <v>       0.12500000       0.25000000       0.00000000 </v>
   <v>       0.25000000       0.25000000       0.00000000 </v>
   <v>       0.37500000       0.25000000       0.00000000 </v>
   <v>       0.50000000       0.25000000       0.00000000 </v>
   <v>      -0.37500000       0.25000000       0.00000000 </v>
   <v>      -0.25000000       0.25000000       0.00000000 </v>
   <v>      -0.12500000       0.25000000       0.00000000 </v>
   <v>      -0.00000000       0.37500000       0.00000000 </v>
   <v>       0.12500000       0.37500000       0.00000000 </v>
   <v>       0.25000000       0.37500000       0.00000000 </v>
   <v>       0.37500000       0.37500000       0.00000000 </v>
   <v>       0.50000000       0.37500000       0.00000000 </v>
   <v>      -0.37500000       0.37500000       0.00000000 </v>
   <v>      -0.25000000       0.37500000       0.00000000 </v>
   <v>      -0.12500000       0.37500000       0.00000000 </v>
   <v>       0.00000000       0.50000000       0.00000000 </v>
   <v>       0.12500000       0.50000000       0.00000000 </v>
   <v>       0.25000000       0.50000000       0.00000000 </v>
   <v>       0.37500000       0.50000000       0.00000000 </v>
   <v>       0.50000000       0.50000000       0.00000000 </v>
  </varray>
  <varray name="weights" >
   <v>       0.01562500 </v>
   <v>       0.03125000 </v>
   <v>       0.03125000 </v>
   <v>       0.03125000 </v>
   <v>       0.01562500 </v>
   <v>       0.03125000 </v>
   <v>       0.03125000 </v>
   <v>       0.03125000 </v>
   <v>       0.03125000 </v>
   <v>       0.03125000 </v>
   <v>       0.03125000 </v>
   <v>       0.03125000 </v>
   <v>       0.03125000 </v>
   <v>       0.03125000 </v>
   <v>       0.03125000 </v>
   <v>       0.03125000 </v>
   <v>       0.03125000 </v>
   <v>       0.03125000 </v>
   <v>       0.03125000 </v>
   <v>       0.03125000 </v>
   <v>       0.03125000 </v>
   <v>       0.03125000 </v>
   <v>       0.03125000 </v>
   <v>       0.03125000 </v>
   <v>       0.03125000 </v>
   <v>       0.03125000 </v>
   <v>       0.03125000 </v>
   <v>       0.03125000 </v>
   <v>       0.03125000 </v>
   <v>       0.01562500 </v>
   <v>       0.03125000 </v>
   <v>       0.03125000 </v>
   <v>       0.03125000 </v>
   <v>       0.01562500 </v>
  </varray>
 </kpoints>
 <parameters>
  <separator name="general" >
   <i type="string" name="SYSTEM">unknown system</i>
   <i type="logical" name="LCOMPAT"> F  </i>
  </separator>
  <separator name="electronic" >
   <i type="string" name="PREC">normal</i>
   <i name="ENMAX">    280.00000000</i>
   <i name="ENAUG">    373.43800000</i>
   <i name="EDIFF">      0.00010000</i>
   <i type="int" name="IALGO">    38</i>
   <i type="int" name="IWAVPR">    11</i>
   <i type="int" name="NBANDS">   120</i>
   <i name="NELECT">    159.00000000</i>
   <i type="int" name="TURBO">     0</i>
   <i type="int" name="IRESTART">     0</i>
   <i type="int" name="NREBOOT">     0</i>
   <i type="int" name="NMIN">     0</i>
   <i name="EREF">      0.00000000</i>
   <separator name="electronic smearing" >
    <i type="int" name="ISMEAR">     0</i>
    <i name="SIGMA">      0.20000000</i>
    <i name="KSPACING">      0.50000000</i>
    <i type="logical" name="KGAMMA"> T  </i>
   </separator>
   <separator name="electronic projectors" >
    <i type="logical" name="LREAL"> F  </i>
    <v name="ROPT">      0.00000000      0.00000000      0.00000000      0.00000000</v>
    <i type="int" name="LMAXPAW">  -100</i>
    <i type="int" name="LMAXMIX">     2</i>
    <i type="logical" name="NLSPLINE"> F  </i>
   </separator>
   <separator name="electronic startup" >
    <i type="int" name="ISTART">     0</i>
    <i type="int" name="ICHARG">     2</i>
    <i type="int" name="INIWAV">     1</i>
   </separator>
   <separator name="electronic spin" >
    <i type="int" name="ISPIN">     1</i>
    <i type="logical" name="LNONCOLLINEAR"> F  </i>
    <v name="MAGMOM">      1.00000000      1.00000000      1.00000000      1.00000000      1.00000000      1.00000000      1.00000000      1.00000000      1.00000000      1.00000000      1.00000000      1.00000000      1.00000000      1.00000000      1.00000000      1.00000000      1.00000000      1.00000000      1.00000000      1.00000000
      1.00000000      1.00000000      1.00000000      1.00000000      1.00000000      1.00000000      1.00000000</v>
    <i name="NUPDOWN">     -1.00000000</i>
    <i type="logical" name="LSORBIT"> F  </i>
    <v name="SAXIS">      0.00000000      0.00000000      1.00000000</v>
    <i type="logical" name="LSPIRAL"> F  </i>
    <v name="QSPIRAL">      0.00000000      0.00000000      0.00000000</v>
    <i type="logical" name="LZEROZ"> F  </i>
   </separator>
   <separator name="electronic exchange-correlation" >
    <i type="logical" name="LASPH"> F  </i>
    <i type="logical" name="LMETAGGA"> F  </i>
   </separator>
   <separator name="electronic convergence" >
    <i type="int" name="NELM">    60</i>
    <i type="int" name="NELMDL">    -5</i>
    <i type="int" name="NELMIN">     2</i>
    <i name="ENINI">    280.00000000</i>
    <separator name="electronic convergence detail" >
     <i type="logical" name="LDIAG"> T  </i>
     <i type="logical" name="LSUBROT"> F  </i>
     <i name="WEIMIN">      0.00100000</i>
     <i name="EBREAK">      0.00000021</i>
     <i name="DEPER">      0.30000000</i>
     <i type="int" name="NRMM">     4</i>
     <i name="TIME">      0.40000000</i>
    </separator>
   </separator>
   <separator name="electronic mixer" >
    <i name="AMIX">      0.40000000</i>
    <i name="BMIX">      1.00000000</i>
    <i name="AMIN">      0.10000000</i>
    <i name="AMIX_MAG">      1.60000000</i>
    <i name="BMIX_MAG">      1.00000000</i>
    <separator name="electronic mixer details" >
     <i type="int" name="IMIX">     4</i>
     <i type="logical" name="MIXFIRST"> F  </i>
     <i type="int" name="MAXMIX">   -45</i>
     <i name="WC">    100.00000000</i>
     <i type="int" name="INIMIX">     1</i>
     <i type="int" name="MIXPRE">     1</i>
     <i type="int" name="MREMOVE">     5</i>
    </separator>
   </separator>
   <separator name="electronic dipolcorrection" >
    <i type="logical" name="LDIPOL"> F  </i>
    <i type="logical" name="LMONO"> F  </i>
    <i type="int" name="IDIPOL">     0</i>
    <i name="EPSILON">      1.00000000</i>
    <v name="DIPOL">   -100.00000000   -100.00000000   -100.00000000</v>
    <i name="EFIELD">      0.00000000</i>
   </separator>
  </separator>
  <separator name="grids" >
   <i type="int" name="NGX">    42</i>
   <i type="int" name="NGY">    42</i>
   <i type="int" name="NGZ">   126</i>
   <i type="int" name="NGXF">    84</i>
   <i type="int" name="NGYF">    84</i>
   <i type="int" name="NGZF">   252</i>
   <i type="logical" name="ADDGRID"> F  </i>
  </separator>
  <separator name="ionic" >
   <i type="int" name="NSW">   100</i>
   <i type="int" name="IBRION">     1</i>
   <i type="int" name="ISIF">     3</i>
   <i name="PSTRESS">      0.00000000</i>
   <i name="EDIFFG">      0.00100000</i>
   <i type="int" name="NFREE">     0</i>
   <i name="POTIM">      0.50000000</i>
   <i name="SMASS">     -3.00000000</i>
   <i name="SCALEE">      1.00000000</i>
  </separator>
  <separator name="ionic md" >
   <i name="TEBEG">      0.00010000</i>
   <i name="TEEND">      0.00010000</i>
   <i type="int" name="NBLOCK">     1</i>
   <i type="int" name="KBLOCK">   100</i>
   <i type="int" name="NPACO">   256</i>
   <i name="APACO">     16.00000000</i>
  </separator>
  <separator name="symmetry" >
   <i type="int" name="ISYM">     0</i>
   <i name="SYMPREC">      0.00000001</i>
  </separator>
  <separator name="dos" >
   <i type="logical" name="LORBIT"> F  </i>
   <v name="RWIGS">     -1.00000000     -1.00000000     -1.00000000     -1.00000000</v>
   <i type="int" name="NEDOS">   301</i>
   <i name="EMIN">     10.00000000</i>
   <i name="EMAX">    -10.00000000</i>
   <i name="EFERMI">      0.00000000</i>
  </separator>
  <separator name="writing" >
   <i type="int" name="NWRITE">     2</i>
   <i type="logical" name="LWAVE"> F  </i>
   <i type="logical" name="LCHARG"> F  </i>
   <i type="logical" name="LPARD"> F  </i>
   <i type="logical" name="LVTOT"> F  </i>
   <i type="logical" name="LVHAR"> F  </i>
   <i type="logical" name="LELF"> F  </i>
   <i type="logical" name="LOPTICS"> F  </i>
   <v name="STM">      0.00000000      0.00000000      0.00000000      0.00000000      0.00000000      0.00000000      0.00000000</v>
  </separator>
  <separator name="performance" >
   <i type="int" name="NPAR">    40</i>
   <i type="int" name="NSIM">     4</i>
   <i type="int" name="NBLK">    -1</i>
   <i type="logical" name="LPLANE"> F  </i>
   <i type="logical" name="LSCALAPACK"> T  </i>
   <i type="logical" name="LSCAAWARE"> F  </i>
   <i type="logical" name="LSCALU"> F  </i>
   <i type="logical" name="LASYNC"> F  </i>
   <i type="logical" name="LORBITALREAL"> F  </i>
  </separator>
  <separator name="miscellaneous" >
   <i type="int" name="IDIOT">     3</i>
   <i type="logical" name="LMUSIC"> F  </i>
   <v name="POMASS">     50.94100000     95.94000000    183.85000000     32.06600000</v>
   <v name="DARWINR">      0.00000000      0.00000000      0.00000000      0.00000000</v>
   <v name="DARWINV">      1.00000000      1.00000000      1.00000000      1.00000000</v>
   <i type="logical" name="LCORR"> T  </i>
  </separator>
  <i type="logical" name="GGA_COMPAT"> T  </i>
  <i type="logical" name="LBERRY"> F  </i>
  <i type="int" name="ICORELEVEL">     0</i>
  <i type="logical" name="LDAU"> F  </i>
  <i type="int" name="I_CONSTRAINED_M">     0</i>
  <separator name="electronic exchange-correlation" >
   <i type="string" name="GGA">--</i>
   <i type="int" name="VOSKOWN">     0</i>
   <i type="logical" name="LHFCALC"> F  </i>
   <i type="string" name="PRECFOCK"></i>
   <i type="logical" name="LSYMGRAD"> F  </i>
   <i type="logical" name="LHFONE"> F  </i>
   <i type="logical" name="LRHFCALC"> F  </i>
   <i type="logical" name="LTHOMAS"> F  </i>
   <i type="logical" name="LMODELHF"> F  </i>
   <i name="ENCUT4O">     -1.00000000</i>
   <i type="int" name="EXXOEP">     0</i>
   <i type="int" name="FOURORBIT">     0</i>
   <i name="AEXX">      0.00000000</i>
   <i name="HFALPHA">      0.00000000</i>
   <i name="MCALPHA">      0.00000000</i>
   <i name="ALDAX">      1.00000000</i>
   <i name="AGGAX">      1.00000000</i>
   <i name="ALDAC">      1.00000000</i>
   <i name="AGGAC">      1.00000000</i>
   <i type="int" name="NKREDX">     1</i>
   <i type="int" name="NKREDY">     1</i>
   <i type="int" name="NKREDZ">     1</i>
   <i type="logical" name="SHIFTRED"> F  </i>
   <i type="logical" name="ODDONLY"> F  </i>
   <i type="logical" name="EVENONLY"> F  </i>
   <i type="int" name="LMAXFOCK">     0</i>
   <i type="int" name="NMAXFOCKAE">     0</i>
   <i type="logical" name="LFOCKAEDFT"> F  </i>
   <i name="HFSCREEN">      0.00000000</i>
   <i name="HFSCREENC">      0.00000000</i>
   <i type="int" name="NBANDSGWLOW">     0</i>
  </separator>
  <separator name="vdW DFT" >
   <i type="logical" name="LUSE_VDW"> F  </i>
   <i name="Zab_VDW">     -0.84910000</i>
   <i name="PARAM1">      0.12340000</i>
   <i name="PARAM2">      1.00000000</i>
   <i name="PARAM3">      0.00000000</i>
  </separator>
  <separator name="model GW" >
   <i type="int" name="MODEL_GW">     0</i>
   <i name="MODEL_EPS0">     58.26239943</i>
   <i name="MODEL_ALPHA">      1.00000000</i>
  </separator>
  <separator name="linear response parameters" >
   <i type="logical" name="LEPSILON"> F  </i>
   <i type="logical" name="LRPA"> F  </i>
   <i type="logical" name="LNABLA"> F  </i>
   <i type="logical" name="LVEL"> F  </i>
   <i type="int" name="KINTER">     0</i>
   <i name="CSHIFT">      0.10000000</i>
   <i name="OMEGAMAX">     -1.00000000</i>
   <i name="DEG_THRESHOLD">      0.00200000</i>
  </separator>
  <separator name="orbital magnetization" >
   <i type="logical" name="NUCIND"> F  </i>
   <v name="MAGPOS">      0.00000000      0.00000000      0.00000000</v>
   <i type="logical" name="LNICSALL"> T  </i>
   <i type="logical" name="ORBITALMAG"> F  </i>
   <i type="logical" name="LMAGBLOCH"> F  </i>
   <i type="logical" name="LCHIMAG"> F  </i>
   <i type="logical" name="LGAUGE"> T  </i>
   <i type="int" name="MAGATOM">     0</i>
   <v name="MAGDIPOL">      0.00000000      0.00000000      0.00000000</v>
   <v name="AVECCONST">      0.00000000      0.00000000      0.00000000</v>
  </separator>
  <separator name="response functions" >
   <i type="logical" name="LADDER"> F  </i>
   <i type="logical" name="LFXC"> F  </i>
   <i type="logical" name="LHARTREE"> T  </i>
   <i type="int" name="IBSE">     0</i>
   <v type="int" name="KPOINT">    -1     0     0     0</v>
   <i type="logical" name="LTCTE"> F  </i>
   <i type="logical" name="LTETE"> F  </i>
   <i type="logical" name="LTRIPLET"> F  </i>
   <i type="logical" name="LFXCEPS"> F  </i>
   <i type="logical" name="LFXHEG"> F  </i>
   <i type="int" name="NATURALO">     0</i>
   <i type="logical" name="L2ORDER"> F  </i>
   <i type="logical" name="LUSEW"> F  </i>
   <i name="ENCUTGW">     -2.00000000</i>
   <i name="ENCUTGWSOFT">     -2.00000000</i>
   <i name="ENCUTLF">     -1.00000000</i>
   <i type="int" name="LMAXMP2">    -1</i>
   <i name="SCISSOR">      0.00000000</i>
   <i type="int" name="NOMEGA">     0</i>
   <i type="int" name="NOMEGAR">     0</i>
   <i type="int" name="NBANDSGW">    -1</i>
   <i type="int" name="NBANDSO">    -1</i>
   <i type="int" name="NBANDSV">    -1</i>
   <i type="int" name="NELM">     1</i>
   <i type="int" name="NELMHF">     1</i>
   <i type="int" name="DIM">     3</i>
   <i type="int" name="ANTIRES">     0</i>
   <i name="OMEGAMAX">    -30.00000000</i>
   <i name="OMEGAMIN">    -30.00000000</i>
   <i name="OMEGATL">   -200.00000000</i>
   <i type="int" name="OMEGAGRID">     0</i>
   <i name="CSHIFT">     -0.10000000</i>
   <i type="logical" name="SELFENERGY"> F  </i>
   <i type="logical" name="LSPECTRAL"> F  </i>
   <i type="logical" name="LSPECTRALGW"> F  </i>
   <i type="logical" name="LSINGLES"> F  </i>
   <i type="logical" name="LFERMIGW"> F  </i>
   <i type="logical" name="ODDONLYGW"> F  </i>
   <i type="logical" name="EVENONLYGW"> F  </i>
   <i type="int" name="NKREDLFX">     1</i>
   <i type="int" name="NKREDLFY">     1</i>
   <i type="int" name="NKREDLFZ">     1</i>
   <i type="int" name="MAXMEM">  1800</i>
   <i type="int" name="TELESCOPE">     0</i>
   <i type="int" name="TAUPAR">     1</i>
   <i type="int" name="OMEGAPAR">    -1</i>
   <i name="LAMBDA">      1.00000000</i>
  </separator>
  <separator name="External order field" >
   <i name="OFIELD_KAPPA">      0.00000000</i>
   <v name="OFIELD_K">      0.00000000      0.00000000      0.00000000</v>
   <i name="OFIELD_Q6_NEAR">      0.00000000</i>
   <i name="OFIELD_Q6_FAR">      0.00000000</i>
   <i name="OFIELD_A">      0.00000000</i>
  </separator>
 </parameters>
 <atominfo>
  <atoms>      27 </atoms>
  <types>       4 </types>
  <array name="atoms" >
   <dimension dim="1">ion</dimension>
   <field type="string">element</field>
   <field type="int">atomtype</field>
   <set>
    <rc><c>V </c><c>   1</c></rc>
    <rc><c>V </c><c>   1</c></rc>
    <rc><c>V </c><c>   1</c></rc>
    <rc><c>Mo</c><c>   2</c></rc>
    <rc><c>Mo</c><c>   2</c></rc>
    <rc><c>Mo</c><c>   2</c></rc>
    <rc><c>W </c><c>   3</c></rc>
    <rc><c>W </c><c>   3</c></rc>
    <rc><c>W </c><c>   3</c></rc>
    <rc><c>S </c><c>   4</c></rc>
    <rc><c>S </c><c>   4</c></rc>
    <rc><c>S </c><c>   4</c></rc>
    <rc><c>S </c><c>   4</c></rc>
    <rc><c>S </c><c>   4</c></rc>
    <rc><c>S </c><c>   4</c></rc>
    <rc><c>S </c><c>   4</c></rc>
    <rc><c>S </c><c>   4</c></rc>
    <rc><c>S </c><c>   4</c></rc>
    <rc><c>S </c><c>   4</c></rc>
    <rc><c>S </c><c>   4</c></rc>
    <rc><c>S </c><c>   4</c></rc>
    <rc><c>S </c><c>   4</c></rc>
    <rc><c>S </c><c>   4</c></rc>
    <rc><c>S </c><c>   4</c></rc>
    <rc><c>S </c><c>   4</c></rc>
    <rc><c>S </c><c>   4</c></rc>
    <rc><c>S </c><c>   4</c></rc>
   </set>
  </array>
  <array name="atomtypes" >
   <dimension dim="1">type</dimension>
   <field type="int">atomspertype</field>
   <field type="string">element</field>
   <field>mass</field>
   <field>valence</field>
   <field type="string">pseudopotential</field>
   <set>
    <rc><c>   3</c><c>V </c><c>     50.94100000</c><c>      5.00000000</c><c> PAW_PBE V 08Apr2002                    </c></rc>
    <rc><c>   3</c><c>Mo</c><c>     95.94000000</c><c>      6.00000000</c><c> PAW_PBE Mo 08Apr2002                   </c></rc>
    <rc><c>   3</c><c>W </c><c>    183.85000000</c><c>      6.00000000</c><c> PAW_PBE W 08Apr2002                    </c></rc>
    <rc><c>  18</c><c>S </c><c>     32.06600000</c><c>      6.00000000</c><c>  PAW_PBE S 17Jan2003                   </c></rc>
   </set>
  </array>
 </atominfo>
 <structure name="initialpos" >
  <crystal>
   <varray name="basis" >
    <v>       8.66999996       5.03999989       0.00000000 </v>
    <v>      -8.66999982       5.04000013       0.00000000 </v>
    <v>       0.00000000       0.00000000      30.00000000 </v>
   </varray>
   <i name="volume">   2621.80797419 </i>
   <varray name="rec_basis" >
    <v>       0.05767013       0.09920635       0.00000000 </v>
    <v>      -0.05767013       0.09920635       0.00000000 </v>
    <v>       0.00000000       0.00000000       0.03333333 </v>
   </varray>
  </crystal>
  <varray name="positions" >
   <v>       0.66666669       0.66666669       0.00000000 </v>
   <v>       0.00000000       0.66666669       0.00000000 </v>
   <v>       0.33333334       0.00000000       0.00000000 </v>
   <v>       0.66666669       0.33333334       0.00000000 </v>
   <v>       0.33333334       0.66666669       0.00000000 </v>
   <v>       1.00000000       0.33333334       0.00000000 </v>
   <v>       0.00000000       0.00000000       0.00000000 </v>
   <v>       0.33333334       0.33333334       0.00000000 </v>
   <v>       0.66666669       0.00000000       0.00000000 </v>
   <v>       0.11068511       0.22244981       0.95539999 </v>
   <v>       0.22244981       0.11068511       0.04460000 </v>
   <v>       0.11068511       0.55578315       0.95539999 </v>
   <v>       0.22244981       0.44401845       0.04460000 </v>
   <v>       0.11068511       0.88911647       0.95539999 </v>
   <v>       0.22244981       0.77735180       0.04460000 </v>
   <v>       0.44401845       0.22244981       0.95539999 </v>
   <v>       0.55578315       0.11068511       0.04460000 </v>
   <v>       0.44401845       0.55578315       0.95539999 </v>
   <v>       0.55578315       0.44401845       0.04460000 </v>
   <v>       0.44401845       0.88911647       0.95539999 </v>
   <v>       0.55578315       0.77735180       0.04460000 </v>
   <v>       0.77735180       0.22244981       0.95539999 </v>
   <v>       0.88911647       0.11068511       0.04460000 </v>
   <v>       0.77735180       0.55578315       0.95539999 </v>
   <v>       0.88911647       0.44401845       0.04460000 </v>
   <v>       0.77735180       0.88911647       0.95539999 </v>
   <v>       0.88911647       0.77735180       0.04460000 </v>
  </varray>
 </structure>
 <calculation>
  <scstep>
   <time name="dav">   21.98   22.06</time>
   <time name="total">   22.03   22.11</time>
   <energy>
    <i name="alphaZ">     81.65567618 </i>
    <i name="ewald">  41890.23009673 </i>
    <i name="hartreedc"> -47722.86566788 </i>
    <i name="XCdc">   -242.92868325 </i>
    <i name="pawpsdc">   3467.42045192 </i>
    <i name="pawaedc">  -2871.19716117 </i>
    <i name="eentropy">     -0.55074909 </i>
    <i name="bandstr">   -239.59808440 </i>
    <i name="atom">   6761.44252427 </i>
    <i name="e_fr_energy">   1123.60840332 </i>
    <i name="e_wo_entrp">   1124.15915241 </i>
    <i name="e_0_energy">   1123.88377786 </i>
   </energy>
  </scstep>
  <scstep>
   <time name="dav">   28.69   28.76</time>
   <time name="total">   28.69   28.77</time>
   <energy>
    <i name="e_fr_energy">     -0.95687671 </i>
    <i name="e_wo_entrp">     -0.75137876 </i>
    <i name="e_0_energy">     -0.85412773 </i>
   </energy>
  </scstep>
  <scstep>
   <time name="dav">   27.79   27.85</time>
   <time name="total">   27.79   27.86</time>
   <energy>
    <i name="e_fr_energy">   -199.90198709 </i>
    <i name="e_wo_entrp">   -199.62805712 </i>
    <i name="e_0_energy">   -199.76502210 </i>
   </energy>
  </scstep>
  <scstep>
   <time name="dav">   30.12   30.19</time>
   <time name="total">   30.12   30.20</time>
   <energy>
    <i name="e_fr_energy">   -208.98151800 </i>
    <i name="e_wo_entrp">   -208.67317887 </i>
    <i name="e_0_energy">   -208.82734844 </i>
   </energy>
  </scstep>
  <scstep>
   <time name="dav">   29.06   29.13</time>
   <time name="total">   29.52   29.60</time>
   <energy>
    <i name="e_fr_energy">   -209.30560901 </i>
    <i name="e_wo_entrp">   -209.00001148 </i>
    <i name="e_0_energy">   -209.15281024 </i>
   </energy>
  </scstep>
  <scstep>
   <time name="dav">   31.19   31.26</time>
   <time name="total">   31.69   31.77</time>
   <energy>
    <i name="e_fr_energy">   -236.75445349 </i>
    <i name="e_wo_entrp">   -236.47084868 </i>
    <i name="e_0_energy">   -236.61265109 </i>
   </energy>
  </scstep>
  <scstep>
   <time name="dav">   32.14   32.22</time>
   <time name="total">   32.65   32.73</time>
   <energy>
    <i name="e_fr_energy">   -196.67992848 </i>
    <i name="e_wo_entrp">   -196.35856576 </i>
    <i name="e_0_energy">   -196.51924712 </i>
   </energy>
  </scstep>
  <scstep>
   <time name="dav">   29.65   29.73</time>
   <time name="total">   30.16   30.24</time>
   <energy>
    <i name="e_fr_energy">   -189.95327058 </i>
    <i name="e_wo_entrp">   -189.67630853 </i>
    <i name="e_0_energy">   -189.81478955 </i>
   </energy>
  </scstep>
  <scstep>
   <time name="dav">   29.95   30.02</time>
   <time name="total">   30.47   30.55</time>
   <energy>
    <i name="e_fr_energy">   -188.23357964 </i>
    <i name="e_wo_entrp">   -187.90474544 </i>
    <i name="e_0_energy">   -188.06916254 </i>
   </energy>
  </scstep>
  <scstep>
   <time name="dav">   32.92   33.00</time>
   <time name="total">   33.45   33.54</time>
   <energy>
    <i name="e_fr_energy">   -187.05006084 </i>
    <i name="e_wo_entrp">   -186.70804357 </i>
    <i name="e_0_energy">   -186.87905220 </i>
   </energy>
  </scstep>
  <scstep>
   <time name="dav">   33.30   33.38</time>
   <time name="total">   33.84   34.14</time>
   <energy>
    <i name="e_fr_energy">   -187.02507131 </i>
    <i name="e_wo_entrp">   -186.67272460 </i>
    <i name="e_0_energy">   -186.84889795 </i>
   </energy>
  </scstep>
  <scstep>
   <time name="dav">   32.64   32.72</time>
   <time name="total">   33.17   33.26</time>
   <energy>
    <i name="e_fr_energy">   -187.17641416 </i>
    <i name="e_wo_entrp">   -186.84240043 </i>
    <i name="e_0_energy">   -187.00940730 </i>
   </energy>
  </scstep>
  <scstep>
   <time name="dav">   31.79   31.86</time>
   <time name="total">   32.32   32.41</time>
   <energy>
    <i name="e_fr_energy">   -186.92106476 </i>
    <i name="e_wo_entrp">   -186.58742552 </i>
    <i name="e_0_energy">   -186.75424514 </i>
   </energy>
  </scstep>
  <scstep>
   <time name="dav">   32.43   32.51</time>
   <time name="total">   32.96   33.05</time>
   <energy>
    <i name="e_fr_energy">   -186.87651496 </i>
    <i name="e_wo_entrp">   -186.53048206 </i>
    <i name="e_0_energy">   -186.70349851 </i>
   </energy>
  </scstep>
  <scstep>
   <time name="dav">   32.14   32.22</time>
   <time name="total">   32.68   32.76</time>
   <energy>
    <i name="e_fr_energy">   -186.87461941 </i>
    <i name="e_wo_entrp">   -186.52919535 </i>
    <i name="e_0_energy">   -186.70190738 </i>
   </energy>
  </scstep>
  <scstep>
   <time name="dav">   32.53   32.61</time>
   <time name="total">   33.07   33.16</time>
   <energy>
    <i name="e_fr_energy">   -186.86861809 </i>
    <i name="e_wo_entrp">   -186.52472103 </i>
    <i name="e_0_energy">   -186.69666956 </i>
   </energy>
  </scstep>
  <scstep>
   <time name="dav">   31.59   31.67</time>
   <time name="total">   32.13   32.21</time>
   <energy>
    <i name="e_fr_energy">   -186.86861502 </i>
    <i name="e_wo_entrp">   -186.52560616 </i>
    <i name="e_0_energy">   -186.69711059 </i>
   </energy>
  </scstep>
  <scstep>
   <time name="dav">   29.41   29.48</time>
   <time name="total">   29.94   30.02</time>
   <energy>
    <i name="e_fr_energy">   -186.86791807 </i>
    <i name="e_wo_entrp">   -186.52463031 </i>
    <i name="e_0_energy">   -186.69627419 </i>
   </energy>
  </scstep>
  <scstep>
   <time name="dav">   24.47   24.53</time>
   <time name="total">   24.51   24.57</time>
   <energy>
    <i name="alphaZ">     81.65567618 </i>
    <i name="ewald">  41890.23009673 </i>
    <i name="hartreedc"> -47817.82481634 </i>
    <i name="XCdc">   -231.69546623 </i>
    <i name="pawpsdc">   4194.30919931 </i>
    <i name="pawaedc">  -3612.34045380 </i>
    <i name="eentropy">     -0.34340315 </i>
    <i name="bandstr">  -1452.30130967 </i>
    <i name="atom">   6761.44252427 </i>
    <i name="e_fr_energy">   -186.86795270 </i>
    <i name="e_wo_entrp">   -186.52454955 </i>
    <i name="e_0_energy">   -186.69625112 </i>
   </energy>
  </scstep>
  <structure>
   <crystal>
    <varray name="basis" >
     <v>       8.66999996       5.03999989       0.00000000 </v>
     <v>      -8.66999982       5.04000013       0.00000000 </v>
     <v>       0.00000000       0.00000000      30.00000000 </v>
    </varray>
    <i name="volume">   2621.80797419 </i>
    <varray name="rec_basis" >
     <v>       0.05767013       0.09920635       0.00000000 </v>
     <v>      -0.05767013       0.09920635       0.00000000 </v>
     <v>       0.00000000       0.00000000       0.03333333 </v>
    </varray>
   </crystal>
   <varray name="positions" >
    <v>       0.66666669       0.66666669       0.00000000 </v>
    <v>       0.00000000       0.66666669       0.00000000 </v>
    <v>       0.33333334       0.00000000       0.00000000 </v>
    <v>       0.66666669       0.33333334       0.00000000 </v>
    <v>       0.33333334       0.66666669       0.00000000 </v>
    <v>       1.00000000       0.33333334       0.00000000 </v>
    <v>       0.00000000       0.00000000       0.00000000 </v>
    <v>       0.33333334       0.33333334       0.00000000 </v>
    <v>       0.66666669       0.00000000       0.00000000 </v>
    <v>       0.11068511       0.22244981       0.95539999 </v>
    <v>       0.22244981       0.11068511       0.04460000 </v>
    <v>       0.11068511       0.55578315       0.95539999 </v>
    <v>       0.22244981       0.44401845       0.04460000 </v>
    <v>       0.11068511       0.88911647       0.95539999 </v>
    <v>       0.22244981       0.77735180       0.04460000 </v>
    <v>       0.44401845       0.22244981       0.95539999 </v>
    <v>       0.55578315       0.11068511       0.04460000 </v>
    <v>       0.44401845       0.55578315       0.95539999 </v>
    <v>       0.55578315       0.44401845       0.04460000 </v>
    <v>       0.44401845       0.88911647       0.95539999 </v>
    <v>       0.55578315       0.77735180       0.04460000 </v>
    <v>       0.77735180       0.22244981       0.95539999 </v>
    <v>       0.88911647       0.11068511       0.04460000 </v>
    <v>       0.77735180       0.55578315       0.95539999 </v>
    <v>       0.88911647       0.44401845       0.04460000 </v>
    <v>       0.77735180       0.88911647       0.95539999 </v>
    <v>       0.88911647       0.77735180       0.04460000 </v>
   </varray>
  </structure>
  <varray name="forces" >
   <v>       0.08528337      -0.19396742      -0.09274490 </v>
   <v>       0.35960375      -0.20139088       0.00163828 </v>
   <v>       0.20671881       0.03161526       0.08896007 </v>
   <v>       0.23503756       0.20031948      -0.06022626 </v>
   <v>      -0.06751045      -0.28448289       0.06934527 </v>
   <v>      -0.26700949       0.12279969       0.00573982 </v>
   <v>      -0.11700933       0.07883443      -0.00832699 </v>
   <v>      -0.23651233       0.18765645      -0.15322892 </v>
   <v>      -0.30482645       0.10570865       0.15031803 </v>
   <v>       0.27533671       0.02327507      -2.89806685 </v>
   <v>       0.63770117      -0.01011661       2.12683688 </v>
   <v>      -0.74249329      -0.00276276      -2.14142217 </v>
   <v>       0.02999511      -0.01710133       2.89221347 </v>
   <v>       0.73726066       0.00373595      -1.43914496 </v>
   <v>      -0.89785676       0.01356625       1.46564713 </v>
   <v>       0.35268044      -0.69676770      -2.10197332 </v>
   <v>      -0.35118595      -0.72777704       2.20162324 </v>
   <v>       0.64498903       0.54838458      -2.19639459 </v>
   <v>      -0.59377410       0.54713044       2.13978110 </v>
   <v>      -0.64846818       0.13762078      -2.10107135 </v>
   <v>       0.65097978       0.16486629       2.05715837 </v>
   <v>       0.21118679      -0.12535948      -2.89154308 </v>
   <v>      -0.06877731      -0.13775842       2.90618438 </v>
   <v>      -0.33940869       0.65923347      -1.42487387 </v>
   <v>      -0.52202965       0.69225162       2.18039512 </v>
   <v>       0.49968176      -0.59656431      -2.16844795 </v>
   <v>       0.23040702      -0.52294956       1.39162406 </v>
  </varray>
  <varray name="stress" >
   <v>       7.43031388      -0.03860581      -1.52918509 </v>
   <v>      -0.03860575       4.50011360       0.04231735 </v>
   <v>      -1.52918510       0.04231724      31.08102510 </v>
  </varray>
  <energy>
   <i name="e_fr_energy">   -186.86795270 </i>
   <i name="e_wo_entrp">   -186.69625112 </i>
   <i name="e_0_energy">     -0.34340315 </i>
  </energy>
  <time name="totalsc">  623.58  625.48</time>
 </calculation>
 <calculation>
  <scstep>
   <time name="dav">   21.90   21.96</time>
   <time name="total">   22.45   22.50</time>
   <energy>
    <i name="alphaZ">     78.88150545 </i>
    <i name="ewald">  39359.08784593 </i>
    <i name="hartreedc"> -45307.00132632 </i>
    <i name="XCdc">   -239.15060974 </i>
    <i name="pawpsdc">   4193.10022533 </i>
    <i name="pawaedc">  -3611.10950867 </i>
    <i name="eentropy">     -0.28378434 </i>
    <i name="bandstr">  -1422.44820776 </i>
    <i name="atom">   6761.44252427 </i>
    <i name="e_fr_energy">   -187.48133585 </i>
    <i name="e_wo_entrp">   -187.19755151 </i>
    <i name="e_0_energy">   -187.33944368 </i>
   </energy>
  </scstep>
  <scstep>
   <time name="dav">   29.84   29.91</time>
   <time name="total">   30.37   30.45</time>
   <energy>
    <i name="e_fr_energy">   -189.42683985 </i>
    <i name="e_wo_entrp">   -189.09577520 </i>
    <i name="e_0_energy">   -189.26130753 </i>
   </energy>
  </scstep>
  <scstep>
   <time name="dav">   30.32   30.39</time>
   <time name="total">   30.87   30.95</time>
   <energy>
    <i name="e_fr_energy">   -189.34328920 </i>
    <i name="e_wo_entrp">   -189.06722479 </i>
    <i name="e_0_energy">   -189.20525699 </i>
   </energy>
  </scstep>
  <scstep>
   <time name="dav">   30.25   30.32</time>
   <time name="total">   30.80   30.88</time>
   <energy>
    <i name="e_fr_energy">   -188.75081826 </i>
    <i name="e_wo_entrp">   -188.46636936 </i>
    <i name="e_0_energy">   -188.60859381 </i>
   </energy>
  </scstep>
  <scstep>
   <time name="dav">   28.41   28.48</time>
   <time name="total">   28.95   29.03</time>
   <energy>
    <i name="e_fr_energy">   -188.84621949 </i>
    <i name="e_wo_entrp">   -188.55590011 </i>
    <i name="e_0_energy">   -188.70105980 </i>
   </energy>
  </scstep>
  <scstep>
   <time name="dav">   30.56   30.63</time>
   <time name="total">   31.10   31.18</time>
   <energy>
    <i name="e_fr_energy">   -188.74743828 </i>
    <i name="e_wo_entrp">   -188.46038052 </i>
    <i name="e_0_energy">   -188.60390940 </i>
   </energy>
  </scstep>
  <scstep>
   <time name="dav">   30.49   30.56</time>
   <time name="total">   31.04   31.12</time>
   <energy>
    <i name="e_fr_energy">   -188.66545497 </i>
    <i name="e_wo_entrp">   -188.38059421 </i>
    <i name="e_0_energy">   -188.52302459 </i>
   </energy>
  </scstep>
  <scstep>
   <time name="dav">   29.44   29.51</time>
   <time name="total">   29.99   30.07</time>
   <energy>
    <i name="e_fr_energy">   -188.66201970 </i>
    <i name="e_wo_entrp">   -188.37819017 </i>
    <i name="e_0_energy">   -188.52010494 </i>
   </energy>
  </scstep>
  <scstep>
   <time name="dav">   28.58   28.64</time>
   <time name="total">   29.12   29.20</time>
   <energy>
    <i name="e_fr_energy">   -188.64669294 </i>
    <i name="e_wo_entrp">   -188.36312115 </i>
    <i name="e_0_energy">   -188.50490704 </i>
   </energy>
  </scstep>
  <scstep>
   <time name="dav">   30.35   30.42</time>
   <time name="total">   30.89   30.98</time>
   <energy>
    <i name="e_fr_energy">   -188.64401454 </i>
    <i name="e_wo_entrp">   -188.36092249 </i>
    <i name="e_0_energy">   -188.50246852 </i>
   </energy>
  </scstep>
  <scstep>
   <time name="dav">   31.19   31.27</time>
   <time name="total">   31.74   31.82</time>
   <energy>
    <i name="e_fr_energy">   -188.64358929 </i>
    <i name="e_wo_entrp">   -188.36070139 </i>
    <i name="e_0_energy">   -188.50214534 </i>
   </energy>
  </scstep>
  <scstep>
   <time name="dav">   28.46   28.52</time>
   <time name="total">   29.00   29.08</time>
   <energy>
    <i name="e_fr_energy">   -188.64358345 </i>
    <i name="e_wo_entrp">   -188.36137323 </i>
    <i name="e_0_energy">   -188.50247834 </i>
   </energy>
  </scstep>
  <scstep>
   <time name="dav">   19.08   19.13</time>
   <time name="total">   19.63   19.69</time>
   <energy>
    <i name="e_fr_energy">   -188.64372994 </i>
    <i name="e_wo_entrp">   -188.36126334 </i>
    <i name="e_0_energy">   -188.50249664 </i>
   </energy>
  </scstep>
  <scstep>
   <time name="dav">   21.54   21.60</time>
   <time name="total">   21.58   21.64</time>
   <energy>
    <i name="alphaZ">     78.88150545 </i>
    <i name="ewald">  39359.08784593 </i>
    <i name="hartreedc"> -45324.27355405 </i>
    <i name="XCdc">   -238.01834174 </i>
    <i name="pawpsdc">   3949.58457567 </i>
    <i name="pawaedc">  -3364.08334574 </i>
    <i name="eentropy">     -0.28252681 </i>
    <i name="bandstr">  -1410.98247968 </i>
    <i name="atom">   6761.44252427 </i>
    <i name="e_fr_energy">   -188.64379670 </i>
    <i name="e_wo_entrp">   -188.36126989 </i>
    <i name="e_0_energy">   -188.50253329 </i>
   </energy>
  </scstep>
  <structure>
   <crystal>
    <varray name="basis" >
     <v>       8.85778902       5.10533623       0.00000000 </v>
     <v>      -8.85892669       5.10729379       0.00000000 </v>
     <v>       0.00000000       0.00000000      30.00000000 </v>
    </varray>
    <i name="volume">   2714.01390862 </i>
    <varray name="rec_basis" >
     <v>       0.05645469       0.09792426       0.00000000 </v>
     <v>      -0.05643305       0.09791168       0.00000000 </v>
     <v>       0.00000000       0.00000000       0.03333333 </v>
    </varray>
   </crystal>
   <varray name="positions" >
    <v>       0.66597563       0.66550109      -0.00014914 </v>
    <v>       0.00003662       0.66470236       0.00000263 </v>
    <v>       0.33405978      -0.00042381       0.00014306 </v>
    <v>       0.66827932       0.33363816      -0.00009685 </v>
    <v>       0.33178399       0.66549298       0.00011151 </v>
    <v>       0.99984485       0.33466392       0.00000923 </v>
    <v>       0.00005176       0.00070284      -0.00001339 </v>
    <v>       0.33357345       0.33488948      -0.00024641 </v>
    <v>       0.66632453       0.00135400       0.00024172 </v>
    <v>       0.11156253       0.22179517       0.95073964 </v>
    <v>       0.22417558       0.10886251       0.04802014 </v>
    <v>       0.10860615       0.55783567       0.95195639 </v>
    <v>       0.22245141       0.44385316       0.04925093 </v>
    <v>       0.11275417       0.88708317       0.95308572 </v>
    <v>       0.22001676       0.77991471       0.04695689 </v>
    <v>       0.44166495       0.21813388       0.95201983 </v>
    <v>       0.55132297       0.10817904       0.04814040 </v>
    <v>       0.44843747       0.55661325       0.95186799 </v>
    <v>       0.55674973       0.44828898       0.04804096 </v>
    <v>       0.44287296       0.89157926       0.95202128 </v>
    <v>       0.55838333       0.77632971       0.04790809 </v>
    <v>       0.77733938       0.22126229       0.95075013 </v>
    <v>       0.88826581       0.11021715       0.04927340 </v>
    <v>       0.77956258       0.55988252       0.95310867 </v>
    <v>       0.89097720       0.44878392       0.04810627 </v>
    <v>       0.77588685       0.88487113       0.95191293 </v>
    <v>       0.88725467       0.77420794       0.04683785 </v>
   </varray>
  </structure>
  <varray name="forces" >
   <v>       0.02487310      -0.21847166       0.04126978 </v>
   <v>       0.32628121      -0.18382349      -0.00009013 </v>
   <v>       0.20083643       0.08121260      -0.04501834 </v>
   <v>       0.38133401       0.07326168      -0.07555141 </v>
   <v>       0.12567931      -0.36585435       0.07584937 </v>
   <v>      -0.07828475       0.03915146       0.00171463 </v>
   <v>      -0.30037273       0.17472075      -0.00048114 </v>
   <v>      -0.35265642       0.09879689      -0.03943759 </v>
   <v>      -0.25817981       0.25945267       0.04422513 </v>
   <v>       0.09114053       0.00827936      -0.04404086 </v>
   <v>      -0.08193970       0.00216983      -0.12184803 </v>
   <v>      -0.07943365       0.00934166      -0.16051364 </v>
   <v>       0.14664322      -0.01271698       0.12236997 </v>
   <v>      -0.10698910      -0.00472668       0.24641617 </v>
   <v>      -0.03833468      -0.01623886      -0.04898557 </v>
   <v>      -0.10699199      -0.05968287       0.13516671 </v>
   <v>       0.10596932      -0.06107022       0.09602428 </v>
   <v>       0.08174367      -0.04451010      -0.09637826 </v>
   <v>      -0.07063755      -0.04790743      -0.09110434 </v>
   <v>       0.02348902       0.09254275       0.07096602 </v>
   <v>      -0.01368644       0.11055975      -0.11569962 </v>
   <v>       0.07320408      -0.10967666      -0.13509135 </v>
   <v>       0.05784298      -0.09436585       0.03674549 </v>
   <v>       0.00846083       0.05400888       0.03440330 </v>
   <v>      -0.04768238       0.08307760       0.15182921 </v>
   <v>      -0.05347898       0.05047054       0.14576186 </v>
   <v>      -0.05882955       0.08199870      -0.22850163 </v>
  </varray>
  <varray name="stress" >
   <v>     -19.94479834       0.01893190       0.05878631 </v>
   <v>       0.01893199     -19.53350850       0.04620618 </v>
   <v>       0.05878639       0.04620622      -1.66692102 </v>
  </varray>
  <energy>
   <i name="e_fr_energy">   -188.64379670 </i>
   <i name="e_wo_entrp">   -188.50253329 </i>
   <i name="e_0_energy">     -0.28252681 </i>
  </energy>
  <time name="totalsc">  439.94  441.11</time>
 </calculation>
 <calculation>
  <scstep>
   <time name="dav">   24.02   24.08</time>
   <time name="total">   24.55   24.61</time>
   <energy>
    <i name="alphaZ">     82.31921406 </i>
    <i name="ewald">  41290.28196257 </i>
    <i name="hartreedc"> -47286.48593930 </i>
    <i name="XCdc">   -233.87411947 </i>
    <i name="pawpsdc">   3948.60106230 </i>
    <i name="pawaedc">  -3363.09060744 </i>
    <i name="eentropy">     -0.23606087 </i>
    <i name="bandstr">  -1389.53293680 </i>
    <i name="atom">   6761.44252427 </i>
    <i name="e_fr_energy">   -190.57490068 </i>
    <i name="e_wo_entrp">   -190.33883981 </i>
    <i name="e_0_energy">   -190.45687024 </i>
   </energy>
  </scstep>
  <scstep>
   <time name="dav">   29.50   29.57</time>
   <time name="total">   30.01   30.09</time>
   <energy>
    <i name="e_fr_energy">   -190.57131836 </i>
    <i name="e_wo_entrp">   -190.33270858 </i>
    <i name="e_0_energy">   -190.45201347 </i>
   </energy>
  </scstep>
  <scstep>
   <time name="dav">   30.39   30.47</time>
   <time name="total">   30.92   31.00</time>
   <energy>
    <i name="e_fr_energy">   -190.04697992 </i>
    <i name="e_wo_entrp">   -189.79662092 </i>
    <i name="e_0_energy">   -189.92180042 </i>
   </energy>
  </scstep>
  <scstep>
   <time name="dav">   32.01   32.08</time>
   <time name="total">   32.54   32.62</time>
   <energy>
    <i name="e_fr_energy">   -189.84837417 </i>
    <i name="e_wo_entrp">   -189.61229137 </i>
    <i name="e_0_energy">   -189.73033277 </i>
   </energy>
  </scstep>
  <scstep>
   <time name="dav">   30.60   30.67</time>
   <time name="total">   31.13   31.21</time>
   <energy>
    <i name="e_fr_energy">   -189.89569709 </i>
    <i name="e_wo_entrp">   -189.65021468 </i>
    <i name="e_0_energy">   -189.77295589 </i>
   </energy>
  </scstep>
  <scstep>
   <time name="dav">   30.32   30.40</time>
   <time name="total">   30.85   30.94</time>
   <energy>
    <i name="e_fr_energy">   -189.74005734 </i>
    <i name="e_wo_entrp">   -189.50156406 </i>
    <i name="e_0_energy">   -189.62081070 </i>
   </energy>
  </scstep>
  <scstep>
   <time name="dav">   30.09   30.16</time>
   <time name="total">   30.62   30.70</time>
   <energy>
    <i name="e_fr_energy">   -189.73406952 </i>
    <i name="e_wo_entrp">   -189.49589015 </i>
    <i name="e_0_energy">   -189.61497984 </i>
   </energy>
  </scstep>
  <scstep>
   <time name="dav">   28.77   28.84</time>
   <time name="total">   29.31   29.38</time>
   <energy>
    <i name="e_fr_energy">   -189.73444251 </i>
    <i name="e_wo_entrp">   -189.49627991 </i>
    <i name="e_0_energy">   -189.61536121 </i>
   </energy>
  </scstep>
  <scstep>
   <time name="dav">   26.41   26.47</time>
   <time name="total">   26.95   27.02</time>
   <energy>
    <i name="e_fr_energy">   -189.73414199 </i>
    <i name="e_wo_entrp">   -189.49591262 </i>
    <i name="e_0_energy">   -189.61502731 </i>
   </energy>
  </scstep>
  <scstep>
   <time name="dav">   25.72   25.78</time>
   <time name="total">   26.25   26.32</time>
   <energy>
    <i name="e_fr_energy">   -189.73433727 </i>
    <i name="e_wo_entrp">   -189.49598906 </i>
    <i name="e_0_energy">   -189.61516317 </i>
   </energy>
  </scstep>
  <scstep>
   <time name="dav">   22.71   22.76</time>
   <time name="total">   23.24   23.30</time>
   <energy>
    <i name="e_fr_energy">   -189.73408624 </i>
    <i name="e_wo_entrp">   -189.49578504 </i>
    <i name="e_0_energy">   -189.61493564 </i>
   </energy>
  </scstep>
  <scstep>
   <time name="dav">   19.50   19.55</time>
   <time name="total">   19.54   19.59</time>
   <energy>
    <i name="alphaZ">     82.31921406 </i>
    <i name="ewald">  41290.28196257 </i>
    <i name="hartreedc"> -47261.70406080 </i>
    <i name="XCdc">   -235.26400801 </i>
    <i name="pawpsdc">   4038.48763021 </i>
    <i name="pawaedc">  -3454.18594800 </i>
    <i name="eentropy">     -0.23829328 </i>
    <i name="bandstr">  -1410.87316296 </i>
    <i name="atom">   6761.44252427 </i>
    <i name="e_fr_energy">   -189.73414194 </i>
    <i name="e_wo_entrp">   -189.49584866 </i>
    <i name="e_0_energy">   -189.61499530 </i>
   </energy>
  </scstep>
  <structure>
   <crystal>
    <varray name="basis" >
     <v>       8.66901904       4.99890005       0.00000000 </v>
     <v>      -8.66992574       5.00045813       0.00000000 </v>
     <v>       0.00000000       0.00000000      30.00000000 </v>
    </varray>
    <i name="volume">   2600.67476814 </i>
    <varray name="rec_basis" >
     <v>       0.05768262       0.10001165       0.00000000 </v>
     <v>      -0.05766465       0.10000119       0.00000000 </v>
     <v>       0.00000000       0.00000000       0.03333333 </v>
    </varray>
   </crystal>
   <varray name="positions" >
    <v>       0.66563501       0.66511266      -0.00012570 </v>
    <v>       0.00004377       0.66408190       0.00000258 </v>
    <v>       0.33438850      -0.00048145       0.00011748 </v>
    <v>       0.66876842       0.33339368      -0.00013976 </v>
    <v>       0.33129441       0.66476172       0.00015460 </v>
    <v>       0.99983487       0.33480453       0.00001020 </v>
    <v>       0.00005435       0.00128320      -0.00001366 </v>
    <v>       0.33339905       0.33539344      -0.00026881 </v>
    <v>       0.66650910       0.00203515       0.00026685 </v>
    <v>       0.11166403       0.22172134       0.95071463 </v>
    <v>       0.22410037       0.10894492       0.04795093 </v>
    <v>       0.10854532       0.55792764       0.95186522 </v>
    <v>       0.22257127       0.44369092       0.04932044 </v>
    <v>       0.11264336       0.88717817       0.95322568 </v>
    <v>       0.21995278       0.77992448       0.04692906 </v>
    <v>       0.44146243       0.21813719       0.95209661 </v>
    <v>       0.55132301       0.10797524       0.04819495 </v>
    <v>       0.44844184       0.55646038       0.95181325 </v>
    <v>       0.55660184       0.44827698       0.04798921 </v>
    <v>       0.44304998       0.89171107       0.95206159 </v>
    <v>       0.55855465       0.77652734       0.04784237 </v>
    <v>       0.77722679       0.22100890       0.95067340 </v>
    <v>       0.88816399       0.11000408       0.04929427 </v>
    <v>       0.77966085       0.55996449       0.95312821 </v>
    <v>       0.89106995       0.44896839       0.04819251 </v>
    <v>       0.77591962       0.88500676       0.95199573 </v>
    <v>       0.88733490       0.77440133       0.04670806 </v>
   </varray>
  </structure>
  <varray name="forces" >
   <v>      -0.01370177      -0.24179459       0.06466767 </v>
   <v>       0.32751816      -0.18921800       0.00054587 </v>
   <v>       0.19822850       0.12624199      -0.06660257 </v>
   <v>       0.42489854       0.02074636      -0.05258675 </v>
   <v>       0.19163487      -0.37826726       0.05114427 </v>
   <v>      -0.01030856      -0.00233130      -0.00034638 </v>
   <v>      -0.36424607       0.21126300       0.00106628 </v>
   <v>      -0.39484791       0.05693546      -0.00021394 </v>
   <v>      -0.24593151       0.31787525       0.00379327 </v>
   <v>       0.00378006       0.01496340      -0.61672284 </v>
   <v>       0.05758297       0.01997378       0.37703901 </v>
   <v>      -0.15213883       0.00905118      -0.66024948 </v>
   <v>       0.06924239      -0.02417910       0.68536785 </v>
   <v>       0.04622430      -0.01164242      -0.19988744 </v>
   <v>      -0.11846650      -0.02286403       0.40405439 </v>
   <v>       0.00628858      -0.11459635      -0.34466241 </v>
   <v>      -0.03007626      -0.11290792       0.62348896 </v>
   <v>       0.06288445       0.09643650      -0.62457871 </v>
   <v>      -0.05029198       0.07154748       0.38668538 </v>
   <v>      -0.07093144       0.01534747      -0.40590174 </v>
   <v>       0.09066332       0.04371084       0.36434869 </v>
   <v>       0.04550409      -0.03836911      -0.69745000 </v>
   <v>       0.00812604      -0.02066015       0.61109387 </v>
   <v>      -0.02258365       0.12464729      -0.41849953 </v>
   <v>      -0.08545417       0.14737824       0.65221622 </v>
   <v>       0.00274246      -0.07671298      -0.35453916 </v>
   <v>       0.02365995      -0.04257506       0.21672923 </v>
  </varray>
  <varray name="stress" >
   <v>     -10.20577071       0.00212017       0.04300373 </v>
   <v>       0.00212016      -9.88728970       0.04119666 </v>
   <v>       0.04300358       0.04119678       6.49925412 </v>
  </varray>
  <energy>
   <i name="e_fr_energy">   -189.73414194 </i>
   <i name="e_wo_entrp">   -189.61499530 </i>
   <i name="e_0_energy">     -0.23829328 </i>
  </energy>
  <time name="totalsc">  378.37  379.38</time>
 </calculation>
 <calculation>
  <scstep>
   <time name="dav">   21.90   21.95</time>
   <time name="total">   22.43   22.48</time>
   <energy>
    <i name="alphaZ">     85.82969633 </i>
    <i name="ewald">  42838.44797159 </i>
    <i name="hartreedc"> -48854.95226683 </i>
    <i name="XCdc">   -232.94221227 </i>
    <i name="pawpsdc">   4038.28533063 </i>
    <i name="pawaedc">  -3453.97611614 </i>
    <i name="eentropy">     -0.19709235 </i>
    <i name="bandstr">  -1373.23411860 </i>
    <i name="atom">   6761.44252427 </i>
    <i name="e_fr_energy">   -191.29628337 </i>
    <i name="e_wo_entrp">   -191.09919102 </i>
    <i name="e_0_energy">   -191.19773719 </i>
   </energy>
  </scstep>
  <scstep>
   <time name="dav">   33.11   33.18</time>
   <time name="total">   33.62   33.71</time>
   <energy>
    <i name="e_fr_energy">   -191.17131339 </i>
    <i name="e_wo_entrp">   -190.96951987 </i>
    <i name="e_0_energy">   -191.07041663 </i>
   </energy>
  </scstep>
  <scstep>
   <time name="dav">   30.42   30.50</time>
   <time name="total">   30.94   31.24</time>
   <energy>
    <i name="e_fr_energy">   -191.19856504 </i>
    <i name="e_wo_entrp">   -190.98040368 </i>
    <i name="e_0_energy">   -191.08948436 </i>
   </energy>
  </scstep>
  <scstep>
   <time name="dav">   32.11   32.19</time>
   <time name="total">   32.63   32.72</time>
   <energy>
    <i name="e_fr_energy">   -190.80967893 </i>
    <i name="e_wo_entrp">   -190.61026036 </i>
    <i name="e_0_energy">   -190.70996964 </i>
   </energy>
  </scstep>
  <scstep>
   <time name="dav">   28.54   28.60</time>
   <time name="total">   29.05   29.13</time>
   <energy>
    <i name="e_fr_energy">   -190.71040763 </i>
    <i name="e_wo_entrp">   -190.50715633 </i>
    <i name="e_0_energy">   -190.60878198 </i>
   </energy>
  </scstep>
  <scstep>
   <time name="dav">   30.63   30.71</time>
   <time name="total">   31.15   31.23</time>
   <energy>
    <i name="e_fr_energy">   -190.70773778 </i>
    <i name="e_wo_entrp">   -190.50428752 </i>
    <i name="e_0_energy">   -190.60601265 </i>
   </energy>
  </scstep>
  <scstep>
   <time name="dav">   29.93   30.01</time>
   <time name="total">   30.45   30.53</time>
   <energy>
    <i name="e_fr_energy">   -190.69799347 </i>
    <i name="e_wo_entrp">   -190.49537626 </i>
    <i name="e_0_energy">   -190.59668487 </i>
   </energy>
  </scstep>
  <scstep>
   <time name="dav">   26.93   26.99</time>
   <time name="total">   27.45   27.52</time>
   <energy>
    <i name="e_fr_energy">   -190.69210055 </i>
    <i name="e_wo_entrp">   -190.48943592 </i>
    <i name="e_0_energy">   -190.59076824 </i>
   </energy>
  </scstep>
  <scstep>
   <time name="dav">   28.95   29.02</time>
   <time name="total">   29.47   29.55</time>
   <energy>
    <i name="e_fr_energy">   -190.69240461 </i>
    <i name="e_wo_entrp">   -190.48955198 </i>
    <i name="e_0_energy">   -190.59097829 </i>
   </energy>
  </scstep>
  <scstep>
   <time name="dav">   30.00   30.07</time>
   <time name="total">   30.52   30.60</time>
   <energy>
    <i name="e_fr_energy">   -190.69260122 </i>
    <i name="e_wo_entrp">   -190.48986988 </i>
    <i name="e_0_energy">   -190.59123555 </i>
   </energy>
  </scstep>
  <scstep>
   <time name="dav">   24.89   24.95</time>
   <time name="total">   25.41   25.48</time>
   <energy>
    <i name="e_fr_energy">   -190.69227110 </i>
    <i name="e_wo_entrp">   -190.48959753 </i>
    <i name="e_0_energy">   -190.59093432 </i>
   </energy>
  </scstep>
  <scstep>
   <time name="dav">   18.32   18.37</time>
   <time name="total">   18.36   18.41</time>
   <energy>
    <i name="alphaZ">     85.82969633 </i>
    <i name="ewald">  42838.44797159 </i>
    <i name="hartreedc"> -48826.43844236 </i>
    <i name="XCdc">   -234.29285654 </i>
    <i name="pawpsdc">   4063.35457291 </i>
    <i name="pawaedc">  -3479.22710328 </i>
    <i name="eentropy">     -0.20264635 </i>
    <i name="bandstr">  -1399.60596281 </i>
    <i name="atom">   6761.44252427 </i>
    <i name="e_fr_energy">   -190.69224624 </i>
    <i name="e_wo_entrp">   -190.48959989 </i>
    <i name="e_0_energy">   -190.59092306 </i>
   </energy>
  </scstep>
  <structure>
   <crystal>
    <varray name="basis" >
     <v>       8.48548259       4.89790641       0.00000000 </v>
     <v>      -8.48657527       4.89978883       0.00000000 </v>
     <v>       0.00000000       0.00000000      30.00000000 </v>
    </varray>
    <i name="volume">   2494.30572517 </i>
    <varray name="rec_basis" >
     <v>       0.05893170       0.10207139       0.00000000 </v>
     <v>      -0.05890905       0.10205825       0.00000000 </v>
     <v>       0.00000000       0.00000000       0.03333333 </v>
    </varray>
   </crystal>
   <varray name="positions" >
    <v>       0.66395392       0.66364230       0.00002836 </v>
    <v>       0.00003024       0.66169401       0.00000426 </v>
    <v>       0.33600734      -0.00029014      -0.00003904 </v>
    <v>       0.67036811       0.33179174      -0.00022923 </v>
    <v>       0.32967850       0.66156833       0.00023959 </v>
    <v>       0.99977718       0.33462517       0.00000773 </v>
    <v>       0.00006083       0.00411077      -0.00001013 </v>
    <v>       0.33216119       0.33713571      -0.00023580 </v>
    <v>       0.66777766       0.00504843       0.00024024 </v>
    <v>       0.11166220       0.22194441       0.94894737 </v>
    <v>       0.22468026       0.10870504       0.04915822 </v>
    <v>       0.10794565       0.55863925       0.95006990 </v>
    <v>       0.22252970       0.44337164       0.05122179 </v>
    <v>       0.11294157       0.88669933       0.95243061 </v>
    <v>       0.21924813       0.78030882       0.04815328 </v>
    <v>       0.44079210       0.21709429       0.95097271 </v>
    <v>       0.55017927       0.10744217       0.04993768 </v>
    <v>       0.44960049       0.55721817       0.95006763 </v>
    <v>       0.55719738       0.44917775       0.04919851 </v>
    <v>       0.44255979       0.89200703       0.95081323 </v>
    <v>       0.55914040       0.77615543       0.04900728 </v>
    <v>       0.77728936       0.22082205       0.94874754 </v>
    <v>       0.88817659       0.11010141       0.05105128 </v>
    <v>       0.78049342       0.56105010       0.95187415 </v>
    <v>       0.89179199       0.45041799       0.04997172 </v>
    <v>       0.77521074       0.88411577       0.95083390 </v>
    <v>       0.88696045       0.77361745       0.04753715 </v>
   </varray>
  </structure>
  <varray name="forces" >
   <v>      -0.04653292      -0.27369156       0.07686553 </v>
   <v>       0.28420523      -0.16708027       0.00127660 </v>
   <v>       0.20759421       0.16876026      -0.07652105 </v>
   <v>       0.47531216      -0.03189208       0.00835278 </v>
   <v>       0.26677114      -0.39098264      -0.00694133 </v>
   <v>       0.09470081      -0.06460954      -0.00211164 </v>
   <v>      -0.38339498       0.22248307      -0.00230831 </v>
   <v>      -0.47515958       0.01376665       0.02908357 </v>
   <v>      -0.24905279       0.40584652      -0.03395213 </v>
   <v>      -0.05880701       0.04807809      -0.49010627 </v>
   <v>      -0.00259608       0.03783772       0.21415097 </v>
   <v>      -0.03689938      -0.01162318      -0.46972225 </v>
   <v>      -0.02411702      -0.03945359       0.54332026 </v>
   <v>      -0.00399514      -0.01636436      -0.09475830 </v>
   <v>      -0.00936819      -0.03883779       0.31285508 </v>
   <v>      -0.01247523       0.00895107      -0.18872051 </v>
   <v>      -0.02914273      -0.01671288       0.49178290 </v>
   <v>       0.00275570       0.03464427      -0.48992834 </v>
   <v>       0.03977639       0.00374438       0.19725164 </v>
   <v>       0.03001894      -0.03327015      -0.20386392 </v>
   <v>      -0.02403877       0.00888348       0.19486755 </v>
   <v>       0.02518954       0.03838586      -0.54717341 </v>
   <v>      -0.07118533       0.02719936       0.49293609 </v>
   <v>       0.04237738       0.02828163      -0.31708507 </v>
   <v>      -0.01574822       0.04922367       0.46634169 </v>
   <v>      -0.02856168      -0.02462508      -0.20464063 </v>
   <v>       0.00237353       0.01305710       0.09874851 </v>
  </varray>
  <varray name="stress" >
   <v>      -5.76254238      -0.03006062      -0.09235176 </v>
   <v>      -0.03006041      -5.82634738      -0.03231944 </v>
   <v>      -0.09235172      -0.03231950       4.54642342 </v>
  </varray>
  <energy>
   <i name="e_fr_energy">   -190.69224624 </i>
   <i name="e_wo_entrp">   -190.59092306 </i>
   <i name="e_0_energy">     -0.20264635 </i>
  </energy>
  <time name="totalsc">  383.75  384.98</time>
 </calculation>
 <calculation>
  <scstep>
   <time name="dav">   22.02   22.07</time>
   <time name="total">   22.53   22.59</time>
   <energy>
    <i name="alphaZ">     90.23090960 </i>
    <i name="ewald">  44692.69778647 </i>
    <i name="hartreedc"> -50736.55955718 </i>
    <i name="XCdc">   -231.79775291 </i>
    <i name="pawpsdc">   4063.27815599 </i>
    <i name="pawaedc">  -3479.14636040 </i>
    <i name="eentropy">     -0.18337259 </i>
    <i name="bandstr">  -1352.05016464 </i>
    <i name="atom">   6761.44252427 </i>
    <i name="e_fr_energy">   -192.08783139 </i>
    <i name="e_wo_entrp">   -191.90445880 </i>
    <i name="e_0_energy">   -191.99614510 </i>
   </energy>
  </scstep>
  <scstep>
   <time name="dav">   30.97   31.04</time>
   <time name="total">   31.47   31.56</time>
   <energy>
    <i name="e_fr_energy">   -191.79329677 </i>
    <i name="e_wo_entrp">   -191.60349622 </i>
    <i name="e_0_energy">   -191.69839649 </i>
   </energy>
  </scstep>
  <scstep>
   <time name="dav">   30.85   30.92</time>
   <time name="total">   31.36   31.44</time>
   <energy>
    <i name="e_fr_energy">   -191.86268483 </i>
    <i name="e_wo_entrp">   -191.66364345 </i>
    <i name="e_0_energy">   -191.76316414 </i>
   </energy>
  </scstep>
  <scstep>
   <time name="dav">   31.21   31.29</time>
   <time name="total">   31.72   31.80</time>
   <energy>
    <i name="e_fr_energy">   -191.60878818 </i>
    <i name="e_wo_entrp">   -191.42512526 </i>
    <i name="e_0_energy">   -191.51695672 </i>
   </energy>
  </scstep>
  <scstep>
   <time name="dav">   31.03   31.11</time>
   <time name="total">   31.54   31.63</time>
   <energy>
    <i name="e_fr_energy">   -191.37077493 </i>
    <i name="e_wo_entrp">   -191.17866291 </i>
    <i name="e_0_energy">   -191.27471892 </i>
   </energy>
  </scstep>
  <scstep>
   <time name="dav">   31.06   31.14</time>
   <time name="total">   31.57   31.65</time>
   <energy>
    <i name="e_fr_energy">   -191.36847998 </i>
    <i name="e_wo_entrp">   -191.17660749 </i>
    <i name="e_0_energy">   -191.27254373 </i>
   </energy>
  </scstep>
  <scstep>
   <time name="dav">   30.05   30.12</time>
   <time name="total">   30.56   30.64</time>
   <energy>
    <i name="e_fr_energy">   -191.36756797 </i>
    <i name="e_wo_entrp">   -191.17575340 </i>
    <i name="e_0_energy">   -191.27166068 </i>
   </energy>
  </scstep>
  <scstep>
   <time name="dav">   30.33   30.40</time>
   <time name="total">   30.84   30.92</time>
   <energy>
    <i name="e_fr_energy">   -191.35635177 </i>
    <i name="e_wo_entrp">   -191.16463104 </i>
    <i name="e_0_energy">   -191.26049140 </i>
   </energy>
  </scstep>
  <scstep>
   <time name="dav">   29.57   29.64</time>
   <time name="total">   30.08   30.16</time>
   <energy>
    <i name="e_fr_energy">   -191.35742618 </i>
    <i name="e_wo_entrp">   -191.16572529 </i>
    <i name="e_0_energy">   -191.26157574 </i>
   </energy>
  </scstep>
  <scstep>
   <time name="dav">   30.36   30.43</time>
   <time name="total">   30.86   30.95</time>
   <energy>
    <i name="e_fr_energy">   -191.35668136 </i>
    <i name="e_wo_entrp">   -191.16488912 </i>
    <i name="e_0_energy">   -191.26078524 </i>
   </energy>
  </scstep>
  <scstep>
   <time name="dav">   23.92   23.98</time>
   <time name="total">   23.96   24.02</time>
   <energy>
    <i name="alphaZ">     90.23090960 </i>
    <i name="ewald">  44692.69778647 </i>
    <i name="hartreedc"> -50701.92904604 </i>
    <i name="XCdc">   -233.36059790 </i>
    <i name="pawpsdc">   4084.01992578 </i>
    <i name="pawaedc">  -3499.95428186 </i>
    <i name="eentropy">     -0.19175422 </i>
    <i name="bandstr">  -1384.31207796 </i>
    <i name="atom">   6761.44252427 </i>
    <i name="e_fr_energy">   -191.35661187 </i>
    <i name="e_wo_entrp">   -191.16485765 </i>
    <i name="e_0_energy">   -191.26073476 </i>
   </energy>
  </scstep>
  <structure>
   <crystal>
    <varray name="basis" >
     <v>       8.27623476       4.77440973       0.00000000 </v>
     <v>      -8.27936526       4.77982234       0.00000000 </v>
     <v>       0.00000000       0.00000000      30.00000000 </v>
    </varray>
    <i name="volume">   2372.64041661 </i>
    <varray name="rec_basis" >
     <v>       0.06043675       0.10468546       0.00000000 </v>
     <v>      -0.06036831       0.10464588       0.00000000 </v>
     <v>       0.00000000       0.00000000       0.03333333 </v>
    </varray>
   </crystal>
   <varray name="positions" >
    <v>       0.66022667       0.66063818       0.00035146 </v>
    <v>      -0.00001519       0.65754318       0.00000958 </v>
    <v>       0.33958731       0.00038116      -0.00036021 </v>
    <v>       0.67329862       0.32795455      -0.00020601 </v>
    <v>       0.32679903       0.65484341       0.00021877 </v>
    <v>       0.99965168       0.33313733      -0.00000177 </v>
    <v>       0.00007366       0.00971894      -0.00001602 </v>
    <v>       0.32892889       0.34060694      -0.00009701 </v>
    <v>       0.67103191       0.01177668       0.00008535 </v>
    <v>       0.11171453       0.22299753       0.94636309 </v>
    <v>       0.22543609       0.10891896       0.05058850 </v>
    <v>       0.10734458       0.55902271       0.94760421 </v>
    <v>       0.22182986       0.44309003       0.05401718 </v>
    <v>       0.11300334       0.88621279       0.95155912 </v>
    <v>       0.21847595       0.78014479       0.04989416 </v>
    <v>       0.44065561       0.21672234       0.94966628 </v>
    <v>       0.54923250       0.10736058       0.05248709 </v>
    <v>       0.45057933       0.55810485       0.94752333 </v>
    <v>       0.55792831       0.44945199       0.05055490 </v>
    <v>       0.44196975       0.89150001       0.94942461 </v>
    <v>       0.55922832       0.77601649       0.05034570 </v>
    <v>       0.77798844       0.22121773       0.94593300 </v>
    <v>       0.88813251       0.11107611       0.05364396 </v>
    <v>       0.78138927       0.56157464       0.95011106 </v>
    <v>       0.89250235       0.45161027       0.05242207 </v>
    <v>       0.77437783       0.88344006       0.94944712 </v>
    <v>       0.88684330       0.77315221       0.04843038 </v>
   </varray>
  </structure>
  <varray name="forces" >
   <v>      -0.02540954      -0.30717540       0.00270640 </v>
   <v>       0.22272089      -0.13157335      -0.00390400 </v>
   <v>       0.24477650       0.16650993      -0.00094386 </v>
   <v>       0.37905507      -0.02542456       0.01955106 </v>
   <v>       0.21809045      -0.31658323      -0.01926615 </v>
   <v>       0.16581622      -0.09566993       0.00168929 </v>
   <v>      -0.35947437       0.21144165       0.00489616 </v>
   <v>      -0.47503525      -0.06412612       0.00103113 </v>
   <v>      -0.18241380       0.44126617       0.00694946 </v>
   <v>      -0.06617970       0.07728107      -0.24723690 </v>
   <v>      -0.09580746       0.06591911      -0.07300250 </v>
   <v>       0.09080393      -0.04131652      -0.11353237 </v>
   <v>      -0.09792880      -0.08146432       0.27843184 </v>
   <v>      -0.09178230       0.00496924       0.16868737 </v>
   <v>       0.11990174      -0.02317198      -0.00450434 </v>
   <v>      -0.10910782       0.16211049       0.15552477 </v>
   <v>       0.03457597       0.05344349       0.18083404 </v>
   <v>      -0.02332930      -0.05496887      -0.18744506 </v>
   <v>       0.12578047      -0.14468800      -0.09355104 </v>
   <v>       0.18418945      -0.03453691       0.09936803 </v>
   <v>      -0.19216505       0.01824696      -0.15845386 </v>
   <v>       0.02075605       0.12248539      -0.28189744 </v>
   <v>      -0.10242183       0.01885245       0.24310271 </v>
   <v>       0.08054521      -0.09208750       0.00729832 </v>
   <v>       0.08333095      -0.06065193       0.11756431 </v>
   <v>      -0.09904140       0.05255952       0.06933331 </v>
   <v>      -0.05024630       0.07835314      -0.17323069 </v>
  </varray>
  <varray name="stress" >
   <v>      -0.14625719      -0.19379284      -0.17919378 </v>
   <v>      -0.19379281      -0.32308649      -0.30301111 </v>
   <v>      -0.17919388      -0.30301131      -0.39498713 </v>
  </varray>
  <energy>
   <i name="e_fr_energy">   -191.35661187 </i>
   <i name="e_wo_entrp">   -191.26073476 </i>
   <i name="e_0_energy">     -0.19175422 </i>
  </energy>
  <time name="totalsc">  369.07  370.05</time>
 </calculation>
 <calculation>
  <scstep>
   <time name="dav">   22.03   22.08</time>
   <time name="total">   22.53   22.59</time>
   <energy>
    <i name="alphaZ">     90.38282445 </i>
    <i name="ewald">  44747.01691980 </i>
    <i name="hartreedc"> -50758.38655326 </i>
    <i name="XCdc">   -233.31984851 </i>
    <i name="pawpsdc">   4084.16067622 </i>
    <i name="pawaedc">  -3500.09249916 </i>
    <i name="eentropy">     -0.19480902 </i>
    <i name="bandstr">  -1382.46132346 </i>
    <i name="atom">   6761.44252427 </i>
    <i name="e_fr_energy">   -191.45208866 </i>
    <i name="e_wo_entrp">   -191.25727965 </i>
    <i name="e_0_energy">   -191.35468416 </i>
   </energy>
  </scstep>
  <scstep>
   <time name="dav">   31.42   31.50</time>
   <time name="total">   31.93   32.01</time>
   <energy>
    <i name="e_fr_energy">   -191.52124665 </i>
    <i name="e_wo_entrp">   -191.31652712 </i>
    <i name="e_0_energy">   -191.41888689 </i>
   </energy>
  </scstep>
  <scstep>
   <time name="dav">   30.95   31.02</time>
   <time name="total">   31.45   31.53</time>
   <energy>
    <i name="e_fr_energy">   -191.46527112 </i>
    <i name="e_wo_entrp">   -191.26929929 </i>
    <i name="e_0_energy">   -191.36728521 </i>
   </energy>
  </scstep>
  <scstep>
   <time name="dav">   27.81   27.88</time>
   <time name="total">   28.32   28.40</time>
   <energy>
    <i name="e_fr_energy">   -191.46270303 </i>
    <i name="e_wo_entrp">   -191.26615504 </i>
    <i name="e_0_energy">   -191.36442903 </i>
   </energy>
  </scstep>
  <scstep>
   <time name="dav">   28.41   28.48</time>
   <time name="total">   28.92   28.99</time>
   <energy>
    <i name="e_fr_energy">   -191.46242429 </i>
    <i name="e_wo_entrp">   -191.26503275 </i>
    <i name="e_0_energy">   -191.36372852 </i>
   </energy>
  </scstep>
  <scstep>
   <time name="dav">   29.23   29.30</time>
   <time name="total">   29.74   29.82</time>
   <energy>
    <i name="e_fr_energy">   -191.46133304 </i>
    <i name="e_wo_entrp">   -191.26415352 </i>
    <i name="e_0_energy">   -191.36274328 </i>
   </energy>
  </scstep>
  <scstep>
   <time name="dav">   28.77   28.84</time>
   <time name="total">   29.28   29.36</time>
   <energy>
    <i name="e_fr_energy">   -191.46077238 </i>
    <i name="e_wo_entrp">   -191.26337284 </i>
    <i name="e_0_energy">   -191.36207261 </i>
   </energy>
  </scstep>
  <scstep>
   <time name="dav">   23.75   23.81</time>
   <time name="total">   23.79   23.85</time>
   <energy>
    <i name="alphaZ">     90.38282445 </i>
    <i name="ewald">  44747.01691980 </i>
    <i name="hartreedc"> -50758.23334687 </i>
    <i name="XCdc">   -233.34960234 </i>
    <i name="pawpsdc">   4084.55542824 </i>
    <i name="pawaedc">  -3500.47583525 </i>
    <i name="eentropy">     -0.19729175 </i>
    <i name="bandstr">  -1382.60238584 </i>
    <i name="atom">   6761.44252427 </i>
    <i name="e_fr_energy">   -191.46076530 </i>
    <i name="e_wo_entrp">   -191.26347355 </i>
    <i name="e_0_energy">   -191.36211942 </i>
   </energy>
  </scstep>
  <structure>
   <crystal>
    <varray name="basis" >
     <v>       8.26875272       4.76487724       0.00000000 </v>
     <v>      -8.27692430       4.77902246       0.00000000 </v>
     <v>       0.00000000       0.00000000      30.00000000 </v>
    </varray>
    <i name="volume">   2368.65249818 </i>
    <varray name="rec_basis" >
     <v>       0.06052837       0.10483080       0.00000000 </v>
     <v>      -0.06034921       0.10472730       0.00000000 </v>
     <v>       0.00000000       0.00000000       0.03333333 </v>
    </varray>
   </crystal>
   <varray name="positions" >
    <v>       0.65851089       0.65908524       0.00036057 </v>
    <v>      -0.00003137       0.65614086       0.00000324 </v>
    <v>       0.34122856       0.00052192      -0.00036638 </v>
    <v>       0.67433871       0.32663916      -0.00017361 </v>
    <v>       0.32577362       0.65246360       0.00018684 </v>
    <v>       0.99965020       0.33212789       0.00000087 </v>
    <v>       0.00009404       0.01196250      -0.00000802 </v>
    <v>       0.32713465       0.34173930      -0.00009316 </v>
    <v>       0.67281400       0.01469384       0.00009444 </v>
    <v>       0.11191607       0.22360916       0.94591432 </v>
    <v>       0.22550437       0.10954551       0.05049371 </v>
    <v>       0.10739174       0.55854648       0.94737748 </v>
    <v>       0.22110645       0.44295738       0.05452021 </v>
    <v>       0.11275876       0.88650226       0.95181994 </v>
    <v>       0.21870101       0.77966775       0.04991563 </v>
    <v>       0.44116449       0.21787448       0.94989881 </v>
    <v>       0.54959363       0.10753171       0.05282570 </v>
    <v>       0.45024431       0.55790729       0.94717388 </v>
    <v>       0.55756981       0.44833825       0.05042520 </v>
    <v>       0.44232888       0.89076663       0.94956338 </v>
    <v>       0.55875189       0.77667760       0.05010886 </v>
    <v>       0.77869362       0.22179515       0.94542396 </v>
    <v>       0.88792492       0.11149365       0.05408601 </v>
    <v>       0.78116851       0.56087065       0.95009383 </v>
    <v>       0.89244949       0.45106970       0.05265521 </v>
    <v>       0.77433925       0.88399194       0.94953654 </v>
    <v>       0.88709393       0.77369455       0.04816245 </v>
   </varray>
  </structure>
  <varray name="forces" >
   <v>       0.01826958      -0.32947251       0.03600348 </v>
   <v>       0.25129280      -0.13713561       0.00005491 </v>
   <v>       0.29797440       0.14789054      -0.04051242 </v>
   <v>       0.40217163       0.01119575       0.00018192 </v>
   <v>       0.17764856      -0.35834672      -0.00153737 </v>
   <v>       0.14782201      -0.07865151      -0.00171333 </v>
   <v>      -0.38584156       0.23303358      -0.00065816 </v>
   <v>      -0.49414046      -0.07386689       0.02023188 </v>
   <v>      -0.19611816       0.45186156      -0.02671500 </v>
   <v>      -0.04528593       0.05254304      -0.23924184 </v>
   <v>      -0.07863547       0.05781643      -0.09009815 </v>
   <v>       0.06473151      -0.03757112      -0.10126905 </v>
   <v>      -0.08349771      -0.07523106       0.24730712 </v>
   <v>      -0.07726302       0.01680036       0.23279165 </v>
   <v>       0.07813805      -0.00627572      -0.03054678 </v>
   <v>      -0.10340837       0.11452307       0.21168928 </v>
   <v>       0.02569277       0.03828876       0.17497898 </v>
   <v>      -0.01799601      -0.04721930      -0.17986114 </v>
   <v>       0.08728045      -0.13710082      -0.11997038 </v>
   <v>       0.15429180      -0.00660094       0.13160413 </v>
   <v>      -0.15528943       0.03406601      -0.20596558 </v>
   <v>       0.02517927       0.10671398      -0.24446198 </v>
   <v>      -0.06922315       0.01396698       0.23954920 </v>
   <v>       0.04854836      -0.06482332       0.02739248 </v>
   <v>       0.06535491      -0.03613186       0.10136207 </v>
   <v>      -0.08572374       0.04578649       0.09079053 </v>
   <v>      -0.05197306       0.06394084      -0.23138643 </v>
  </varray>
  <varray name="stress" >
   <v>       0.29384192      -0.10677886      -0.15678040 </v>
   <v>      -0.10677882       0.18479647      -0.24844280 </v>
   <v>      -0.15678045      -0.24844286      -0.93777185 </v>
  </varray>
  <energy>
   <i name="e_fr_energy">   -191.46076530 </i>
   <i name="e_wo_entrp">   -191.36211942 </i>
   <i name="e_0_energy">     -0.19729175 </i>
  </energy>
  <time name="totalsc">  268.75  269.46</time>
 </calculation>
 <calculation>
  <scstep>
   <time name="dav">   22.03   22.09</time>
   <time name="total">   22.54   22.60</time>
   <energy>
    <i name="alphaZ">     90.32603711 </i>
    <i name="ewald">  44722.64897170 </i>
    <i name="hartreedc"> -50733.17642089 </i>
    <i name="XCdc">   -233.38304317 </i>
    <i name="pawpsdc">   4084.58119074 </i>
    <i name="pawaedc">  -3500.50216438 </i>
    <i name="eentropy">     -0.19756967 </i>
    <i name="bandstr">  -1383.21938599 </i>
    <i name="atom">   6761.44252427 </i>
    <i name="e_fr_energy">   -191.47986027 </i>
    <i name="e_wo_entrp">   -191.28229060 </i>
    <i name="e_0_energy">   -191.38107543 </i>
   </energy>
  </scstep>
  <scstep>
   <time name="dav">   31.69   31.77</time>
   <time name="total">   32.20   32.29</time>
   <energy>
    <i name="e_fr_energy">   -191.48335252 </i>
    <i name="e_wo_entrp">   -191.28343084 </i>
    <i name="e_0_energy">   -191.38339168 </i>
   </energy>
  </scstep>
  <scstep>
   <time name="dav">   29.20   29.27</time>
   <time name="total">   29.70   29.78</time>
   <energy>
    <i name="e_fr_energy">   -191.48020858 </i>
    <i name="e_wo_entrp">   -191.28232555 </i>
    <i name="e_0_energy">   -191.38126707 </i>
   </energy>
  </scstep>
  <scstep>
   <time name="dav">   24.27   24.33</time>
   <time name="total">   24.78   24.85</time>
   <energy>
    <i name="e_fr_energy">   -191.48035414 </i>
    <i name="e_wo_entrp">   -191.28249722 </i>
    <i name="e_0_energy">   -191.38142568 </i>
   </energy>
  </scstep>
  <scstep>
   <time name="dav">   22.89   22.95</time>
   <time name="total">   23.40   23.46</time>
   <energy>
    <i name="e_fr_energy">   -191.48014362 </i>
    <i name="e_wo_entrp">   -191.28207142 </i>
    <i name="e_0_energy">   -191.38110752 </i>
   </energy>
  </scstep>
  <scstep>
   <time name="dav">   17.47   17.52</time>
   <time name="total">   17.51   17.56</time>
   <energy>
    <i name="alphaZ">     90.32603711 </i>
    <i name="ewald">  44722.64897170 </i>
    <i name="hartreedc"> -50734.09027791 </i>
    <i name="XCdc">   -233.35738596 </i>
    <i name="pawpsdc">   4085.09409308 </i>
    <i name="pawaedc">  -3501.02044142 </i>
    <i name="eentropy">     -0.19806222 </i>
    <i name="bandstr">  -1382.32557792 </i>
    <i name="atom">   6761.44252427 </i>
    <i name="e_fr_energy">   -191.48011927 </i>
    <i name="e_wo_entrp">   -191.28205705 </i>
    <i name="e_0_energy">   -191.38108816 </i>
   </energy>
  </scstep>
  <structure>
   <crystal>
    <varray name="basis" >
     <v>       8.27132669       4.76580634       0.00000000 </v>
     <v>      -8.28000610       4.78083114       0.00000000 </v>
     <v>       0.00000000       0.00000000      30.00000000 </v>
    </varray>
    <i name="volume">   2370.14165327 </i>
    <varray name="rec_basis" >
     <v>       0.06051323       0.10480394       0.00000000 </v>
     <v>      -0.06032306       0.10469408       0.00000000 </v>
     <v>       0.00000000       0.00000000       0.03333333 </v>
    </varray>
   </crystal>
   <varray name="positions" >
    <v>       0.65821105       0.65875045       0.00037016 </v>
    <v>      -0.00002133       0.65588348       0.00000331 </v>
    <v>       0.34153244       0.00048431      -0.00037772 </v>
    <v>       0.67457192       0.32644795      -0.00017428 </v>
    <v>       0.32552542       0.65204323       0.00018700 </v>
    <v>       0.99965933       0.33197183       0.00000030 </v>
    <v>       0.00010543       0.01238996      -0.00000836 </v>
    <v>       0.32678431       0.34192739      -0.00008740 </v>
    <v>       0.67314048       0.01522568       0.00008621 </v>
    <v>       0.11194341       0.22367802       0.94586564 </v>
    <v>       0.22550741       0.10965351       0.05044309 </v>
    <v>       0.10739840       0.55846228       0.94737422 </v>
    <v>       0.22098383       0.44293107       0.05456870 </v>
    <v>       0.11272814       0.88657549       0.95191375 </v>
    <v>       0.21875179       0.77961675       0.04988224 </v>
    <v>       0.44122160       0.21806368       0.94999034 </v>
    <v>       0.54966257       0.10755733       0.05285330 </v>
    <v>       0.45016939       0.55785538       0.94714464 </v>
    <v>       0.55746512       0.44813444       0.05036501 </v>
    <v>       0.44242713       0.89067350       0.94962807 </v>
    <v>       0.55869388       0.77681340       0.05001913 </v>
    <v>       0.77881400       0.22188683       0.94537686 </v>
    <v>       0.88789802       0.11153743       0.05413485 </v>
    <v>       0.78111858       0.56076672       0.95012625 </v>
    <v>       0.89244326       0.45097788       0.05265857 </v>
    <v>       0.77434671       0.88410358       0.94958700 </v>
    <v>       0.88713215       0.77380288       0.04806901 </v>
   </varray>
  </structure>
  <varray name="forces" >
   <v>       0.02289462      -0.34625306       0.03785339 </v>
[...]
      <set comment="kpoint 31">
       <r>  -17.5594    1.0000 </r>
       <r>  -17.2397    1.0000 </r>
       <r>  -16.9274    1.0000 </r>
       <r>  -16.7278    1.0000 </r>
       <r>  -16.5099    1.0000 </r>
       <r>  -16.4547    1.0000 </r>
       <r>  -16.3338    1.0000 </r>
       <r>  -16.1597    1.0000 </r>
       <r>  -16.0672    1.0000 </r>
       <r>  -16.0271    1.0000 </r>
       <r>  -15.9386    1.0000 </r>
       <r>  -15.8607    1.0000 </r>
       <r>  -15.7549    1.0000 </r>
       <r>  -15.7120    1.0000 </r>
       <r>  -15.6350    1.0000 </r>
       <r>  -15.4651    1.0000 </r>
       <r>  -15.4137    1.0000 </r>
       <r>  -15.2279    1.0000 </r>
       <r>   -9.7536    1.0000 </r>
       <r>   -9.4653    1.0000 </r>
       <r>   -9.3704    1.0000 </r>
       <r>   -9.0903    1.0000 </r>
       <r>   -8.8474    1.0000 </r>
       <r>   -8.6883    1.0000 </r>
       <r>   -8.5594    1.0000 </r>
       <r>   -8.4767    1.0000 </r>
       <r>   -8.3954    1.0000 </r>
       <r>   -8.3363    1.0000 </r>
       <r>   -8.3013    1.0000 </r>
       <r>   -8.1977    1.0000 </r>
       <r>   -8.1371    1.0000 </r>
       <r>   -8.0785    1.0000 </r>
       <r>   -7.9743    1.0000 </r>
       <r>   -7.8926    1.0000 </r>
       <r>   -7.8201    1.0000 </r>
       <r>   -7.7361    1.0000 </r>
       <r>   -7.6345    1.0000 </r>
       <r>   -7.4378    1.0000 </r>
       <r>   -7.2935    1.0000 </r>
       <r>   -7.2350    1.0000 </r>
       <r>   -7.1034    1.0000 </r>
       <r>   -7.0745    1.0000 </r>
       <r>   -7.0170    1.0000 </r>
       <r>   -6.9136    1.0000 </r>
       <r>   -6.8521    1.0000 </r>
       <r>   -6.7848    1.0000 </r>
       <r>   -6.6572    1.0000 </r>
       <r>   -6.6256    1.0000 </r>
       <r>   -6.5892    1.0000 </r>
       <r>   -6.4630    1.0000 </r>
       <r>   -6.4025    1.0000 </r>
       <r>   -6.3637    1.0000 </r>
       <r>   -6.2873    1.0000 </r>
       <r>   -6.2080    1.0000 </r>
       <r>   -6.1341    1.0000 </r>
       <r>   -6.0708    1.0000 </r>
       <r>   -5.9829    1.0000 </r>
       <r>   -5.9069    1.0000 </r>
       <r>   -5.8836    1.0000 </r>
       <r>   -5.7761    1.0000 </r>
       <r>   -5.6962    1.0000 </r>
       <r>   -5.6128    1.0000 </r>
       <r>   -5.5447    1.0000 </r>
       <r>   -5.3070    1.0000 </r>
       <r>   -5.2552    1.0000 </r>
       <r>   -5.1871    1.0000 </r>
       <r>   -5.0000    1.0000 </r>
       <r>   -4.8840    1.0000 </r>
       <r>   -4.8602    1.0000 </r>
       <r>   -4.6676    1.0000 </r>
       <r>   -4.5890    1.0000 </r>
       <r>   -4.5312    1.0000 </r>
       <r>   -4.4107    1.0000 </r>
       <r>   -4.2578    1.0000 </r>
       <r>   -4.1253    1.0000 </r>
       <r>   -4.0122    1.0000 </r>
       <r>   -3.8165    0.9995 </r>
       <r>   -3.7038    0.9939 </r>
       <r>   -3.5393    0.9102 </r>
       <r>   -3.4717    0.8061 </r>
       <r>   -2.9258    0.0014 </r>
       <r>   -2.8728    0.0004 </r>
       <r>   -2.7361    0.0000 </r>
       <r>   -2.5773    0.0000 </r>
       <r>   -2.5167    0.0000 </r>
       <r>   -2.3733    0.0000 </r>
       <r>   -2.2941    0.0000 </r>
       <r>   -2.2204    0.0000 </r>
       <r>   -2.1474    0.0000 </r>
       <r>   -1.9322    0.0000 </r>
       <r>   -1.7282    0.0000 </r>
       <r>   -1.6418    0.0000 </r>
       <r>   -1.4026    0.0000 </r>
       <r>   -1.3213    0.0000 </r>
       <r>   -1.2397    0.0000 </r>
       <r>   -1.2119    0.0000 </r>
       <r>   -1.0821    0.0000 </r>
       <r>   -1.0383    0.0000 </r>
       <r>   -0.9471    0.0000 </r>
       <r>   -0.9056    0.0000 </r>
       <r>   -0.7834    0.0000 </r>
       <r>   -0.7381    0.0000 </r>
       <r>   -0.7084    0.0000 </r>
       <r>   -0.5262    0.0000 </r>
       <r>   -0.4353    0.0000 </r>
       <r>   -0.3893    0.0000 </r>
       <r>   -0.1775    0.0000 </r>
       <r>   -0.1382    0.0000 </r>
       <r>   -0.0718    0.0000 </r>
       <r>    0.2761    0.0000 </r>
       <r>    0.4171    0.0000 </r>
       <r>    0.5421    0.0000 </r>
       <r>    0.6725    0.0000 </r>
       <r>    0.8984    0.0000 </r>
       <r>    1.0314    0.0000 </r>
       <r>    1.2858    0.0000 </r>
       <r>    1.5027    0.0000 </r>
       <r>    2.1265    0.0000 </r>
       <r>    2.3026    0.0000 </r>
       <r>    2.3884    0.0000 </r>
      </set>
      <set comment="kpoint 32">
       <r>  -17.5700    1.0000 </r>
       <r>  -17.1232    1.0000 </r>
       <r>  -17.0868    1.0000 </r>
       <r>  -16.7281    1.0000 </r>
       <r>  -16.4627    1.0000 </r>
       <r>  -16.4090    1.0000 </r>
       <r>  -16.2907    1.0000 </r>
       <r>  -16.1996    1.0000 </r>
       <r>  -16.0742    1.0000 </r>
       <r>  -16.0685    1.0000 </r>
       <r>  -15.9464    1.0000 </r>
       <r>  -15.8511    1.0000 </r>
       <r>  -15.7710    1.0000 </r>
       <r>  -15.6960    1.0000 </r>
       <r>  -15.6459    1.0000 </r>
       <r>  -15.4568    1.0000 </r>
       <r>  -15.4149    1.0000 </r>
       <r>  -15.2195    1.0000 </r>
       <r>   -9.6486    1.0000 </r>
       <r>   -9.6101    1.0000 </r>
       <r>   -9.4411    1.0000 </r>
       <r>   -9.0770    1.0000 </r>
       <r>   -8.7308    1.0000 </r>
       <r>   -8.5662    1.0000 </r>
       <r>   -8.5226    1.0000 </r>
       <r>   -8.4393    1.0000 </r>
       <r>   -8.3806    1.0000 </r>
       <r>   -8.3520    1.0000 </r>
       <r>   -8.3473    1.0000 </r>
       <r>   -8.2078    1.0000 </r>
       <r>   -8.1895    1.0000 </r>
       <r>   -8.1066    1.0000 </r>
       <r>   -8.0358    1.0000 </r>
       <r>   -7.9301    1.0000 </r>
       <r>   -7.8771    1.0000 </r>
       <r>   -7.7345    1.0000 </r>
       <r>   -7.5535    1.0000 </r>
       <r>   -7.4859    1.0000 </r>
       <r>   -7.3449    1.0000 </r>
       <r>   -7.2502    1.0000 </r>
       <r>   -7.0806    1.0000 </r>
       <r>   -7.0300    1.0000 </r>
       <r>   -6.9799    1.0000 </r>
       <r>   -6.9621    1.0000 </r>
       <r>   -6.8290    1.0000 </r>
       <r>   -6.8213    1.0000 </r>
       <r>   -6.6571    1.0000 </r>
       <r>   -6.6194    1.0000 </r>
       <r>   -6.5454    1.0000 </r>
       <r>   -6.5028    1.0000 </r>
       <r>   -6.3913    1.0000 </r>
       <r>   -6.3310    1.0000 </r>
       <r>   -6.2735    1.0000 </r>
       <r>   -6.2643    1.0000 </r>
       <r>   -6.0833    1.0000 </r>
       <r>   -6.0612    1.0000 </r>
       <r>   -5.9980    1.0000 </r>
       <r>   -5.9352    1.0000 </r>
       <r>   -5.8217    1.0000 </r>
       <r>   -5.7113    1.0000 </r>
       <r>   -5.6964    1.0000 </r>
       <r>   -5.5783    1.0000 </r>
       <r>   -5.5042    1.0000 </r>
       <r>   -5.3705    1.0000 </r>
       <r>   -5.3071    1.0000 </r>
       <r>   -5.1201    1.0000 </r>
       <r>   -5.0906    1.0000 </r>
       <r>   -4.9529    1.0000 </r>
       <r>   -4.8814    1.0000 </r>
       <r>   -4.6389    1.0000 </r>
       <r>   -4.5320    1.0000 </r>
       <r>   -4.5225    1.0000 </r>
       <r>   -4.3886    1.0000 </r>
       <r>   -4.3721    1.0000 </r>
       <r>   -4.1205    1.0000 </r>
       <r>   -4.0102    1.0000 </r>
       <r>   -3.8126    0.9995 </r>
       <r>   -3.6194    0.9718 </r>
       <r>   -3.5396    0.9105 </r>
       <r>   -3.5008    0.8575 </r>
       <r>   -2.9366    0.0017 </r>
       <r>   -2.8430    0.0002 </r>
       <r>   -2.7681    0.0000 </r>
       <r>   -2.5504    0.0000 </r>
       <r>   -2.5333    0.0000 </r>
       <r>   -2.3532    0.0000 </r>
       <r>   -2.2828    0.0000 </r>
       <r>   -2.2430    0.0000 </r>
       <r>   -2.1364    0.0000 </r>
       <r>   -1.9714    0.0000 </r>
       <r>   -1.6966    0.0000 </r>
       <r>   -1.6893    0.0000 </r>
       <r>   -1.3443    0.0000 </r>
       <r>   -1.3306    0.0000 </r>
       <r>   -1.2457    0.0000 </r>
       <r>   -1.2078    0.0000 </r>
       <r>   -1.0626    0.0000 </r>
       <r>   -1.0552    0.0000 </r>
       <r>   -0.9605    0.0000 </r>
       <r>   -0.9110    0.0000 </r>
       <r>   -0.8157    0.0000 </r>
       <r>   -0.7307    0.0000 </r>
       <r>   -0.7087    0.0000 </r>
       <r>   -0.4961    0.0000 </r>
       <r>   -0.4672    0.0000 </r>
       <r>   -0.2795    0.0000 </r>
       <r>   -0.2437    0.0000 </r>
       <r>   -0.1450    0.0000 </r>
       <r>   -0.0595    0.0000 </r>
       <r>    0.2955    0.0000 </r>
       <r>    0.4288    0.0000 </r>
       <r>    0.5228    0.0000 </r>
       <r>    0.6501    0.0000 </r>
       <r>    0.8893    0.0000 </r>
       <r>    1.0206    0.0000 </r>
       <r>    1.3151    0.0000 </r>
       <r>    1.4503    0.0000 </r>
       <r>    2.0974    0.0000 </r>
       <r>    2.2701    0.0000 </r>
       <r>    2.5650    0.0000 </r>
      </set>
      <set comment="kpoint 33">
       <r>  -17.5595    1.0000 </r>
       <r>  -17.2393    1.0000 </r>
       <r>  -16.9277    1.0000 </r>
       <r>  -16.7279    1.0000 </r>
       <r>  -16.5104    1.0000 </r>
       <r>  -16.4544    1.0000 </r>
       <r>  -16.3335    1.0000 </r>
       <r>  -16.1603    1.0000 </r>
       <r>  -16.0667    1.0000 </r>
       <r>  -16.0272    1.0000 </r>
       <r>  -15.9379    1.0000 </r>
       <r>  -15.8607    1.0000 </r>
       <r>  -15.7549    1.0000 </r>
       <r>  -15.7126    1.0000 </r>
       <r>  -15.6354    1.0000 </r>
       <r>  -15.4651    1.0000 </r>
       <r>  -15.4135    1.0000 </r>
       <r>  -15.2276    1.0000 </r>
       <r>   -9.7534    1.0000 </r>
       <r>   -9.4653    1.0000 </r>
       <r>   -9.3705    1.0000 </r>
       <r>   -9.0906    1.0000 </r>
       <r>   -8.8480    1.0000 </r>
       <r>   -8.6885    1.0000 </r>
       <r>   -8.5593    1.0000 </r>
       <r>   -8.4758    1.0000 </r>
       <r>   -8.3955    1.0000 </r>
       <r>   -8.3359    1.0000 </r>
       <r>   -8.3012    1.0000 </r>
       <r>   -8.1979    1.0000 </r>
       <r>   -8.1370    1.0000 </r>
       <r>   -8.0792    1.0000 </r>
       <r>   -7.9751    1.0000 </r>
       <r>   -7.8923    1.0000 </r>
       <r>   -7.8197    1.0000 </r>
       <r>   -7.7357    1.0000 </r>
       <r>   -7.6348    1.0000 </r>
       <r>   -7.4377    1.0000 </r>
       <r>   -7.2928    1.0000 </r>
       <r>   -7.2356    1.0000 </r>
       <r>   -7.1028    1.0000 </r>
       <r>   -7.0748    1.0000 </r>
       <r>   -7.0170    1.0000 </r>
       <r>   -6.9128    1.0000 </r>
       <r>   -6.8532    1.0000 </r>
       <r>   -6.7845    1.0000 </r>
       <r>   -6.6574    1.0000 </r>
       <r>   -6.6252    1.0000 </r>
       <r>   -6.5894    1.0000 </r>
       <r>   -6.4629    1.0000 </r>
       <r>   -6.4014    1.0000 </r>
       <r>   -6.3637    1.0000 </r>
       <r>   -6.2874    1.0000 </r>
       <r>   -6.2086    1.0000 </r>
       <r>   -6.1343    1.0000 </r>
       <r>   -6.0705    1.0000 </r>
       <r>   -5.9830    1.0000 </r>
       <r>   -5.9061    1.0000 </r>
       <r>   -5.8850    1.0000 </r>
       <r>   -5.7760    1.0000 </r>
       <r>   -5.6954    1.0000 </r>
       <r>   -5.6134    1.0000 </r>
       <r>   -5.5445    1.0000 </r>
       <r>   -5.3086    1.0000 </r>
       <r>   -5.2554    1.0000 </r>
       <r>   -5.1869    1.0000 </r>
       <r>   -4.9989    1.0000 </r>
       <r>   -4.8849    1.0000 </r>
       <r>   -4.8600    1.0000 </r>
       <r>   -4.6672    1.0000 </r>
       <r>   -4.5905    1.0000 </r>
       <r>   -4.5301    1.0000 </r>
       <r>   -4.4109    1.0000 </r>
       <r>   -4.2571    1.0000 </r>
       <r>   -4.1251    1.0000 </r>
       <r>   -4.0123    1.0000 </r>
       <r>   -3.8165    0.9995 </r>
       <r>   -3.7032    0.9938 </r>
       <r>   -3.5410    0.9121 </r>
       <r>   -3.4720    0.8067 </r>
       <r>   -2.9266    0.0014 </r>
       <r>   -2.8731    0.0004 </r>
       <r>   -2.7356    0.0000 </r>
       <r>   -2.5748    0.0000 </r>
       <r>   -2.5170    0.0000 </r>
       <r>   -2.3731    0.0000 </r>
       <r>   -2.2955    0.0000 </r>
       <r>   -2.2174    0.0000 </r>
       <r>   -2.1492    0.0000 </r>
       <r>   -1.9313    0.0000 </r>
       <r>   -1.7243    0.0000 </r>
       <r>   -1.6466    0.0000 </r>
       <r>   -1.4013    0.0000 </r>
       <r>   -1.3215    0.0000 </r>
       <r>   -1.2398    0.0000 </r>
       <r>   -1.2121    0.0000 </r>
       <r>   -1.0828    0.0000 </r>
       <r>   -1.0378    0.0000 </r>
       <r>   -0.9477    0.0000 </r>
       <r>   -0.9057    0.0000 </r>
       <r>   -0.7837    0.0000 </r>
       <r>   -0.7370    0.0000 </r>
       <r>   -0.7074    0.0000 </r>
       <r>   -0.5264    0.0000 </r>
       <r>   -0.4374    0.0000 </r>
       <r>   -0.3906    0.0000 </r>
       <r>   -0.1775    0.0000 </r>
       <r>   -0.1371    0.0000 </r>
       <r>   -0.0702    0.0000 </r>
       <r>    0.2759    0.0000 </r>
       <r>    0.4171    0.0000 </r>
       <r>    0.5424    0.0000 </r>
       <r>    0.6725    0.0000 </r>
       <r>    0.8983    0.0000 </r>
       <r>    1.0305    0.0000 </r>
       <r>    1.2855    0.0000 </r>
       <r>    1.5024    0.0000 </r>
       <r>    2.1264    0.0000 </r>
       <r>    2.3026    0.0000 </r>
       <r>    2.3883    0.0000 </r>
      </set>
      <set comment="kpoint 34">
       <r>  -17.5470    1.0000 </r>
       <r>  -17.2937    1.0000 </r>
       <r>  -16.7737    1.0000 </r>
       <r>  -16.7266    1.0000 </r>
       <r>  -16.6574    1.0000 </r>
       <r>  -16.4636    1.0000 </r>
       <r>  -16.3326    1.0000 </r>
       <r>  -16.1648    1.0000 </r>
       <r>  -16.0507    1.0000 </r>
       <r>  -15.9988    1.0000 </r>
       <r>  -15.9140    1.0000 </r>
       <r>  -15.8772    1.0000 </r>
       <r>  -15.7375    1.0000 </r>
       <r>  -15.7259    1.0000 </r>
       <r>  -15.6293    1.0000 </r>
       <r>  -15.4736    1.0000 </r>
       <r>  -15.4130    1.0000 </r>
       <r>  -15.2359    1.0000 </r>
       <r>   -9.7965    1.0000 </r>
       <r>   -9.3757    1.0000 </r>
       <r>   -9.2227    1.0000 </r>
       <r>   -9.1668    1.0000 </r>
       <r>   -8.9480    1.0000 </r>
       <r>   -8.8294    1.0000 </r>
       <r>   -8.5644    1.0000 </r>
       <r>   -8.5010    1.0000 </r>
       <r>   -8.4094    1.0000 </r>
       <r>   -8.3269    1.0000 </r>
       <r>   -8.2658    1.0000 </r>
       <r>   -8.1627    1.0000 </r>
       <r>   -8.1311    1.0000 </r>
       <r>   -8.0434    1.0000 </r>
       <r>   -7.9575    1.0000 </r>
       <r>   -7.9108    1.0000 </r>
       <r>   -7.7663    1.0000 </r>
       <r>   -7.7287    1.0000 </r>
       <r>   -7.5602    1.0000 </r>
       <r>   -7.4082    1.0000 </r>
       <r>   -7.3286    1.0000 </r>
       <r>   -7.2652    1.0000 </r>
       <r>   -7.1122    1.0000 </r>
       <r>   -7.0616    1.0000 </r>
       <r>   -7.0325    1.0000 </r>
       <r>   -6.9003    1.0000 </r>
       <r>   -6.8744    1.0000 </r>
       <r>   -6.7336    1.0000 </r>
       <r>   -6.6646    1.0000 </r>
       <r>   -6.6137    1.0000 </r>
       <r>   -6.5752    1.0000 </r>
       <r>   -6.5156    1.0000 </r>
       <r>   -6.4158    1.0000 </r>
       <r>   -6.3470    1.0000 </r>
       <r>   -6.3272    1.0000 </r>
       <r>   -6.2306    1.0000 </r>
       <r>   -6.1468    1.0000 </r>
       <r>   -6.0600    1.0000 </r>
       <r>   -5.9741    1.0000 </r>
       <r>   -5.9125    1.0000 </r>
       <r>   -5.8589    1.0000 </r>
       <r>   -5.8369    1.0000 </r>
       <r>   -5.7649    1.0000 </r>
       <r>   -5.5727    1.0000 </r>
       <r>   -5.5403    1.0000 </r>
       <r>   -5.3371    1.0000 </r>
       <r>   -5.3124    1.0000 </r>
       <r>   -5.1036    1.0000 </r>
       <r>   -4.9015    1.0000 </r>
       <r>   -4.8758    1.0000 </r>
       <r>   -4.8161    1.0000 </r>
       <r>   -4.7250    1.0000 </r>
       <r>   -4.6047    1.0000 </r>
       <r>   -4.5452    1.0000 </r>
       <r>   -4.4055    1.0000 </r>
       <r>   -4.1968    1.0000 </r>
       <r>   -4.1095    1.0000 </r>
       <r>   -4.0125    1.0000 </r>
       <r>   -3.8347    0.9997 </r>
       <r>   -3.7703    0.9985 </r>
       <r>   -3.5517    0.9236 </r>
       <r>   -3.4525    0.7665 </r>
       <r>   -2.9118    0.0010 </r>
       <r>   -2.8981    0.0007 </r>
       <r>   -2.7121    0.0000 </r>
       <r>   -2.5894    0.0000 </r>
       <r>   -2.5117    0.0000 </r>
       <r>   -2.3958    0.0000 </r>
       <r>   -2.2968    0.0000 </r>
       <r>   -2.1953    0.0000 </r>
       <r>   -2.1603    0.0000 </r>
       <r>   -1.8993    0.0000 </r>
       <r>   -1.7348    0.0000 </r>
       <r>   -1.6159    0.0000 </r>
       <r>   -1.4458    0.0000 </r>
       <r>   -1.3286    0.0000 </r>
       <r>   -1.2307    0.0000 </r>
       <r>   -1.2156    0.0000 </r>
       <r>   -1.0880    0.0000 </r>
       <r>   -1.0413    0.0000 </r>
       <r>   -0.9497    0.0000 </r>
       <r>   -0.8586    0.0000 </r>
       <r>   -0.8076    0.0000 </r>
       <r>   -0.7248    0.0000 </r>
       <r>   -0.6615    0.0000 </r>
       <r>   -0.5966    0.0000 </r>
       <r>   -0.4425    0.0000 </r>
       <r>   -0.4052    0.0000 </r>
       <r>   -0.1819    0.0000 </r>
       <r>   -0.1077    0.0000 </r>
       <r>   -0.0908    0.0000 </r>
       <r>    0.2779    0.0000 </r>
       <r>    0.3835    0.0000 </r>
       <r>    0.5736    0.0000 </r>
       <r>    0.6878    0.0000 </r>
       <r>    0.9067    0.0000 </r>
       <r>    1.0382    0.0000 </r>
       <r>    1.2718    0.0000 </r>
       <r>    1.5422    0.0000 </r>
       <r>    2.1902    0.0000 </r>
       <r>    2.2575    0.0000 </r>
       <r>    2.3974    0.0000 </r>
      </set>
     </set>
    </set>
   </array>
  </eigenvalues>
  <separator name="orbital magnetization" >
   <v name="MAGDIPOLOUT">      0.00000000      0.00000000      0.00000000</v>
  </separator>
 </calculation>
 <structure name="finalpos" >
  <crystal>
   <varray name="basis" >
    <v>       8.33900686       4.79619643       0.00000000 </v>
    <v>      -8.35521250       4.82427567       0.00000000 </v>
    <v>       0.00000000       0.00000000      30.00000000 </v>
   </varray>
   <i name="volume">   2409.08724907 </i>
   <varray name="rec_basis" >
    <v>       0.06007598       0.10404620       0.00000000 </v>
    <v>      -0.05972631       0.10384439       0.00000000 </v>
    <v>       0.00000000       0.00000000       0.03333333 </v>
   </varray>
  </crystal>
  <varray name="positions" >
   <v>       0.64187866       0.63110220      -0.00153570 </v>
   <v>       0.00009293       0.64281272       0.00001644 </v>
   <v>       0.35783153      -0.01115880       0.00159121 </v>
   <v>       0.68391587       0.32496680       0.00050863 </v>
   <v>       0.31598778       0.64103285      -0.00050078 </v>
   <v>       0.99993178       0.33593815      -0.00000537 </v>
   <v>      -0.00017251       0.03424731      -0.00003289 </v>
   <v>       0.31388911       0.34844587      -0.00036257 </v>
   <v>       0.68596082       0.03447243       0.00033819 </v>
   <v>       0.11148181       0.23059688       0.94324431 </v>
   <v>       0.22520280       0.11117520       0.04787697 </v>
   <v>       0.10875332       0.55982722       0.94538053 </v>
   <v>       0.21559049       0.44422280       0.05664275 </v>
   <v>       0.11384506       0.89096002       0.95822367 </v>
   <v>       0.21936606       0.77497571       0.05046213 </v>
   <v>       0.43754303       0.21744492       0.95640713 </v>
   <v>       0.55579202       0.10954718       0.05540555 </v>
   <v>       0.44413833       0.55374043       0.94460130 </v>
   <v>       0.54816829       0.43742523       0.04970713 </v>
   <v>       0.45163867       0.88914989       0.95028178 </v>
   <v>       0.56232259       0.77991267       0.04362880 </v>
   <v>       0.78429253       0.22861121       0.94334864 </v>
   <v>       0.88840343       0.11901549       0.05672393 </v>
   <v>       0.78052225       0.55564594       0.94961989 </v>
   <v>       0.89114806       0.45104820       0.05461989 </v>
   <v>       0.77462648       0.88597251       0.95204122 </v>
   <v>       0.88606325       0.77708344       0.04176712 </v>
  </varray>
 </structure>
</modeling>
