unknown system                          
           1
     8.857789    5.105336    0.000000
    -8.858927    5.107294    0.000000
     0.000000    0.000000   30.000000
   V    Mo   W    S 
   3   3   3  18
Direct configuration=     1
   0.66666669  0.66666669  0.00000000
   0.00000000  0.66666669  0.00000000
   0.33333334  0.00000000  0.00000000
   0.66666669  0.33333334  0.00000000
   0.33333334  0.66666669  0.00000000
   1.00000000  0.33333334  0.00000000
   0.00000000  0.00000000  0.00000000
   0.33333334  0.33333334  0.00000000
   0.66666669  0.00000000  0.00000000
   0.11068511  0.22244981  0.95539999
   0.22244981  0.11068511  0.04460000
   0.11068511  0.55578315  0.95539999
   0.22244981  0.44401845  0.04460000
   0.11068511  0.88911647  0.95539999
   0.22244981  0.77735180  0.04460000
   0.44401845  0.22244981  0.95539999
   0.55578315  0.11068511  0.04460000
   0.44401845  0.55578315  0.95539999
   0.55578315  0.44401845  0.04460000
   0.44401845  0.88911647  0.95539999
   0.55578315  0.77735180  0.04460000
   0.77735180  0.22244981  0.95539999
   0.88911647  0.11068511  0.04460000
   0.77735180  0.55578315  0.95539999
   0.88911647  0.44401845  0.04460000
   0.77735180  0.88911647  0.95539999
   0.88911647  0.77735180  0.04460000
unknown system                          
           1
     8.669019    4.998900    0.000000
    -8.669926    5.000458    0.000000
     0.000000    0.000000   30.000000
   V    Mo   W    S 
   3   3   3  18
Direct configuration=     2
   0.66597563  0.66550109 -0.00014914
   0.00003662  0.66470236  0.00000263
   0.33405978 -0.00042381  0.00014306
   0.66827932  0.33363816 -0.00009685
   0.33178399  0.66549298  0.00011151
   0.99984485  0.33466392  0.00000923
   0.00005176  0.00070284 -0.00001339
   0.33357345  0.33488948 -0.00024641
   0.66632453  0.00135400  0.00024172
   0.11156253  0.22179517  0.95073964
   0.22417558  0.10886251  0.04802014
   0.10860615  0.55783567  0.95195639
   0.22245141  0.44385316  0.04925093
   0.11275417  0.88708317  0.95308572
   0.22001676  0.77991471  0.04695689
   0.44166495  0.21813388  0.95201983
   0.55132297  0.10817904  0.04814040
   0.44843747  0.55661325  0.95186799
   0.55674973  0.44828898  0.04804096
   0.44287296  0.89157926  0.95202128
   0.55838333  0.77632971  0.04790809
   0.77733938  0.22126229  0.95075013
   0.88826581  0.11021715  0.04927340
   0.77956258  0.55988252  0.95310867
   0.89097720  0.44878392  0.04810627
   0.77588685  0.88487113  0.95191293
   0.88725467  0.77420794  0.04683785
unknown system                          
           1
     8.485483    4.897906    0.000000
    -8.486575    4.899789    0.000000
     0.000000    0.000000   30.000000
   V    Mo   W    S 
   3   3   3  18
Direct configuration=     3
   0.66563501  0.66511266 -0.00012570
   0.00004377  0.66408190  0.00000258
   0.33438850 -0.00048145  0.00011748
   0.66876842  0.33339368 -0.00013976
   0.33129441  0.66476172  0.00015460
   0.99983487  0.33480453  0.00001020
   0.00005435  0.00128320 -0.00001366
   0.33339905  0.33539344 -0.00026881
   0.66650910  0.00203515  0.00026685
   0.11166403  0.22172134  0.95071463
   0.22410037  0.10894492  0.04795093
   0.10854532  0.55792764  0.95186522
   0.22257127  0.44369092  0.04932044
   0.11264336  0.88717817  0.95322568
   0.21995278  0.77992448  0.04692906
   0.44146243  0.21813719  0.95209661
   0.55132301  0.10797524  0.04819495
   0.44844184  0.55646038  0.95181325
   0.55660184  0.44827698  0.04798921
   0.44304998  0.89171107  0.95206159
   0.55855465  0.77652734  0.04784237
   0.77722679  0.22100890  0.95067340
   0.88816399  0.11000408  0.04929427
   0.77966085  0.55996449  0.95312821
   0.89106995  0.44896839  0.04819251
   0.77591962  0.88500676  0.95199573
   0.88733490  0.77440133  0.04670806
unknown system                          
           1
     8.276235    4.774410    0.000000
    -8.279365    4.779822    0.000000
     0.000000    0.000000   30.000000
   V    Mo   W    S 
   3   3   3  18
Direct configuration=     4
   0.66395392  0.66364230  0.00002836
   0.00003024  0.66169401  0.00000426
   0.33600734 -0.00029014 -0.00003904
   0.67036811  0.33179174 -0.00022923
   0.32967850  0.66156833  0.00023959
   0.99977718  0.33462517  0.00000773
   0.00006083  0.00411077 -0.00001013
   0.33216119  0.33713571 -0.00023580
   0.66777766  0.00504843  0.00024024
   0.11166220  0.22194441  0.94894737
   0.22468026  0.10870504  0.04915822
   0.10794565  0.55863925  0.95006990
   0.22252970  0.44337164  0.05122179
   0.11294157  0.88669933  0.95243061
   0.21924813  0.78030882  0.04815328
   0.44079210  0.21709429  0.95097271
   0.55017927  0.10744217  0.04993768
   0.44960049  0.55721817  0.95006763
   0.55719738  0.44917775  0.04919851
   0.44255979  0.89200703  0.95081323
   0.55914040  0.77615543  0.04900728
   0.77728936  0.22082205  0.94874754
   0.88817659  0.11010141  0.05105128
   0.78049342  0.56105010  0.95187415
   0.89179199  0.45041799  0.04997172
   0.77521074  0.88411577  0.95083390
   0.88696045  0.77361745  0.04753715
unknown system                          
           1
     8.268753    4.764877    0.000000
    -8.276924    4.779022    0.000000
     0.000000    0.000000   30.000000
   V    Mo   W    S 
   3   3   3  18
Direct configuration=     5
   0.66022667  0.66063818  0.00035146
  -0.00001519  0.65754318  0.00000958
   0.33958731  0.00038116 -0.00036021
   0.67329862  0.32795455 -0.00020601
   0.32679903  0.65484341  0.00021877
   0.99965168  0.33313733 -0.00000177
   0.00007366  0.00971894 -0.00001602
   0.32892889  0.34060694 -0.00009701
   0.67103191  0.01177668  0.00008535
   0.11171453  0.22299753  0.94636309
   0.22543609  0.10891896  0.05058850
   0.10734458  0.55902271  0.94760421
   0.22182986  0.44309003  0.05401718
   0.11300334  0.88621279  0.95155912
   0.21847595  0.78014479  0.04989416
   0.44065561  0.21672234  0.94966628
   0.54923250  0.10736058  0.05248709
   0.45057933  0.55810485  0.94752333
   0.55792831  0.44945199  0.05055490
   0.44196975  0.89150001  0.94942461
   0.55922832  0.77601649  0.05034570
   0.77798844  0.22121773  0.94593300
   0.88813251  0.11107611  0.05364396
   0.78138927  0.56157464  0.95011106
   0.89250235  0.45161027  0.05242207
   0.77437783  0.88344006  0.94944712
   0.88684330  0.77315221  0.04843038
unknown system                          
           1
     8.271327    4.765806    0.000000
    -8.280006    4.780831    0.000000
     0.000000    0.000000   30.000000
   V    Mo   W    S 
   3   3   3  18
Direct configuration=     6
   0.65851089  0.65908524  0.00036057
  -0.00003137  0.65614086  0.00000324
   0.34122856  0.00052192 -0.00036638
   0.67433871  0.32663916 -0.00017361
   0.32577362  0.65246360  0.00018684
   0.99965020  0.33212789  0.00000087
   0.00009404  0.01196250 -0.00000802
   0.32713465  0.34173930 -0.00009316
   0.67281400  0.01469384  0.00009444
   0.11191607  0.22360916  0.94591432
   0.22550437  0.10954551  0.05049371
   0.10739174  0.55854648  0.94737748
   0.22110645  0.44295738  0.05452021
   0.11275876  0.88650226  0.95181994
   0.21870101  0.77966775  0.04991563
   0.44116449  0.21787448  0.94989881
   0.54959363  0.10753171  0.05282570
   0.45024431  0.55790729  0.94717388
   0.55756981  0.44833825  0.05042520
   0.44232888  0.89076663  0.94956338
   0.55875189  0.77667760  0.05010886
   0.77869362  0.22179515  0.94542396
   0.88792492  0.11149365  0.05408601
   0.78116851  0.56087065  0.95009383
   0.89244949  0.45106970  0.05265521
   0.77433925  0.88399194  0.94953654
   0.88709393  0.77369455  0.04816245
unknown system                          
           1
     8.239989    4.760124    0.000000
    -8.240200    4.760489    0.000000
     0.000000    0.000000   30.000000
   V    Mo   W    S 
   3   3   3  18
Direct configuration=     7
   0.65821105  0.65875045  0.00037016
  -0.00002133  0.65588348  0.00000331
   0.34153244  0.00048431 -0.00037772
   0.67457192  0.32644795 -0.00017428
   0.32552542  0.65204323  0.00018700
   0.99965933  0.33197183  0.00000030
   0.00010543  0.01238996 -0.00000836
   0.32678431  0.34192739 -0.00008740
   0.67314048  0.01522568  0.00008621
   0.11194341  0.22367802  0.94586564
   0.22550741  0.10965351  0.05044309
   0.10739840  0.55846228  0.94737422
   0.22098383  0.44293107  0.05456870
   0.11272814  0.88657549  0.95191375
   0.21875179  0.77961675  0.04988224
   0.44122160  0.21806368  0.94999034
   0.54966257  0.10755733  0.05285330
   0.45016939  0.55785538  0.94714464
   0.55746512  0.44813444  0.05036501
   0.44242713  0.89067350  0.94962807
   0.55869388  0.77681340  0.05001913
   0.77881400  0.22188683  0.94537686
   0.88789802  0.11153743  0.05413485
   0.78111858  0.56076672  0.95012625
   0.89244326  0.45097788  0.05265857
   0.77434671  0.88410358  0.94958700
   0.88713215  0.77380288  0.04806901
unknown system                          
           1
     8.222083    4.752271    0.000000
    -8.219773    4.748274    0.000000
     0.000000    0.000000   30.000000
   V    Mo   W    S 
   3   3   3  18
Direct configuration=     8
   0.66276787  0.66408068  0.00021604
   0.00020709  0.65937292 -0.00000940
   0.33772984  0.00145065 -0.00027048
   0.67134563  0.32819571 -0.00021094
   0.32822544  0.65744785  0.00021811
   0.99964200  0.33405355 -0.00000304
   0.00036895  0.00684607 -0.00002861
   0.33054208  0.33886845 -0.00007314
   0.66868068  0.00861096  0.00005836
   0.11160058  0.22289772  0.94653018
   0.22553968  0.10837503  0.05109953
   0.10734760  0.55930348  0.94751013
   0.22249990  0.44321149  0.05386777
   0.11314627  0.88576175  0.95068382
   0.21829523  0.78010067  0.05022604
   0.44070486  0.21580037  0.94875627
   0.54869982  0.10720189  0.05255746
   0.45090528  0.55838141  0.94738990
   0.55883077  0.45034467  0.05118873
   0.44094887  0.89173442  0.94890136
   0.55904465  0.77522519  0.05133479
   0.77728425  0.22069232  0.94606733
   0.88826984  0.11106803  0.05349496
   0.78172620  0.56159408  0.94970631
   0.89250875  0.45190880  0.05252478
   0.77439392  0.88299386  0.94886329
   0.88695843  0.77269243  0.04940036
unknown system                          
           1
     8.251946    4.758435    0.000000
    -8.256494    4.766306    0.000000
     0.000000    0.000000   30.000000
   V    Mo   W    S 
   3   3   3  18
Direct configuration=     9
   0.66528006  0.66774474  0.00017384
   0.00027701  0.66129432 -0.00000990
   0.33576109  0.00278280 -0.00022394
   0.66919013  0.32868349 -0.00020179
   0.33011832  0.66029754  0.00022675
   0.99971055  0.33530029  0.00002703
   0.00046795  0.00363017 -0.00002753
   0.33280492  0.33700759 -0.00008741
   0.66599233  0.00451501  0.00008391
   0.11147585  0.22258037  0.94681697
   0.22555079  0.10784524  0.05156323
   0.10737962  0.55958491  0.94752737
   0.22315257  0.44328974  0.05356249
   0.11328676  0.88538055  0.94992955
   0.21815390  0.78019779  0.05043420
   0.44058484  0.21488275  0.94797709
   0.54815253  0.10692962  0.05250489
   0.45127442  0.55853102  0.94751985
   0.55963692  0.45146369  0.05155174
   0.44007285  0.89209051  0.94850332
   0.55909360  0.77450924  0.05210399
   0.77662372  0.22007622  0.94633125
   0.88835349  0.11082602  0.05316228
   0.78192135  0.56169775  0.94950049
   0.89243166  0.45217469  0.05247301
   0.77447168  0.88262460  0.94839456
   0.88699556  0.77227381  0.05018270
unknown system                          
           1
     8.253270    4.757575    0.000000
    -8.260184    4.769548    0.000000
     0.000000    0.000000   30.000000
   V    Mo   W    S 
   3   3   3  18
Direct configuration=    10
   0.66084161  0.66226228  0.00032608
   0.00001861  0.65802747  0.00000793
   0.33933825  0.00151346 -0.00032241
   0.67245788  0.32725912 -0.00014552
   0.32745308  0.65511116  0.00018854
   0.99968608  0.33298658  0.00004328
   0.00014110  0.00901744 -0.00000258
   0.32911289  0.34018746 -0.00010302
   0.67053128  0.01114782  0.00012037
   0.11177204  0.22335664  0.94615745
   0.22554036  0.10905993  0.05088870
   0.10737632  0.55874907  0.94739357
   0.22166919  0.44306832  0.05425347
   0.11290098  0.88614980  0.95113448
   0.21852964  0.77968138  0.05012193
   0.44108587  0.21702208  0.94921512
   0.54918295  0.10737945  0.05277623
   0.45047087  0.55802526  0.94728106
   0.55828163  0.44932595  0.05076677
   0.44155814  0.89108081  0.94920037
   0.55876228  0.77598562  0.05078879
   0.77812294  0.22130498  0.94563530
   0.88804221  0.11135009  0.05379581
   0.78140742  0.56093793  0.94987828
   0.89243083  0.45131077  0.05259949
   0.77439471  0.88362011  0.94912840
   0.88710529  0.77329349  0.04887199
unknown system                          
           1
     8.250594    4.758457    0.000000
    -8.255701    4.767298    0.000000
     0.000000    0.000000   30.000000
   V    Mo   W    S 
   3   3   3  18
Direct configuration=    11
   0.65985720  0.66177151  0.00033873
   0.00002101  0.65714216 -0.00001048
   0.34038079  0.00201887 -0.00034653
   0.67309592  0.32618308 -0.00019185
   0.32678939  0.65345158  0.00018426
   0.99975070  0.33263074 -0.00001414
   0.00017221  0.01040279 -0.00002085
   0.32800101  0.34062654 -0.00006913
   0.67151813  0.01269710  0.00004935
   0.11186121  0.22354361  0.94597242
   0.22555269  0.10942969  0.05084219
   0.10742892  0.55849685  0.94735299
   0.22133736  0.44292147  0.05446369
   0.11278912  0.88639257  0.95134357
   0.21875989  0.77954001  0.05003053
   0.44128145  0.21767625  0.94936305
   0.54925005  0.10730090  0.05295150
   0.45045243  0.55792166  0.94713339
   0.55808132  0.44880891  0.05058800
   0.44175608  0.89075567  0.94937123
   0.55859137  0.77642534  0.05063827
   0.77844598  0.22147574  0.94548619
   0.88791927  0.11142113  0.05401441
   0.78114324  0.56056615  0.94999243
   0.89236663  0.45099502  0.05267614
   0.77437825  0.88397746  0.94919275
   0.88723284  0.77364167  0.04866778
unknown system                          
           1
     8.252538    4.759661    0.000000
    -8.257781    4.768740    0.000000
     0.000000    0.000000   30.000000
   V    Mo   W    S 
   3   3   3  18
Direct configuration=    12
   0.66031701  0.66154613  0.00028617
   0.00004108  0.65769591 -0.00002590
   0.33976339  0.00128195 -0.00031988
   0.67288645  0.32699596 -0.00023064
   0.32705503  0.65444926  0.00017537
   0.99967926  0.33258217 -0.00005589
   0.00015295  0.00982496 -0.00003902
   0.32849640  0.34052074 -0.00008549
   0.67118332  0.01214225  0.00002234
   0.11178998  0.22345999  0.94610194
   0.22560418  0.10926677  0.05082063
   0.10736119  0.55859128  0.94742180
   0.22155686  0.44306645  0.05433580
   0.11285215  0.88626208  0.95123764
   0.21862733  0.77959587  0.05010757
   0.44114647  0.21733112  0.94934281
   0.54924017  0.10739193  0.05285541
   0.45044708  0.55802809  0.94721481
   0.55810266  0.44902959  0.05073452
   0.44175351  0.89096542  0.94926789
   0.55872920  0.77622255  0.05068286
   0.77822197  0.22142740  0.94565103
   0.88800409  0.11139944  0.05393723
   0.78130053  0.56078434  0.94991533
   0.89245310  0.45118161  0.05264643
   0.77432254  0.88374753  0.94921807
   0.88712657  0.77342365  0.04878107
unknown system                          
           1
     8.252941    4.759248    0.000000
    -8.258633    4.769105    0.000000
     0.000000    0.000000   30.000000
   V    Mo   W    S 
   3   3   3  18
Direct configuration=    13
   0.65950936  0.65975643  0.00034020
   0.00010864  0.65736469  0.00003170
   0.34035887  0.00025464 -0.00030243
   0.67346208  0.32700756 -0.00009379
   0.32646784  0.65379101  0.00021256
   0.99963222  0.33179788  0.00008376
   0.00018054  0.01108234  0.00003601
   0.32770096  0.34129400 -0.00004949
   0.67208224  0.01371849  0.00015936
   0.11190860  0.22360656  0.94584040
   0.22564564  0.10949645  0.05066392
   0.10733792  0.55843385  0.94734037
   0.22125800  0.44315123  0.05447708
   0.11279514  0.88641987  0.95141956
   0.21866757  0.77946653  0.05012051
   0.44114069  0.21765596  0.94960096
   0.54949766  0.10757690  0.05288013
   0.45024213  0.55798098  0.94707345
   0.55777106  0.44853508  0.05067210
   0.44207569  0.89078341  0.94931202
   0.55870863  0.77654324  0.05038742
   0.77852774  0.22181546  0.94535532
   0.88792742  0.11148224  0.05408719
   0.78128169  0.56065250  0.94985043
   0.89249189  0.45103214  0.05262222
   0.77427306  0.88388128  0.94931979
   0.88716118  0.77363371  0.04855913
unknown system                          
           1
     8.252990    4.756233    0.000000
    -8.260752    4.769676    0.000000
     0.000000    0.000000   30.000000
   V    Mo   W    S 
   3   3   3  18
Direct configuration=    14
   0.65942996  0.66032612  0.00036137
   0.00006421  0.65713155  0.00003373
   0.34055768  0.00093623 -0.00031015
   0.67345958  0.32656522 -0.00008919
   0.32646171  0.65336705  0.00021865
   0.99968296  0.33199633  0.00008998
   0.00016701  0.01107937  0.00003947
   0.32761541  0.34119391 -0.00003260
   0.67207923  0.01365947  0.00015492
   0.11190240  0.22361933  0.94583404
   0.22560954  0.10952520  0.05069807
   0.10737831  0.55842156  0.94732063
   0.22121679  0.44304802  0.05449723
   0.11277783  0.88645066  0.95144185
   0.21873131  0.77946291  0.05005838
   0.44122853  0.21777035  0.94955199
   0.54947305  0.10750016  0.05290654
   0.45028146  0.55793650  0.94706299
   0.55784588  0.44854191  0.05059094
   0.44199517  0.89070727  0.94936679
   0.55862559  0.77655854  0.05042606
   0.77857934  0.22175073  0.94533092
   0.88791902  0.11149540  0.05407630
   0.78119823  0.56057125  0.94991388
   0.89243904  0.45096311  0.05263517
   0.77429979  0.88394834  0.94928340
   0.88719546  0.77368794  0.04853852
unknown system                          
           1
     8.265177    4.759534    0.000000
    -8.275933    4.778159    0.000000
     0.000000    0.000000   30.000000
   V    Mo   W    S 
   3   3   3  18
Direct configuration=    15
   0.65892869  0.66208042  0.00041919
  -0.00010293  0.65618427  0.00002338
   0.34141623  0.00327632 -0.00035579
   0.67362078  0.32494268 -0.00010455
   0.32630879  0.65162323  0.00021275
   0.99984477  0.33256948  0.00007132
   0.00009574  0.01129355  0.00002489
   0.32714407  0.34102661 -0.00000317
   0.67230527  0.01380497  0.00009915
   0.11190287  0.22370176  0.94580065
   0.22549449  0.10966721  0.05080925
   0.10752809  0.55834095  0.94725856
   0.22102048  0.44269486  0.05462039
   0.11270407  0.88658377  0.95155457
   0.21896426  0.77941545  0.04984885
   0.44158210  0.21826367  0.94942667
   0.54944239  0.10727688  0.05303483
   0.45036090  0.55776428  0.94701438
   0.55804687  0.44845867  0.05030535
   0.44179203  0.89039650  0.94958466
   0.55830726  0.77666078  0.05053215
   0.77879660  0.22157322  0.94524646
   0.88788064  0.11156702  0.05409894
   0.78088929  0.56025281  0.95014166
   0.89226285  0.45069480  0.05271153
   0.77437770  0.88419914  0.94918359
   0.88730014  0.77390115  0.04844023
unknown system                          
           1
     8.269162    4.758355    0.000000
    -8.283372    4.782964    0.000000
     0.000000    0.000000   30.000000
   V    Mo   W    S 
   3   3   3  18
Direct configuration=    16
   0.65755913  0.65995357  0.00040402
  -0.00006475  0.65520198 -0.00002624
   0.34256168  0.00243268 -0.00044418
   0.67486043  0.32454003 -0.00020802
   0.32513929  0.64997433  0.00013481
   0.99979193  0.33162515 -0.00006012
   0.00008470  0.01331472 -0.00004922
   0.32565396  0.34205714 -0.00007711
   0.67394556  0.01636300 -0.00002745
   0.11201754  0.22394028  0.94555364
   0.22554257  0.11002544  0.05064296
   0.10748404  0.55808609  0.94721552
   0.22052285  0.44266594  0.05498708
   0.11263798  0.88683418  0.95193024
   0.21904565  0.77928380  0.04984181
   0.44168538  0.21884328  0.94984701
   0.54963348  0.10739800  0.05325634
   0.45013806  0.55765569  0.94685487
   0.55757090  0.44770644  0.05019475
   0.44229666  0.89014587  0.94977981
   0.55824075  0.77716061  0.05017476
   0.77924374  0.22199829  0.94504142
   0.88777569  0.11170172  0.05448075
   0.78080797  0.56005279  0.95019734
   0.89233928  0.45052811  0.05285339
   0.77436543  0.88451863  0.94941609
   0.88733458  0.77420673  0.04808563
unknown system                          
           1
     8.273705    4.757006    0.000000
    -8.291097    4.787125    0.000000
     0.000000    0.000000   30.000000
   V    Mo   W    S 
   3   3   3  18
Direct configuration=    17
   0.65621504  0.66013020  0.00050951
  -0.00015376  0.65365443  0.00000275
   0.34421036  0.00403228 -0.00047797
   0.67572943  0.32284575 -0.00014048
   0.32417807  0.64742330  0.00018041
   0.99994275  0.33166408  0.00001706
   0.00006533  0.01482711  0.00000041
   0.32430496  0.34248198  0.00000910
   0.67503143  0.01800298  0.00001672
   0.11207289  0.22413680  0.94529990
   0.22545115  0.11033933  0.05055633
   0.10759456  0.55791844  0.94706344
   0.22001434  0.44230066  0.05524433
   0.11255991  0.88711682  0.95230759
   0.21931358  0.77921405  0.04958002
   0.44204629  0.21962519  0.95001939
   0.54980761  0.10729914  0.05339403
   0.45001520  0.55742647  0.94667180
   0.55743160  0.44713212  0.04979701
   0.44239236  0.88970205  0.95011493
   0.55786186  0.77755471  0.04998014
   0.77980999  0.22216521  0.94470215
   0.88770323  0.11184643  0.05463401
   0.78051479  0.55969171  0.95041676
   0.89221808  0.45020117  0.05294503
   0.77442487  0.88489598  0.94944222
   0.88745852  0.77458606  0.04771331
unknown system                          
           1
     8.279031    4.757510    0.000000
    -8.298510    4.791243    0.000000
     0.000000    0.000000   30.000000
   V    Mo   W    S 
   3   3   3  18
Direct configuration=    18
   0.65475767  0.65851602  0.00054114
  -0.00015936  0.65230407 -0.00000376
   0.34560576  0.00384750 -0.00052234
   0.67684015  0.32230262 -0.00015500
   0.32307446  0.64573357  0.00016959
   0.99994989  0.33119304  0.00000026
   0.00004109  0.01672224 -0.00001309
   0.32306049  0.34332634 -0.00000397
   0.67634701  0.02008064 -0.00000913
   0.11217532  0.22434677  0.94506847
   0.22544339  0.11064777  0.05038116
   0.10760227  0.55774761  0.94697293
   0.21951431  0.44217222  0.05550841
   0.11245513  0.88732910  0.95270841
   0.21939647  0.77911329  0.04949148
   0.44221360  0.22023182  0.95037830
   0.55006861  0.10741318  0.05353519
   0.44974271  0.55726379  0.94654224
   0.55704447  0.44642297  0.04958933
   0.44277938  0.88937835  0.95033462
   0.55769479  0.77798899  0.04963321
   0.78030666  0.22251588  0.94446626
   0.88760487  0.11197070  0.05488543
   0.78043197  0.55950316  0.95051247
   0.89222479  0.45003239  0.05304574
   0.77444537  0.88520586  0.94962539
   0.88755320  0.77490456  0.04731715
unknown system                          
           1
     8.307800    4.758259    0.000000
    -8.340420    4.814749    0.000000
     0.000000    0.000000   30.000000
   V    Mo   W    S 
   3   3   3  18
Direct configuration=    19
   0.65383208  0.65789400  0.00056506
  -0.00019752  0.65135661 -0.00000820
   0.34653238  0.00413440 -0.00054906
   0.67744317  0.32182808 -0.00016878
   0.32249227  0.64464051  0.00016930
   0.99997486  0.33110143 -0.00001005
   0.00000448  0.01776551 -0.00002019
   0.32239656  0.34371288 -0.00000459
   0.67703582  0.02110274 -0.00002733
   0.11222731  0.22448668  0.94492856
   0.22542750  0.11082672  0.05030467
   0.10763363  0.55765083  0.94689391
   0.21918574  0.44203076  0.05567980
   0.11238155  0.88745497  0.95295805
   0.21947279  0.77906186  0.04941008
   0.44235909  0.22063445  0.95055092
   0.55021977  0.10745087  0.05364026
   0.44960492  0.55715802  0.94645149
   0.55687454  0.44602582  0.04943907
   0.44295332  0.88914219  0.95047993
   0.55755745  0.77823368  0.04946373
   0.78064089  0.22269441  0.94431393
   0.88754878  0.11206627  0.05503284
   0.78034164  0.55937095  0.95059811
   0.89219826  0.44990160  0.05313234
   0.77445300  0.88538638  0.94970363
   0.88762020  0.77510185  0.04707240
unknown system                          
           1
     8.324111    4.757431    0.000000
    -8.366233    4.830390    0.000000
     0.000000    0.000000   30.000000
   V    Mo   W    S 
   3   3   3  18
Direct configuration=    20
   0.64728333  0.65291369  0.00072977
  -0.00046414  0.64467961  0.00000959
   0.35283733  0.00549324 -0.00064447
   0.68123110  0.31970454 -0.00018225
   0.31891047  0.63856268  0.00027156
   1.00001195  0.33068941  0.00004039
  -0.00025518  0.02468388  0.00001661
   0.31849086  0.34603210  0.00008155
   0.68134074  0.02723144 -0.00001321
   0.11259443  0.22548878  0.94405699
   0.22521708  0.11202206  0.04964521
   0.10792036  0.55707775  0.94637810
   0.21710190  0.44122838  0.05656198
   0.11170862  0.88821436  0.95476842
   0.21982370  0.77855350  0.04884790
   0.44329343  0.22318673  0.95177065
   0.55159700  0.10800076  0.05415983
   0.44847473  0.55650176  0.94588405
   0.55567939  0.44332939  0.04850341
   0.44420592  0.88753650  0.95134720
   0.55669729  0.77974194  0.04821851
   0.78283003  0.22400202  0.94338477
   0.88715791  0.11275544  0.05584333
   0.77989995  0.55853105  0.95114560
   0.89192106  0.44899134  0.05361257
   0.77452290  0.88658873  0.95030880
   0.88818230  0.77647333  0.04525304
unknown system                          
           1
     8.329834    4.760839    0.000000
    -8.372027    4.833925    0.000000
     0.000000    0.000000   30.000000
   V    Mo   W    S 
   3   3   3  18
Direct configuration=    21
   0.64304628  0.64918121  0.00068064
  -0.00045560  0.64122117 -0.00004332
   0.35714082  0.00583315 -0.00069949
   0.68285686  0.31909674 -0.00032310
   0.31715936  0.63643007  0.00023931
   0.99996704  0.33057800 -0.00007141
  -0.00028369  0.02858388 -0.00007673
   0.31662900  0.34689939 -0.00006541
   0.68314064  0.03000540 -0.00008874
   0.11303846  0.22670696  0.94364272
   0.22530298  0.11276883  0.04920846
   0.10822378  0.55645064  0.94601237
   0.21545908  0.44056148  0.05714436
   0.11146069  0.88868627  0.95612175
   0.21993158  0.77825005  0.04856633
   0.44352060  0.22434855  0.95267702
   0.55265996  0.10851433  0.05455249
   0.44740823  0.55597057  0.94551578
   0.55458359  0.44131714  0.04819605
   0.44530645  0.88678327  0.95176463
   0.55644723  0.78075743  0.04740524
   0.78443248  0.22494802  0.94298059
   0.88683515  0.11365002  0.05644076
   0.77978772  0.55809211  0.95142773
   0.89173403  0.44812776  0.05409913
   0.77446696  0.88727255  0.95074106
   0.88841477  0.77717945  0.04395169
unknown system                          
           1
     8.335408    4.765110    0.000000
    -8.376532    4.836341    0.000000
     0.000000    0.000000   30.000000
   V    Mo   W    S 
   3   3   3  18
Direct configuration=    22
   0.64152557  0.64741012  0.00063554
  -0.00046696  0.64037079  0.00000710
   0.35865350  0.00557088 -0.00055269
   0.68335203  0.31933952 -0.00021220
   0.31662960  0.63605718  0.00031991
   1.00002929  0.33092360  0.00006185
  -0.00032513  0.02957371  0.00001935
   0.31619327  0.34729654  0.00003948
   0.68362348  0.03076267  0.00003746
   0.11318457  0.22734010  0.94344672
   0.22536564  0.11300158  0.04898938
   0.10837403  0.55616984  0.94583910
   0.21504340  0.44042793  0.05709013
   0.11165583  0.88893353  0.95666921
   0.21995183  0.77814427  0.04848946
   0.44332539  0.22445017  0.95301481
   0.55319862  0.10883727  0.05462390
   0.44688678  0.55579210  0.94534909
   0.55398429  0.44058961  0.04817012
   0.44590034  0.88655464  0.95171943
   0.55658138  0.78100907  0.04703976
   0.78493904  0.22529496  0.94283735
   0.88668054  0.11410764  0.05647514
   0.77979021  0.55795763  0.95146470
   0.89153647  0.44768078  0.05415673
   0.77438001  0.88738369  0.95088050
   0.88822144  0.77723461  0.04338860
unknown system                          
           1
     8.338601    4.770363    0.000000
    -8.376970    4.836827    0.000000
     0.000000    0.000000   30.000000
   V    Mo   W    S 
   3   3   3  18
Direct configuration=    23
   0.64024715  0.64566419  0.00049469
  -0.00042616  0.63980550 -0.00001936
   0.35989657  0.00501874 -0.00046062
   0.68370319  0.31960590 -0.00023642
   0.31627606  0.63605371  0.00024381
   0.99998917  0.33127491 -0.00000288
  -0.00032241  0.03040023 -0.00003657
   0.31587353  0.34757640 -0.00005562
   0.68396641  0.03141003 -0.00000408
   0.11329790  0.22788249  0.94342794
   0.22544603  0.11310644  0.04884199
   0.10852725  0.55599740  0.94577009
   0.21468991  0.44040319  0.05715984
   0.11197764  0.88917633  0.95715648
   0.21995076  0.77804915  0.04849133
   0.44306609  0.22433018  0.95336508
   0.55368170  0.10915727  0.05476749
   0.44636224  0.55560258  0.94526732
   0.55338585  0.43994680  0.04824817
   0.44651406  0.88653977  0.95167090
   0.55681643  0.78118009  0.04672524
   0.78525618  0.22558818  0.94287363
   0.88659418  0.11457343  0.05658286
   0.77979713  0.55783596  0.95148499
   0.89139843  0.44739775  0.05427861
   0.77435502  0.88748334  0.95104608
   0.88789414  0.77715445  0.04291891
unknown system                          
           1
     8.340211    4.774110    0.000000
    -8.376185    4.836426    0.000000
     0.000000    0.000000   30.000000
   V    Mo   W    S 
   3   3   3  18
Direct configuration=    24
   0.63927137  0.64366781  0.00032690
  -0.00037423  0.63954081 -0.00001587
   0.36079772  0.00391176 -0.00027510
   0.68393802  0.32013905 -0.00018032
   0.31604381  0.63635915  0.00020693
   0.99999632  0.33177675  0.00000863
  -0.00032268  0.03105273 -0.00002464
   0.31560854  0.34782902 -0.00006909
   0.68424008  0.03191285  0.00004383
   0.11330561  0.22837497  0.94341647
   0.22545643  0.11308405  0.04868207
   0.10863372  0.55600815  0.94569390
   0.21454354  0.44058566  0.05710858
   0.11251013  0.88944780  0.95756748
   0.21992617  0.77793065  0.04856833
   0.44261932  0.22389767  0.95371423
   0.55421608  0.10950620  0.05488657
   0.44583629  0.55544440  0.94514145
   0.55265072  0.43943990  0.04840289
   0.44726856  0.88672203  0.95149741