   27   27  100    1
  0.9710400E+02  0.1002848E-08  0.1002848E-08  0.3000000E-08  0.5000000E-15
  1.000000000000000E-004
  CAR 
 unknown system                          
    159     34    120
 
  0.0000000E+00  0.0000000E+00  0.0000000E+00  0.1562500E-01
    1      -17.825428   1.000000
    2      -16.766276   1.000000
    3      -16.639407   1.000000
    4      -16.619854   1.000000
    5      -16.581276   1.000000
    6      -16.488456   1.000000
    7      -16.422809   1.000000
    8      -16.238267   1.000000
    9      -16.133883   1.000000
   10      -16.117817   1.000000
   11      -16.100704   1.000000
   12      -15.954076   1.000000
   13      -15.881425   1.000000
   14      -15.762706   1.000000
   15      -15.607006   1.000000
   16      -15.401725   1.000000
   17      -15.388573   1.000000
   18      -15.180853   1.000000
   19       -9.350345   1.000000
   20       -9.025692   1.000000
   21       -8.974171   1.000000
   22       -8.918699   1.000000
   23       -8.746721   1.000000
   24       -8.667005   1.000000
   25       -8.600343   1.000000
   26       -8.586854   1.000000
   27       -8.532004   1.000000
   28       -8.502681   1.000000
   29       -8.465552   1.000000
   30       -8.443615   1.000000
   31       -8.342164   1.000000
   32       -8.123679   1.000000
   33       -8.075567   1.000000
   34       -7.991906   1.000000
   35       -7.808062   1.000000
   36       -7.761232   1.000000
   37       -7.691226   1.000000
   38       -7.590356   1.000000
   39       -7.486255   1.000000
   40       -7.410657   1.000000
   41       -7.352288   1.000000
   42       -7.221495   1.000000
   43       -7.083542   1.000000
   44       -6.882235   1.000000
   45       -6.813389   1.000000
   46       -6.790787   1.000000
   47       -6.777388   1.000000
   48       -6.648140   1.000000
   49       -6.538833   1.000000
   50       -6.497754   1.000000
   51       -6.413187   1.000000
   52       -6.353801   1.000000
   53       -6.306528   1.000000
   54       -6.251567   1.000000
   55       -6.220770   1.000000
   56       -6.159162   1.000000
   57       -6.050105   1.000000
   58       -5.976530   1.000000
   59       -5.837895   1.000000
   60       -5.542901   1.000000
   61       -5.403793   1.000000
   62       -5.324387   1.000000
   63       -5.262988   1.000000
   64       -5.214241   1.000000
   65       -5.096542   1.000000
   66       -4.999580   1.000000
   67       -4.965406   1.000000
   68       -4.836360   1.000000
   69       -4.816564   1.000000
   70       -4.695882   1.000000
   71       -4.666685   1.000000
   72       -4.626985   1.000000
   73       -4.547295   1.000000
   74       -4.372047   1.000000
   75       -4.074830   1.000000
   76       -3.985159   0.999997
   77       -3.844580   0.999784
   78       -3.579132   0.949721
   79       -3.507016   0.871229
   80       -3.453394   0.774290
   81       -3.211185   0.168623
   82       -2.950372   0.002525
   83       -2.839363   0.000166
   84       -2.709283   0.000003
   85       -2.564003   0.000000
   86       -2.404531   0.000000
   87       -2.383384   0.000000
   88       -2.300246   0.000000
   89       -2.227672   0.000000
   90       -2.173411   0.000000
   91       -1.710327   0.000000
   92       -1.532659   0.000000
   93       -1.452741   0.000000
   94       -1.269668   0.000000
   95       -1.135240   0.000000
   96       -1.053015   0.000000
   97       -0.959684   0.000000
   98       -0.899643   0.000000
   99       -0.716870   0.000000
  100       -0.673698   0.000000
  101       -0.590070   0.000000
  102       -0.525123   0.000000
  103       -0.505920   0.000000
  104       -0.352002   0.000000
  105       -0.230311   0.000000
  106       -0.175611   0.000000
  107       -0.113957   0.000000
  108       -0.028737   0.000000
  109        0.030399   0.000000
  110        0.208186   0.000000
  111        0.345565   0.000000
  112        0.641567   0.000000
  113        0.769587   0.000000
  114        0.861789   0.000000
  115        0.912166   0.000000
  116        0.955895   0.000000
  117        1.269423   0.000000
  118        1.644967   0.000000
  119        1.834285   0.000000
  120        2.151256   0.000000
 
  0.1250000E+00  0.2775558E-16  0.0000000E+00  0.3125000E-01
    1      -17.801419   1.000000
    2      -16.794649   1.000000
    3      -16.760415   1.000000
    4      -16.617232   1.000000
    5      -16.557762   1.000000
    6      -16.502420   1.000000
    7      -16.377891   1.000000
    8      -16.257225   1.000000
    9      -16.136457   1.000000
   10      -16.082576   1.000000
   11      -16.034348   1.000000
   12      -15.943517   1.000000
   13      -15.867847   1.000000
   14      -15.756567   1.000000
   15      -15.616558   1.000000
   16      -15.412260   1.000000
   17      -15.396794   1.000000
   18      -15.183988   1.000000
   19       -9.342223   1.000000
   20       -9.152825   1.000000
   21       -9.067489   1.000000
   22       -9.014334   1.000000
   23       -8.787690   1.000000
   24       -8.713639   1.000000
   25       -8.644665   1.000000
   26       -8.558196   1.000000
   27       -8.536757   1.000000
   28       -8.502402   1.000000
   29       -8.402857   1.000000
   30       -8.285138   1.000000
   31       -8.243950   1.000000
   32       -8.073300   1.000000
   33       -8.022422   1.000000
   34       -7.915234   1.000000
   35       -7.781622   1.000000
   36       -7.751063   1.000000
   37       -7.624019   1.000000
   38       -7.597763   1.000000
   39       -7.513634   1.000000
   40       -7.449308   1.000000
   41       -7.330847   1.000000
   42       -7.176261   1.000000
   43       -7.135685   1.000000
   44       -6.959400   1.000000
   45       -6.859033   1.000000
   46       -6.780189   1.000000
   47       -6.725130   1.000000
   48       -6.662122   1.000000
   49       -6.518562   1.000000
   50       -6.458980   1.000000
   51       -6.426851   1.000000
   52       -6.398596   1.000000
   53       -6.300416   1.000000
   54       -6.254055   1.000000
   55       -6.245927   1.000000
   56       -6.121796   1.000000
   57       -6.043481   1.000000
   58       -5.957391   1.000000
   59       -5.797264   1.000000
   60       -5.520405   1.000000
   61       -5.436166   1.000000
   62       -5.423336   1.000000
   63       -5.325885   1.000000
   64       -5.237279   1.000000
   65       -5.086079   1.000000
   66       -5.036247   1.000000
   67       -4.949681   1.000000
   68       -4.905265   1.000000
   69       -4.807926   1.000000
   70       -4.730742   1.000000
   71       -4.647913   1.000000
   72       -4.589841   1.000000
   73       -4.473830   1.000000
   74       -4.284765   1.000000
   75       -4.067082   1.000000
   76       -3.942517   0.999987
   77       -3.881736   0.999922
   78       -3.691735   0.992623
   79       -3.585598   0.954283
   80       -3.445604   0.757402
   81       -3.119250   0.053732
   82       -2.930553   0.001620
   83       -2.810688   0.000075
   84       -2.687891   0.000002
   85       -2.559730   0.000000
   86       -2.410999   0.000000
   87       -2.355640   0.000000
   88       -2.288201   0.000000
   89       -2.223729   0.000000
   90       -2.146353   0.000000
   91       -1.709825   0.000000
   92       -1.540187   0.000000
   93       -1.449910   0.000000
   94       -1.273453   0.000000
   95       -1.124348   0.000000
   96       -1.045868   0.000000
   97       -0.990004   0.000000
   98       -0.899722   0.000000
   99       -0.789685   0.000000
  100       -0.732243   0.000000
  101       -0.640036   0.000000
  102       -0.573116   0.000000
  103       -0.538109   0.000000
  104       -0.406553   0.000000
  105       -0.310310   0.000000
  106       -0.191677   0.000000
  107       -0.129931   0.000000
  108       -0.021936   0.000000
  109        0.141481   0.000000
  110        0.171603   0.000000
  111        0.395634   0.000000
  112        0.547260   0.000000
  113        0.712340   0.000000
  114        0.900520   0.000000
  115        0.948786   0.000000
  116        1.002753   0.000000
  117        1.315252   0.000000
  118        1.687821   0.000000
  119        1.874496   0.000000
  120        2.186135   0.000000
 
  0.2500000E+00  0.5551115E-16  0.0000000E+00  0.3125000E-01
    1      -17.731425   1.000000
    2      -16.996101   1.000000
    3      -16.753508   1.000000
    4      -16.671019   1.000000
    5      -16.610974   1.000000
    6      -16.465098   1.000000
    7      -16.353562   1.000000
    8      -16.206938   1.000000
    9      -16.136996   1.000000
   10      -16.020107   1.000000
   11      -15.996516   1.000000
   12      -15.896637   1.000000
   13      -15.802149   1.000000
   14      -15.753183   1.000000
   15      -15.631259   1.000000
   16      -15.446502   1.000000
   17      -15.409027   1.000000
   18      -15.193044   1.000000
   19       -9.492675   1.000000
   20       -9.269435   1.000000
   21       -9.179710   1.000000
   22       -9.112318   1.000000
   23       -8.899218   1.000000
   24       -8.781236   1.000000
   25       -8.591604   1.000000
   26       -8.552516   1.000000
   27       -8.508625   1.000000
   28       -8.422869   1.000000
   29       -8.309673   1.000000
   30       -8.232425   1.000000
   31       -8.115235   1.000000
   32       -8.065101   1.000000
   33       -7.907716   1.000000
   34       -7.876716   1.000000
   35       -7.720851   1.000000
   36       -7.650040   1.000000
   37       -7.590474   1.000000
   38       -7.558455   1.000000
   39       -7.458005   1.000000
   40       -7.385499   1.000000
   41       -7.318670   1.000000
   42       -7.201759   1.000000
   43       -7.112836   1.000000
   44       -7.005955   1.000000
   45       -6.874564   1.000000
   46       -6.770785   1.000000
   47       -6.725156   1.000000
   48       -6.665973   1.000000
   49       -6.571423   1.000000
   50       -6.475142   1.000000
   51       -6.416926   1.000000
   52       -6.371523   1.000000
   53       -6.318528   1.000000
   54       -6.257771   1.000000
   55       -6.177533   1.000000
   56       -6.114067   1.000000
   57       -5.974744   1.000000
   58       -5.920864   1.000000
   59       -5.756010   1.000000
   60       -5.664647   1.000000
   61       -5.614471   1.000000
   62       -5.501391   1.000000
   63       -5.424821   1.000000
   64       -5.302176   1.000000
   65       -5.182296   1.000000
   66       -5.017551   1.000000
   67       -4.939842   1.000000
   68       -4.895859   1.000000
   69       -4.797634   1.000000
   70       -4.755566   1.000000
   71       -4.594723   1.000000
   72       -4.487723   1.000000
   73       -4.351131   1.000000
   74       -4.273049   1.000000
   75       -4.119780   1.000000
   76       -3.962475   0.999993
   77       -3.885247   0.999930
   78       -3.793495   0.999206
   79       -3.639026   0.980570
   80       -3.424519   0.708455
   81       -3.025396   0.011502
   82       -2.891865   0.000646
   83       -2.755460   0.000014
   84       -2.622351   0.000000
   85       -2.550772   0.000000
   86       -2.423309   0.000000
   87       -2.314778   0.000000
   88       -2.244729   0.000000
   89       -2.188193   0.000000
   90       -2.077271   0.000000
   91       -1.701566   0.000000
   92       -1.562646   0.000000
   93       -1.453431   0.000000
   94       -1.281420   0.000000
   95       -1.120715   0.000000
   96       -1.096208   0.000000
   97       -1.024660   0.000000
   98       -0.955882   0.000000
   99       -0.907582   0.000000
  100       -0.863643   0.000000
  101       -0.748588   0.000000
  102       -0.667376   0.000000
  103       -0.565007   0.000000
  104       -0.473270   0.000000
  105       -0.427083   0.000000
  106       -0.256402   0.000000
  107       -0.150108   0.000000
  108       -0.063931   0.000000
  109        0.093807   0.000000
  110        0.227569   0.000000
  111        0.406697   0.000000
  112        0.537085   0.000000
  113        0.610391   0.000000
  114        0.942969   0.000000
  115        1.001772   0.000000
  116        1.115315   0.000000
  117        1.421895   0.000000
  118        1.808023   0.000000
  119        1.989100   0.000000
  120        2.289615   0.000000
 
  0.3750000E+00  0.0000000E+00  0.0000000E+00  0.3125000E-01
    1      -17.625359   1.000000
    2      -17.194944   1.000000
    3      -16.743286   1.000000
    4      -16.711240   1.000000
    5      -16.654510   1.000000
    6      -16.454646   1.000000
    7      -16.346650   1.000000
    8      -16.169731   1.000000
    9      -16.090641   1.000000
   10      -16.002498   1.000000
   11      -15.941064   1.000000
   12      -15.874005   1.000000
   13      -15.785090   1.000000
   14      -15.722232   1.000000
   15      -15.632962   1.000000
   16      -15.470378   1.000000
   17      -15.423846   1.000000
   18      -15.204448   1.000000
   19       -9.698269   1.000000
   20       -9.344539   1.000000
   21       -9.225231   1.000000
   22       -9.106895   1.000000
   23       -8.987341   1.000000
   24       -8.819648   1.000000
   25       -8.557078   1.000000
   26       -8.510009   1.000000
   27       -8.433335   1.000000
   28       -8.338073   1.000000
   29       -8.289871   1.000000
   30       -8.224846   1.000000
   31       -8.143522   1.000000
   32       -8.046833   1.000000
   33       -7.934989   1.000000
   34       -7.830869   1.000000
   35       -7.776673   1.000000
   36       -7.659440   1.000000
   37       -7.580067   1.000000
   38       -7.456828   1.000000
   39       -7.361525   1.000000
   40       -7.278927   1.000000
   41       -7.205806   1.000000
   42       -7.144830   1.000000
   43       -7.051171   1.000000
   44       -6.959075   1.000000
   45       -6.842883   1.000000
   46       -6.821564   1.000000
   47       -6.721400   1.000000
   48       -6.670233   1.000000
   49       -6.547988   1.000000
   50       -6.471935   1.000000
   51       -6.413459   1.000000
   52       -6.383640   1.000000
   53       -6.321983   1.000000
   54       -6.209685   1.000000
   55       -6.117870   1.000000
   56       -6.058775   1.000000
   57       -5.967226   1.000000
   58       -5.913390   1.000000
   59       -5.869206   1.000000
   60       -5.802976   1.000000
   61       -5.760965   1.000000
   62       -5.584954   1.000000
   63       -5.534680   1.000000
   64       -5.345590   1.000000
   65       -5.196730   1.000000
   66       -5.013283   1.000000
   67       -4.933209   1.000000
   68       -4.874513   1.000000
   69       -4.800107   1.000000
   70       -4.749100   1.000000
   71       -4.609315   1.000000
   72       -4.529139   1.000000
   73       -4.407328   1.000000
   74       -4.190654   1.000000
   75       -4.082042   1.000000
   76       -4.025659   0.999999
   77       -3.891308   0.999941
   78       -3.731913   0.996760
   79       -3.598099   0.962156
   80       -3.447000   0.760479
   81       -2.974334   0.004214
   82       -2.856640   0.000264
   83       -2.714845   0.000004
   84       -2.563505   0.000000
   85       -2.536683   0.000000
   86       -2.421269   0.000000
   87       -2.282653   0.000000
   88       -2.189312   0.000000
   89       -2.140160   0.000000
   90       -1.987386   0.000000
   91       -1.674056   0.000000
   92       -1.597679   0.000000
   93       -1.481632   0.000000
   94       -1.327757   0.000000
   95       -1.208744   0.000000
   96       -1.123245   0.000000
   97       -1.100833   0.000000
   98       -1.043404   0.000000
   99       -0.960363   0.000000
  100       -0.928165   0.000000
  101       -0.834377   0.000000
  102       -0.713193   0.000000
  103       -0.596308   0.000000
  104       -0.537099   0.000000
  105       -0.459780   0.000000
  106       -0.340494   0.000000
  107       -0.186903   0.000000
  108       -0.135563   0.000000
  109       -0.020876   0.000000
  110        0.252452   0.000000
  111        0.378409   0.000000
  112        0.509582   0.000000
  113        0.654042   0.000000
  114        0.967529   0.000000
  115        1.065936   0.000000
  116        1.201029   0.000000
  117        1.521000   0.000000
  118        1.988670   0.000000
  119        2.164950   0.000000
  120        2.456438   0.000000
 
  0.5000000E+00  0.1110223E-15  0.0000000E+00  0.1562500E-01
    1      -17.544940   1.000000
    2      -17.308190   1.000000
    3      -16.738444   1.000000
    4      -16.724870   1.000000
    5      -16.671118   1.000000
    6      -16.454501   1.000000
    7      -16.343269   1.000000
    8      -16.170780   1.000000
    9      -16.042960   1.000000
   10      -15.994215   1.000000
   11      -15.940239   1.000000
   12      -15.851501   1.000000
   13      -15.777337   1.000000
   14      -15.737682   1.000000
   15      -15.624586   1.000000
   16      -15.469875   1.000000
   17      -15.431831   1.000000
   18      -15.210050   1.000000
   19       -9.773853   1.000000
   20       -9.382094   1.000000
   21       -9.247851   1.000000
   22       -9.082774   1.000000
   23       -9.007098   1.000000
   24       -8.831320   1.000000
   25       -8.546138   1.000000
   26       -8.502668   1.000000
   27       -8.407328   1.000000
   28       -8.337045   1.000000
   29       -8.253231   1.000000
   30       -8.173976   1.000000
   31       -8.151641   1.000000
   32       -8.038693   1.000000
   33       -7.969521   1.000000
   34       -7.912676   1.000000
   35       -7.782118   1.000000
   36       -7.717182   1.000000
   37       -7.550540   1.000000
   38       -7.399659   1.000000
   39       -7.331737   1.000000
   40       -7.255673   1.000000
   41       -7.115898   1.000000
   42       -7.067151   1.000000
   43       -7.008491   1.000000
   44       -6.951455   1.000000
   45       -6.867710   1.000000
   46       -6.759532   1.000000
   47       -6.713770   1.000000
   48       -6.654652   1.000000
   49       -6.567244   1.000000
   50       -6.500406   1.000000
   51       -6.414997   1.000000
   52       -6.367036   1.000000
   53       -6.293403   1.000000
   54       -6.257530   1.000000
   55       -6.119466   1.000000
   56       -6.086480   1.000000
   57       -5.973105   1.000000
   58       -5.919517   1.000000
   59       -5.863727   1.000000
   60       -5.821912   1.000000
   61       -5.781396   1.000000
   62       -5.604925   1.000000
   63       -5.487245   1.000000
   64       -5.357499   1.000000
   65       -5.308663   1.000000
   66       -5.121338   1.000000
   67       -4.918912   1.000000
   68       -4.892014   1.000000
   69       -4.803187   1.000000
   70       -4.751374   1.000000
   71       -4.614406   1.000000
   72       -4.512703   1.000000
   73       -4.385468   1.000000
   74       -4.199094   1.000000
   75       -4.071156   1.000000
   76       -4.035202   0.999999
   77       -3.847578   0.999800
   78       -3.714175   0.995299
   79       -3.564959   0.938456
   80       -3.473216   0.814129
   81       -2.958008   0.002981
   82       -2.840724   0.000172
   83       -2.700352   0.000002
   84       -2.565760   0.000000
   85       -2.516172   0.000000
   86       -2.402822   0.000000
   87       -2.270367   0.000000
   88       -2.165198   0.000000
   89       -2.117385   0.000000
   90       -1.941518   0.000000
   91       -1.662104   0.000000
   92       -1.603812   0.000000
   93       -1.518185   0.000000
   94       -1.364673   0.000000
   95       -1.220256   0.000000
   96       -1.188157   0.000000
   97       -1.135618   0.000000
   98       -1.054838   0.000000
   99       -0.982702   0.000000
  100       -0.946003   0.000000
  101       -0.855911   0.000000
  102       -0.726572   0.000000
  103       -0.607268   0.000000
  104       -0.560995   0.000000
  105       -0.468706   0.000000
  106       -0.369881   0.000000
  107       -0.210964   0.000000
  108       -0.158043   0.000000
  109       -0.081473   0.000000
  110        0.252899   0.000000
  111        0.373471   0.000000
  112        0.490814   0.000000
  113        0.686695   0.000000
  114        0.972457   0.000000
  115        1.093965   0.000000
  116        1.233634   0.000000
  117        1.559432   0.000000
  118        2.187942   0.000000
  119        2.257154   0.000000
  120        2.377528   0.000000
 
  0.0000000E+00  0.1250000E+00  0.0000000E+00  0.3125000E-01
    1      -17.801741   1.000000
    2      -16.785479   1.000000
    3      -16.748349   1.000000
    4      -16.646091   1.000000
    5      -16.587952   1.000000
    6      -16.429925   1.000000
    7      -16.410945   1.000000
    8      -16.262719   1.000000
    9      -16.138019   1.000000
   10      -16.095152   1.000000
   11      -16.003206   1.000000
   12      -15.956755   1.000000
   13      -15.868805   1.000000
   14      -15.755668   1.000000
   15      -15.614075   1.000000
   16      -15.417295   1.000000
   17      -15.391483   1.000000
   18      -15.186160   1.000000
   19       -9.348000   1.000000
   20       -9.174747   1.000000
   21       -9.027673   1.000000
   22       -9.004322   1.000000
   23       -8.789077   1.000000
   24       -8.721684   1.000000
   25       -8.648543   1.000000
   26       -8.582366   1.000000
   27       -8.545587   1.000000
   28       -8.504197   1.000000
   29       -8.406328   1.000000
   30       -8.273800   1.000000
   31       -8.237337   1.000000
   32       -8.074810   1.000000
   33       -8.005807   1.000000
   34       -7.893619   1.000000
   35       -7.797904   1.000000
   36       -7.749455   1.000000
   37       -7.665058   1.000000
   38       -7.579408   1.000000
   39       -7.482688   1.000000
   40       -7.460670   1.000000
   41       -7.304517   1.000000
   42       -7.220356   1.000000
   43       -7.138353   1.000000
   44       -6.945320   1.000000
   45       -6.839676   1.000000
   46       -6.788199   1.000000
   47       -6.733435   1.000000
   48       -6.682930   1.000000
   49       -6.505517   1.000000
   50       -6.452634   1.000000
   51       -6.425339   1.000000
   52       -6.399366   1.000000
   53       -6.332775   1.000000
   54       -6.256557   1.000000
   55       -6.218879   1.000000
   56       -6.109828   1.000000
   57       -6.043544   1.000000
   58       -5.963637   1.000000
   59       -5.797006   1.000000
   60       -5.517349   1.000000
   61       -5.446442   1.000000
   62       -5.408838   1.000000
   63       -5.323968   1.000000
   64       -5.254061   1.000000
   65       -5.078289   1.000000
   66       -5.031883   1.000000
   67       -4.942567   1.000000
   68       -4.886826   1.000000
   69       -4.813373   1.000000
   70       -4.730790   1.000000
   71       -4.675667   1.000000
   72       -4.604628   1.000000
   73       -4.455042   1.000000
   74       -4.281763   1.000000
   75       -4.072553   1.000000
   76       -3.948381   0.999989
   77       -3.861566   0.999863
   78       -3.696459   0.993278
   79       -3.633123   0.978511
   80       -3.408381   0.668133
   81       -3.115845   0.051153
   82       -2.937677   0.001904
   83       -2.797188   0.000051
   84       -2.712520   0.000004
   85       -2.553446   0.000000
   86       -2.393101   0.000000
   87       -2.368848   0.000000
   88       -2.296252   0.000000
   89       -2.220517   0.000000
   90       -2.140614   0.000000
   91       -1.715386   0.000000
   92       -1.534319   0.000000
   93       -1.444014   0.000000
   94       -1.275429   0.000000
   95       -1.126572   0.000000
   96       -1.055568   0.000000
   97       -0.963537   0.000000
   98       -0.910899   0.000000
   99       -0.777928   0.000000
  100       -0.728322   0.000000
  101       -0.626836   0.000000
  102       -0.611005   0.000000
  103       -0.537958   0.000000
  104       -0.408952   0.000000
  105       -0.373299   0.000000
  106       -0.145427   0.000000
  107       -0.094326   0.000000
  108       -0.008486   0.000000
  109        0.095012   0.000000
  110        0.201971   0.000000
  111        0.407863   0.000000
  112        0.521982   0.000000
  113        0.745009   0.000000
  114        0.878146   0.000000
  115        0.936802   0.000000
  116        1.046865   0.000000
  117        1.278884   0.000000
  118        1.687864   0.000000
  119        1.874531   0.000000
  120        2.186267   0.000000
 
  0.1250000E+00  0.1250000E+00  0.0000000E+00  0.3125000E-01
    1      -17.755683   1.000000
    2      -16.896847   1.000000
    3      -16.794520   1.000000
    4      -16.738659   1.000000
    5      -16.501719   1.000000
    6      -16.442024   1.000000
    7      -16.382857   1.000000
    8      -16.269442   1.000000
    9      -16.110580   1.000000
   10      -16.041133   1.000000
   11      -15.972138   1.000000
   12      -15.927777   1.000000
   13      -15.834612   1.000000
   14      -15.757396   1.000000
   15      -15.629170   1.000000
   16      -15.436619   1.000000
   17      -15.402263   1.000000
   18      -15.188704   1.000000
   19       -9.391144   1.000000
   20       -9.288823   1.000000
   21       -9.192877   1.000000
   22       -9.116311   1.000000
   23       -8.827314   1.000000
   24       -8.698972   1.000000
   25       -8.619901   1.000000
   26       -8.566803   1.000000
   27       -8.513646   1.000000
   28       -8.454361   1.000000
   29       -8.315998   1.000000
   30       -8.257858   1.000000
   31       -8.121199   1.000000
   32       -8.044398   1.000000
   33       -8.038046   1.000000
   34       -7.833576   1.000000
   35       -7.762783   1.000000
   36       -7.700010   1.000000
   37       -7.581720   1.000000
   38       -7.563412   1.000000
   39       -7.470005   1.000000
   40       -7.365012   1.000000
   41       -7.334062   1.000000
   42       -7.234963   1.000000
   43       -7.109503   1.000000
   44       -6.995908   1.000000
   45       -6.856376   1.000000
   46       -6.819419   1.000000
   47       -6.697291   1.000000
   48       -6.673559   1.000000
   49       -6.529148   1.000000
   50       -6.493229   1.000000
   51       -6.392632   1.000000
   52       -6.367092   1.000000
   53       -6.324379   1.000000
   54       -6.259115   1.000000
   55       -6.232448   1.000000
   56       -6.088611   1.000000
   57       -6.047440   1.000000
   58       -5.927153   1.000000
   59       -5.784562   1.000000
   60       -5.593761   1.000000
   61       -5.577258   1.000000
   62       -5.444305   1.000000
   63       -5.345797   1.000000
   64       -5.306031   1.000000
   65       -5.111185   1.000000
   66       -5.039417   1.000000
   67       -4.993497   1.000000
   68       -4.933218   1.000000
   69       -4.794915   1.000000
   70       -4.688522   1.000000
   71       -4.633875   1.000000
   72       -4.556536   1.000000
   73       -4.378366   1.000000
   74       -4.191472   1.000000
   75       -4.120071   1.000000
   76       -4.009924   0.999999
   77       -3.869359   0.999890
   78       -3.764928   0.998441
   79       -3.638816   0.980500
   80       -3.456521   0.780880
   81       -3.026333   0.011704
   82       -2.874444   0.000418
   83       -2.778222   0.000029
   84       -2.654849   0.000000
   85       -2.537784   0.000000
   86       -2.387692   0.000000
   87       -2.345177   0.000000
   88       -2.278206   0.000000
   89       -2.200575   0.000000
   90       -2.105359   0.000000
   91       -1.706687   0.000000
   92       -1.547116   0.000000
   93       -1.427712   0.000000
   94       -1.299732   0.000000
   95       -1.114362   0.000000
   96       -1.062259   0.000000
   97       -1.008982   0.000000
   98       -0.933450   0.000000
   99       -0.898799   0.000000
  100       -0.825307   0.000000
  101       -0.732761   0.000000
  102       -0.653467   0.000000
  103       -0.599341   0.000000
  104       -0.455792   0.000000
  105       -0.398035   0.000000
  106       -0.189890   0.000000
  107       -0.126473   0.000000
  108       -0.036901   0.000000
  109        0.117747   0.000000
  110        0.195543   0.000000
  111        0.395189   0.000000
  112        0.517142   0.000000
  113        0.674167   0.000000
  114        0.917859   0.000000
  115        0.957459   0.000000
  116        1.153701   0.000000
  117        1.331636   0.000000
  118        1.768150   0.000000
  119        1.953399   0.000000
  120        2.255201   0.000000
 
  0.2500000E+00  0.1250000E+00  0.0000000E+00  0.3125000E-01
    1      -17.667541   1.000000
    2      -17.081499   1.000000
    3      -16.874876   1.000000
    4      -16.736641   1.000000
    5      -16.476757   1.000000
    6      -16.448823   1.000000
    7      -16.362263   1.000000
    8      -16.210192   1.000000
    9      -16.109080   1.000000
   10      -16.028469   1.000000
   11      -15.940059   1.000000
   12      -15.872806   1.000000
   13      -15.778380   1.000000
   14      -15.749956   1.000000
   15      -15.647837   1.000000
   16      -15.457668   1.000000
   17      -15.416600   1.000000
   18      -15.196162   1.000000
   19       -9.584720   1.000000
   20       -9.404896   1.000000
   21       -9.301235   1.000000
   22       -9.134634   1.000000
   23       -8.863210   1.000000
   24       -8.682786   1.000000
   25       -8.544497   1.000000
   26       -8.500631   1.000000
   27       -8.451428   1.000000
   28       -8.393178   1.000000
   29       -8.270412   1.000000
   30       -8.265281   1.000000
   31       -8.144439   1.000000
   32       -8.066487   1.000000
   33       -7.958904   1.000000
   34       -7.911515   1.000000
   35       -7.807929   1.000000
   36       -7.635281   1.000000
   37       -7.585956   1.000000
   38       -7.437741   1.000000
   39       -7.419973   1.000000
   40       -7.290191   1.000000
   41       -7.224755   1.000000
   42       -7.162805   1.000000
   43       -7.044255   1.000000
   44       -6.971551   1.000000
   45       -6.868669   1.000000
   46       -6.808399   1.000000
   47       -6.719875   1.000000