       N       E                     dE             d eps       ncg     rms          rms(c)
DAV:   1     0.112468204391E+04    0.11247E+04   -0.35863E+04  8160   0.577E+02
DAV:   2    -0.341414802579E+01   -0.11281E+04   -0.10861E+04 11160   0.173E+02
DAV:   3    -0.199835862665E+03   -0.19642E+03   -0.18860E+03 10920   0.819E+01
DAV:   4    -0.208949022313E+03   -0.91132E+01   -0.88346E+01 12320   0.260E+01
DAV:   5    -0.209247249622E+03   -0.29823E+00   -0.29733E+00 11480   0.339E+00    0.274E+01
DAV:   6    -0.236619588126E+03   -0.27372E+02   -0.10821E+02 12880   0.603E+01    0.592E+01
DAV:   7    -0.196790903308E+03    0.39829E+02   -0.17637E+02 13200   0.152E+02    0.205E+01
DAV:   8    -0.190232142090E+03    0.65588E+01   -0.21394E+01 11840   0.135E+01    0.139E+01
DAV:   9    -0.188313746874E+03    0.19184E+01   -0.35987E+00 11880   0.636E+00    0.941E+00
DAV:  10    -0.187164068285E+03    0.11497E+01   -0.18166E+00 13280   0.749E+00    0.373E+00
DAV:  11    -0.187003082062E+03    0.16099E+00   -0.73149E-01 12680   0.269E+00    0.226E+00
DAV:  12    -0.187099605207E+03   -0.96523E-01   -0.54390E-01 13280   0.383E+00    0.469E+00
DAV:  13    -0.186940479121E+03    0.15913E+00   -0.53496E-01 13120   0.387E+00    0.199E+00
DAV:  14    -0.186900818231E+03    0.39661E-01   -0.97163E-02 13240   0.161E+00    0.834E-01
DAV:  15    -0.186898219033E+03    0.25992E-02   -0.42135E-02 12880   0.110E+00    0.995E-01
DAV:  16    -0.186891831022E+03    0.63880E-02   -0.18554E-02 12800   0.761E-01    0.517E-01
DAV:  17    -0.186889379473E+03    0.24515E-02   -0.67478E-03 13160   0.317E-01    0.235E-01
DAV:  18    -0.186888408044E+03    0.97143E-03   -0.38076E-03 12720   0.280E-01    0.208E-01
DAV:  19    -0.186888055968E+03    0.35208E-03   -0.10735E-03 11520   0.163E-01    0.481E-02
DAV:  20    -0.186888806358E+03   -0.75039E-03   -0.72473E-04  9240   0.595E-02    0.530E-02
DAV:  21    -0.186889363090E+03   -0.55673E-03   -0.23658E-04  8160   0.455E-02    0.288E-02
DAV:  22    -0.186890525870E+03   -0.11628E-02   -0.17811E-04  7480   0.394E-02    0.337E-02
DAV:  23    -0.186891749793E+03   -0.12239E-02   -0.13005E-04  7560   0.409E-02    0.125E-02
DAV:  24    -0.186892343386E+03   -0.59359E-03   -0.26260E-05  6840   0.132E-02    0.646E-03
DAV:  25    -0.186892729420E+03   -0.38603E-03   -0.15128E-05  5560   0.979E-03    0.420E-03
DAV:  26    -0.186892969794E+03   -0.24037E-03   -0.91197E-06  6840   0.694E-03    0.157E-03
DAV:  27    -0.186893069436E+03   -0.99641E-04   -0.35264E-06  7280   0.415E-03
   1 F= -.18689307E+03 E0= -.18672237E+03  d E =-.186893E+03
       N       E                     dE             d eps       ncg     rms          rms(c)
DAV:   1    -0.187533448220E+03   -0.64048E+00   -0.27208E+02  8160   0.351E+01    0.463E+00
DAV:   2    -0.189427918839E+03   -0.18945E+01   -0.20152E+01 12280   0.153E+01    0.879E+00
DAV:   3    -0.189395195110E+03    0.32724E-01   -0.40303E+00 12440   0.120E+01    0.665E+00
DAV:   4    -0.188788015968E+03    0.60718E+00   -0.61026E-01 12480   0.466E+00    0.174E+00
DAV:   5    -0.188895451978E+03   -0.10744E+00   -0.46314E-01 12040   0.334E+00    0.529E+00
DAV:   6    -0.188752748222E+03    0.14270E+00   -0.73612E-01 12840   0.427E+00    0.200E+00
DAV:   7    -0.188722629134E+03    0.30119E-01   -0.11713E-01 11880   0.145E+00    0.119E+00
DAV:   8    -0.188711798782E+03    0.10830E-01   -0.57808E-02 13240   0.131E+00    0.116E+00
DAV:   9    -0.188701944911E+03    0.98539E-02   -0.19240E-02 11880   0.778E-01    0.326E-01
DAV:  10    -0.188701310953E+03    0.63396E-03   -0.35412E-03 11720   0.207E-01    0.213E-01
DAV:  11    -0.188700733642E+03    0.57731E-03   -0.24343E-03 12440   0.180E-01    0.107E-01
DAV:  12    -0.188700852499E+03   -0.11886E-03   -0.90543E-04 11360   0.953E-02    0.853E-02
DAV:  13    -0.188700784727E+03    0.67773E-04   -0.23744E-04  7960   0.558E-02
   2 F= -.18870078E+03 E0= -.18856175E+03  d E =-.180772E+01
       N       E                     dE             d eps       ncg     rms          rms(c)
DAV:   1    -0.190619750328E+03   -0.19189E+01   -0.31250E+01  8960   0.142E+01    0.442E+00
DAV:   2    -0.190566068633E+03    0.53682E-01   -0.27483E+00 11200   0.942E+00    0.719E+00
DAV:   3    -0.190105934328E+03    0.46013E+00   -0.13295E+00 12360   0.857E+00    0.420E+00
DAV:   4    -0.189897282672E+03    0.20865E+00   -0.72167E-01 12800   0.424E+00    0.252E+00
DAV:   5    -0.189876441998E+03    0.20841E-01   -0.38040E-01 12280   0.315E+00    0.283E+00
DAV:   6    -0.189799595943E+03    0.76846E-01   -0.15020E-01 12640   0.248E+00    0.711E-01
DAV:   7    -0.189793163277E+03    0.64327E-02   -0.13820E-02 11520   0.518E-01    0.207E-01
DAV:   8    -0.189793591722E+03   -0.42845E-03   -0.35007E-03 12040   0.275E-01    0.283E-01
DAV:   9    -0.189793207800E+03    0.38392E-03   -0.18032E-03 10800   0.280E-01    0.159E-01
DAV:  10    -0.189793400195E+03   -0.19240E-03   -0.77963E-04  9680   0.133E-01    0.107E-01
DAV:  11    -0.189793199899E+03    0.20030E-03   -0.35330E-04  8800   0.686E-02    0.218E-02
DAV:  12    -0.189793217045E+03   -0.17145E-04   -0.59140E-05  7120   0.249E-02
   3 F= -.18979322E+03 E0= -.18967478E+03  d E =-.109243E+01
       N       E                     dE             d eps       ncg     rms          rms(c)
DAV:   1    -0.191372487157E+03   -0.15793E+01   -0.78062E+01  8160   0.201E+01    0.460E+00
DAV:   2    -0.191206268503E+03    0.16622E+00   -0.54114E+00 13200   0.783E+00    0.472E+00
DAV:   3    -0.191316007467E+03   -0.10974E+00   -0.16077E+00 12200   0.911E+00    0.653E+00
DAV:   4    -0.190941964226E+03    0.37404E+00   -0.13737E+00 12440   0.753E+00    0.301E+00
DAV:   5    -0.190897828289E+03    0.44136E-01   -0.45589E-01 12560   0.405E+00    0.295E+00
DAV:   6    -0.190806363910E+03    0.91464E-01   -0.21432E-01 12240   0.321E+00    0.123E+00
DAV:   7    -0.190792324491E+03    0.14039E-01   -0.47019E-02 12720   0.112E+00    0.438E-01
DAV:   8    -0.190791604007E+03    0.72048E-03   -0.10602E-02 11440   0.594E-01    0.506E-01
DAV:   9    -0.190789424830E+03    0.21792E-02   -0.43098E-03 11240   0.449E-01    0.149E-01
DAV:  10    -0.190789691453E+03   -0.26662E-03   -0.12514E-03 11360   0.134E-01    0.920E-02
DAV:  11    -0.190789570354E+03    0.12110E-03   -0.48197E-04  9760   0.803E-02    0.450E-02
DAV:  12    -0.190789567415E+03    0.29389E-05   -0.10348E-04  6960   0.395E-02
   4 F= -.19078957E+03 E0= -.19068462E+03  d E =-.996350E+00
       N       E                     dE             d eps       ncg     rms          rms(c)
DAV:   1    -0.192094998173E+03   -0.13054E+01   -0.16084E+02  8160   0.283E+01    0.557E+00
DAV:   2    -0.191862255349E+03    0.23274E+00   -0.92175E+00 11480   0.806E+00    0.388E+00
DAV:   3    -0.192062142254E+03   -0.19989E+00   -0.20597E+00 11200   0.869E+00    0.805E+00
DAV:   4    -0.191747430927E+03    0.31471E+00   -0.28793E+00 11440   0.107E+01    0.445E+00
DAV:   5    -0.191572585440E+03    0.17485E+00   -0.74172E-01 12320   0.548E+00    0.321E+00
DAV:   6    -0.191447383152E+03    0.12520E+00   -0.27404E-01 12240   0.376E+00    0.126E+00
DAV:   7    -0.191433136842E+03    0.14246E-01   -0.61888E-02 12280   0.131E+00    0.511E-01
DAV:   8    -0.191428982201E+03    0.41546E-02   -0.10442E-02 10720   0.482E-01    0.239E-01
DAV:   9    -0.191430386603E+03   -0.14044E-02   -0.51569E-03 12720   0.490E-01    0.423E-01
DAV:  10    -0.191428892547E+03    0.14941E-02   -0.37366E-03 11200   0.379E-01    0.641E-02
DAV:  11    -0.191428961656E+03   -0.69108E-04   -0.37846E-04  9600   0.724E-02
   5 F= -.19142896E+03 E0= -.19132354E+03  d E =-.639394E+00
       N       E                     dE             d eps       ncg     rms          rms(c)
DAV:   1    -0.191477970057E+03   -0.49078E-01   -0.40539E+00  8160   0.426E+00    0.591E-01
DAV:   2    -0.191530821001E+03   -0.52851E-01   -0.24774E-01 13280   0.268E+00    0.199E+00
DAV:   3    -0.191489042577E+03    0.41778E-01   -0.88716E-02 12440   0.209E+00    0.383E-01
DAV:   4    -0.191490624309E+03   -0.15817E-02   -0.12331E-02 11400   0.698E-01    0.588E-01
DAV:   5    -0.191487175935E+03    0.34484E-02   -0.74184E-03 10280   0.570E-01    0.176E-01
DAV:   6    -0.191487158919E+03    0.17016E-04   -0.17295E-03 10440   0.171E-01    0.126E-01
DAV:   7    -0.191486864338E+03    0.29458E-03   -0.92150E-04 10200   0.126E-01    0.717E-02
DAV:   8    -0.191486862586E+03    0.17519E-05   -0.29210E-04  7840   0.111E-01
   6 F= -.19148686E+03 E0= -.19137910E+03  d E =-.579009E-01
       N       E                     dE             d eps       ncg     rms          rms(c)
DAV:   1    -0.191539968684E+03   -0.53104E-01   -0.47651E+00  8160   0.462E+00    0.579E-01
DAV:   2    -0.191575028229E+03   -0.35060E-01   -0.17873E-01 13600   0.204E+00    0.161E+00
DAV:   3    -0.191546890388E+03    0.28138E-01   -0.68934E-02 12480   0.187E+00    0.436E-01
DAV:   4    -0.191546555674E+03    0.33471E-03   -0.90464E-03 11160   0.549E-01    0.451E-01
DAV:   5    -0.191545107051E+03    0.14486E-02   -0.71852E-03 10760   0.554E-01    0.286E-01
DAV:   6    -0.191544473029E+03    0.63402E-03   -0.24949E-03 10000   0.269E-01    0.115E-01
DAV:   7    -0.191544304970E+03    0.16806E-03   -0.78269E-04 10520   0.116E-01    0.631E-02
DAV:   8    -0.191544317660E+03   -0.12691E-04   -0.29985E-04  8320   0.114E-01
   7 F= -.19154432E+03 E0= -.19143467E+03  d E =-.574551E-01
       N       E                     dE             d eps       ncg     rms          rms(c)
DAV:   1    -0.191550130571E+03   -0.58256E-02   -0.66046E-02  8160   0.566E-01    0.979E-02
DAV:   2    -0.191550518246E+03   -0.38768E-03   -0.35441E-03 11520   0.264E-01    0.195E-01
DAV:   3    -0.191550153156E+03    0.36509E-03   -0.11697E-03 10240   0.246E-01    0.801E-02
DAV:   4    -0.191550124327E+03    0.28829E-04   -0.27894E-04  6200   0.106E-01
   8 F= -.19155012E+03 E0= -.19144051E+03  d E =-.580667E-02
       N       E                     dE             d eps       ncg     rms          rms(c)
DAV:   1    -0.191529760558E+03    0.20393E-01   -0.66519E+00  8160   0.575E+00    0.119E+00
DAV:   2    -0.191560853193E+03   -0.31093E-01   -0.43844E-01 12720   0.306E+00    0.209E+00
DAV:   3    -0.191518503819E+03    0.42349E-01   -0.15400E-01 12280   0.285E+00    0.107E+00
DAV:   4    -0.191515425911E+03    0.30779E-02   -0.72165E-02 11560   0.159E+00    0.122E+00
DAV:   5    -0.191506678313E+03    0.87476E-02   -0.62819E-02 10760   0.154E+00    0.767E-01
DAV:   6    -0.191499084636E+03    0.75937E-02   -0.17186E-02 10280   0.722E-01    0.144E-01
DAV:   7    -0.191499175008E+03   -0.90372E-04   -0.31964E-03 11920   0.248E-01    0.168E-01
DAV:   8    -0.191499083896E+03    0.91111E-04   -0.15461E-03 10520   0.262E-01    0.158E-01
DAV:   9    -0.191498824350E+03    0.25955E-03   -0.44712E-04  8520   0.140E-01    0.302E-02
DAV:  10    -0.191498861000E+03   -0.36650E-04   -0.80545E-05  6200   0.328E-02
   9 F= -.19149886E+03 E0= -.19139031E+03  d E =0.512633E-01
       N       E                     dE             d eps       ncg     rms          rms(c)
DAV:   1    -0.191474193155E+03    0.24631E-01   -0.95296E-01  8160   0.209E+00    0.315E-01
DAV:   2    -0.191479609352E+03   -0.54162E-02   -0.43791E-02 13560   0.975E-01    0.666E-01
DAV:   3    -0.191474898634E+03    0.47107E-02   -0.13474E-02 12360   0.834E-01    0.245E-01
DAV:   4    -0.191474740208E+03    0.15843E-03   -0.33971E-03 11200   0.346E-01    0.269E-01
DAV:   5    -0.191474272717E+03    0.46749E-03   -0.31187E-03  9920   0.363E-01    0.188E-01
DAV:   6    -0.191473929300E+03    0.34342E-03   -0.12223E-03  9680   0.193E-01    0.632E-02
DAV:   7    -0.191473966705E+03   -0.37405E-04   -0.38820E-04  7600   0.116E-01
  10 F= -.19147397E+03 E0= -.19136608E+03  d E =0.248943E-01
       N       E                     dE             d eps       ncg     rms          rms(c)
DAV:   1    -0.191713012090E+03   -0.23908E+00   -0.39668E+01  8160   0.138E+01    0.224E+00
DAV:   2    -0.192042572437E+03   -0.32956E+00   -0.18062E+00 13600   0.728E+00    0.604E+00
DAV:   3    -0.191703120804E+03    0.33945E+00   -0.93967E-01 12240   0.687E+00    0.151E+00
DAV:   4    -0.191715720804E+03   -0.12600E-01   -0.18257E-01 12320   0.270E+00    0.239E+00
DAV:   5    -0.191669219611E+03    0.46501E-01   -0.17792E-01 11320   0.279E+00    0.127E+00
DAV:   6    -0.191652233444E+03    0.16986E-01   -0.59497E-02 11680   0.128E+00    0.507E-01
DAV:   7    -0.191654658389E+03   -0.24249E-02   -0.24736E-02 11960   0.984E-01    0.768E-01
DAV:   8    -0.191649137196E+03    0.55212E-02   -0.13442E-02 11600   0.763E-01    0.185E-01
DAV:   9    -0.191648590767E+03    0.54643E-03   -0.12247E-03 10200   0.160E-01    0.678E-02
DAV:  10    -0.191648584451E+03    0.63163E-05   -0.42963E-04  9680   0.651E-02
  11 F= -.19164858E+03 E0= -.19154037E+03  d E =-.174618E+00
       N       E                     dE             d eps       ncg     rms          rms(c)
DAV:   1    -0.191612075269E+03    0.36515E-01   -0.58425E+00  8160   0.527E+00    0.932E-01
DAV:   2    -0.191648103402E+03   -0.36028E-01   -0.28257E-01 12720   0.276E+00    0.197E+00
DAV:   3    -0.191604049729E+03    0.44054E-01   -0.10235E-01 12240   0.237E+00    0.665E-01
DAV:   4    -0.191603529217E+03    0.52051E-03   -0.33826E-02 11400   0.104E+00    0.805E-01
DAV:   5    -0.191600589861E+03    0.29394E-02   -0.28885E-02 12240   0.115E+00    0.683E-01
DAV:   6    -0.191595445049E+03    0.51448E-02   -0.12903E-02 11080   0.674E-01    0.167E-01
DAV:   7    -0.191595708010E+03   -0.26296E-03   -0.32082E-03 12680   0.311E-01    0.240E-01
DAV:   8    -0.191595224824E+03    0.48319E-03   -0.16798E-03 10200   0.268E-01    0.906E-02
DAV:   9    -0.191595145061E+03    0.79763E-04   -0.19325E-04  5920   0.801E-02
  12 F= -.19159515E+03 E0= -.19148469E+03  d E =0.534394E-01
       N       E                     dE             d eps       ncg     rms          rms(c)
DAV:   1    -0.191682542017E+03   -0.87317E-01   -0.89971E+00  8160   0.641E+00    0.828E-01
DAV:   2    -0.191736311496E+03   -0.53769E-01   -0.32033E-01 13600   0.283E+00    0.210E+00
DAV:   3    -0.191691384781E+03    0.44927E-01   -0.11402E-01 12240   0.245E+00    0.590E-01
DAV:   4    -0.191691809582E+03   -0.42480E-03   -0.24493E-02 12320   0.914E-01    0.769E-01
DAV:   5    -0.191687169501E+03    0.46401E-02   -0.20235E-02 11880   0.965E-01    0.438E-01
DAV:   6    -0.191685472712E+03    0.16968E-02   -0.67958E-03 11560   0.467E-01    0.211E-01
DAV:   7    -0.191686147814E+03   -0.67510E-03   -0.46278E-03 11560   0.441E-01    0.361E-01
DAV:   8    -0.191684860765E+03    0.12870E-02   -0.24110E-03  9760   0.330E-01    0.542E-02
DAV:   9    -0.191684842885E+03    0.17879E-04   -0.12856E-04  5680   0.509E-02
  13 F= -.19168484E+03 E0= -.19157822E+03  d E =-.896978E-01
       N       E                     dE             d eps       ncg     rms          rms(c)
DAV:   1    -0.191708548088E+03   -0.23687E-01   -0.58533E-01  8160   0.166E+00    0.240E-01
DAV:   2    -0.191713936339E+03   -0.53883E-02   -0.28255E-02 13080   0.882E-01    0.698E-01
DAV:   3    -0.191709306268E+03    0.46301E-02   -0.11231E-02 11160   0.735E-01    0.202E-01
DAV:   4    -0.191709612953E+03   -0.30669E-03   -0.28901E-03 10080   0.359E-01    0.278E-01
DAV:   5    -0.191708797512E+03    0.81544E-03   -0.16129E-03  9600   0.291E-01    0.797E-02
DAV:   6    -0.191708754870E+03    0.42642E-04   -0.42272E-04  8120   0.860E-02
  14 F= -.19170875E+03 E0= -.19160333E+03  d E =-.239120E-01
       N       E                     dE             d eps       ncg     rms          rms(c)
DAV:   1    -0.191701129860E+03    0.76677E-02   -0.35345E-01  8160   0.128E+00    0.177E-01
DAV:   2    -0.191702850686E+03   -0.17208E-02   -0.12343E-02 12720   0.543E-01    0.410E-01
DAV:   3    -0.191701211777E+03    0.16389E-02   -0.51299E-03 11440   0.496E-01    0.174E-01
DAV:   4    -0.191701181753E+03    0.30024E-04   -0.15418E-03  9520   0.249E-01    0.179E-01
DAV:   5    -0.191700983485E+03    0.19827E-03   -0.11265E-03  9560   0.230E-01    0.116E-01
DAV:   6    -0.191700816454E+03    0.16703E-03   -0.40442E-04  7760   0.119E-01    0.252E-02
DAV:   7    -0.191700822994E+03   -0.65398E-05   -0.81389E-05  6920   0.368E-02
  15 F= -.19170082E+03 E0= -.19159469E+03  d E =0.793188E-02
       N       E                     dE             d eps       ncg     rms          rms(c)
DAV:   1    -0.191776093513E+03   -0.75277E-01   -0.64508E+00  8160   0.540E+00    0.626E-01
DAV:   2    -0.191806910524E+03   -0.30817E-01   -0.20185E-01 13440   0.207E+00    0.155E+00
DAV:   3    -0.191785414574E+03    0.21496E-01   -0.68795E-02 12040   0.182E+00    0.598E-01
DAV:   4    -0.191785931975E+03   -0.51740E-03   -0.20008E-02 12240   0.928E-01    0.690E-01
DAV:   5    -0.191781167917E+03    0.47641E-02   -0.10870E-02 12120   0.777E-01    0.252E-01
DAV:   6    -0.191780587081E+03    0.58084E-03   -0.33322E-03 10760   0.291E-01    0.147E-01
DAV:   7    -0.191780982844E+03   -0.39576E-03   -0.24131E-03 12360   0.333E-01    0.261E-01
DAV:   8    -0.191780268292E+03    0.71455E-03   -0.11619E-03  9520   0.254E-01    0.410E-02
DAV:   9    -0.191780261967E+03    0.63246E-05   -0.77899E-05  5880   0.404E-02
  16 F= -.19178026E+03 E0= -.19167972E+03  d E =-.794390E-01
       N       E                     dE             d eps       ncg     rms          rms(c)
DAV:   1    -0.191833059651E+03   -0.52791E-01   -0.30850E+00  8160   0.374E+00    0.434E-01
DAV:   2    -0.191849337914E+03   -0.16278E-01   -0.10597E-01 12320   0.146E+00    0.113E+00
DAV:   3    -0.191838561358E+03    0.10777E-01   -0.35448E-02 11880   0.129E+00    0.429E-01
DAV:   4    -0.191838331517E+03    0.22984E-03   -0.85433E-03 11320   0.624E-01    0.424E-01
DAV:   5    -0.191836423462E+03    0.19081E-02   -0.40126E-03 11000   0.506E-01    0.163E-01
DAV:   6    -0.191836205036E+03    0.21843E-03   -0.14215E-03 11600   0.189E-01    0.844E-02
DAV:   7    -0.191836103459E+03    0.10158E-03   -0.50015E-04  9920   0.890E-02    0.461E-02
DAV:   8    -0.191836093321E+03    0.10138E-04   -0.11212E-04  7560   0.787E-02
  17 F= -.19183609E+03 E0= -.19173927E+03  d E =-.558314E-01
       N       E                     dE             d eps       ncg     rms          rms(c)
DAV:   1    -0.191952725186E+03   -0.11662E+00   -0.82844E+01  8160   0.196E+01    0.209E+00
DAV:   2    -0.192293954747E+03   -0.34123E+00   -0.27348E+00 11520   0.658E+00    0.501E+00
DAV:   3    -0.192138668776E+03    0.15529E+00   -0.89358E-01 12040   0.635E+00    0.215E+00
DAV:   4    -0.192104272788E+03    0.34396E-01   -0.14072E-01 12480   0.281E+00    0.163E+00
DAV:   5    -0.192073359166E+03    0.30914E-01   -0.65287E-02 11520   0.227E+00    0.868E-01
DAV:   6    -0.192067150689E+03    0.62085E-02   -0.37629E-02 12720   0.109E+00    0.486E-01
DAV:   7    -0.192064893978E+03    0.22567E-02   -0.15324E-02 12720   0.769E-01    0.481E-01
DAV:   8    -0.192062617674E+03    0.22763E-02   -0.54523E-03 12680   0.613E-01    0.176E-01
DAV:   9    -0.192062238652E+03    0.37902E-03   -0.11013E-03 11400   0.195E-01    0.774E-02
DAV:  10    -0.192062096674E+03    0.14198E-03   -0.49805E-04  9920   0.788E-02    0.437E-02
DAV:  11    -0.192062105224E+03   -0.85506E-05   -0.15597E-04  7040   0.458E-02
  18 F= -.19206211E+03 E0= -.19197707E+03  d E =-.226012E+00
       N       E                     dE             d eps       ncg     rms          rms(c)
DAV:   1    -0.192031077800E+03    0.31019E-01   -0.69065E+00  8160   0.553E+00    0.536E-01
DAV:   2    -0.192045285421E+03   -0.14208E-01   -0.13404E-01 12760   0.137E+00    0.994E-01
DAV:   3    -0.192037867988E+03    0.74174E-02   -0.33583E-02 12360   0.138E+00    0.632E-01
DAV:   4    -0.192033814598E+03    0.40534E-02   -0.10681E-02 12240   0.636E-01    0.240E-01
DAV:   5    -0.192033605349E+03    0.20925E-03   -0.43365E-03 12640   0.438E-01    0.270E-01
DAV:   6    -0.192033223332E+03    0.38202E-03   -0.30065E-03 11360   0.475E-01    0.206E-01
DAV:   7    -0.192032766555E+03    0.45678E-03   -0.10222E-03 10640   0.242E-01    0.948E-02
DAV:   8    -0.192032702166E+03    0.64389E-04   -0.30513E-04  8920   0.143E-01
  19 F= -.19203270E+03 E0= -.19194482E+03  d E =0.294031E-01
       N       E                     dE             d eps       ncg     rms          rms(c)
DAV:   1    -0.192058554117E+03   -0.25788E-01   -0.52833E+01  8160   0.155E+01    0.160E+00
DAV:   2    -0.192233043973E+03   -0.17449E+00   -0.16739E+00 11120   0.468E+00    0.306E+00
DAV:   3    -0.192182426975E+03    0.50617E-01   -0.39874E-01 12000   0.450E+00    0.181E+00
DAV:   4    -0.192145766220E+03    0.36661E-01   -0.72225E-02 12600   0.190E+00    0.845E-01
DAV:   5    -0.192141792443E+03    0.39738E-02   -0.32159E-02 12080   0.157E+00    0.814E-01
DAV:   6    -0.192136314930E+03    0.54775E-02   -0.24094E-02 12640   0.114E+00    0.400E-01
DAV:   7    -0.192134023230E+03    0.22917E-02   -0.79856E-03 12640   0.539E-01    0.285E-01
DAV:   8    -0.192133347555E+03    0.67568E-03   -0.26574E-03 12600   0.414E-01    0.150E-01
DAV:   9    -0.192133065805E+03    0.28175E-03   -0.66496E-04 10240   0.171E-01    0.589E-02
DAV:  10    -0.192132984339E+03    0.81466E-04   -0.31867E-04  9440   0.608E-02
  20 F= -.19213298E+03 E0= -.19204981E+03  d E =-.100282E+00
       N       E                     dE             d eps       ncg     rms          rms(c)
DAV:   1    -0.192127184298E+03    0.58815E-02   -0.40651E+00  8160   0.427E+00    0.434E-01
DAV:   2    -0.192136038749E+03   -0.88545E-02   -0.97604E-02 11080   0.112E+00    0.699E-01
DAV:   3    -0.192133579488E+03    0.24593E-02   -0.21657E-02 12640   0.112E+00    0.553E-01
DAV:   4    -0.192130346083E+03    0.32334E-02   -0.70891E-03 12400   0.563E-01    0.170E-01
DAV:   5    -0.192130228350E+03    0.11773E-03   -0.21309E-03 11840   0.263E-01    0.188E-01
DAV:   6    -0.192130271060E+03   -0.42711E-04   -0.17941E-03 11720   0.364E-01    0.198E-01
DAV:   7    -0.192129848966E+03    0.42209E-03   -0.75946E-04  9480   0.228E-01    0.638E-02
DAV:   8    -0.192129811289E+03    0.37677E-04   -0.12379E-04  6600   0.971E-02
  21 F= -.19212981E+03 E0= -.19204492E+03  d E =0.317305E-02
       N       E                     dE             d eps       ncg     rms          rms(c)
DAV:   1    -0.192141432226E+03   -0.11583E-01   -0.10167E+00  8160   0.215E+00    0.236E-01
DAV:   2    -0.192144107312E+03   -0.26751E-02   -0.35645E-02 11760   0.570E-01    0.272E-01
DAV:   3    -0.192144560633E+03   -0.45332E-03   -0.49139E-03 12400   0.570E-01    0.359E-01
DAV:   4    -0.192143172164E+03    0.13885E-02   -0.21126E-03 10200   0.366E-01    0.103E-01
DAV:   5    -0.192143248656E+03   -0.76492E-04   -0.84240E-04  9920   0.222E-01
  22 F= -.19214325E+03 E0= -.19205860E+03  d E =-.134374E-01
       N       E                     dE             d eps       ncg     rms          rms(c)
DAV:   1    -0.192146581685E+03   -0.34095E-02   -0.83324E-02  8160   0.646E-01    0.116E-01
DAV:   2    -0.192147803437E+03   -0.12218E-02   -0.49183E-03 12720   0.401E-01    0.322E-01
DAV:   3    -0.192146640092E+03    0.11633E-02   -0.21777E-03 10960   0.386E-01    0.888E-02
DAV:   4    -0.192146599759E+03    0.40333E-04   -0.35159E-04  8520   0.113E-01
  23 F= -.19214660E+03 E0= -.19206231E+03  d E =-.335110E-02
       N       E                     dE             d eps       ncg     rms          rms(c)
DAV:   1    -0.192155919088E+03   -0.92790E-02   -0.68631E-01  8160   0.177E+00    0.217E-01
DAV:   2    -0.192158784174E+03   -0.28651E-02   -0.26533E-02 11400   0.641E-01    0.364E-01
DAV:   3    -0.192157656929E+03    0.11272E-02   -0.45237E-03 12040   0.553E-01    0.214E-01
DAV:   4    -0.192157457085E+03    0.19984E-03   -0.15134E-03 10080   0.296E-01    0.182E-01
DAV:   5    -0.192157142704E+03    0.31438E-03   -0.79152E-04  9400   0.245E-01    0.824E-02
DAV:   6    -0.192157161496E+03   -0.18792E-04   -0.36044E-04  8720   0.117E-01
  24 F= -.19215716E+03 E0= -.19207295E+03  d E =-.105617E-01
       N       E                     dE             d eps       ncg     rms          rms(c)
DAV:   1    -0.192161565414E+03   -0.44227E-02   -0.14260E-01  8160   0.831E-01    0.119E-01
DAV:   2    -0.192161834766E+03   -0.26935E-03   -0.61360E-03 10280   0.238E-01    0.108E-01
DAV:   3    -0.192161986833E+03   -0.15207E-03   -0.10496E-03 11240   0.256E-01    0.176E-01
DAV:   4    -0.192161669184E+03    0.31765E-03   -0.51974E-04  8360   0.203E-01    0.574E-02
DAV:   5    -0.192161658351E+03    0.10833E-04   -0.15186E-04  5680   0.934E-02
  25 F= -.19216166E+03 E0= -.19207747E+03  d E =-.449685E-02
       N       E                     dE             d eps       ncg     rms          rms(c)
DAV:   1    -0.192169435887E+03   -0.77667E-02   -0.55441E-01  8160   0.159E+00    0.182E-01
DAV:   2    -0.192170874242E+03   -0.14384E-02   -0.19972E-02 10560   0.401E-01    0.166E-01
DAV:   3    -0.192171114697E+03   -0.24046E-03   -0.19432E-03 12840   0.392E-01    0.221E-01
DAV:   4    -0.192170475882E+03    0.63882E-03   -0.73758E-04 10160   0.254E-01    0.554E-02
DAV:   5    -0.192170617561E+03   -0.14168E-03   -0.38910E-04  9040   0.145E-01    0.117E-01
DAV:   6    -0.192170492828E+03    0.12473E-03   -0.33935E-04  8360   0.161E-01    0.476E-02
DAV:   7    -0.192170463428E+03    0.29401E-04   -0.62393E-05  5720   0.523E-02
  26 F= -.19217046E+03 E0= -.19208649E+03  d E =-.880508E-02
       N       E                     dE             d eps       ncg     rms          rms(c)
DAV:   1    -0.192179346406E+03   -0.88536E-02   -0.92513E-01  8160   0.207E+00    0.240E-01
DAV:   2    -0.192181606984E+03   -0.22606E-02   -0.34616E-02 11240   0.481E-01    0.184E-01
DAV:   3    -0.192182524381E+03   -0.91740E-03   -0.38064E-03 12200   0.503E-01    0.352E-01
DAV:   4    -0.192181079852E+03    0.14445E-02   -0.18865E-03 10240   0.384E-01    0.946E-02
DAV:   5    -0.192181260924E+03   -0.18107E-03   -0.70311E-04  9920   0.222E-01    0.153E-01
DAV:   6    -0.192181038954E+03    0.22197E-03   -0.52335E-04  9120   0.199E-01    0.573E-02
DAV:   7    -0.192180992793E+03    0.46162E-04   -0.11120E-04  6520   0.745E-02
  27 F= -.19218099E+03 E0= -.19209718E+03  d E =-.105294E-01
       N       E                     dE             d eps       ncg     rms          rms(c)
DAV:   1    -0.192185236948E+03   -0.41980E-02   -0.12883E+01  8160   0.770E+00    0.859E-01
DAV:   2    -0.192220997307E+03   -0.35760E-01   -0.46707E-01 11680   0.199E+00    0.852E-01
DAV:   3    -0.192227827108E+03   -0.68298E-02   -0.54947E-02 11880   0.196E+00    0.122E+00
DAV:   4    -0.192211589599E+03    0.16238E-01   -0.25530E-02 12000   0.134E+00    0.416E-01
DAV:   5    -0.192212406500E+03   -0.81690E-03   -0.89024E-03 11040   0.850E-01    0.502E-01
DAV:   6    -0.192210268968E+03    0.21375E-02   -0.63303E-03 11920   0.627E-01    0.237E-01
DAV:   7    -0.192209810648E+03    0.45832E-03   -0.24663E-03 12520   0.375E-01    0.193E-01
DAV:   8    -0.192209395167E+03    0.41548E-03   -0.84616E-04  9120   0.215E-01    0.421E-02
DAV:   9    -0.192209369444E+03    0.25723E-04   -0.13768E-04  6520   0.438E-02
  28 F= -.19220937E+03 E0= -.19212586E+03  d E =-.283767E-01
       N       E                     dE             d eps       ncg     rms          rms(c)
DAV:   1    -0.192208642353E+03    0.75281E-03   -0.14002E-01  8160   0.808E-01    0.116E-01
DAV:   2    -0.192209648131E+03   -0.10058E-02   -0.68535E-03 11440   0.445E-01    0.265E-01
DAV:   3    -0.192208865749E+03    0.78238E-03   -0.14990E-03 11000   0.341E-01    0.832E-02
DAV:   4    -0.192208870272E+03   -0.45228E-05   -0.38022E-04  8720   0.153E-01
  29 F= -.19220887E+03 E0= -.19212534E+03  d E =0.499172E-03
       N       E                     dE             d eps       ncg     rms          rms(c)
DAV:   1    -0.192210603648E+03   -0.17379E-02   -0.13655E-01  8160   0.795E-01    0.986E-02
DAV:   2    -0.192211562190E+03   -0.95854E-03   -0.65208E-03 12840   0.368E-01    0.215E-01
DAV:   3    -0.192210997360E+03    0.56483E-03   -0.11927E-03 11120   0.298E-01    0.695E-02
DAV:   4    -0.192210978964E+03    0.18396E-04   -0.18056E-04  7120   0.993E-02
  30 F= -.19221098E+03 E0= -.19212729E+03  d E =-.210869E-02
       N       E                     dE             d eps       ncg     rms          rms(c)
DAV:   1    -0.192211806219E+03   -0.80886E-03   -0.23324E-02  8160   0.340E-01    0.591E-02
DAV:   2    -0.192212130968E+03   -0.32475E-03   -0.13297E-03 13080   0.209E-01    0.167E-01
DAV:   3    -0.192211814762E+03    0.31621E-03   -0.53560E-04  9040   0.188E-01    0.370E-02
DAV:   4    -0.192211825715E+03   -0.10953E-04   -0.62684E-05  5600   0.529E-02
  31 F= -.19221183E+03 E0= -.19212809E+03  d E =-.846751E-03
       N       E                     dE             d eps       ncg     rms          rms(c)
DAV:   1    -0.192213639976E+03   -0.18252E-02   -0.15802E-01  8160   0.851E-01    0.110E-01
DAV:   2    -0.192214580504E+03   -0.94053E-03   -0.67346E-03 10760   0.350E-01    0.244E-01
DAV:   3    -0.192213978240E+03    0.60226E-03   -0.15699E-03 11120   0.313E-01    0.910E-02
DAV:   4    -0.192213934619E+03    0.43621E-04   -0.25894E-04  7840   0.113E-01
  32 F= -.19221393E+03 E0= -.19213016E+03  d E =-.210890E-02
       N       E                     dE             d eps       ncg     rms          rms(c)
DAV:   1    -0.192216494402E+03   -0.25162E-02   -0.10755E+00  8160   0.221E+00    0.267E-01
DAV:   2    -0.192220187209E+03   -0.36928E-02   -0.40686E-02 11480   0.703E-01    0.391E-01
DAV:   3    -0.192219418043E+03    0.76917E-03   -0.74058E-03 11800   0.665E-01    0.312E-01
DAV:   4    -0.192218412937E+03    0.10051E-02   -0.21199E-03 11160   0.340E-01    0.124E-01
DAV:   5    -0.192218469781E+03   -0.56844E-04   -0.10035E-03 10600   0.239E-01    0.152E-01
DAV:   6    -0.192218376338E+03    0.93443E-04   -0.82571E-04 10080   0.234E-01
  33 F= -.19221838E+03 E0= -.19213449E+03  d E =-.444172E-02
       N       E                     dE             d eps       ncg     rms          rms(c)
DAV:   1    -0.192218566968E+03   -0.97187E-04   -0.12761E+00  8160   0.241E+00    0.296E-01
DAV:   2    -0.192224900400E+03   -0.63334E-02   -0.55021E-02 11640   0.937E-01    0.529E-01
DAV:   3    -0.192222115651E+03    0.27847E-02   -0.90676E-03 11960   0.790E-01    0.260E-01
DAV:   4    -0.192221766118E+03    0.34953E-03   -0.23917E-03 10680   0.367E-01    0.217E-01
DAV:   5    -0.192221311809E+03    0.45431E-03   -0.12023E-03 10720   0.301E-01    0.104E-01
DAV:   6    -0.192221360780E+03   -0.48971E-04   -0.57409E-04 10520   0.146E-01
  34 F= -.19222136E+03 E0= -.19213749E+03  d E =-.298444E-02
       N       E                     dE             d eps       ncg     rms          rms(c)
DAV:   1    -0.192221714331E+03   -0.40252E-03   -0.68242E-02  8160   0.571E-01    0.116E-01
DAV:   2    -0.192224075839E+03   -0.23615E-02   -0.71219E-03 12400   0.547E-01    0.444E-01
DAV:   3    -0.192221810836E+03    0.22650E-02   -0.30850E-03 11000   0.470E-01    0.517E-02
DAV:   4    -0.192221846921E+03   -0.36085E-04   -0.12693E-04  5880   0.836E-02
  35 F= -.19222185E+03 E0= -.19213810E+03  d E =-.486140E-03
