<?xml version="1.0" encoding="ISO-8859-1"?>
<modeling>
 <generator>
  <i name="program" type="string">vasp </i>
  <i name="version" type="string">5.4.1  </i>
  <i name="subversion" type="string">05Feb16 (build Jul 05 2020 17:13:04) complex                          parallel </i>
  <i name="platform" type="string">IFC91_ompi </i>
  <i name="date" type="string">2024 04 29 </i>
  <i name="time" type="string">10:57:15 </i>
 </generator>
 <incar>
  <i type="int" name="ISTART">     0</i>
  <i type="string" name="PREC">normal</i>
  <i type="string" name="ALGO"> Normal</i>
  <i type="int" name="ISPIN">     1</i>
  <i type="int" name="ICHARG">     2</i>
  <i type="int" name="IBRION">     1</i>
  <i type="int" name="NSW">   100</i>
  <i type="int" name="ISIF">     3</i>
  <i type="int" name="ISYM">     0</i>
  <i name="SYMPREC">      0.00000001</i>
  <i name="POTIM">      0.50000000</i>
  <i type="logical" name="LREAL"> F  </i>
  <i type="logical" name="LPLANE"> F  </i>
  <i type="int" name="ISMEAR">     0</i>
  <i type="logical" name="LWAVE"> F  </i>
  <i type="logical" name="LCHARG"> F  </i>
  <v type="int" name="KPOINT_BSE">    -1     0     0     0</v>
 </incar>
 <kpoints>
  <generation param="Gamma">
   <v type="int" name="divisions">       8        8        1 </v>
   <v name="usershift">      0.00000000       0.00000000       0.00000000 </v>
   <v name="genvec1">      0.12500000       0.00000000       0.00000000 </v>
   <v name="genvec2">     -0.00000000       0.12500000       0.00000000 </v>
   <v name="genvec3">      0.00000000       0.00000000       1.00000000 </v>
   <v name="shift">      0.00000000       0.00000000       0.00000000 </v>
  </generation>
  <varray name="kpointlist" >
   <v>       0.00000000       0.00000000       0.00000000 </v>
   <v>       0.12500000       0.00000000       0.00000000 </v>
   <v>       0.25000000       0.00000000       0.00000000 </v>
   <v>       0.37500000       0.00000000       0.00000000 </v>
   <v>       0.50000000       0.00000000       0.00000000 </v>
   <v>       0.00000000       0.12500000       0.00000000 </v>
   <v>       0.12500000       0.12500000       0.00000000 </v>
   <v>       0.25000000       0.12500000       0.00000000 </v>
   <v>       0.37500000       0.12500000       0.00000000 </v>
   <v>       0.50000000       0.12500000       0.00000000 </v>
   <v>      -0.37500000       0.12500000       0.00000000 </v>
   <v>      -0.25000000       0.12500000       0.00000000 </v>
   <v>      -0.12500000       0.12500000       0.00000000 </v>
   <v>       0.00000000       0.25000000       0.00000000 </v>
   <v>       0.12500000       0.25000000       0.00000000 </v>
   <v>       0.25000000       0.25000000       0.00000000 </v>
   <v>       0.37500000       0.25000000       0.00000000 </v>
   <v>       0.50000000       0.25000000       0.00000000 </v>
   <v>      -0.37500000       0.25000000       0.00000000 </v>
   <v>      -0.25000000       0.25000000       0.00000000 </v>
   <v>      -0.12500000       0.25000000       0.00000000 </v>
   <v>      -0.00000000       0.37500000       0.00000000 </v>
   <v>       0.12500000       0.37500000       0.00000000 </v>
   <v>       0.25000000       0.37500000       0.00000000 </v>
   <v>       0.37500000       0.37500000       0.00000000 </v>
   <v>       0.50000000       0.37500000       0.00000000 </v>
   <v>      -0.37500000       0.37500000       0.00000000 </v>
   <v>      -0.25000000       0.37500000       0.00000000 </v>
   <v>      -0.12500000       0.37500000       0.00000000 </v>
   <v>       0.00000000       0.50000000       0.00000000 </v>
   <v>       0.12500000       0.50000000       0.00000000 </v>
   <v>       0.25000000       0.50000000       0.00000000 </v>
   <v>       0.37500000       0.50000000       0.00000000 </v>
   <v>       0.50000000       0.50000000       0.00000000 </v>
  </varray>
  <varray name="weights" >
   <v>       0.01562500 </v>
   <v>       0.03125000 </v>
   <v>       0.03125000 </v>
   <v>       0.03125000 </v>
   <v>       0.01562500 </v>
   <v>       0.03125000 </v>
   <v>       0.03125000 </v>
   <v>       0.03125000 </v>
   <v>       0.03125000 </v>
   <v>       0.03125000 </v>
   <v>       0.03125000 </v>
   <v>       0.03125000 </v>
   <v>       0.03125000 </v>
   <v>       0.03125000 </v>
   <v>       0.03125000 </v>
   <v>       0.03125000 </v>
   <v>       0.03125000 </v>
   <v>       0.03125000 </v>
   <v>       0.03125000 </v>
   <v>       0.03125000 </v>
   <v>       0.03125000 </v>
   <v>       0.03125000 </v>
   <v>       0.03125000 </v>
   <v>       0.03125000 </v>
   <v>       0.03125000 </v>
   <v>       0.03125000 </v>
   <v>       0.03125000 </v>
   <v>       0.03125000 </v>
   <v>       0.03125000 </v>
   <v>       0.01562500 </v>
   <v>       0.03125000 </v>
   <v>       0.03125000 </v>
   <v>       0.03125000 </v>
   <v>       0.01562500 </v>
  </varray>
 </kpoints>
 <parameters>
  <separator name="general" >
   <i type="string" name="SYSTEM">unknown system</i>
   <i type="logical" name="LCOMPAT"> F  </i>
  </separator>
  <separator name="electronic" >
   <i type="string" name="PREC">normal</i>
   <i name="ENMAX">    280.00000000</i>
   <i name="ENAUG">    373.43800000</i>
   <i name="EDIFF">      0.00010000</i>
   <i type="int" name="IALGO">    38</i>
   <i type="int" name="IWAVPR">    11</i>
   <i type="int" name="NBANDS">   120</i>
   <i name="NELECT">    159.00000000</i>
   <i type="int" name="TURBO">     0</i>
   <i type="int" name="IRESTART">     0</i>
   <i type="int" name="NREBOOT">     0</i>
   <i type="int" name="NMIN">     0</i>
   <i name="EREF">      0.00000000</i>
   <separator name="electronic smearing" >
    <i type="int" name="ISMEAR">     0</i>
    <i name="SIGMA">      0.20000000</i>
    <i name="KSPACING">      0.50000000</i>
    <i type="logical" name="KGAMMA"> T  </i>
   </separator>
   <separator name="electronic projectors" >
    <i type="logical" name="LREAL"> F  </i>
    <v name="ROPT">      0.00000000      0.00000000      0.00000000      0.00000000</v>
    <i type="int" name="LMAXPAW">  -100</i>
    <i type="int" name="LMAXMIX">     2</i>
    <i type="logical" name="NLSPLINE"> F  </i>
   </separator>
   <separator name="electronic startup" >
    <i type="int" name="ISTART">     0</i>
    <i type="int" name="ICHARG">     2</i>
    <i type="int" name="INIWAV">     1</i>
   </separator>
   <separator name="electronic spin" >
    <i type="int" name="ISPIN">     1</i>
    <i type="logical" name="LNONCOLLINEAR"> F  </i>
    <v name="MAGMOM">      1.00000000      1.00000000      1.00000000      1.00000000      1.00000000      1.00000000      1.00000000      1.00000000      1.00000000      1.00000000      1.00000000      1.00000000      1.00000000      1.00000000      1.00000000      1.00000000      1.00000000      1.00000000      1.00000000      1.00000000
      1.00000000      1.00000000      1.00000000      1.00000000      1.00000000      1.00000000      1.00000000</v>
    <i name="NUPDOWN">     -1.00000000</i>
    <i type="logical" name="LSORBIT"> F  </i>
    <v name="SAXIS">      0.00000000      0.00000000      1.00000000</v>
    <i type="logical" name="LSPIRAL"> F  </i>
    <v name="QSPIRAL">      0.00000000      0.00000000      0.00000000</v>
    <i type="logical" name="LZEROZ"> F  </i>
   </separator>
   <separator name="electronic exchange-correlation" >
    <i type="logical" name="LASPH"> F  </i>
    <i type="logical" name="LMETAGGA"> F  </i>
   </separator>
   <separator name="electronic convergence" >
    <i type="int" name="NELM">    60</i>
    <i type="int" name="NELMDL">    -5</i>
    <i type="int" name="NELMIN">     2</i>
    <i name="ENINI">    280.00000000</i>
    <separator name="electronic convergence detail" >
     <i type="logical" name="LDIAG"> T  </i>
     <i type="logical" name="LSUBROT"> F  </i>
     <i name="WEIMIN">      0.00100000</i>
     <i name="EBREAK">      0.00000021</i>
     <i name="DEPER">      0.30000000</i>
     <i type="int" name="NRMM">     4</i>
     <i name="TIME">      0.40000000</i>
    </separator>
   </separator>
   <separator name="electronic mixer" >
    <i name="AMIX">      0.40000000</i>
    <i name="BMIX">      1.00000000</i>
    <i name="AMIN">      0.10000000</i>
    <i name="AMIX_MAG">      1.60000000</i>
    <i name="BMIX_MAG">      1.00000000</i>
    <separator name="electronic mixer details" >
     <i type="int" name="IMIX">     4</i>
     <i type="logical" name="MIXFIRST"> F  </i>
     <i type="int" name="MAXMIX">   -45</i>
     <i name="WC">    100.00000000</i>
     <i type="int" name="INIMIX">     1</i>
     <i type="int" name="MIXPRE">     1</i>
     <i type="int" name="MREMOVE">     5</i>
    </separator>
   </separator>
   <separator name="electronic dipolcorrection" >
    <i type="logical" name="LDIPOL"> F  </i>
    <i type="logical" name="LMONO"> F  </i>
    <i type="int" name="IDIPOL">     0</i>
    <i name="EPSILON">      1.00000000</i>
    <v name="DIPOL">   -100.00000000   -100.00000000   -100.00000000</v>
    <i name="EFIELD">      0.00000000</i>
   </separator>
  </separator>
  <separator name="grids" >
   <i type="int" name="NGX">    42</i>
   <i type="int" name="NGY">    42</i>
   <i type="int" name="NGZ">   126</i>
   <i type="int" name="NGXF">    84</i>
   <i type="int" name="NGYF">    84</i>
   <i type="int" name="NGZF">   252</i>
   <i type="logical" name="ADDGRID"> F  </i>
  </separator>
  <separator name="ionic" >
   <i type="int" name="NSW">   100</i>
   <i type="int" name="IBRION">     1</i>
   <i type="int" name="ISIF">     3</i>
   <i name="PSTRESS">      0.00000000</i>
   <i name="EDIFFG">      0.00100000</i>
   <i type="int" name="NFREE">     0</i>
   <i name="POTIM">      0.50000000</i>
   <i name="SMASS">     -3.00000000</i>
   <i name="SCALEE">      1.00000000</i>
  </separator>
  <separator name="ionic md" >
   <i name="TEBEG">      0.00010000</i>
   <i name="TEEND">      0.00010000</i>
   <i type="int" name="NBLOCK">     1</i>
   <i type="int" name="KBLOCK">   100</i>
   <i type="int" name="NPACO">   256</i>
   <i name="APACO">     16.00000000</i>
  </separator>
  <separator name="symmetry" >
   <i type="int" name="ISYM">     0</i>
   <i name="SYMPREC">      0.00000001</i>
  </separator>
  <separator name="dos" >
   <i type="logical" name="LORBIT"> F  </i>
   <v name="RWIGS">     -1.00000000     -1.00000000     -1.00000000     -1.00000000</v>
   <i type="int" name="NEDOS">   301</i>
   <i name="EMIN">     10.00000000</i>
   <i name="EMAX">    -10.00000000</i>
   <i name="EFERMI">      0.00000000</i>
  </separator>
  <separator name="writing" >
   <i type="int" name="NWRITE">     2</i>
   <i type="logical" name="LWAVE"> F  </i>
   <i type="logical" name="LCHARG"> F  </i>
   <i type="logical" name="LPARD"> F  </i>
   <i type="logical" name="LVTOT"> F  </i>
   <i type="logical" name="LVHAR"> F  </i>
   <i type="logical" name="LELF"> F  </i>
   <i type="logical" name="LOPTICS"> F  </i>
   <v name="STM">      0.00000000      0.00000000      0.00000000      0.00000000      0.00000000      0.00000000      0.00000000</v>
  </separator>
  <separator name="performance" >
   <i type="int" name="NPAR">    40</i>
   <i type="int" name="NSIM">     4</i>
   <i type="int" name="NBLK">    -1</i>
   <i type="logical" name="LPLANE"> F  </i>
   <i type="logical" name="LSCALAPACK"> T  </i>
   <i type="logical" name="LSCAAWARE"> F  </i>
   <i type="logical" name="LSCALU"> F  </i>
   <i type="logical" name="LASYNC"> F  </i>
   <i type="logical" name="LORBITALREAL"> F  </i>
  </separator>
  <separator name="miscellaneous" >
   <i type="int" name="IDIOT">     3</i>
   <i type="logical" name="LMUSIC"> F  </i>
   <v name="POMASS">     50.94100000     95.94000000    183.85000000     32.06600000</v>
   <v name="DARWINR">      0.00000000      0.00000000      0.00000000      0.00000000</v>
   <v name="DARWINV">      1.00000000      1.00000000      1.00000000      1.00000000</v>
   <i type="logical" name="LCORR"> T  </i>
  </separator>
  <i type="logical" name="GGA_COMPAT"> T  </i>
  <i type="logical" name="LBERRY"> F  </i>
  <i type="int" name="ICORELEVEL">     0</i>
  <i type="logical" name="LDAU"> F  </i>
  <i type="int" name="I_CONSTRAINED_M">     0</i>
  <separator name="electronic exchange-correlation" >
   <i type="string" name="GGA">--</i>
   <i type="int" name="VOSKOWN">     0</i>
   <i type="logical" name="LHFCALC"> F  </i>
   <i type="string" name="PRECFOCK"></i>
   <i type="logical" name="LSYMGRAD"> F  </i>
   <i type="logical" name="LHFONE"> F  </i>
   <i type="logical" name="LRHFCALC"> F  </i>
   <i type="logical" name="LTHOMAS"> F  </i>
   <i type="logical" name="LMODELHF"> F  </i>
   <i name="ENCUT4O">     -1.00000000</i>
   <i type="int" name="EXXOEP">     0</i>
   <i type="int" name="FOURORBIT">     0</i>
   <i name="AEXX">      0.00000000</i>
   <i name="HFALPHA">      0.00000000</i>
   <i name="MCALPHA">      0.00000000</i>
   <i name="ALDAX">      1.00000000</i>
   <i name="AGGAX">      1.00000000</i>
   <i name="ALDAC">      1.00000000</i>
   <i name="AGGAC">      1.00000000</i>
   <i type="int" name="NKREDX">     1</i>
   <i type="int" name="NKREDY">     1</i>
   <i type="int" name="NKREDZ">     1</i>
   <i type="logical" name="SHIFTRED"> F  </i>
   <i type="logical" name="ODDONLY"> F  </i>
   <i type="logical" name="EVENONLY"> F  </i>
   <i type="int" name="LMAXFOCK">     0</i>
   <i type="int" name="NMAXFOCKAE">     0</i>
   <i type="logical" name="LFOCKAEDFT"> F  </i>
   <i name="HFSCREEN">      0.00000000</i>
   <i name="HFSCREENC">      0.00000000</i>
   <i type="int" name="NBANDSGWLOW">     0</i>
  </separator>
  <separator name="vdW DFT" >
   <i type="logical" name="LUSE_VDW"> F  </i>
   <i name="Zab_VDW">     -0.84910000</i>
   <i name="PARAM1">      0.12340000</i>
   <i name="PARAM2">      1.00000000</i>
   <i name="PARAM3">      0.00000000</i>
  </separator>
  <separator name="model GW" >
   <i type="int" name="MODEL_GW">     0</i>
   <i name="MODEL_EPS0">     58.26239943</i>
   <i name="MODEL_ALPHA">      1.00000000</i>
  </separator>
  <separator name="linear response parameters" >
   <i type="logical" name="LEPSILON"> F  </i>
   <i type="logical" name="LRPA"> F  </i>
   <i type="logical" name="LNABLA"> F  </i>
   <i type="logical" name="LVEL"> F  </i>
   <i type="int" name="KINTER">     0</i>
   <i name="CSHIFT">      0.10000000</i>
   <i name="OMEGAMAX">     -1.00000000</i>
   <i name="DEG_THRESHOLD">      0.00200000</i>
  </separator>
  <separator name="orbital magnetization" >
   <i type="logical" name="NUCIND"> F  </i>
   <v name="MAGPOS">      0.00000000      0.00000000      0.00000000</v>
   <i type="logical" name="LNICSALL"> T  </i>
   <i type="logical" name="ORBITALMAG"> F  </i>
   <i type="logical" name="LMAGBLOCH"> F  </i>
   <i type="logical" name="LCHIMAG"> F  </i>
   <i type="logical" name="LGAUGE"> T  </i>
   <i type="int" name="MAGATOM">     0</i>
   <v name="MAGDIPOL">      0.00000000      0.00000000      0.00000000</v>
   <v name="AVECCONST">      0.00000000      0.00000000      0.00000000</v>
  </separator>
  <separator name="response functions" >
   <i type="logical" name="LADDER"> F  </i>
   <i type="logical" name="LFXC"> F  </i>
   <i type="logical" name="LHARTREE"> T  </i>
   <i type="int" name="IBSE">     0</i>
   <v type="int" name="KPOINT">    -1     0     0     0</v>
   <i type="logical" name="LTCTE"> F  </i>
   <i type="logical" name="LTETE"> F  </i>
   <i type="logical" name="LTRIPLET"> F  </i>
   <i type="logical" name="LFXCEPS"> F  </i>
   <i type="logical" name="LFXHEG"> F  </i>
   <i type="int" name="NATURALO">     0</i>
   <i type="logical" name="L2ORDER"> F  </i>
   <i type="logical" name="LUSEW"> F  </i>
   <i name="ENCUTGW">     -2.00000000</i>
   <i name="ENCUTGWSOFT">     -2.00000000</i>
   <i name="ENCUTLF">     -1.00000000</i>
   <i type="int" name="LMAXMP2">    -1</i>
   <i name="SCISSOR">      0.00000000</i>
   <i type="int" name="NOMEGA">     0</i>
   <i type="int" name="NOMEGAR">     0</i>
   <i type="int" name="NBANDSGW">    -1</i>
   <i type="int" name="NBANDSO">    -1</i>
   <i type="int" name="NBANDSV">    -1</i>
   <i type="int" name="NELM">     1</i>
   <i type="int" name="NELMHF">     1</i>
   <i type="int" name="DIM">     3</i>
   <i type="int" name="ANTIRES">     0</i>
   <i name="OMEGAMAX">    -30.00000000</i>
   <i name="OMEGAMIN">    -30.00000000</i>
   <i name="OMEGATL">   -200.00000000</i>
   <i type="int" name="OMEGAGRID">     0</i>
   <i name="CSHIFT">     -0.10000000</i>
   <i type="logical" name="SELFENERGY"> F  </i>
   <i type="logical" name="LSPECTRAL"> F  </i>
   <i type="logical" name="LSPECTRALGW"> F  </i>
   <i type="logical" name="LSINGLES"> F  </i>
   <i type="logical" name="LFERMIGW"> F  </i>
   <i type="logical" name="ODDONLYGW"> F  </i>
   <i type="logical" name="EVENONLYGW"> F  </i>
   <i type="int" name="NKREDLFX">     1</i>
   <i type="int" name="NKREDLFY">     1</i>
   <i type="int" name="NKREDLFZ">     1</i>
   <i type="int" name="MAXMEM">  1800</i>
   <i type="int" name="TELESCOPE">     0</i>
   <i type="int" name="TAUPAR">     1</i>
   <i type="int" name="OMEGAPAR">    -1</i>
   <i name="LAMBDA">      1.00000000</i>
  </separator>
  <separator name="External order field" >
   <i name="OFIELD_KAPPA">      0.00000000</i>
   <v name="OFIELD_K">      0.00000000      0.00000000      0.00000000</v>
   <i name="OFIELD_Q6_NEAR">      0.00000000</i>
   <i name="OFIELD_Q6_FAR">      0.00000000</i>
   <i name="OFIELD_A">      0.00000000</i>
  </separator>
 </parameters>
 <atominfo>
  <atoms>      27 </atoms>
  <types>       4 </types>
  <array name="atoms" >
   <dimension dim="1">ion</dimension>
   <field type="string">element</field>
   <field type="int">atomtype</field>
   <set>
    <rc><c>V </c><c>   1</c></rc>
    <rc><c>V </c><c>   1</c></rc>
    <rc><c>V </c><c>   1</c></rc>
    <rc><c>Mo</c><c>   2</c></rc>
    <rc><c>Mo</c><c>   2</c></rc>
    <rc><c>Mo</c><c>   2</c></rc>
    <rc><c>W </c><c>   3</c></rc>
    <rc><c>W </c><c>   3</c></rc>
    <rc><c>W </c><c>   3</c></rc>
    <rc><c>S </c><c>   4</c></rc>
    <rc><c>S </c><c>   4</c></rc>
    <rc><c>S </c><c>   4</c></rc>
    <rc><c>S </c><c>   4</c></rc>
    <rc><c>S </c><c>   4</c></rc>
    <rc><c>S </c><c>   4</c></rc>
    <rc><c>S </c><c>   4</c></rc>
    <rc><c>S </c><c>   4</c></rc>
    <rc><c>S </c><c>   4</c></rc>
    <rc><c>S </c><c>   4</c></rc>
    <rc><c>S </c><c>   4</c></rc>
    <rc><c>S </c><c>   4</c></rc>
    <rc><c>S </c><c>   4</c></rc>
    <rc><c>S </c><c>   4</c></rc>
    <rc><c>S </c><c>   4</c></rc>
    <rc><c>S </c><c>   4</c></rc>
    <rc><c>S </c><c>   4</c></rc>
    <rc><c>S </c><c>   4</c></rc>
   </set>
  </array>
  <array name="atomtypes" >
   <dimension dim="1">type</dimension>
   <field type="int">atomspertype</field>
   <field type="string">element</field>
   <field>mass</field>
   <field>valence</field>
   <field type="string">pseudopotential</field>
   <set>
    <rc><c>   3</c><c>V </c><c>     50.94100000</c><c>      5.00000000</c><c> PAW_PBE V 08Apr2002                    </c></rc>
    <rc><c>   3</c><c>Mo</c><c>     95.94000000</c><c>      6.00000000</c><c> PAW_PBE Mo 08Apr2002                   </c></rc>
    <rc><c>   3</c><c>W </c><c>    183.85000000</c><c>      6.00000000</c><c> PAW_PBE W 08Apr2002                    </c></rc>
    <rc><c>  18</c><c>S </c><c>     32.06600000</c><c>      6.00000000</c><c>  PAW_PBE S 17Jan2003                   </c></rc>
   </set>
  </array>
 </atominfo>
 <structure name="initialpos" >
  <crystal>
   <varray name="basis" >
    <v>       8.66999996       5.03999989       0.00000000 </v>
    <v>      -8.66999982       5.04000013       0.00000000 </v>
    <v>       0.00000000       0.00000000      30.00000000 </v>
   </varray>
   <i name="volume">   2621.80797419 </i>
   <varray name="rec_basis" >
    <v>       0.05767013       0.09920635       0.00000000 </v>
    <v>      -0.05767013       0.09920635       0.00000000 </v>
    <v>       0.00000000       0.00000000       0.03333333 </v>
   </varray>
  </crystal>
  <varray name="positions" >
   <v>       0.33333334       0.00000000       0.00000000 </v>
   <v>       0.66666669       0.00000000       0.00000000 </v>
   <v>       0.33333334       0.33333334       0.00000000 </v>
   <v>       0.00000000       0.66666669       0.00000000 </v>
   <v>       0.66666669       0.66666669       0.00000000 </v>
   <v>       0.00000000       0.00000000       0.00000000 </v>
   <v>       1.00000000       0.33333334       0.00000000 </v>
   <v>       0.33333334       0.66666669       0.00000000 </v>
   <v>       0.66666669       0.33333334       0.00000000 </v>
   <v>       0.11068511       0.22244981       0.95539999 </v>
   <v>       0.22244981       0.11068511       0.04460000 </v>
   <v>       0.11068511       0.55578315       0.95539999 </v>
   <v>       0.22244981       0.44401845       0.04460000 </v>
   <v>       0.11068511       0.88911647       0.95539999 </v>
   <v>       0.22244981       0.77735180       0.04460000 </v>
   <v>       0.44401845       0.22244981       0.95539999 </v>
   <v>       0.55578315       0.11068511       0.04460000 </v>
   <v>       0.44401845       0.55578315       0.95539999 </v>
   <v>       0.55578315       0.44401845       0.04460000 </v>
   <v>       0.44401845       0.88911647       0.95539999 </v>
   <v>       0.55578315       0.77735180       0.04460000 </v>
   <v>       0.77735180       0.22244981       0.95539999 </v>
   <v>       0.88911647       0.11068511       0.04460000 </v>
   <v>       0.77735180       0.55578315       0.95539999 </v>
   <v>       0.88911647       0.44401845       0.04460000 </v>
   <v>       0.77735180       0.88911647       0.95539999 </v>
   <v>       0.88911647       0.77735180       0.04460000 </v>
  </varray>
 </structure>
 <calculation>
  <scstep>
   <time name="dav">   22.01   22.07</time>
   <time name="total">   22.05   22.12</time>
   <energy>
    <i name="alphaZ">     81.65567618 </i>
    <i name="ewald">  41890.25210945 </i>
    <i name="hartreedc"> -47722.88014240 </i>
    <i name="XCdc">   -242.92958169 </i>
    <i name="pawpsdc">   3467.42045192 </i>
    <i name="pawaedc">  -2871.19716117 </i>
    <i name="eentropy">     -0.53233627 </i>
    <i name="bandstr">   -238.54949638 </i>
    <i name="atom">   6761.44252427 </i>
    <i name="e_fr_energy">   1124.68204391 </i>
    <i name="e_wo_entrp">   1125.21438018 </i>
    <i name="e_0_energy">   1124.94821204 </i>
   </energy>
  </scstep>
  <scstep>
   <time name="dav">   28.40   28.46</time>
   <time name="total">   28.40   28.47</time>
   <energy>
    <i name="e_fr_energy">     -3.41414803 </i>
    <i name="e_wo_entrp">     -3.22650081 </i>
    <i name="e_0_energy">     -3.32032442 </i>
   </energy>
  </scstep>
  <scstep>
   <time name="dav">   27.89   27.95</time>
   <time name="total">   27.89   27.96</time>
   <energy>
    <i name="e_fr_energy">   -199.83586266 </i>
    <i name="e_wo_entrp">   -199.55412633 </i>
    <i name="e_0_energy">   -199.69499450 </i>
   </energy>
  </scstep>
  <scstep>
   <time name="dav">   30.84   30.92</time>
   <time name="total">   30.85   30.93</time>
   <energy>
    <i name="e_fr_energy">   -208.94902231 </i>
    <i name="e_wo_entrp">   -208.63936930 </i>
    <i name="e_0_energy">   -208.79419581 </i>
   </energy>
  </scstep>
  <scstep>
   <time name="dav">   29.00   29.07</time>
   <time name="total">   29.46   29.54</time>
   <energy>
    <i name="e_fr_energy">   -209.24724962 </i>
    <i name="e_wo_entrp">   -208.94075519 </i>
    <i name="e_0_energy">   -209.09400240 </i>
   </energy>
  </scstep>
  <scstep>
   <time name="dav">   31.96   32.03</time>
   <time name="total">   32.45   32.54</time>
   <energy>
    <i name="e_fr_energy">   -236.61958813 </i>
    <i name="e_wo_entrp">   -236.34517693 </i>
    <i name="e_0_energy">   -236.48238253 </i>
   </energy>
  </scstep>
  <scstep>
   <time name="dav">   32.64   32.72</time>
   <time name="total">   33.14   33.23</time>
   <energy>
    <i name="e_fr_energy">   -196.79090331 </i>
    <i name="e_wo_entrp">   -196.45146398 </i>
    <i name="e_0_energy">   -196.62118364 </i>
   </energy>
  </scstep>
  <scstep>
   <time name="dav">   29.79   29.86</time>
   <time name="total">   30.29   30.38</time>
   <energy>
    <i name="e_fr_energy">   -190.23214209 </i>
    <i name="e_wo_entrp">   -189.96431020 </i>
    <i name="e_0_energy">   -190.09822614 </i>
   </energy>
  </scstep>
  <scstep>
   <time name="dav">   29.84   29.91</time>
   <time name="total">   30.36   30.44</time>
   <energy>
    <i name="e_fr_energy">   -188.31374687 </i>
    <i name="e_wo_entrp">   -187.98374345 </i>
    <i name="e_0_energy">   -188.14874516 </i>
   </energy>
  </scstep>
  <scstep>
   <time name="dav">   32.80   32.88</time>
   <time name="total">   33.33   33.42</time>
   <energy>
    <i name="e_fr_energy">   -187.16406828 </i>
    <i name="e_wo_entrp">   -186.82227557 </i>
    <i name="e_0_energy">   -186.99317193 </i>
   </energy>
  </scstep>
  <scstep>
   <time name="dav">   31.57   31.65</time>
   <time name="total">   32.10   32.19</time>
   <energy>
    <i name="e_fr_energy">   -187.00308206 </i>
    <i name="e_wo_entrp">   -186.65449312 </i>
    <i name="e_0_energy">   -186.82878759 </i>
   </energy>
  </scstep>
  <scstep>
   <time name="dav">   32.82   32.90</time>
   <time name="total">   33.36   33.44</time>
   <energy>
    <i name="e_fr_energy">   -187.09960521 </i>
    <i name="e_wo_entrp">   -186.76713867 </i>
    <i name="e_0_energy">   -186.93337194 </i>
   </energy>
  </scstep>
  <scstep>
   <time name="dav">   32.50   32.58</time>
   <time name="total">   33.03   33.12</time>
   <energy>
    <i name="e_fr_energy">   -186.94047912 </i>
    <i name="e_wo_entrp">   -186.60531907 </i>
    <i name="e_0_energy">   -186.77289909 </i>
   </energy>
  </scstep>
  <scstep>
   <time name="dav">   32.75   32.83</time>
   <time name="total">   33.28   33.37</time>
   <energy>
    <i name="e_fr_energy">   -186.90081823 </i>
    <i name="e_wo_entrp">   -186.56007754 </i>
    <i name="e_0_energy">   -186.73044788 </i>
   </energy>
  </scstep>
  <scstep>
   <time name="dav">   31.98   32.06</time>
   <time name="total">   32.52   32.60</time>
   <energy>
    <i name="e_fr_energy">   -186.89821903 </i>
    <i name="e_wo_entrp">   -186.55499864 </i>
    <i name="e_0_energy">   -186.72660884 </i>
   </energy>
  </scstep>
  <scstep>
   <time name="dav">   31.80   31.87</time>
   <time name="total">   32.33   32.42</time>
   <energy>
    <i name="e_fr_energy">   -186.89183102 </i>
    <i name="e_wo_entrp">   -186.54859924 </i>
    <i name="e_0_energy">   -186.72021513 </i>
   </energy>
  </scstep>
  <scstep>
   <time name="dav">   32.51   32.59</time>
   <time name="total">   33.04   33.13</time>
   <energy>
    <i name="e_fr_energy">   -186.88937947 </i>
    <i name="e_wo_entrp">   -186.54721089 </i>
    <i name="e_0_energy">   -186.71829518 </i>
   </energy>
  </scstep>
  <scstep>
   <time name="dav">   31.57   31.65</time>
   <time name="total">   32.11   32.19</time>
   <energy>
    <i name="e_fr_energy">   -186.88840804 </i>
    <i name="e_wo_entrp">   -186.54735586 </i>
    <i name="e_0_energy">   -186.71788195 </i>
   </energy>
  </scstep>
  <scstep>
   <time name="dav">   29.04   29.11</time>
   <time name="total">   29.58   29.65</time>
   <energy>
    <i name="e_fr_energy">   -186.88805597 </i>
    <i name="e_wo_entrp">   -186.54636435 </i>
    <i name="e_0_energy">   -186.71721016 </i>
   </energy>
  </scstep>
  <scstep>
   <time name="dav">   24.21   24.27</time>
   <time name="total">   24.74   24.81</time>
   <energy>
    <i name="e_fr_energy">   -186.88880636 </i>
    <i name="e_wo_entrp">   -186.54745188 </i>
    <i name="e_0_energy">   -186.71812912 </i>
   </energy>
  </scstep>
  <scstep>
   <time name="dav">   22.03   22.09</time>
   <time name="total">   22.57   22.63</time>
   <energy>
    <i name="e_fr_energy">   -186.88936309 </i>
    <i name="e_wo_entrp">   -186.54794680 </i>
    <i name="e_0_energy">   -186.71865495 </i>
   </energy>
  </scstep>
  <scstep>
   <time name="dav">   20.59   20.64</time>
   <time name="total">   21.12   21.18</time>
   <energy>
    <i name="e_fr_energy">   -186.89052587 </i>
    <i name="e_wo_entrp">   -186.54907502 </i>
    <i name="e_0_energy">   -186.71980045 </i>
   </energy>
  </scstep>
  <scstep>
   <time name="dav">   20.79   20.84</time>
   <time name="total">   21.33   21.39</time>
   <energy>
    <i name="e_fr_energy">   -186.89174979 </i>
    <i name="e_wo_entrp">   -186.55040262 </i>
    <i name="e_0_energy">   -186.72107620 </i>
   </energy>
  </scstep>
  <scstep>
   <time name="dav">   19.41   19.46</time>
   <time name="total">   19.95   20.12</time>
   <energy>
    <i name="e_fr_energy">   -186.89234339 </i>
    <i name="e_wo_entrp">   -186.55096471 </i>
    <i name="e_0_energy">   -186.72165405 </i>
   </energy>
  </scstep>
  <scstep>
   <time name="dav">   16.69   16.73</time>
   <time name="total">   17.22   17.27</time>
   <energy>
    <i name="e_fr_energy">   -186.89272942 </i>
    <i name="e_wo_entrp">   -186.55131543 </i>
    <i name="e_0_energy">   -186.72202242 </i>
   </energy>
  </scstep>
  <scstep>
   <time name="dav">   19.38   19.43</time>
   <time name="total">   19.92   19.97</time>
   <energy>
    <i name="e_fr_energy">   -186.89296979 </i>
    <i name="e_wo_entrp">   -186.55157126 </i>
    <i name="e_0_energy">   -186.72227053 </i>
   </energy>
  </scstep>
  <scstep>
   <time name="dav">   20.33   20.38</time>
   <time name="total">   20.37   20.43</time>
   <energy>
    <i name="alphaZ">     81.65567618 </i>
    <i name="ewald">  41890.25210945 </i>
    <i name="hartreedc"> -47833.19582135 </i>
    <i name="XCdc">   -231.59883975 </i>
    <i name="pawpsdc">   4192.18597027 </i>
    <i name="pawaedc">  -3610.21008297 </i>
    <i name="eentropy">     -0.34139894 </i>
    <i name="bandstr">  -1437.08320660 </i>
    <i name="atom">   6761.44252427 </i>
    <i name="e_fr_energy">   -186.89306944 </i>
    <i name="e_wo_entrp">   -186.55167049 </i>
    <i name="e_0_energy">   -186.72236997 </i>
   </energy>
  </scstep>
  <structure>
   <crystal>
    <varray name="basis" >
     <v>       8.66999996       5.03999989       0.00000000 </v>
     <v>      -8.66999982       5.04000013       0.00000000 </v>
     <v>       0.00000000       0.00000000      30.00000000 </v>
    </varray>
    <i name="volume">   2621.80797419 </i>
    <varray name="rec_basis" >
     <v>       0.05767013       0.09920635       0.00000000 </v>
     <v>      -0.05767013       0.09920635       0.00000000 </v>
     <v>       0.00000000       0.00000000       0.03333333 </v>
    </varray>
   </crystal>
   <varray name="positions" >
    <v>       0.33333334       0.00000000       0.00000000 </v>
    <v>       0.66666669       0.00000000       0.00000000 </v>
    <v>       0.33333334       0.33333334       0.00000000 </v>
    <v>       0.00000000       0.66666669       0.00000000 </v>
    <v>       0.66666669       0.66666669       0.00000000 </v>
    <v>       0.00000000       0.00000000       0.00000000 </v>
    <v>       1.00000000       0.33333334       0.00000000 </v>
    <v>       0.33333334       0.66666669       0.00000000 </v>
    <v>       0.66666669       0.33333334       0.00000000 </v>
    <v>       0.11068511       0.22244981       0.95539999 </v>
    <v>       0.22244981       0.11068511       0.04460000 </v>
    <v>       0.11068511       0.55578315       0.95539999 </v>
    <v>       0.22244981       0.44401845       0.04460000 </v>
    <v>       0.11068511       0.88911647       0.95539999 </v>
    <v>       0.22244981       0.77735180       0.04460000 </v>
    <v>       0.44401845       0.22244981       0.95539999 </v>
    <v>       0.55578315       0.11068511       0.04460000 </v>
    <v>       0.44401845       0.55578315       0.95539999 </v>
    <v>       0.55578315       0.44401845       0.04460000 </v>
    <v>       0.44401845       0.88911647       0.95539999 </v>
    <v>       0.55578315       0.77735180       0.04460000 </v>
    <v>       0.77735180       0.22244981       0.95539999 </v>
    <v>       0.88911647       0.11068511       0.04460000 </v>
    <v>       0.77735180       0.55578315       0.95539999 </v>
    <v>       0.88911647       0.44401845       0.04460000 </v>
    <v>       0.77735180       0.88911647       0.95539999 </v>
    <v>       0.88911647       0.77735180       0.04460000 </v>
   </varray>
  </structure>
  <varray name="forces" >
   <v>      -0.22264227      -0.27042078       0.04602952 </v>
   <v>       0.35196878      -0.03149941      -0.06767056 </v>
   <v>       0.05722023      -0.04218168       0.08646400 </v>
   <v>      -0.53361778      -0.02468297      -0.01807288 </v>
   <v>       0.26850450       0.44729764      -0.13932825 </v>
   <v>       0.29277905      -0.40198100      -0.00238718 </v>
   <v>       0.05111399      -0.02603084       0.09012639 </v>
   <v>      -0.01545380       0.09576831      -0.05275527 </v>
   <v>      -0.28293136       0.29318349       0.05962215 </v>
   <v>       0.37080718       0.69470649      -2.12016152 </v>
   <v>       0.32390968       0.68761631       1.42541754 </v>
   <v>       0.24835337       0.00800912      -2.85068947 </v>
   <v>       0.62465086      -0.01830469       2.17486009 </v>
   <v>       0.52724596       0.69072385      -2.17417877 </v>
   <v>      -0.36204174       0.68177174       2.14672641 </v>
   <v>      -0.23484468      -0.52664670      -1.41243155 </v>
   <v>       0.23780133      -0.51691998       1.35789159 </v>
   <v>       0.36374742      -0.68422262      -2.11233159 </v>
   <v>      -0.36653857      -0.73325034       2.15666235 </v>
   <v>      -0.22010491       0.52922382      -1.43892083 </v>
   <v>      -0.61967305       0.53887567       2.13012538 </v>
   <v>       0.48100628      -0.60405014      -2.17831981 </v>
   <v>      -0.62468668      -0.53212338       2.13094014 </v>
   <v>       0.19279574      -0.14149746      -2.93821870 </v>
   <v>      -0.03298142      -0.11068179       2.90813186 </v>
   <v>      -0.76934944      -0.01769082      -2.14922625 </v>
   <v>      -0.10703867       0.01500819       2.94169522 </v>
  </varray>
  <varray name="stress" >
   <v>       7.27238550       0.05143471      -1.53929382 </v>
   <v>       0.05143471       4.50810496       0.05186858 </v>
   <v>      -1.53929376       0.05186846      30.27128661 </v>
  </varray>
  <energy>
   <i name="e_fr_energy">   -186.89306944 </i>
   <i name="e_wo_entrp">   -186.72236997 </i>
   <i name="e_0_energy">     -0.34139894 </i>
  </energy>
  <time name="totalsc">  798.85  801.16</time>
 </calculation>
 <calculation>
  <scstep>
   <time name="dav">   22.01   22.06</time>
   <time name="total">   22.55   22.61</time>
   <energy>
    <i name="alphaZ">     78.91535245 </i>
    <i name="ewald">  39377.60066754 </i>
    <i name="hartreedc"> -45335.15660191 </i>
    <i name="XCdc">   -239.05670985 </i>
    <i name="pawpsdc">   4192.16233915 </i>
    <i name="pawaedc">  -3610.18680743 </i>
    <i name="eentropy">     -0.28154350 </i>
    <i name="bandstr">  -1412.97266894 </i>
    <i name="atom">   6761.44252427 </i>
    <i name="e_fr_energy">   -187.53344822 </i>
    <i name="e_wo_entrp">   -187.25190472 </i>
    <i name="e_0_energy">   -187.39267647 </i>
   </energy>
  </scstep>
  <scstep>
   <time name="dav">   30.77   30.84</time>
   <time name="total">   31.31   31.39</time>
   <energy>
    <i name="e_fr_energy">   -189.42791884 </i>
    <i name="e_wo_entrp">   -189.10246925 </i>
    <i name="e_0_energy">   -189.26519404 </i>
   </energy>
  </scstep>
  <scstep>
   <time name="dav">   30.98   31.06</time>
   <time name="total">   31.55   31.63</time>
   <energy>
    <i name="e_fr_energy">   -189.39519511 </i>
    <i name="e_wo_entrp">   -189.12206151 </i>
    <i name="e_0_energy">   -189.25862831 </i>
   </energy>
  </scstep>
  <scstep>
   <time name="dav">   30.98   31.06</time>
   <time name="total">   31.53   31.61</time>
   <energy>
    <i name="e_fr_energy">   -188.78801597 </i>
    <i name="e_wo_entrp">   -188.50768442 </i>
    <i name="e_0_energy">   -188.64785019 </i>
   </energy>
  </scstep>
  <scstep>
   <time name="dav">   30.21   30.28</time>
   <time name="total">   30.75   30.83</time>
   <energy>
    <i name="e_fr_energy">   -188.89545198 </i>
    <i name="e_wo_entrp">   -188.60555387 </i>
    <i name="e_0_energy">   -188.75050293 </i>
   </energy>
  </scstep>
  <scstep>
   <time name="dav">   31.85   31.92</time>
   <time name="total">   32.39   32.48</time>
   <energy>
    <i name="e_fr_energy">   -188.75274822 </i>
    <i name="e_wo_entrp">   -188.47467941 </i>
    <i name="e_0_energy">   -188.61371382 </i>
   </energy>
  </scstep>
  <scstep>
   <time name="dav">   29.86   29.93</time>
   <time name="total">   30.40   30.48</time>
   <energy>
    <i name="e_fr_energy">   -188.72262913 </i>
    <i name="e_wo_entrp">   -188.44205701 </i>
    <i name="e_0_energy">   -188.58234307 </i>
   </energy>
  </scstep>
  <scstep>
   <time name="dav">   32.77   32.85</time>
   <time name="total">   33.32   33.41</time>
   <energy>
    <i name="e_fr_energy">   -188.71179878 </i>
    <i name="e_wo_entrp">   -188.43287416 </i>
    <i name="e_0_energy">   -188.57233647 </i>
   </energy>
  </scstep>
  <scstep>
   <time name="dav">   29.83   29.90</time>
   <time name="total">   30.37   30.45</time>
   <energy>
    <i name="e_fr_energy">   -188.70194491 </i>
    <i name="e_wo_entrp">   -188.42322180 </i>
    <i name="e_0_energy">   -188.56258335 </i>
   </energy>
  </scstep>
  <scstep>
   <time name="dav">   29.50   29.57</time>
   <time name="total">   30.05   30.13</time>
   <energy>
    <i name="e_fr_energy">   -188.70131095 </i>
    <i name="e_wo_entrp">   -188.42305165 </i>
    <i name="e_0_energy">   -188.56218130 </i>
   </energy>
  </scstep>
  <scstep>
   <time name="dav">   31.03   31.10</time>
   <time name="total">   31.58   31.66</time>
   <energy>
    <i name="e_fr_energy">   -188.70073364 </i>
    <i name="e_wo_entrp">   -188.42264483 </i>
    <i name="e_0_energy">   -188.56168924 </i>
   </energy>
  </scstep>
  <scstep>
   <time name="dav">   28.82   28.89</time>
   <time name="total">   29.37   29.45</time>
   <energy>
    <i name="e_fr_energy">   -188.70085250 </i>
    <i name="e_wo_entrp">   -188.42287046 </i>
    <i name="e_0_energy">   -188.56186148 </i>
   </energy>
  </scstep>
  <scstep>
   <time name="dav">   21.90   21.96</time>
   <time name="total">   21.94   22.00</time>
   <energy>
    <i name="alphaZ">     78.91535245 </i>
    <i name="ewald">  39377.60066754 </i>
    <i name="hartreedc"> -45345.89867559 </i>
    <i name="XCdc">   -237.96857203 </i>
    <i name="pawpsdc">   3950.58703699 </i>
    <i name="pawaedc">  -3365.10838122 </i>
    <i name="eentropy">     -0.27807010 </i>
    <i name="bandstr">  -1407.99266704 </i>
    <i name="atom">   6761.44252427 </i>
    <i name="e_fr_energy">   -188.70078473 </i>
    <i name="e_wo_entrp">   -188.42271463 </i>
    <i name="e_0_energy">   -188.56174968 </i>
   </energy>
  </scstep>
  <structure>
   <crystal>
    <varray name="basis" >
     <v>       8.85511240       5.10773652       0.00000000 </v>
     <v>      -8.85359635       5.10512902       0.00000000 </v>
     <v>       0.00000000       0.00000000      30.00000000 </v>
    </varray>
    <i name="volume">   2712.84986112 </i>
    <varray name="rec_basis" >
     <v>       0.05645497       0.09790733       0.00000000 </v>
     <v>      -0.05648381       0.09792410       0.00000000 </v>
     <v>       0.00000000       0.00000000       0.03333333 </v>
    </varray>
   </crystal>
   <varray name="positions" >
    <v>       0.33141969      -0.00067480       0.00007402 </v>
    <v>       0.66749516      -0.00112999      -0.00010882 </v>
    <v>       0.33329066       0.33297227       0.00013904 </v>
    <v>      -0.00160274       0.66803316      -0.00002906 </v>
    <v>       0.66955447       0.66806042      -0.00022405 </v>
    <v>      -0.00110931      -0.00273843      -0.00000384 </v>
    <v>       1.00001762       0.33306655       0.00014493 </v>
    <v>       0.33374869       0.66716803      -0.00008484 </v>
    <v>       0.66728270       0.33552367       0.00009588 </v>
    <v>       0.11504160       0.22474301       0.95199058 </v>
    <v>       0.22664189       0.11307486       0.04689220 </v>
    <v>       0.11141440       0.55513053       0.95081583 </v>
    <v>       0.22410008       0.44219297       0.04809737 </v>
    <v>       0.11545778       0.89095537       0.95190372 </v>
    <v>       0.22470550       0.78162200       0.04805212 </v>
    <v>       0.44084456       0.22058267       0.95312868 </v>
    <v>       0.55397079       0.10754954       0.04678361 </v>
    <v>       0.44175578       0.55149647       0.95200317 </v>
    <v>       0.55125406       0.44152890       0.04806810 </v>
    <v>       0.44593894       0.89226169       0.95308608 </v>
    <v>       0.55663817       0.78165487       0.04802543 </v>
    <v>       0.77579906       0.21822060       0.95189706 </v>
    <v>       0.88483176       0.10987636       0.04802674 </v>
    <v>       0.77721098       0.55456956       0.95067507 </v>
    <v>       0.88849499       0.44358049       0.04927653 </v>
    <v>       0.77512668       0.89117225       0.95194384 </v>
    <v>       0.88889050       0.77772142       0.04933050 </v>
   </varray>
  </structure>
  <varray name="forces" >
   <v>      -0.14799681      -0.26561092       0.09795388 </v>
   <v>       0.30114432      -0.01985509       0.05390233 </v>
   <v>      -0.05277391      -0.03816505      -0.03918585 </v>
   <v>      -0.54108853      -0.20305156       0.00120371 </v>
   <v>       0.42039293       0.50433275      -0.03584496 </v>
   <v>       0.27084721      -0.52850042      -0.01139758 </v>
   <v>      -0.04006254       0.08049346      -0.05850219 </v>
   <v>       0.00759060      -0.08565722      -0.08184717 </v>
   <v>      -0.18630068       0.50848863       0.10569948 </v>
   <v>      -0.09805368       0.04268128       0.16116777 </v>
   <v>       0.01813496       0.02758673      -0.04786815 </v>
   <v>       0.09010340      -0.00378066       0.10532204 </v>
   <v>      -0.06870230      -0.00264991       0.00562152 </v>
   <v>       0.01990888       0.07688101      -0.15168509 </v>
   <v>       0.10597281       0.04799086      -0.06351146 </v>
   <v>       0.06601754       0.07231715       0.15868173 </v>
   <v>      -0.06587022       0.07955395      -0.31610028 </v>
   <v>      -0.10751059      -0.04035538       0.13041079 </v>
   <v>       0.10243278      -0.04038057      -0.03014026 </v>
   <v>       0.05522853      -0.06617419       0.11290927 </v>
   <v>      -0.07199745      -0.05616649      -0.08464372 </v>
   <v>      -0.05795635       0.04396923       0.14730481 </v>
   <v>      -0.07487499       0.04780706      -0.04487780 </v>
   <v>       0.04370002      -0.09971038      -0.27963958 </v>
   <v>       0.06282650      -0.08071097       0.02838886 </v>
   <v>      -0.04702586      -0.00058631      -0.21625175 </v>
   <v>      -0.00408653      -0.00074700       0.35292965 </v>
  </varray>
  <varray name="stress" >
   <v>     -19.87171555      -0.00210870       0.02540428 </v>
   <v>      -0.00210865     -19.47840415      -0.00517050 </v>
   <v>       0.02540424      -0.00517050      -1.74753041 </v>
  </varray>
  <energy>
   <i name="e_fr_energy">   -188.70078473 </i>
   <i name="e_wo_entrp">   -188.56174968 </i>
   <i name="e_0_energy">     -0.27807010 </i>
  </energy>
  <time name="totalsc">  429.12  430.25</time>
 </calculation>
 <calculation>
  <scstep>
   <time name="dav">   23.66   23.72</time>
   <time name="total">   24.20   24.26</time>
   <energy>
    <i name="alphaZ">     82.32986869 </i>
    <i name="ewald">  41295.53113447 </i>
    <i name="hartreedc"> -47294.20159058 </i>
    <i name="XCdc">   -233.85795746 </i>
    <i name="pawpsdc">   3949.73234254 </i>
    <i name="pawaedc">  -3364.24600283 </i>
    <i name="eentropy">     -0.23502501 </i>
    <i name="bandstr">  -1387.11504442 </i>
    <i name="atom">   6761.44252427 </i>
    <i name="e_fr_energy">   -190.61975033 </i>
    <i name="e_wo_entrp">   -190.38472531 </i>
    <i name="e_0_energy">   -190.50223782 </i>
   </energy>
  </scstep>
  <scstep>
   <time name="dav">   28.37   28.43</time>
   <time name="total">   28.89   28.96</time>
   <energy>
    <i name="e_fr_energy">   -190.56606863 </i>
    <i name="e_wo_entrp">   -190.33220309 </i>
    <i name="e_0_energy">   -190.44913586 </i>
   </energy>
  </scstep>
  <scstep>
   <time name="dav">   30.76   30.83</time>
   <time name="total">   31.28   31.37</time>
   <energy>
    <i name="e_fr_energy">   -190.10593433 </i>
    <i name="e_wo_entrp">   -189.85534573 </i>
    <i name="e_0_energy">   -189.98064003 </i>
   </energy>
  </scstep>
  <scstep>
   <time name="dav">   31.76   31.84</time>
   <time name="total">   32.30   32.39</time>
   <energy>
    <i name="e_fr_energy">   -189.89728267 </i>
    <i name="e_wo_entrp">   -189.66376313 </i>
    <i name="e_0_energy">   -189.78052290 </i>
   </energy>
  </scstep>
  <scstep>
   <time name="dav">   30.59   30.66</time>
   <time name="total">   31.12   31.20</time>
   <energy>
    <i name="e_fr_energy">   -189.87644200 </i>
    <i name="e_wo_entrp">   -189.63807382 </i>
    <i name="e_0_energy">   -189.75725791 </i>
   </energy>
  </scstep>
  <scstep>
   <time name="dav">   31.41   31.49</time>
   <time name="total">   31.94   32.03</time>
   <energy>
    <i name="e_fr_energy">   -189.79959594 </i>
    <i name="e_wo_entrp">   -189.56231497 </i>
    <i name="e_0_energy">   -189.68095546 </i>
   </energy>
  </scstep>
  <scstep>
   <time name="dav">   28.97   29.04</time>
   <time name="total">   29.50   29.58</time>
   <energy>
    <i name="e_fr_energy">   -189.79316328 </i>
    <i name="e_wo_entrp">   -189.55643962 </i>
    <i name="e_0_energy">   -189.67480145 </i>
   </energy>
  </scstep>
  <scstep>
   <time name="dav">   30.14   30.21</time>
   <time name="total">   30.67   30.75</time>
   <energy>
    <i name="e_fr_energy">   -189.79359172 </i>
    <i name="e_wo_entrp">   -189.55690259 </i>
    <i name="e_0_energy">   -189.67524715 </i>
   </energy>
  </scstep>
  <scstep>
   <time name="dav">   27.58   27.64</time>
   <time name="total">   28.11   28.19</time>
   <energy>
    <i name="e_fr_energy">   -189.79320780 </i>
    <i name="e_wo_entrp">   -189.55642751 </i>
    <i name="e_0_energy">   -189.67481766 </i>
   </energy>
  </scstep>
  <scstep>
   <time name="dav">   25.17   25.23</time>
   <time name="total">   25.70   25.77</time>
   <energy>
    <i name="e_fr_energy">   -189.79340020 </i>
    <i name="e_wo_entrp">   -189.55652793 </i>
    <i name="e_0_energy">   -189.67496406 </i>
   </energy>
  </scstep>
  <scstep>
   <time name="dav">   23.43   23.48</time>
   <time name="total">   23.96   24.03</time>
   <energy>
    <i name="e_fr_energy">   -189.79319990 </i>
    <i name="e_wo_entrp">   -189.55634253 </i>
    <i name="e_0_energy">   -189.67477122 </i>
   </energy>
  </scstep>
  <scstep>
   <time name="dav">   20.04   20.09</time>
   <time name="total">   20.08   20.14</time>
   <energy>
    <i name="alphaZ">     82.32986869 </i>
    <i name="ewald">  41295.53113447 </i>
    <i name="hartreedc"> -47267.80517787 </i>
    <i name="XCdc">   -235.24490578 </i>
    <i name="pawpsdc">   4038.76214566 </i>
    <i name="pawaedc">  -3454.47509970 </i>
    <i name="eentropy">     -0.23686987 </i>
    <i name="bandstr">  -1410.09683692 </i>
    <i name="atom">   6761.44252427 </i>
    <i name="e_fr_energy">   -189.79321704 </i>
    <i name="e_wo_entrp">   -189.55634718 </i>
    <i name="e_0_energy">   -189.67478211 </i>
   </energy>
  </scstep>
  <structure>
   <crystal>
    <varray name="basis" >
     <v>       8.66767516       5.00174692       0.00000000 </v>
     <v>      -8.66621413       4.99923330       0.00000000 </v>
     <v>       0.00000000       0.00000000      30.00000000 </v>
    </varray>
    <i name="volume">   2600.33820460 </i>
    <varray name="rec_basis" >
     <v>       0.05767596       0.09998177       0.00000000 </v>
     <v>      -0.05770496       0.09999863       0.00000000 </v>
     <v>       0.00000000       0.00000000       0.03333333 </v>
    </varray>
   </crystal>
   <varray name="positions" >
    <v>       0.33083610      -0.00097458       0.00012948 </v>
    <v>       0.66775090      -0.00145191      -0.00007830 </v>
    <v>       0.33317659       0.33295942       0.00011686 </v>
    <v>      -0.00245922       0.66821454      -0.00002838 </v>
    <v>       0.67079621       0.66849591      -0.00024435 </v>
    <v>      -0.00172845      -0.00387725      -0.00001029 </v>
    <v>       1.00011306       0.33323886       0.00011181 </v>
    <v>       0.33361353       0.66701828      -0.00013117 </v>
    <v>       0.66794962       0.33654810       0.00015572 </v>
    <v>       0.11501856       0.22490807       0.95208183 </v>
    <v>       0.22670516       0.11310334       0.04686510 </v>
    <v>       0.11149451       0.55503780       0.95087546 </v>
    <v>       0.22402980       0.44225447       0.04810055 </v>
    <v>       0.11560472       0.89106414       0.95181784 </v>
    <v>       0.22488691       0.78160015       0.04801617 </v>
    <v>       0.44102812       0.22063961       0.95321851 </v>
    <v>       0.55403992       0.10774505       0.04660465 </v>
    <v>       0.44158559       0.55153250       0.95207701 </v>
    <v>       0.55128513       0.44136347       0.04805104 </v>
    <v>       0.44588185       0.89209864       0.95315000 </v>
    <v>       0.55647574       0.78163053       0.04797751 </v>
    <v>       0.77581661       0.21834933       0.95198045 </v>
    <v>       0.88483946       0.11002770       0.04800133 </v>
    <v>       0.77708708       0.55436180       0.95051676 </v>
    <v>       0.88842101       0.44338598       0.04929260 </v>
    <v>       0.77508061       0.89121639       0.95182141 </v>
    <v>       0.88888534       0.77772410       0.04953031 </v>
   </varray>
  </structure>
  <varray name="forces" >
   <v>      -0.12462585      -0.27021911       0.08712836 </v>
   <v>       0.30483607      -0.00697499       0.07337211 </v>
   <v>      -0.11321328      -0.02985677      -0.05762252 </v>
   <v>      -0.52885977      -0.27306154       0.00317950 </v>
   <v>       0.46298006       0.50902542      -0.00216871 </v>
   <v>       0.24777432      -0.55338372      -0.01300070 </v>
   <v>      -0.07208239       0.12240054      -0.07666879 </v>
   <v>       0.02333181      -0.15592355      -0.06128937 </v>
   <v>      -0.15519501       0.57432924       0.08627219 </v>
   <v>       0.03042165       0.08129668      -0.31476604 </v>
   <v>       0.03977736       0.07500621       0.39791420 </v>
   <v>      -0.00534459      -0.00352538      -0.43484078 </v>
   <v>       0.07559253       0.00358966       0.52610435 </v>
   <v>       0.05905381       0.13540599      -0.65117688 </v>
   <v>      -0.01355357       0.09055964       0.42381043 </v>
   <v>       0.00237020      -0.04859870      -0.28335240 </v>
   <v>       0.00672219      -0.04165283       0.11580864 </v>
   <v>       0.02491067      -0.08124290      -0.34884795 </v>
   <v>      -0.03708721      -0.08177979       0.46850969 </v>
   <v>      -0.03272814       0.07695532      -0.34703979 </v>
   <v>      -0.04899001       0.06426785       0.39365391 </v>
   <v>       0.00110176      -0.08281615      -0.34815537 </v>
   <v>      -0.05547256      -0.07792670       0.44240660 </v>
   <v>       0.00582181      -0.02931829      -0.86339258 </v>
   <v>       0.02461134       0.00241364       0.59434256 </v>
   <v>      -0.11297636       0.00347453      -0.72899298 </v>
   <v>      -0.00917682      -0.00244430       0.91881233 </v>
  </varray>
  <varray name="stress" >
   <v>     -10.15134425      -0.00966558       0.00189123 </v>
   <v>      -0.00966548      -9.84433188      -0.01742087 </v>
   <v>       0.00189117      -0.01742110       6.45873828 </v>
  </varray>
  <energy>
   <i name="e_fr_energy">   -189.79321704 </i>
   <i name="e_wo_entrp">   -189.67478211 </i>
   <i name="e_0_energy">     -0.23686987 </i>
  </energy>
  <time name="totalsc">  380.13  381.14</time>
 </calculation>
 <calculation>
  <scstep>
   <time name="dav">   21.95   22.00</time>
   <time name="total">   22.47   22.52</time>
   <energy>
    <i name="alphaZ">     85.80926079 </i>
    <i name="ewald">  42829.00099866 </i>
    <i name="hartreedc"> -48845.69397455 </i>
    <i name="XCdc">   -232.95111816 </i>
    <i name="pawpsdc">   4038.81014333 </i>
    <i name="pawaedc">  -3454.52091436 </i>
    <i name="eentropy">     -0.20512423 </i>
    <i name="bandstr">  -1373.06428291 </i>
    <i name="atom">   6761.44252427 </i>
    <i name="e_fr_energy">   -191.37248716 </i>
    <i name="e_wo_entrp">   -191.16736293 </i>
    <i name="e_0_energy">   -191.26992504 </i>
   </energy>
  </scstep>
  <scstep>
   <time name="dav">   32.69   32.77</time>
   <time name="total">   33.20   33.29</time>
   <energy>
    <i name="e_fr_energy">   -191.20626850 </i>
    <i name="e_wo_entrp">   -191.00108318 </i>
    <i name="e_0_energy">   -191.10367584 </i>
   </energy>
  </scstep>
  <scstep>
   <time name="dav">   30.40   30.47</time>
   <time name="total">   30.91   30.99</time>
   <energy>
    <i name="e_fr_energy">   -191.31600747 </i>
    <i name="e_wo_entrp">   -191.08756999 </i>
    <i name="e_0_energy">   -191.20178873 </i>
   </energy>
  </scstep>
  <scstep>
   <time name="dav">   30.96   31.04</time>
   <time name="total">   31.48   31.57</time>
   <energy>
    <i name="e_fr_energy">   -190.94196423 </i>
    <i name="e_wo_entrp">   -190.73330055 </i>
    <i name="e_0_energy">   -190.83763239 </i>
   </energy>
  </scstep>
  <scstep>
   <time name="dav">   31.18   31.26</time>
   <time name="total">   31.70   31.79</time>
   <energy>
    <i name="e_fr_energy">   -190.89782829 </i>
    <i name="e_wo_entrp">   -190.69080748 </i>
    <i name="e_0_energy">   -190.79431788 </i>
   </energy>
  </scstep>
  <scstep>
   <time name="dav">   30.56   30.64</time>
   <time name="total">   31.08   31.16</time>
   <energy>
    <i name="e_fr_energy">   -190.80636391 </i>
    <i name="e_wo_entrp">   -190.59557807 </i>
    <i name="e_0_energy">   -190.70097099 </i>
   </energy>
  </scstep>
  <scstep>
   <time name="dav">   31.54   31.61</time>
   <time name="total">   32.06   32.14</time>
   <energy>
    <i name="e_fr_energy">   -190.79232449 </i>
    <i name="e_wo_entrp">   -190.58235884 </i>
    <i name="e_0_energy">   -190.68734166 </i>
   </energy>
  </scstep>
  <scstep>
   <time name="dav">   28.84   28.91</time>
   <time name="total">   29.36   29.44</time>
   <energy>
    <i name="e_fr_energy">   -190.79160401 </i>
    <i name="e_wo_entrp">   -190.58170909 </i>
    <i name="e_0_energy">   -190.68665655 </i>
   </energy>
  </scstep>
  <scstep>
   <time name="dav">   28.41   28.47</time>
   <time name="total">   28.92   29.00</time>
   <energy>
    <i name="e_fr_energy">   -190.78942483 </i>
    <i name="e_wo_entrp">   -190.57960638 </i>
    <i name="e_0_energy">   -190.68451560 </i>
   </energy>
  </scstep>
  <scstep>
   <time name="dav">   28.66   28.73</time>
   <time name="total">   29.19   29.48</time>
   <energy>
    <i name="e_fr_energy">   -190.78969145 </i>
    <i name="e_wo_entrp">   -190.57981896 </i>
    <i name="e_0_energy">   -190.68475521 </i>
   </energy>
  </scstep>
  <scstep>
   <time name="dav">   25.31   25.37</time>
   <time name="total">   25.83   25.90</time>
   <energy>
    <i name="e_fr_energy">   -190.78957035 </i>
    <i name="e_wo_entrp">   -190.57970942 </i>
    <i name="e_0_energy">   -190.68463989 </i>
   </energy>
  </scstep>
  <scstep>
   <time name="dav">   19.66   19.71</time>
   <time name="total">   19.70   19.76</time>
   <energy>
    <i name="alphaZ">     85.80926079 </i>
    <i name="ewald">  42829.00099866 </i>
    <i name="hartreedc"> -48817.11630971 </i>
    <i name="XCdc">   -234.28108452 </i>
    <i name="pawpsdc">   4064.19975936 </i>
    <i name="pawaedc">  -3480.09660163 </i>
    <i name="eentropy">     -0.20990392 </i>
    <i name="bandstr">  -1399.53821073 </i>
    <i name="atom">   6761.44252427 </i>
    <i name="e_fr_energy">   -190.78956742 </i>
    <i name="e_wo_entrp">   -190.57966349 </i>
    <i name="e_0_energy">   -190.68461545 </i>
   </energy>
  </scstep>
  <structure>
   <crystal>
    <varray name="basis" >
     <v>       8.48572895       4.90128411       0.00000000 </v>
     <v>      -8.48477292       4.89964297       0.00000000 </v>
     <v>       0.00000000       0.00000000      30.00000000 </v>
    </varray>
    <i name="volume">   2494.89974590 </i>
    <varray name="rec_basis" >
     <v>       0.05891591       0.10202542       0.00000000 </v>
     <v>      -0.05893564       0.10203691       0.00000000 </v>
     <v>       0.00000000       0.00000000       0.03333333 </v>
    </varray>
   </crystal>
   <varray name="positions" >
    <v>       0.32871466      -0.00226251       0.00030071 </v>
    <v>       0.66884678      -0.00257126       0.00009027 </v>
    <v>       0.33251379       0.33328990      -0.00001821 </v>
    <v>      -0.00623963       0.66822318      -0.00002011 </v>
    <v>       0.67573254       0.66996153      -0.00022013 </v>
    <v>      -0.00439567      -0.00827032      -0.00003859 </v>
    <v>       1.00067810       0.33441782      -0.00006248 </v>
    <v>       0.33256771       0.66575806      -0.00024059 </v>
    <v>       0.67119690       0.34082854       0.00031785 </v>
    <v>       0.11592008       0.22521863       0.95102417 </v>
    <v>       0.22746889       0.11351700       0.04806927 </v>
    <v>       0.11131594       0.55517354       0.94951434 </v>
    <v>       0.22454951       0.44181076       0.04963392 </v>
    <v>       0.11686966       0.89178912       0.95004331 </v>
    <v>       0.22533935       0.78249594       0.04930939 </v>
    <v>       0.44033755       0.22011562       0.95225482 </v>
    <v>       0.55360456       0.10705133       0.04721269 </v>
    <v>       0.44125541       0.55063960       0.95094592 </v>
    <v>       0.55033357       0.44108298       0.04944650 </v>
    <v>       0.44647710       0.89318475       0.95203912 </v>
    <v>       0.55703607       0.78247883       0.04920058 </v>
    <v>       0.77506951       0.21742356       0.95083699 </v>
    <v>       0.88386386       0.10939711       0.04933304 </v>
    <v>       0.77704598       0.55438800       0.94823085 </v>
    <v>       0.88867806       0.44357545       0.05100607 </v>
    <v>       0.77460892       0.89175222       0.94987441 </v>
    <v>       0.88882525       0.77774508       0.05191578 </v>
   </varray>
  </structure>
  <varray name="forces" >
   <v>      -0.09113154      -0.24118851       0.03764161 </v>
   <v>       0.30652600      -0.02159943       0.07432844 </v>
   <v>      -0.18349967      -0.04971101      -0.06007402 </v>
   <v>      -0.47420014      -0.33088739       0.00080771 </v>
   <v>       0.46687096       0.48132976       0.03097542 </v>
   <v>       0.21783827      -0.52550680      -0.02187523 </v>
   <v>      -0.09401197       0.17752613      -0.05074424 </v>
   <v>       0.03924515      -0.20259212      -0.01253533 </v>
   <v>      -0.14798520       0.58248254       0.02191122 </v>
   <v>       0.06459431      -0.06392320      -0.18189458 </v>
   <v>      -0.02326095      -0.04559549       0.30590510 </v>
   <v>      -0.11228412       0.01140471      -0.29740139 </v>
   <v>       0.04107891      -0.00756409       0.39834617 </v>
   <v>       0.00332461      -0.00726473      -0.45946882 </v>
   <v>      -0.04849215      -0.03455340       0.26801031 </v>
   <v>       0.02664969       0.02416169      -0.13875382 </v>
   <v>      -0.02999061       0.03974221       0.02967539 </v>
   <v>       0.06627435       0.06395805      -0.20881124 </v>
   <v>      -0.04212641       0.05110399       0.30433727 </v>
   <v>      -0.01702992       0.02834391      -0.23871225 </v>
   <v>       0.05578952       0.00716451       0.20958048 </v>
   <v>      -0.02849828      -0.03523060      -0.20358532 </v>
   <v>       0.03660854      -0.01436652       0.26385521 </v>
   <v>      -0.03288254       0.03379362      -0.68431226 </v>
   <v>      -0.01863418       0.08293684       0.46137784 </v>
   <v>       0.02055468      -0.01143045      -0.56288395 </v>
   <v>      -0.00132732       0.00746579       0.71430030 </v>
  </varray>
  <varray name="stress" >
   <v>      -5.70636475       0.08029302      -0.01541002 </v>
   <v>       0.08029321      -5.65712163       0.04351073 </v>
   <v>      -0.01540992       0.04351070       4.48868027 </v>
  </varray>
  <energy>
   <i name="e_fr_energy">   -190.78956742 </i>
   <i name="e_wo_entrp">   -190.68461545 </i>
   <i name="e_0_energy">     -0.20990392 </i>
  </energy>
  <time name="totalsc">  388.11  389.35</time>
 </calculation>
 <calculation>
  <scstep>
   <time name="dav">   21.96   22.01</time>
   <time name="total">   22.47   22.52</time>
   <energy>
    <i name="alphaZ">     90.06199653 </i>
    <i name="ewald">  44613.93928011 </i>
    <i name="hartreedc"> -50656.22056277 </i>
    <i name="XCdc">   -231.90136028 </i>
    <i name="pawpsdc">   4064.14318916 </i>
    <i name="pawaedc">  -3480.03634305 </i>
    <i name="eentropy">     -0.20322889 </i>
    <i name="bandstr">  -1353.32049326 </i>
    <i name="atom">   6761.44252427 </i>
    <i name="e_fr_energy">   -192.09499817 </i>
    <i name="e_wo_entrp">   -191.89176928 </i>
    <i name="e_0_energy">   -191.99338373 </i>
   </energy>
  </scstep>
  <scstep>
   <time name="dav">   28.90   28.97</time>
   <time name="total">   29.41   29.49</time>
   <energy>
    <i name="e_fr_energy">   -191.86225535 </i>
    <i name="e_wo_entrp">   -191.65323456 </i>
    <i name="e_0_energy">   -191.75774496 </i>
   </energy>
  </scstep>
  <scstep>
   <time name="dav">   28.24   28.31</time>
   <time name="total">   28.75   28.83</time>
   <energy>
    <i name="e_fr_energy">   -192.06214225 </i>
    <i name="e_wo_entrp">   -191.84242453 </i>
    <i name="e_0_energy">   -191.95228339 </i>
   </energy>
  </scstep>
  <scstep>
   <time name="dav">   28.79   28.86</time>
   <time name="total">   29.29   29.37</time>
   <energy>
    <i name="e_fr_energy">   -191.74743093 </i>
    <i name="e_wo_entrp">   -191.53221838 </i>
    <i name="e_0_energy">   -191.63982465 </i>
   </energy>
  </scstep>
  <scstep>
   <time name="dav">   30.61   30.68</time>
   <time name="total">   31.12   31.20</time>
   <energy>
    <i name="e_fr_energy">   -191.57258544 </i>
    <i name="e_wo_entrp">   -191.37275547 </i>
    <i name="e_0_energy">   -191.47267045 </i>
   </energy>
  </scstep>
  <scstep>
   <time name="dav">   30.47   30.54</time>
   <time name="total">   30.98   31.06</time>
   <energy>
    <i name="e_fr_energy">   -191.44738315 </i>
    <i name="e_wo_entrp">   -191.23458882 </i>
    <i name="e_0_energy">   -191.34098599 </i>
   </energy>
  </scstep>
  <scstep>
   <time name="dav">   30.53   30.61</time>
   <time name="total">   31.04   31.13</time>
   <energy>
    <i name="e_fr_energy">   -191.43313684 </i>
    <i name="e_wo_entrp">   -191.22223853 </i>
    <i name="e_0_energy">   -191.32768769 </i>
   </energy>
  </scstep>
  <scstep>
   <time name="dav">   27.35   27.42</time>
   <time name="total">   27.86   27.94</time>
   <energy>
    <i name="e_fr_energy">   -191.42898220 </i>
    <i name="e_wo_entrp">   -191.21830499 </i>
    <i name="e_0_energy">   -191.32364360 </i>
   </energy>
  </scstep>
  <scstep>
   <time name="dav">   31.50   31.58</time>
   <time name="total">   32.01   32.10</time>
   <energy>
    <i name="e_fr_energy">   -191.43038660 </i>
    <i name="e_wo_entrp">   -191.21990326 </i>
    <i name="e_0_energy">   -191.32514493 </i>
   </energy>
  </scstep>
  <scstep>
   <time name="dav">   28.33   28.39</time>
   <time name="total">   28.83   28.91</time>
   <energy>
    <i name="e_fr_energy">   -191.42889255 </i>
    <i name="e_wo_entrp">   -191.21800095 </i>
    <i name="e_0_energy">   -191.32344675 </i>
   </energy>
  </scstep>
  <scstep>
   <time name="dav">   25.01   25.07</time>
   <time name="total">   25.04   25.11</time>
   <energy>
    <i name="alphaZ">     90.06199653 </i>
    <i name="ewald">  44613.93928011 </i>
    <i name="hartreedc"> -50623.11588753 </i>
    <i name="XCdc">   -233.38639349 </i>
    <i name="pawpsdc">   4085.11230018 </i>
    <i name="pawaedc">  -3501.09920877 </i>
    <i name="eentropy">     -0.21083540 </i>
    <i name="bandstr">  -1384.17273757 </i>
    <i name="atom">   6761.44252427 </i>
    <i name="e_fr_energy">   -191.42896166 </i>
    <i name="e_wo_entrp">   -191.21812626 </i>
    <i name="e_0_energy">   -191.32354396 </i>
   </energy>
  </scstep>
  <structure>
   <crystal>
    <varray name="basis" >
     <v>       8.28364307       4.78892062       0.00000000 </v>
     <v>      -8.27824976       4.77959561       0.00000000 </v>
     <v>       0.00000000       0.00000000      30.00000000 </v>
    </varray>
    <i name="volume">   2377.09035082 </i>
    <varray name="rec_basis" >
     <v>       0.06032075       0.10447541       0.00000000 </v>
     <v>      -0.06043843       0.10454348       0.00000000 </v>
     <v>       0.00000000       0.00000000       0.03333333 </v>
    </varray>
   </crystal>
   <varray name="positions" >
    <v>       0.32509108      -0.00462087       0.00046533 </v>
    <v>       0.67079981      -0.00492876       0.00040296 </v>
    <v>       0.33064602       0.33406247      -0.00027267 </v>
    <v>      -0.01372236       0.66745787      -0.00001375 </v>
    <v>       0.68498047       0.67252608      -0.00008230 </v>
    <v>      -0.00937785      -0.01629125      -0.00012210 </v>
    <v>       1.00217247       0.33729530      -0.00029465 </v>
    <v>       0.33026911       0.66288688      -0.00029598 </v>
    <v>       0.67745345       0.34907431       0.00041967 </v>
    <v>       0.11612258       0.22415789       0.94977324 </v>
    <v>       0.22717920       0.11336351       0.04976063 </v>
    <v>       0.11058768       0.55613179       0.94774141 </v>
    <v>       0.22505100       0.44119724       0.05178247 </v>
    <v>       0.11732167       0.89196073       0.94763938 </v>
    <v>       0.22474239       0.78290542       0.05092444 </v>
    <v>       0.44022778       0.21988650       0.95120138 </v>
    <v>       0.55355279       0.10711287       0.04779360 </v>
    <v>       0.44232131       0.55041942       0.94958141 </v>
    <v>       0.55009959       0.44188825       0.05122078 </v>
    <v>       0.44702951       0.89429444       0.95059156 </v>
    <v>       0.55788910       0.78267176       0.05059037 </v>
    <v>       0.77412795       0.21663211       0.94947511 </v>
    <v>       0.88342930       0.10855924       0.05094357 </v>
    <v>       0.77729713       0.55515169       0.94486157 </v>
    <v>       0.88963765       0.44484021       0.05345100 </v>
    <v>       0.77441582       0.89173954       0.94706158 </v>
    <v>       0.88886981       0.77783982       0.05539989 </v>
   </varray>
  </structure>
  <varray name="forces" >
   <v>      -0.06828335      -0.21257611       0.00300947 </v>
   <v>       0.30261830      -0.07225592      -0.02899092 </v>
   <v>      -0.23418767      -0.11831612       0.01769486 </v>
   <v>       0.05878994      -0.10302874       0.05928857 </v>
   <v>       0.04235670       0.09287595      -0.02545358 </v>
   <v>       0.06934552      -0.14198428       0.02747074 </v>
   <v>      -0.15697760       0.27896281       0.02810169 </v>
   <v>       0.00039653      -0.23064120      -0.01026293 </v>
   <v>      -0.05885006       0.36657565      -0.05206504 </v>
   <v>       0.02519299      -0.22378333       0.05541436 </v>
   <v>      -0.08700222      -0.13077295      -0.00872971 </v>
   <v>      -0.19893759       0.02527929      -0.07638042 </v>
   <v>      -0.00613476      -0.03650029       0.13930638 </v>
   <v>      -0.03875857      -0.16968245      -0.08668083 </v>
   <v>      -0.03307501      -0.17731627      -0.01669296 </v>
   <v>       0.03894457       0.11249342       0.13207854 </v>
   <v>      -0.06735337       0.17066673      -0.19864218 </v>
   <v>       0.06867487       0.21397458       0.08933842 </v>
   <v>      -0.00352811       0.18449973      -0.03279609 </v>
   <v>       0.02371604      -0.03552526       0.03760804 </v>
   <v>       0.19083082      -0.08953095      -0.06137630 </v>
   <v>      -0.06403469       0.05236577       0.06558949 </v>
   <v>       0.11682710       0.08442268      -0.07481670 </v>
   <v>      -0.07171360       0.05309911      -0.26023461 </v>
   <v>      -0.02448708       0.12808162       0.16678921 </v>
   <v>       0.11914852      -0.04896911      -0.13883505 </v>
   <v>       0.05648180       0.02758564       0.25026757 </v>
  </varray>
  <varray name="stress" >
   <v>      -0.05704191       0.20552013       0.27065340 </v>
   <v>       0.20552013       0.30974909       0.19568624 </v>
   <v>       0.27065357       0.19568612      -0.70949055 </v>
  </varray>
  <energy>
   <i name="e_fr_energy">   -191.42896166 </i>
   <i name="e_wo_entrp">   -191.32354396 </i>
   <i name="e_0_energy">     -0.21083540 </i>
  </energy>
  <time name="totalsc">  359.06  360.01</time>
 </calculation>
 <calculation>
  <scstep>
   <time name="dav">   21.98   22.03</time>
   <time name="total">   22.49   22.54</time>
   <energy>
    <i name="alphaZ">     89.99227108 </i>
    <i name="ewald">  44567.84984080 </i>
    <i name="hartreedc"> -50576.91719001 </i>
    <i name="XCdc">   -233.49582636 </i>
    <i name="pawpsdc">   4085.30928663 </i>
    <i name="pawaedc">  -3501.29349718 </i>
    <i name="eentropy">     -0.21392350 </i>
    <i name="bandstr">  -1384.15145580 </i>
    <i name="atom">   6761.44252427 </i>
    <i name="e_fr_energy">   -191.47797006 </i>
    <i name="e_wo_entrp">   -191.26404656 </i>
    <i name="e_0_energy">   -191.37100831 </i>
   </energy>
  </scstep>
  <scstep>
   <time name="dav">   32.79   32.87</time>
   <time name="total">   33.31   33.39</time>
   <energy>
    <i name="e_fr_energy">   -191.53082100 </i>
    <i name="e_wo_entrp">   -191.30692639 </i>
    <i name="e_0_energy">   -191.41887370 </i>
   </energy>
  </scstep>
  <scstep>
   <time name="dav">   30.90   30.97</time>
   <time name="total">   31.41   31.49</time>
   <energy>
    <i name="e_fr_energy">   -191.48904258 </i>
    <i name="e_wo_entrp">   -191.27464138 </i>
    <i name="e_0_energy">   -191.38184198 </i>
   </energy>
  </scstep>
  <scstep>
   <time name="dav">   28.67   28.74</time>
   <time name="total">   29.17   29.25</time>
   <energy>
    <i name="e_fr_energy">   -191.49062431 </i>
    <i name="e_wo_entrp">   -191.27472261 </i>
    <i name="e_0_energy">   -191.38267346 </i>
   </energy>
  </scstep>
  <scstep>
   <time name="dav">   26.39   26.46</time>
   <time name="total">   26.90   26.97</time>
   <energy>
    <i name="e_fr_energy">   -191.48717594 </i>
    <i name="e_wo_entrp">   -191.27162775 </i>
    <i name="e_0_energy">   -191.37940184 </i>
   </energy>
  </scstep>
  <scstep>
   <time name="dav">   26.70   26.77</time>
   <time name="total">   27.21   27.28</time>
   <energy>
    <i name="e_fr_energy">   -191.48715892 </i>
    <i name="e_wo_entrp">   -191.27144443 </i>
    <i name="e_0_energy">   -191.37930167 </i>
   </energy>
  </scstep>
  <scstep>
   <time name="dav">   26.30   26.36</time>
   <time name="total">   26.81   26.88</time>
   <energy>
    <i name="e_fr_energy">   -191.48686434 </i>
    <i name="e_wo_entrp">   -191.27140232 </i>
    <i name="e_0_energy">   -191.37913333 </i>
   </energy>
  </scstep>
  <scstep>
   <time name="dav">   21.49   21.55</time>
   <time name="total">   21.53   21.59</time>
   <energy>
    <i name="alphaZ">     89.99227108 </i>
    <i name="ewald">  44567.84984080 </i>
    <i name="hartreedc"> -50578.36296970 </i>
    <i name="XCdc">   -233.45974439 </i>
    <i name="pawpsdc">   4082.37000664 </i>
    <i name="pawaedc">  -3498.30913881 </i>
    <i name="eentropy">     -0.21553313 </i>
    <i name="bandstr">  -1382.79411936 </i>
    <i name="atom">   6761.44252427 </i>
    <i name="e_fr_energy">   -191.48686259 </i>
    <i name="e_wo_entrp">   -191.27132946 </i>
    <i name="e_0_energy">   -191.37909602 </i>
   </energy>
  </scstep>
  <structure>
   <crystal>
    <varray name="basis" >
     <v>       8.28544373       4.79755585       0.00000000 </v>
     <v>      -8.27488754       4.77928558       0.00000000 </v>
     <v>       0.00000000       0.00000000      30.00000000 </v>
    </varray>
    <i name="volume">   2378.93210556 </i>
    <varray name="rec_basis" >
     <v>       0.06027014       0.10435213       0.00000000 </v>
     <v>      -0.06050054       0.10448525       0.00000000 </v>
     <v>       0.00000000       0.00000000       0.03333333 </v>
    </varray>
   </crystal>
   <varray name="positions" >
    <v>       0.32384378      -0.00547864       0.00046945 </v>
    <v>       0.67130497      -0.00615814       0.00035537 </v>
    <v>       0.32938394       0.33414472      -0.00024336 </v>
    <v>      -0.01403842       0.66677462       0.00008092 </v>
    <v>       0.68553117       0.67285863      -0.00012354 </v>
    <v>      -0.00986832      -0.01717158      -0.00007790 </v>
    <v>       1.00310952       0.33913610      -0.00024877 </v>
    <v>       0.32912483       0.66174187      -0.00031214 </v>
    <v>       0.67909348       0.35104852       0.00033606 </v>
    <v>       0.11507276       0.22296747       0.94986810 </v>
    <v>       0.22627293       0.11296029       0.04973875 </v>
    <v>       0.11014224       0.55683079       0.94762796 </v>
    <v>       0.22484773       0.44103518       0.05199502 </v>
    <v>       0.11635689       0.89122143       0.94751194 </v>
    <v>       0.22376090       0.78210993       0.05088994 </v>
    <v>       0.44090561       0.22033910       0.95141786 </v>
    <v>       0.55421366       0.10816446       0.04747275 </v>
    <v>       0.44358743       0.55129483       0.94973093 </v>
    <v>       0.55101556       0.44281995       0.05115989 </v>
    <v>       0.44691714       0.89404166       0.95065868 </v>
    <v>       0.55798812       0.78166839       0.05048536 </v>
    <v>       0.77420958       0.21708457       0.94958673 </v>
    <v>       0.88419280       0.10864821       0.05081620 </v>
    <v>       0.77735450       0.55562210       0.94446088 </v>
    <v>       0.89020414       0.44554752       0.05370616 </v>
    <v>       0.77451637       0.89114842       0.94685242 </v>
    <v>       0.88917113       0.77781407       0.05578422 </v>
   </varray>
  </structure>
  <varray name="forces" >
   <v>      -0.09103478      -0.23784660      -0.01186403 </v>
   <v>       0.32261765      -0.11381083       0.00414038 </v>
   <v>      -0.21092853      -0.13761558      -0.01917387 </v>
   <v>       0.02194620      -0.12234746       0.01554234 </v>
   <v>       0.09160052       0.20350978       0.03737777 </v>
   <v>       0.13345330      -0.19888523       0.03809494 </v>
   <v>      -0.20276415       0.32420901      -0.00064473 </v>
   <v>      -0.02514826      -0.23819769      -0.02846684 </v>
   <v>      -0.05546350       0.38160269      -0.03104602 </v>
   <v>      -0.01270850      -0.13599599       0.08223086 </v>
   <v>      -0.05899164      -0.07618827      -0.01372690 </v>
   <v>      -0.10857986       0.03156496      -0.10813280 </v>
   <v>      -0.00929748      -0.02316412       0.14343424 </v>
   <v>      -0.01858232      -0.10281087      -0.05315511 </v>
   <v>      -0.00247108      -0.09397860       0.01869689 </v>
   <v>       0.01511730       0.07926096       0.17203598 </v>
   <v>      -0.03912221       0.11193417      -0.24808670 </v>
   <v>       0.03427718       0.10724872       0.09375084 </v>
   <v>      -0.00444782       0.10513937      -0.05542433 </v>
   <v>       0.01942035      -0.03074588       0.06261147 </v>
   <v>       0.10547125      -0.08190388      -0.05838995 </v>
   <v>      -0.02804587       0.06141333       0.08603491 </v>
   <v>       0.06220660       0.06708583      -0.10541958 </v>
   <v>      -0.04496682       0.06603337      -0.16609731 </v>
   <v>      -0.00179789       0.06344785       0.16027020 </v>
   <v>       0.07139085      -0.01071347      -0.13075280 </v>
   <v>       0.03684950       0.00175443       0.11616015 </v>
  </varray>
  <varray name="stress" >
   <v>      -0.16139961      -0.04520358       0.17521189 </v>
   <v>      -0.04520366      -0.07515349      -0.00196759 </v>
   <v>       0.17521186      -0.00196784      -1.26758363 </v>
  </varray>
  <energy>
   <i name="e_fr_energy">   -191.48686259 </i>
   <i name="e_wo_entrp">   -191.37909602 </i>
   <i name="e_0_energy">     -0.21553313 </i>
  </energy>
  <time name="totalsc">  260.90  261.59</time>
 </calculation>
 <calculation>
  <scstep>
   <time name="dav">   21.98   22.03</time>
   <time name="total">   22.49   22.54</time>
   <energy>
    <i name="alphaZ">     90.08198168 </i>
    <i name="ewald">  44609.08080277 </i>
    <i name="hartreedc"> -50620.51534853 </i>
    <i name="XCdc">   -233.39977394 </i>
    <i name="pawpsdc">   4082.27575576 </i>
    <i name="pawaedc">  -3498.21374796 </i>
    <i name="eentropy">     -0.21723841 </i>
    <i name="bandstr">  -1382.07492433 </i>
    <i name="atom">   6761.44252427 </i>
    <i name="e_fr_energy">   -191.53996868 </i>
    <i name="e_wo_entrp">   -191.32273027 </i>
    <i name="e_0_energy">   -191.43134948 </i>
   </energy>
  </scstep>
  <scstep>
   <time name="dav">   33.42   33.50</time>
   <time name="total">   33.93   34.02</time>
   <energy>
    <i name="e_fr_energy">   -191.57502823 </i>
    <i name="e_wo_entrp">   -191.34637707 </i>
    <i name="e_0_energy">   -191.46070265 </i>
   </energy>
  </scstep>
  <scstep>
   <time name="dav">   31.00   31.07</time>
   <time name="total">   31.51   31.59</time>
   <energy>
    <i name="e_fr_energy">   -191.54689039 </i>
    <i name="e_wo_entrp">   -191.32965197 </i>
    <i name="e_0_energy">   -191.43827118 </i>
   </energy>
  </scstep>
  <scstep>
   <time name="dav">   28.24   28.31</time>
   <time name="total">   28.74   28.82</time>
   <energy>
    <i name="e_fr_energy">   -191.54655567 </i>
    <i name="e_wo_entrp">   -191.32707238 </i>
    <i name="e_0_energy">   -191.43681403 </i>
   </energy>
  </scstep>
  <scstep>
   <time name="dav">   27.43   27.49</time>
   <time name="total">   27.94   28.01</time>
   <energy>
    <i name="e_fr_energy">   -191.54510705 </i>
    <i name="e_wo_entrp">   -191.32641842 </i>
    <i name="e_0_energy">   -191.43576274 </i>
   </energy>
  </scstep>
  <scstep>
   <time name="dav">   25.81   25.87</time>
   <time name="total">   26.31   26.38</time>
   <energy>
    <i name="e_fr_energy">   -191.54447303 </i>
    <i name="e_wo_entrp">   -191.32509923 </i>
    <i name="e_0_energy">   -191.43478613 </i>
   </energy>
  </scstep>
  <scstep>
   <time name="dav">   26.91   26.97</time>
   <time name="total">   27.42   27.49</time>
   <energy>
    <i name="e_fr_energy">   -191.54430497 </i>
    <i name="e_wo_entrp">   -191.32491134 </i>
    <i name="e_0_energy">   -191.43460816 </i>
   </energy>
  </scstep>
  <scstep>
   <time name="dav">   22.43   22.49</time>
   <time name="total">   22.47   22.53</time>
   <energy>
    <i name="alphaZ">     90.08198168 </i>
    <i name="ewald">  44609.08080277 </i>
    <i name="hartreedc"> -50620.33187275 </i>
    <i name="XCdc">   -233.41632501 </i>
    <i name="pawpsdc">   4084.26547914 </i>
    <i name="pawaedc">  -3500.22867666 </i>
    <i name="eentropy">     -0.21929954 </i>
    <i name="bandstr">  -1382.21893156 </i>
    <i name="atom">   6761.44252427 </i>
    <i name="e_fr_energy">   -191.54431766 </i>
    <i name="e_wo_entrp">   -191.32501812 </i>
[...]
      <set comment="kpoint 31">
       <r>  -17.5655    1.0000 </r>
       <r>  -17.2346    1.0000 </r>
       <r>  -16.9197    1.0000 </r>
       <r>  -16.7214    1.0000 </r>
       <r>  -16.5359    1.0000 </r>
       <r>  -16.4356    1.0000 </r>
       <r>  -16.3352    1.0000 </r>
       <r>  -16.1809    1.0000 </r>
       <r>  -16.0469    1.0000 </r>
       <r>  -16.0086    1.0000 </r>
       <r>  -15.9695    1.0000 </r>
       <r>  -15.8846    1.0000 </r>
       <r>  -15.7773    1.0000 </r>
       <r>  -15.6880    1.0000 </r>
       <r>  -15.6264    1.0000 </r>
       <r>  -15.4552    1.0000 </r>
       <r>  -15.4209    1.0000 </r>
       <r>  -15.2280    1.0000 </r>
       <r>   -9.7569    1.0000 </r>
       <r>   -9.4668    1.0000 </r>
       <r>   -9.3324    1.0000 </r>
       <r>   -9.0816    1.0000 </r>
       <r>   -8.8578    1.0000 </r>
       <r>   -8.7428    1.0000 </r>
       <r>   -8.5341    1.0000 </r>
       <r>   -8.4910    1.0000 </r>
       <r>   -8.4175    1.0000 </r>
       <r>   -8.3253    1.0000 </r>
       <r>   -8.2639    1.0000 </r>
       <r>   -8.1951    1.0000 </r>
       <r>   -8.1398    1.0000 </r>
       <r>   -8.0681    1.0000 </r>
       <r>   -8.0334    1.0000 </r>
       <r>   -7.8643    1.0000 </r>
       <r>   -7.8277    1.0000 </r>
       <r>   -7.7602    1.0000 </r>
       <r>   -7.6021    1.0000 </r>
       <r>   -7.4232    1.0000 </r>
       <r>   -7.3154    1.0000 </r>
       <r>   -7.1902    1.0000 </r>
       <r>   -7.1676    1.0000 </r>
       <r>   -7.1049    1.0000 </r>
       <r>   -7.0005    1.0000 </r>
       <r>   -6.9238    1.0000 </r>
       <r>   -6.8359    1.0000 </r>
       <r>   -6.7839    1.0000 </r>
       <r>   -6.7301    1.0000 </r>
       <r>   -6.5988    1.0000 </r>
       <r>   -6.5373    1.0000 </r>
       <r>   -6.4790    1.0000 </r>
       <r>   -6.4189    1.0000 </r>
       <r>   -6.3679    1.0000 </r>
       <r>   -6.3007    1.0000 </r>
       <r>   -6.2596    1.0000 </r>
       <r>   -6.1425    1.0000 </r>
       <r>   -6.0610    1.0000 </r>
       <r>   -5.9626    1.0000 </r>
       <r>   -5.9099    1.0000 </r>
       <r>   -5.8638    1.0000 </r>
       <r>   -5.8052    1.0000 </r>
       <r>   -5.6828    1.0000 </r>
       <r>   -5.6305    1.0000 </r>
       <r>   -5.4779    1.0000 </r>
       <r>   -5.3533    1.0000 </r>
       <r>   -5.2740    1.0000 </r>
       <r>   -5.1027    1.0000 </r>
       <r>   -5.0673    1.0000 </r>
       <r>   -4.9017    1.0000 </r>
       <r>   -4.8136    1.0000 </r>
       <r>   -4.6789    1.0000 </r>
       <r>   -4.6093    1.0000 </r>
       <r>   -4.5445    1.0000 </r>
       <r>   -4.4039    1.0000 </r>
       <r>   -4.2880    1.0000 </r>
       <r>   -4.1240    1.0000 </r>
       <r>   -4.0341    1.0000 </r>
       <r>   -3.8138    0.9995 </r>
       <r>   -3.7262    0.9963 </r>
       <r>   -3.5000    0.8605 </r>
       <r>   -3.4063    0.6627 </r>
       <r>   -3.0162    0.0097 </r>
       <r>   -2.8226    0.0001 </r>
       <r>   -2.7390    0.0000 </r>
       <r>   -2.6108    0.0000 </r>
       <r>   -2.4916    0.0000 </r>
       <r>   -2.4302    0.0000 </r>
       <r>   -2.2911    0.0000 </r>
       <r>   -2.1738    0.0000 </r>
       <r>   -2.1234    0.0000 </r>
       <r>   -1.8796    0.0000 </r>
       <r>   -1.7351    0.0000 </r>
       <r>   -1.5341    0.0000 </r>
       <r>   -1.4644    0.0000 </r>
       <r>   -1.3687    0.0000 </r>
       <r>   -1.2554    0.0000 </r>
       <r>   -1.1955    0.0000 </r>
       <r>   -1.0890    0.0000 </r>
       <r>   -1.0308    0.0000 </r>
       <r>   -0.9363    0.0000 </r>
       <r>   -0.9225    0.0000 </r>
       <r>   -0.8622    0.0000 </r>
       <r>   -0.7446    0.0000 </r>
       <r>   -0.7205    0.0000 </r>
       <r>   -0.6179    0.0000 </r>
       <r>   -0.4579    0.0000 </r>
       <r>   -0.3562    0.0000 </r>
       <r>   -0.2177    0.0000 </r>
       <r>   -0.1370    0.0000 </r>
       <r>    0.1222    0.0000 </r>
       <r>    0.1673    0.0000 </r>
       <r>    0.3720    0.0000 </r>
       <r>    0.5822    0.0000 </r>
       <r>    0.6496    0.0000 </r>
       <r>    0.9695    0.0000 </r>
       <r>    1.0266    0.0000 </r>
       <r>    1.3611    0.0000 </r>
       <r>    1.3977    0.0000 </r>
       <r>    2.1275    0.0000 </r>
       <r>    2.3018    0.0000 </r>
       <r>    2.3818    0.0000 </r>
      </set>
      <set comment="kpoint 32">
       <r>  -17.5670    1.0000 </r>
       <r>  -17.1681    1.0000 </r>
       <r>  -17.0397    1.0000 </r>
       <r>  -16.7200    1.0000 </r>
       <r>  -16.4785    1.0000 </r>
       <r>  -16.3962    1.0000 </r>
       <r>  -16.3060    1.0000 </r>
       <r>  -16.2037    1.0000 </r>
       <r>  -16.1127    1.0000 </r>
       <r>  -16.0513    1.0000 </r>
       <r>  -15.9455    1.0000 </r>
       <r>  -15.8650    1.0000 </r>
       <r>  -15.7852    1.0000 </r>
       <r>  -15.6745    1.0000 </r>
       <r>  -15.6108    1.0000 </r>
       <r>  -15.4613    1.0000 </r>
       <r>  -15.4188    1.0000 </r>
       <r>  -15.2272    1.0000 </r>
       <r>   -9.6963    1.0000 </r>
       <r>   -9.5897    1.0000 </r>
       <r>   -9.4059    1.0000 </r>
       <r>   -9.0511    1.0000 </r>
       <r>   -8.7031    1.0000 </r>
       <r>   -8.6495    1.0000 </r>
       <r>   -8.5119    1.0000 </r>
       <r>   -8.4832    1.0000 </r>
       <r>   -8.4333    1.0000 </r>
       <r>   -8.3415    1.0000 </r>
       <r>   -8.2675    1.0000 </r>
       <r>   -8.2540    1.0000 </r>
       <r>   -8.1546    1.0000 </r>
       <r>   -8.0940    1.0000 </r>
       <r>   -8.0478    1.0000 </r>
       <r>   -7.9430    1.0000 </r>
       <r>   -7.8114    1.0000 </r>
       <r>   -7.7899    1.0000 </r>
       <r>   -7.5569    1.0000 </r>
       <r>   -7.4181    1.0000 </r>
       <r>   -7.3326    1.0000 </r>
       <r>   -7.2568    1.0000 </r>
       <r>   -7.1878    1.0000 </r>
       <r>   -7.1033    1.0000 </r>
       <r>   -6.9856    1.0000 </r>
       <r>   -6.9003    1.0000 </r>
       <r>   -6.8587    1.0000 </r>
       <r>   -6.7837    1.0000 </r>
       <r>   -6.7058    1.0000 </r>
       <r>   -6.5766    1.0000 </r>
       <r>   -6.5360    1.0000 </r>
       <r>   -6.4634    1.0000 </r>
       <r>   -6.4354    1.0000 </r>
       <r>   -6.3453    1.0000 </r>
       <r>   -6.2910    1.0000 </r>
       <r>   -6.2461    1.0000 </r>
       <r>   -6.1208    1.0000 </r>
       <r>   -6.0344    1.0000 </r>
       <r>   -5.9697    1.0000 </r>
       <r>   -5.8973    1.0000 </r>
       <r>   -5.8529    1.0000 </r>
       <r>   -5.7261    1.0000 </r>
       <r>   -5.7199    1.0000 </r>
       <r>   -5.5403    1.0000 </r>
       <r>   -5.4727    1.0000 </r>
       <r>   -5.4092    1.0000 </r>
       <r>   -5.2645    1.0000 </r>
       <r>   -5.2048    1.0000 </r>
       <r>   -5.0577    1.0000 </r>
       <r>   -4.9493    1.0000 </r>
       <r>   -4.8364    1.0000 </r>
       <r>   -4.6935    1.0000 </r>
       <r>   -4.6279    1.0000 </r>
       <r>   -4.4828    1.0000 </r>
       <r>   -4.4015    1.0000 </r>
       <r>   -4.3552    1.0000 </r>
       <r>   -4.1164    1.0000 </r>
       <r>   -4.0452    1.0000 </r>
       <r>   -3.8243    0.9996 </r>
       <r>   -3.6433    0.9820 </r>
       <r>   -3.4832    0.8324 </r>
       <r>   -3.3483    0.5039 </r>
       <r>   -3.0581    0.0206 </r>
       <r>   -2.8614    0.0003 </r>
       <r>   -2.7714    0.0000 </r>
       <r>   -2.6053    0.0000 </r>
       <r>   -2.5330    0.0000 </r>
       <r>   -2.4583    0.0000 </r>
       <r>   -2.2474    0.0000 </r>
       <r>   -2.1832    0.0000 </r>
       <r>   -2.0923    0.0000 </r>
       <r>   -1.9142    0.0000 </r>
       <r>   -1.7513    0.0000 </r>
       <r>   -1.5546    0.0000 </r>
       <r>   -1.4795    0.0000 </r>
       <r>   -1.3061    0.0000 </r>
       <r>   -1.2393    0.0000 </r>
       <r>   -1.1849    0.0000 </r>
       <r>   -1.0602    0.0000 </r>
       <r>   -1.0114    0.0000 </r>
       <r>   -0.9709    0.0000 </r>
       <r>   -0.9140    0.0000 </r>
       <r>   -0.8379    0.0000 </r>
       <r>   -0.7801    0.0000 </r>
       <r>   -0.6961    0.0000 </r>
       <r>   -0.5616    0.0000 </r>
       <r>   -0.5293    0.0000 </r>
       <r>   -0.3508    0.0000 </r>
       <r>   -0.2575    0.0000 </r>
       <r>   -0.1279    0.0000 </r>
       <r>    0.1231    0.0000 </r>
       <r>    0.2748    0.0000 </r>
       <r>    0.3471    0.0000 </r>
       <r>    0.5378    0.0000 </r>
       <r>    0.6602    0.0000 </r>
       <r>    0.9965    0.0000 </r>
       <r>    1.0207    0.0000 </r>
       <r>    1.2750    0.0000 </r>
       <r>    1.4286    0.0000 </r>
       <r>    2.1033    0.0000 </r>
       <r>    2.2654    0.0000 </r>
       <r>    2.5628    0.0000 </r>
      </set>
      <set comment="kpoint 33">
       <r>  -17.5482    1.0000 </r>
       <r>  -17.2596    1.0000 </r>
       <r>  -16.9194    1.0000 </r>
       <r>  -16.7181    1.0000 </r>
       <r>  -16.5084    1.0000 </r>
       <r>  -16.4598    1.0000 </r>
       <r>  -16.3267    1.0000 </r>
       <r>  -16.1939    1.0000 </r>
       <r>  -16.1319    1.0000 </r>
       <r>  -16.0222    1.0000 </r>
       <r>  -15.9032    1.0000 </r>
       <r>  -15.8282    1.0000 </r>
       <r>  -15.7862    1.0000 </r>
       <r>  -15.6777    1.0000 </r>
       <r>  -15.6187    1.0000 </r>
       <r>  -15.4717    1.0000 </r>
       <r>  -15.4260    1.0000 </r>
       <r>  -15.2296    1.0000 </r>
       <r>   -9.7797    1.0000 </r>
       <r>   -9.4764    1.0000 </r>
       <r>   -9.3731    1.0000 </r>
       <r>   -9.0384    1.0000 </r>
       <r>   -8.7742    1.0000 </r>
       <r>   -8.7314    1.0000 </r>
       <r>   -8.6378    1.0000 </r>
       <r>   -8.5725    1.0000 </r>
       <r>   -8.3879    1.0000 </r>
       <r>   -8.2800    1.0000 </r>
       <r>   -8.2420    1.0000 </r>
       <r>   -8.1541    1.0000 </r>
       <r>   -8.1081    1.0000 </r>
       <r>   -8.0831    1.0000 </r>
       <r>   -7.9913    1.0000 </r>
       <r>   -7.9285    1.0000 </r>
       <r>   -7.8280    1.0000 </r>
       <r>   -7.7715    1.0000 </r>
       <r>   -7.5173    1.0000 </r>
       <r>   -7.4635    1.0000 </r>
       <r>   -7.4050    1.0000 </r>
       <r>   -7.3418    1.0000 </r>
       <r>   -7.1445    1.0000 </r>
       <r>   -7.0592    1.0000 </r>
       <r>   -6.9655    1.0000 </r>
       <r>   -6.8901    1.0000 </r>
       <r>   -6.8708    1.0000 </r>
       <r>   -6.7721    1.0000 </r>
       <r>   -6.6874    1.0000 </r>
       <r>   -6.6149    1.0000 </r>
       <r>   -6.5366    1.0000 </r>
       <r>   -6.4874    1.0000 </r>
       <r>   -6.4269    1.0000 </r>
       <r>   -6.3482    1.0000 </r>
       <r>   -6.2785    1.0000 </r>
       <r>   -6.1437    1.0000 </r>
       <r>   -6.1105    1.0000 </r>
       <r>   -6.0329    1.0000 </r>
       <r>   -5.9799    1.0000 </r>
       <r>   -5.9317    1.0000 </r>
       <r>   -5.8834    1.0000 </r>
       <r>   -5.7851    1.0000 </r>
       <r>   -5.6515    1.0000 </r>
       <r>   -5.5995    1.0000 </r>
       <r>   -5.5275    1.0000 </r>
       <r>   -5.4237    1.0000 </r>
       <r>   -5.2884    1.0000 </r>
       <r>   -5.1868    1.0000 </r>
       <r>   -5.0972    1.0000 </r>
       <r>   -4.8396    1.0000 </r>
       <r>   -4.7690    1.0000 </r>
       <r>   -4.7049    1.0000 </r>
       <r>   -4.6145    1.0000 </r>
       <r>   -4.4413    1.0000 </r>
       <r>   -4.4114    1.0000 </r>
       <r>   -4.3663    1.0000 </r>
       <r>   -4.1516    1.0000 </r>
       <r>   -4.0497    1.0000 </r>
       <r>   -3.9006    1.0000 </r>
       <r>   -3.5767    0.9479 </r>
       <r>   -3.4565    0.7809 </r>
       <r>   -3.3077    0.3908 </r>
       <r>   -3.0909    0.0351 </r>
       <r>   -2.9145    0.0011 </r>
       <r>   -2.8137    0.0001 </r>
       <r>   -2.6060    0.0000 </r>
       <r>   -2.5696    0.0000 </r>
       <r>   -2.4823    0.0000 </r>
       <r>   -2.2028    0.0000 </r>
       <r>   -2.1788    0.0000 </r>
       <r>   -2.0753    0.0000 </r>
       <r>   -1.9110    0.0000 </r>
       <r>   -1.7645    0.0000 </r>
       <r>   -1.5627    0.0000 </r>
       <r>   -1.4743    0.0000 </r>
       <r>   -1.3013    0.0000 </r>
       <r>   -1.1922    0.0000 </r>
       <r>   -1.1641    0.0000 </r>
       <r>   -1.0566    0.0000 </r>
       <r>   -1.0187    0.0000 </r>
       <r>   -0.9519    0.0000 </r>
       <r>   -0.9248    0.0000 </r>
       <r>   -0.8637    0.0000 </r>
       <r>   -0.7412    0.0000 </r>
       <r>   -0.6735    0.0000 </r>
       <r>   -0.5979    0.0000 </r>
       <r>   -0.4964    0.0000 </r>
       <r>   -0.4332    0.0000 </r>
       <r>   -0.3646    0.0000 </r>
       <r>   -0.0387    0.0000 </r>
       <r>    0.0962    0.0000 </r>
       <r>    0.2563    0.0000 </r>
       <r>    0.4680    0.0000 </r>
       <r>    0.5190    0.0000 </r>
       <r>    0.6765    0.0000 </r>
       <r>    1.0110    0.0000 </r>
       <r>    1.0483    0.0000 </r>
       <r>    1.1855    0.0000 </r>
       <r>    1.4802    0.0000 </r>
       <r>    2.1392    0.0000 </r>
       <r>    2.2939    0.0000 </r>
       <r>    2.3968    0.0000 </r>
      </set>
      <set comment="kpoint 34">
       <r>  -17.5304    1.0000 </r>
       <r>  -17.3142    1.0000 </r>
       <r>  -16.7881    1.0000 </r>
       <r>  -16.7178    1.0000 </r>
       <r>  -16.6336    1.0000 </r>
       <r>  -16.4735    1.0000 </r>
       <r>  -16.3213    1.0000 </r>
       <r>  -16.1940    1.0000 </r>
       <r>  -16.1383    1.0000 </r>
       <r>  -16.0043    1.0000 </r>
       <r>  -15.8657    1.0000 </r>
       <r>  -15.8150    1.0000 </r>
       <r>  -15.7728    1.0000 </r>
       <r>  -15.6809    1.0000 </r>
       <r>  -15.6375    1.0000 </r>
       <r>  -15.4769    1.0000 </r>
       <r>  -15.4338    1.0000 </r>
       <r>  -15.2310    1.0000 </r>
       <r>   -9.8199    1.0000 </r>
       <r>   -9.3725    1.0000 </r>
       <r>   -9.3306    1.0000 </r>
       <r>   -9.0566    1.0000 </r>
       <r>   -8.8853    1.0000 </r>
       <r>   -8.8019    1.0000 </r>
       <r>   -8.6719    1.0000 </r>
       <r>   -8.6058    1.0000 </r>
       <r>   -8.3578    1.0000 </r>
       <r>   -8.2814    1.0000 </r>
       <r>   -8.2278    1.0000 </r>
       <r>   -8.1378    1.0000 </r>
       <r>   -8.0803    1.0000 </r>
       <r>   -8.0626    1.0000 </r>
       <r>   -7.9330    1.0000 </r>
       <r>   -7.8741    1.0000 </r>
       <r>   -7.7731    1.0000 </r>
       <r>   -7.7545    1.0000 </r>
       <r>   -7.6285    1.0000 </r>
       <r>   -7.4760    1.0000 </r>
       <r>   -7.4252    1.0000 </r>
       <r>   -7.3528    1.0000 </r>
       <r>   -7.0975    1.0000 </r>
       <r>   -7.0470    1.0000 </r>
       <r>   -6.9835    1.0000 </r>
       <r>   -6.9018    1.0000 </r>
       <r>   -6.8147    1.0000 </r>
       <r>   -6.7584    1.0000 </r>
       <r>   -6.6830    1.0000 </r>
       <r>   -6.6055    1.0000 </r>
       <r>   -6.5632    1.0000 </r>
       <r>   -6.4999    1.0000 </r>
       <r>   -6.4585    1.0000 </r>
       <r>   -6.3313    1.0000 </r>
       <r>   -6.2794    1.0000 </r>
       <r>   -6.1910    1.0000 </r>
       <r>   -6.1355    1.0000 </r>
       <r>   -6.0174    1.0000 </r>
       <r>   -5.9855    1.0000 </r>
       <r>   -5.9333    1.0000 </r>
       <r>   -5.8181    1.0000 </r>
       <r>   -5.7438    1.0000 </r>
       <r>   -5.7299    1.0000 </r>
       <r>   -5.5863    1.0000 </r>
       <r>   -5.5613    1.0000 </r>
       <r>   -5.4980    1.0000 </r>
       <r>   -5.3056    1.0000 </r>
       <r>   -5.1407    1.0000 </r>
       <r>   -5.1104    1.0000 </r>
       <r>   -4.8089    1.0000 </r>
       <r>   -4.7231    1.0000 </r>
       <r>   -4.6920    1.0000 </r>
       <r>   -4.5307    1.0000 </r>
       <r>   -4.4315    1.0000 </r>
       <r>   -4.4237    1.0000 </r>
       <r>   -4.3600    1.0000 </r>
       <r>   -4.2109    1.0000 </r>
       <r>   -4.0534    1.0000 </r>
       <r>   -3.9480    1.0000 </r>
       <r>   -3.5503    0.9248 </r>
       <r>   -3.4347    0.7326 </r>
       <r>   -3.3075    0.3904 </r>
       <r>   -3.0981    0.0393 </r>
       <r>   -2.9357    0.0018 </r>
       <r>   -2.8394    0.0002 </r>
       <r>   -2.6002    0.0000 </r>
       <r>   -2.5892    0.0000 </r>
       <r>   -2.4922    0.0000 </r>
       <r>   -2.1903    0.0000 </r>
       <r>   -2.1634    0.0000 </r>
       <r>   -2.0782    0.0000 </r>
       <r>   -1.8973    0.0000 </r>
       <r>   -1.7721    0.0000 </r>
       <r>   -1.5622    0.0000 </r>
       <r>   -1.4636    0.0000 </r>
       <r>   -1.2984    0.0000 </r>
       <r>   -1.1741    0.0000 </r>
       <r>   -1.1483    0.0000 </r>
       <r>   -1.0755    0.0000 </r>
       <r>   -1.0530    0.0000 </r>
       <r>   -0.9232    0.0000 </r>
       <r>   -0.9131    0.0000 </r>
       <r>   -0.8769    0.0000 </r>
       <r>   -0.6855    0.0000 </r>
       <r>   -0.6721    0.0000 </r>
       <r>   -0.6348    0.0000 </r>
       <r>   -0.4998    0.0000 </r>
       <r>   -0.4716    0.0000 </r>
       <r>   -0.4068    0.0000 </r>
       <r>   -0.0030    0.0000 </r>
       <r>    0.0794    0.0000 </r>
       <r>    0.2404    0.0000 </r>
       <r>    0.5151    0.0000 </r>
       <r>    0.5299    0.0000 </r>
       <r>    0.6922    0.0000 </r>
       <r>    1.0214    0.0000 </r>
       <r>    1.0601    0.0000 </r>
       <r>    1.1467    0.0000 </r>
       <r>    1.5058    0.0000 </r>
       <r>    2.2214    0.0000 </r>
       <r>    2.2536    0.0000 </r>
       <r>    2.3827    0.0000 </r>
      </set>
     </set>
    </set>
   </array>
  </eigenvalues>
  <separator name="orbital magnetization" >
   <v name="MAGDIPOLOUT">      0.00000000      0.00000000      0.00000000</v>
  </separator>
 </calculation>
 <structure name="finalpos" >
  <crystal>
   <varray name="basis" >
    <v>       8.33710617       4.83719758       0.00000000 </v>
    <v>      -8.32827541       4.82191280       0.00000000 </v>
    <v>       0.00000000       0.00000000      30.00000000 </v>
   </varray>
   <i name="volume">   2414.58937877 </i>
   <varray name="rec_basis" >
    <v>       0.05990972       0.10347443       0.00000000 </v>
    <v>      -0.06009963       0.10358415       0.00000000 </v>
    <v>       0.00000000       0.00000000       0.03333333 </v>
   </varray>
  </crystal>
  <varray name="positions" >
   <v>       0.30603536      -0.01802576       0.00022275 </v>
   <v>       0.66054198      -0.03553300      -0.00133644 </v>
   <v>       0.29697547       0.31379244       0.00166849 </v>
   <v>      -0.00063511       0.66884659      -0.00011109 </v>
   <v>       0.70178622       0.68196615      -0.00027867 </v>
   <v>      -0.00876927      -0.02632393      -0.00070375 </v>
   <v>       1.01543885       0.36896391       0.00044538 </v>
   <v>       0.31073903       0.65805514      -0.00007045 </v>
   <v>       0.70054183       0.36918391       0.00023878 </v>
   <v>       0.10295609       0.22175537       0.95049781 </v>
   <v>       0.21935921       0.10660807       0.05166315 </v>
   <v>       0.11236585       0.56330627       0.94349931 </v>
   <v>       0.22247162       0.44353009       0.05466731 </v>
   <v>       0.11636651       0.89295103       0.94510869 </v>
   <v>       0.22838136       0.78477640       0.05357667 </v>
   <v>       0.44346191       0.22477132       0.95748452 </v>
   <v>       0.55691988       0.11016423       0.04094762 </v>
   <v>       0.44540044       0.54903045       0.95694134 </v>
   <v>       0.55134124       0.44310794       0.04790930 </v>
   <v>       0.44222726       0.89034771       0.95067279 </v>
   <v>       0.55602317       0.77126239       0.04988029 </v>
   <v>       0.77768669       0.22016369       0.95241593 </v>
   <v>       0.88454368       0.11370008       0.04378556 </v>
   <v>       0.78602595       0.56338716       0.94321816 </v>
   <v>       0.89696714       0.45311112       0.05666154 </v>
   <v>       0.77680365       0.88711901       0.94440196 </v>
   <v>       0.89625846       0.77819667       0.05659293 </v>
  </varray>
 </structure>
</modeling>
