unknown system                          
           1
     8.855112    5.107737    0.000000
    -8.853596    5.105129    0.000000
     0.000000    0.000000   30.000000
   V    Mo   W    S 
   3   3   3  18
Direct configuration=     1
   0.33333334  0.00000000  0.00000000
   0.66666669  0.00000000  0.00000000
   0.33333334  0.33333334  0.00000000
   0.00000000  0.66666669  0.00000000
   0.66666669  0.66666669  0.00000000
   0.00000000  0.00000000  0.00000000
   1.00000000  0.33333334  0.00000000
   0.33333334  0.66666669  0.00000000
   0.66666669  0.33333334  0.00000000
   0.11068511  0.22244981  0.95539999
   0.22244981  0.11068511  0.04460000
   0.11068511  0.55578315  0.95539999
   0.22244981  0.44401845  0.04460000
   0.11068511  0.88911647  0.95539999
   0.22244981  0.77735180  0.04460000
   0.44401845  0.22244981  0.95539999
   0.55578315  0.11068511  0.04460000
   0.44401845  0.55578315  0.95539999
   0.55578315  0.44401845  0.04460000
   0.44401845  0.88911647  0.95539999
   0.55578315  0.77735180  0.04460000
   0.77735180  0.22244981  0.95539999
   0.88911647  0.11068511  0.04460000
   0.77735180  0.55578315  0.95539999
   0.88911647  0.44401845  0.04460000
   0.77735180  0.88911647  0.95539999
   0.88911647  0.77735180  0.04460000
unknown system                          
           1
     8.667675    5.001747    0.000000
    -8.666214    4.999233    0.000000
     0.000000    0.000000   30.000000
   V    Mo   W    S 
   3   3   3  18
Direct configuration=     2
   0.33141969 -0.00067480  0.00007402
   0.66749516 -0.00112999 -0.00010882
   0.33329066  0.33297227  0.00013904
  -0.00160274  0.66803316 -0.00002906
   0.66955447  0.66806042 -0.00022405
  -0.00110931 -0.00273843 -0.00000384
   1.00001762  0.33306655  0.00014493
   0.33374869  0.66716803 -0.00008484
   0.66728270  0.33552367  0.00009588
   0.11504160  0.22474301  0.95199058
   0.22664189  0.11307486  0.04689220
   0.11141440  0.55513053  0.95081583
   0.22410008  0.44219297  0.04809737
   0.11545778  0.89095537  0.95190372
   0.22470550  0.78162200  0.04805212
   0.44084456  0.22058267  0.95312868
   0.55397079  0.10754954  0.04678361
   0.44175578  0.55149647  0.95200317
   0.55125406  0.44152890  0.04806810
   0.44593894  0.89226169  0.95308608
   0.55663817  0.78165487  0.04802543
   0.77579906  0.21822060  0.95189706
   0.88483176  0.10987636  0.04802674
   0.77721098  0.55456956  0.95067507
   0.88849499  0.44358049  0.04927653
   0.77512668  0.89117225  0.95194384
   0.88889050  0.77772142  0.04933050
unknown system                          
           1
     8.485729    4.901284    0.000000
    -8.484773    4.899643    0.000000
     0.000000    0.000000   30.000000
   V    Mo   W    S 
   3   3   3  18
Direct configuration=     3
   0.33083610 -0.00097458  0.00012948
   0.66775090 -0.00145191 -0.00007830
   0.33317659  0.33295942  0.00011686
  -0.00245922  0.66821454 -0.00002838
   0.67079621  0.66849591 -0.00024435
  -0.00172845 -0.00387725 -0.00001029
   1.00011306  0.33323886  0.00011181
   0.33361353  0.66701828 -0.00013117
   0.66794962  0.33654810  0.00015572
   0.11501856  0.22490807  0.95208183
   0.22670516  0.11310334  0.04686510
   0.11149451  0.55503780  0.95087546
   0.22402980  0.44225447  0.04810055
   0.11560472  0.89106414  0.95181784
   0.22488691  0.78160015  0.04801617
   0.44102812  0.22063961  0.95321851
   0.55403992  0.10774505  0.04660465
   0.44158559  0.55153250  0.95207701
   0.55128513  0.44136347  0.04805104
   0.44588185  0.89209864  0.95315000
   0.55647574  0.78163053  0.04797751
   0.77581661  0.21834933  0.95198045
   0.88483946  0.11002770  0.04800133
   0.77708708  0.55436180  0.95051676
   0.88842101  0.44338598  0.04929260
   0.77508061  0.89121639  0.95182141
   0.88888534  0.77772410  0.04953031
unknown system                          
           1
     8.283643    4.788921    0.000000
    -8.278250    4.779596    0.000000
     0.000000    0.000000   30.000000
   V    Mo   W    S 
   3   3   3  18
Direct configuration=     4
   0.32871466 -0.00226251  0.00030071
   0.66884678 -0.00257126  0.00009027
   0.33251379  0.33328990 -0.00001821
  -0.00623963  0.66822318 -0.00002011
   0.67573254  0.66996153 -0.00022013
  -0.00439567 -0.00827032 -0.00003859
   1.00067810  0.33441782 -0.00006248
   0.33256771  0.66575806 -0.00024059
   0.67119690  0.34082854  0.00031785
   0.11592008  0.22521863  0.95102417
   0.22746889  0.11351700  0.04806927
   0.11131594  0.55517354  0.94951434
   0.22454951  0.44181076  0.04963392
   0.11686966  0.89178912  0.95004331
   0.22533935  0.78249594  0.04930939
   0.44033755  0.22011562  0.95225482
   0.55360456  0.10705133  0.04721269
   0.44125541  0.55063960  0.95094592
   0.55033357  0.44108298  0.04944650
   0.44647710  0.89318475  0.95203912
   0.55703607  0.78247883  0.04920058
   0.77506951  0.21742356  0.95083699
   0.88386386  0.10939711  0.04933304
   0.77704598  0.55438800  0.94823085
   0.88867806  0.44357545  0.05100607
   0.77460892  0.89175222  0.94987441
   0.88882525  0.77774508  0.05191578
unknown system                          
           1
     8.285444    4.797556    0.000000
    -8.274888    4.779286    0.000000
     0.000000    0.000000   30.000000
   V    Mo   W    S 
   3   3   3  18
Direct configuration=     5
   0.32509108 -0.00462087  0.00046533
   0.67079981 -0.00492876  0.00040296
   0.33064602  0.33406247 -0.00027267
  -0.01372236  0.66745787 -0.00001375
   0.68498047  0.67252608 -0.00008230
  -0.00937785 -0.01629125 -0.00012210
   1.00217247  0.33729530 -0.00029465
   0.33026911  0.66288688 -0.00029598
   0.67745345  0.34907431  0.00041967
   0.11612258  0.22415789  0.94977324
   0.22717920  0.11336351  0.04976063
   0.11058768  0.55613179  0.94774141
   0.22505100  0.44119724  0.05178247
   0.11732167  0.89196073  0.94763938
   0.22474239  0.78290542  0.05092444
   0.44022778  0.21988650  0.95120138
   0.55355279  0.10711287  0.04779360
   0.44232131  0.55041942  0.94958141
   0.55009959  0.44188825  0.05122078
   0.44702951  0.89429444  0.95059156
   0.55788910  0.78267176  0.05059037
   0.77412795  0.21663211  0.94947511
   0.88342930  0.10855924  0.05094357
   0.77729713  0.55515169  0.94486157
   0.88963765  0.44484021  0.05345100
   0.77441582  0.89173954  0.94706158
   0.88886981  0.77783982  0.05539989
unknown system                          
           1
     8.279774    4.794946    0.000000
    -8.270189    4.778350    0.000000
     0.000000    0.000000   30.000000
   V    Mo   W    S 
   3   3   3  18
Direct configuration=     6
   0.32384378 -0.00547864  0.00046945
   0.67130497 -0.00615814  0.00035537
   0.32938394  0.33414472 -0.00024336
  -0.01403842  0.66677462  0.00008092
   0.68553117  0.67285863 -0.00012354
  -0.00986832 -0.01717158 -0.00007790
   1.00310952  0.33913610 -0.00024877
   0.32912483  0.66174187 -0.00031214
   0.67909348  0.35104852  0.00033606
   0.11507276  0.22296747  0.94986810
   0.22627293  0.11296029  0.04973875
   0.11014224  0.55683079  0.94762796
   0.22484773  0.44103518  0.05199502
   0.11635689  0.89122143  0.94751194
   0.22376090  0.78210993  0.05088994
   0.44090561  0.22033910  0.95141786
   0.55421366  0.10816446  0.04747275
   0.44358743  0.55129483  0.94973093
   0.55101556  0.44281995  0.05115989
   0.44691714  0.89404166  0.95065868
   0.55798812  0.78166839  0.05048536
   0.77420958  0.21708457  0.94958673
   0.88419280  0.10864821  0.05081620
   0.77735450  0.55562210  0.94446088
   0.89020414  0.44554752  0.05370616
   0.77451637  0.89114842  0.94685242
   0.88917113  0.77781407  0.05578422
unknown system                          
           1
     8.282298    4.796807    0.000000
    -8.272660    4.780119    0.000000
     0.000000    0.000000   30.000000
   V    Mo   W    S 
   3   3   3  18
Direct configuration=     7
   0.32231006 -0.00645998  0.00045304
   0.67170772 -0.00772553  0.00036542
   0.32803026  0.33408080 -0.00027703
  -0.01470084  0.66607055  0.00010811
   0.68695791  0.67365612 -0.00006270
  -0.01056038 -0.01868924 -0.00001712
   1.00418864  0.34143261 -0.00025227
   0.32780019  0.66055306 -0.00035884
   0.68097086  0.35328441  0.00028604
   0.11433879  0.22228176  0.94997915
   0.22569997  0.11274035  0.04974458
   0.10996494  0.55733407  0.94742195
   0.22471013  0.44093145  0.05226482
   0.11577738  0.89074801  0.94738471
   0.22325364  0.78163799  0.05094693
   0.44135463  0.22069654  0.95167831
   0.55467237  0.10885826  0.04708131
   0.44426616  0.55174511  0.94986001
   0.55154168  0.44339172  0.05110019
   0.44682767  0.89384710  0.95073523
   0.55790101  0.78093599  0.05041440
   0.77442150  0.21746773  0.94970245
   0.88471514  0.10879028  0.05067271
   0.77756048  0.55610628  0.94413248
   0.89054398  0.44590619  0.05400847
   0.77466682  0.89087615  0.94659355
   0.88929376  0.77771665  0.05603400
unknown system                          
           1
     8.246753    4.774834    0.000000
    -8.232937    4.750935    0.000000
     0.000000    0.000000   30.000000
   V    Mo   W    S 
   3   3   3  18
Direct configuration=     8
   0.32216338 -0.00656127  0.00045351
   0.67170536 -0.00793978  0.00036620
   0.32787880  0.33403936 -0.00027981
  -0.01459573  0.66598868  0.00011256
   0.68697396  0.67376189 -0.00006960
  -0.01057546 -0.01875432 -0.00001422
   1.00431649  0.34173349 -0.00024782
   0.32765911  0.66046232 -0.00036283
   0.68109228  0.35338344  0.00028386
   0.11425834  0.22226327  0.95001701
   0.22567301  0.11273682  0.04972200
   0.10997352  0.55736056  0.94740861
   0.22469451  0.44094590  0.05226146
   0.11573354  0.89071338  0.94740228
   0.22326005  0.78161300  0.05093645
   0.44138905  0.22073254  0.95172996
   0.55471607  0.10889985  0.04701255
   0.44427737  0.55176775  0.94990219
   0.55157163  0.44341029  0.05106197
   0.44681823  0.89381550  0.95076885
   0.55786900  0.78087991  0.05038689
   0.77446099  0.21751114  0.94974468
   0.88476391  0.10883224  0.05061801
   0.77757468  0.55615214  0.94415429
   0.89055528  0.44589846  0.05400850
   0.77468485  0.89087166  0.94661185
   0.88932223  0.77769623  0.05601052
unknown system                          
           1
     8.240160    4.770195    0.000000
    -8.225640    4.745082    0.000000
     0.000000    0.000000   30.000000
   V    Mo   W    S 
   3   3   3  18
Direct configuration=     9
   0.32296996 -0.00640000  0.00047224
   0.67231953 -0.00632492  0.00036315
   0.32926710  0.33446186 -0.00027299
  -0.01584915  0.66653685  0.00012838
   0.68685553  0.67292357 -0.00014323
  -0.01099627 -0.01850334 -0.00005648
   1.00258431  0.33902900 -0.00027550
   0.32903364  0.66165217 -0.00032136
   0.68107582  0.35349471  0.00027646
   0.11455367  0.22181100  0.94960452
   0.22560807  0.11249436  0.04999939
   0.10963700  0.55743350  0.94749085
   0.22471928  0.44066906  0.05249759
   0.11586401  0.89074990  0.94714324
   0.22273326  0.78154969  0.05101591
   0.44134918  0.22044666  0.95127564
   0.55463971  0.10897705  0.04746157
   0.44477531  0.55201290  0.94947981
   0.55178042  0.44364832  0.05155641
   0.44698946  0.89417126  0.95047803
   0.55836867  0.78123897  0.05058040
   0.77395082  0.21709732  0.94932711
   0.88425427  0.10820321  0.05117081
   0.77741223  0.55594790  0.94367766
   0.89073322  0.44629570  0.05416369
   0.77439683  0.89066306  0.94638084
   0.88918858  0.77793470  0.05652579
unknown system                          
           1
     8.292758    4.807460    0.000000
    -8.282699    4.790028    0.000000
     0.000000    0.000000   30.000000
   V    Mo   W    S 
   3   3   3  18
Direct configuration=    10
   0.32342811 -0.00620328  0.00047211
   0.67253378 -0.00546344  0.00035244
   0.32993391  0.33466426 -0.00026194
  -0.01613880  0.66685581  0.00012296
   0.68653238  0.67244783 -0.00014940
  -0.01097238 -0.01810957 -0.00006697
   1.00184112  0.33769764 -0.00028214
   0.32969362  0.66215232 -0.00029981
   0.68076838  0.35320209  0.00027551
   0.11476040  0.22176320  0.94946704
   0.22564547  0.11244348  0.05007172
   0.10954441  0.55738251  0.94757581
   0.22473082  0.44057425  0.05250956
   0.11594764  0.89080798  0.94709124
   0.22258018  0.78154319  0.05103390
   0.44130400  0.22032982  0.95110268
   0.55457073  0.10895272  0.04766265
   0.44483808  0.55202826  0.94932470
   0.55179619  0.44365240  0.05171726
   0.44705698  0.89430801  0.95037336
   0.55853285  0.78141764  0.05065171
   0.77376317  0.21692583  0.94916340
   0.88403579  0.10797935  0.05138679
   0.77735150  0.55582865  0.94357207
   0.89076299  0.44638346  0.05416839
   0.77428564  0.89062712  0.94633796
   0.88908749  0.77802292  0.05662689
unknown system                          
           1
     8.264582    4.790215    0.000000
    -8.254680    4.773051    0.000000
     0.000000    0.000000   30.000000
   V    Mo   W    S 
   3   3   3  18
Direct configuration=    11
   0.32007967 -0.00786307  0.00045624
   0.67186466 -0.01106234  0.00041411
   0.32549905  0.33367650 -0.00032582
  -0.01472240  0.66451570  0.00016404
   0.68873790  0.67543632 -0.00003822
  -0.01149754 -0.02086471  0.00004747
   1.00649782  0.34640164 -0.00023471
   0.32527145  0.65849086 -0.00041096
   0.68357177  0.35603302  0.00024786
   0.11319642  0.22157955  0.95022440
   0.22505947  0.11259525  0.04976767
   0.10990587  0.55804558  0.94683707
   0.22459548  0.44097628  0.05267055
   0.11510278  0.89018294  0.94716215
   0.22300341  0.78123700  0.05115181
   0.44185438  0.22120597  0.95212079
   0.55532058  0.10954658  0.04638639
   0.44490324  0.55216447  0.95014770
   0.55202568  0.44399583  0.05090054
   0.44677495  0.89361668  0.95084993
   0.55766903  0.77998517  0.05032667
   0.77474540  0.21795718  0.94999308
   0.88548115  0.10914704  0.05024107
   0.77777942  0.55682753  0.94375120
   0.89087126  0.44613618  0.05453510
   0.77491636  0.89076358  0.94624383
   0.88970718  0.77748772  0.05636995
unknown system                          
           1
     8.278274    4.800280    0.000000
    -8.268559    4.783432    0.000000
     0.000000    0.000000   30.000000
   V    Mo   W    S 
   3   3   3  18
Direct configuration=    12
   0.32010752 -0.00824041  0.00045775
   0.67274641 -0.00899248  0.00034037
   0.32704234  0.33423353 -0.00032437
  -0.01531042  0.66574636  0.00014384
   0.68808580  0.67405458 -0.00007731
  -0.01147934 -0.02023644  0.00002659
   1.00445353  0.34288839 -0.00022880
   0.32677545  0.65979833 -0.00041493
   0.68347883  0.35611508  0.00022050
   0.11348586  0.22144487  0.94998477
   0.22507921  0.11236214  0.04985200
   0.10962534  0.55797342  0.94721039
   0.22447700  0.44066507  0.05262740
   0.11516499  0.89023186  0.94710889
   0.22251206  0.78107880  0.05109638
   0.44197012  0.22101992  0.95188669
   0.55524697  0.10977637  0.04665731
   0.44512722  0.55231950  0.94986395
   0.55231628  0.44411069  0.05125960
   0.44690497  0.89387856  0.95071630
   0.55800696  0.78019466  0.05046118
   0.77446846  0.21773666  0.94964137
   0.88501051  0.10874736  0.05075868
   0.77776142  0.55677124  0.94351461
   0.89114478  0.44643948  0.05449769
   0.77464783  0.89050598  0.94616354
   0.88936435  0.77759093  0.05655551
unknown system                          
           1
     8.282276    4.803268    0.000000
    -8.272818    4.786860    0.000000
     0.000000    0.000000   30.000000
   V    Mo   W    S 
   3   3   3  18
Direct configuration=    13
   0.31825192 -0.00933063  0.00046842
   0.67248140 -0.01177304  0.00039638
   0.32498911  0.33375895 -0.00036914
  -0.01473280  0.66462670  0.00018925
   0.68931683  0.67558086 -0.00005809
  -0.01190547 -0.02180730  0.00007742
   1.00654583  0.34713805 -0.00021602
   0.32464461  0.65820029 -0.00046423
   0.68506114  0.35768840  0.00021715
   0.11272457  0.22129474  0.95032101
   0.22480036  0.11239679  0.04974226
   0.10979580  0.55826976  0.94681401
   0.22445240  0.44090073  0.05275992
   0.11483932  0.88999865  0.94707462
   0.22280020  0.78104390  0.05118240
   0.44223086  0.22136330  0.95237756
   0.55555298  0.11003240  0.04600272
   0.44517479  0.55238754  0.95023464
   0.55243638  0.44428436  0.05090622
   0.44675678  0.89356862  0.95094289
   0.55762379  0.77960448  0.05029212
   0.77490030  0.21820250  0.95003449
   0.88564933  0.10923942  0.05021481
   0.77797739  0.55725782  0.94356515
   0.89119193  0.44638279  0.05468986
   0.77495321  0.89054609  0.94610782
   0.88970147  0.77735826  0.05649628
unknown system                          
           1
     8.279255    4.800935    0.000000
    -8.269324    4.783707    0.000000
     0.000000    0.000000   30.000000
   V    Mo   W    S 
   3   3   3  18
Direct configuration=    14
   0.31733715 -0.01003329  0.00046987
   0.67264408 -0.01235832  0.00040129
   0.32455469  0.33374113 -0.00038658
  -0.01446359  0.66458871  0.00019770
   0.68955679  0.67580615 -0.00005235
  -0.01203608 -0.02221621  0.00009179
   1.00684915  0.34793947 -0.00020122
   0.32411964  0.65789971 -0.00048428
   0.68568057  0.35830686  0.00020972
   0.11246219  0.22117324  0.95037408
   0.22468547  0.11233841  0.04974673
   0.10978193  0.55839608  0.94670355
   0.22442526  0.44092169  0.05283233
   0.11473858  0.88993292  0.94699570
   0.22280253  0.78100387  0.05125756
   0.44237700  0.22143024  0.95251862
   0.55562855  0.11017921  0.04579846
   0.44526583  0.55244756  0.95029018
   0.55253645  0.44438076  0.05088141
   0.44675064  0.89356166  0.95097804
   0.55756089  0.77941128  0.05028156
   0.77498704  0.21830945  0.95007552
   0.88578235  0.10932544  0.05014882
   0.77810279  0.55748527  0.94347671
   0.89132460  0.44646682  0.05480596
   0.77500988  0.89050294  0.94602227
   0.88975010  0.77727339  0.05656646
unknown system                          
           1
     8.283292    4.805926    0.000000
    -8.275007    4.791531    0.000000
     0.000000    0.000000   30.000000
   V    Mo   W    S 
   3   3   3  18
Direct configuration=    15
   0.31685337 -0.01053705  0.00047042
   0.67313098 -0.01184678  0.00039108
   0.32491769  0.33400882 -0.00039236
  -0.01450931  0.66501204  0.00020412
   0.68944266  0.67545518 -0.00005246
  -0.01211158 -0.02212812  0.00010536
   1.00626227  0.34705781 -0.00020090
   0.32438031  0.65814648 -0.00048539
   0.68585424  0.35853303  0.00020296
   0.11248890  0.22111231  0.95036570
   0.22461376  0.11223925  0.04974358
   0.10972201  0.55833018  0.94679394
   0.22441705  0.44089178  0.05279454
   0.11469306  0.88997743  0.94693866
   0.22271031  0.78094613  0.05130248
   0.44248551  0.22140060  0.95255420
   0.55561373  0.11029887  0.04574278
   0.44527197  0.55247145  0.95025325
   0.55264632  0.44439435  0.05094057
   0.44676255  0.89360387  0.95097640
   0.55762376  0.77944844  0.05026751
   0.77493887  0.21830130  0.95000529
   0.88571026  0.10918770  0.05025092
   0.77820427  0.55756600  0.94343055
   0.89144720  0.44662247  0.05479930
   0.77498569  0.89041658  0.94601764
   0.88965860  0.77730434  0.05657972
unknown system                          
           1
     8.285114    4.808790    0.000000
    -8.278118    4.796609    0.000000
     0.000000    0.000000   30.000000
   V    Mo   W    S 
   3   3   3  18
Direct configuration=    16
   0.31502160 -0.01173803  0.00047018
   0.67282042 -0.01421561  0.00041310
   0.32319023  0.33356642 -0.00043088
  -0.01370083  0.66433305  0.00020765
   0.69046973  0.67663805 -0.00004539
  -0.01238926 -0.02351838  0.00011239
   1.00802051  0.35066460 -0.00017741
   0.32241670  0.65696807 -0.00056012
   0.68720944  0.35983973  0.00019852
   0.11177174  0.22097479  0.95060122
   0.22439004  0.11221561  0.04969955
   0.10986710  0.55867799  0.94640551
   0.22437541  0.44107496  0.05297140
   0.11447490  0.88981507  0.94686416
   0.22300370  0.78097154  0.05142491
   0.44270289  0.22162930  0.95296304
   0.55577403  0.11042905  0.04521066
   0.44539534  0.55258906  0.95054326
   0.55273118  0.44455507  0.05069461
   0.44666539  0.89343584  0.95114252
   0.55731496  0.77889695  0.05018783
   0.77531063  0.21867409  0.95030818
   0.88623166  0.10965296  0.04982809
   0.77843638  0.55803196  0.94341783
   0.89154490  0.44657476  0.05502495
   0.77522086  0.89044867  0.94589775
   0.88994479  0.77702889  0.05662638
unknown system                          
           1
     8.290598    4.821488    0.000000
    -8.290526    4.821210    0.000000
     0.000000    0.000000   30.000000
   V    Mo   W    S 
   3   3   3  18
Direct configuration=    17
   0.31352938 -0.01281391  0.00047026
   0.67262804 -0.01582519  0.00042202
   0.32201375  0.33328584 -0.00045639
  -0.01295564  0.66408239  0.00021651
   0.69118472  0.67731247 -0.00003361
  -0.01259223 -0.02445965  0.00013419
   1.00909917  0.35292605 -0.00012747
   0.32097006  0.65628866 -0.00060954
   0.68821545  0.36080308  0.00019492
   0.11118577  0.22086068  0.95074632
   0.22418384  0.11212903  0.04968905
   0.10995337  0.55898938  0.94607844
   0.22435492  0.44123708  0.05311514
   0.11432847  0.88971707  0.94674358
   0.22322276  0.78098902  0.05156618
   0.44287531  0.22175632  0.95327707
   0.55583025  0.11050482  0.04481376
   0.44552484  0.55269887  0.95075046
   0.55279660  0.44468148  0.05054748
   0.44660947  0.89336499  0.95124106
   0.55709840  0.77845916  0.05014707
   0.77561910  0.21893942  0.95050593
   0.88658979  0.11000746  0.04952501
   0.77869340  0.55843345  0.94337924
   0.89170440  0.44662971  0.05520770
   0.77539005  0.89042170  0.94577847
   0.89016104  0.77679506  0.05667701
unknown system                          
           1
     8.297364    4.825930    0.000000
    -8.292548    4.817498    0.000000
     0.000000    0.000000   30.000000
   V    Mo   W    S 
   3   3   3  18
Direct configuration=    18
   0.30613888 -0.01817987  0.00042887
   0.67072867 -0.02425287  0.00037162
   0.31568339  0.33145785 -0.00057091
  -0.00861141  0.66319486  0.00014885
   0.69504576  0.68022938 -0.00000731
  -0.01313724 -0.02898877  0.00016292
   1.01461264  0.36422032  0.00012768
   0.31306157  0.65330431 -0.00089404
   0.69314408  0.36552149  0.00017927
   0.10790749  0.22039780  0.95147276
   0.22300523  0.11145327  0.04968384
   0.11043074  0.56073297  0.94429919
   0.22441398  0.44232886  0.05389955
   0.11365810  0.88930284  0.94611059
   0.22452583  0.78118287  0.05238777
   0.44365041  0.22231921  0.95495553
   0.55590689  0.11071986  0.04279288
   0.44622690  0.55332088  0.95199244
   0.55306642  0.44533747  0.04976542
   0.44619405  0.89295693  0.95171285
   0.55580145  0.77582107  0.04998961
   0.77753861  0.22042239  0.95162405
   0.88850444  0.11222074  0.04780176
   0.78030684  0.56060716  0.94327947
   0.89259997  0.44706715  0.05615322
   0.77634418  0.89009272  0.94518708
   0.89146655  0.77542356  0.05694494
unknown system                          
           1
     8.299596    4.833134    0.000000
    -8.298472    4.831051    0.000000
     0.000000    0.000000   30.000000
   V    Mo   W    S 
   3   3   3  18
Direct configuration=    19
   0.30863339 -0.01636147  0.00045357
   0.67064162 -0.02249056  0.00030005
   0.31659941  0.33134095 -0.00045622
  -0.00907595  0.66399831  0.00013896
   0.69444979  0.67938827 -0.00001385
  -0.01297815 -0.02744053  0.00014749
   1.01246450  0.36002884  0.00025284
   0.31523982  0.65488047 -0.00068661
   0.69180835  0.36417111  0.00024958
   0.10804222  0.22058308  0.95123357
   0.22306796  0.11133015  0.04976779
   0.11020658  0.56068641  0.94445695
   0.22465422  0.44249102  0.05373608
   0.11372375  0.88939074  0.94611774
   0.22424355  0.78092743  0.05229212
   0.44331023  0.22221953  0.95466529
   0.55580190  0.11041746  0.04315708
   0.44604857  0.55318515  0.95196071
   0.55292363  0.44516119  0.04990879
   0.44612062  0.89286503  0.95157748
   0.55577466  0.77585140  0.05004128
   0.77754622  0.22016226  0.95150826
   0.88808681  0.11227025  0.04780033
   0.78037166  0.56036271  0.94329593
   0.89274547  0.44731491  0.05591311
   0.77625894  0.88992341  0.94532746
   0.89150468  0.77555692  0.05685414
unknown system                          
           1
     8.305299    4.834120    0.000000
    -8.301190    4.826910    0.000000
     0.000000    0.000000   30.000000
   V    Mo   W    S 
   3   3   3  18
Direct configuration=    20
   0.30342641 -0.02014752  0.00039530
   0.66838558 -0.02945543  0.00014822
   0.31105646  0.32925321 -0.00045829
  -0.00532329  0.66363482 -0.00000940
   0.69785150  0.68153367  0.00001012
  -0.01323781 -0.03068495  0.00009590
   1.01665137  0.36865439  0.00038827
   0.30885304  0.65316069 -0.00090251
   0.69564361  0.36776909  0.00027859
   0.10520602  0.22030763  0.95173139
   0.22196455  0.11057455  0.04984093
   0.11056502  0.56190302  0.94319846
   0.22484755  0.44358194  0.05433393
   0.11327280  0.88927724  0.94562251
   0.22527053  0.78104458  0.05299857
   0.44378647  0.22269978  0.95602334
   0.55585053  0.11042142  0.04155327
   0.44658079  0.55363063  0.95318012
   0.55306839  0.44563225  0.04927454
   0.44570524  0.89241964  0.95189197
   0.55469615  0.77347870  0.04990081
   0.77917873  0.22121042  0.95246566
   0.88944678  0.11425605  0.04623675
   0.78198912  0.56211361  0.94327951
   0.89364224  0.44800103  0.05660262
   0.77703673  0.88940760  0.94490700
   0.89279995  0.77453639  0.05701232
unknown system                          
           1
     8.309356    4.836509    0.000000
    -8.304919    4.828735    0.000000
     0.000000    0.000000   30.000000
   V    Mo   W    S 
   3   3   3  18
Direct configuration=    21
   0.30514042 -0.01890149  0.00039265
   0.66855125 -0.02774798  0.00010160
   0.31184527  0.32913919 -0.00037323
  -0.00604370  0.66406363 -0.00001947
   0.69714199  0.68080115 -0.00000270
  -0.01294489 -0.02952086  0.00006452
   1.01520703  0.36595172  0.00033538
   0.31087453  0.65421652 -0.00078497
   0.69471138  0.36685546  0.00029656
   0.10571690  0.22046124  0.95151675
   0.22212789  0.11058859  0.04988591
   0.11044712  0.56153302  0.94357535
   0.22489573  0.44348597  0.05416530
   0.11354512  0.88955124  0.94574226
   0.22503512  0.78109958  0.05285919
   0.44354665  0.22264744  0.95574159
   0.55584165  0.11025825  0.04193977
   0.44642647  0.55342661  0.95310937
   0.55299939  0.44543116  0.04940673
   0.44564963  0.89240206  0.95174453
   0.55488432  0.77374827  0.04993617
   0.77874038  0.22083219  0.95226295
   0.88888593  0.11387907  0.04644177
   0.78181347  0.56167108  0.94330764
   0.89358482  0.44812030  0.05640499
   0.77685441  0.88933687  0.94500137
   0.89273617  0.77488417  0.05694794
unknown system                          
           1
     8.311715    4.837153    0.000000
    -8.306984    4.828873    0.000000
     0.000000    0.000000   30.000000
   V    Mo   W    S 
   3   3   3  18
Direct configuration=    22
   0.30480046 -0.01914062  0.00038248
   0.66785353 -0.02875469  0.00002358
   0.31057301  0.32823210 -0.00029385
  -0.00541809  0.66431492 -0.00002696
   0.69772295  0.68101325  0.00000300
  -0.01271611 -0.02959855  0.00003135
   1.01558542  0.36674980  0.00038579
   0.31032920  0.65444202 -0.00074339
   0.69516947  0.36720849  0.00033087
   0.10530190  0.22051942  0.95149454
   0.22192607  0.11036890  0.04994670
   0.11053783  0.56166587  0.94346210
   0.22488530  0.44367168  0.05420049
   0.11367264  0.88976171  0.94567835
   0.22519217  0.78123713  0.05294553
   0.44352493  0.22276403  0.95593979
   0.55585901  0.11017177  0.04175199
   0.44648108  0.55335612  0.95343504
   0.55297412  0.44539557  0.04930720
   0.44547020  0.89227314  0.95170686
   0.55479184  0.77331960  0.04990547
   0.77882068  0.22082748  0.95238237
   0.88882723  0.11412495  0.04612643
   0.78217120  0.56184464  0.94330362
   0.89384915  0.44843694  0.05644197
   0.77693277  0.88911020  0.94495089
   0.89309650  0.77489858  0.05692767
unknown system                          
           1
     8.312409    4.836356    0.000000
    -8.306931    4.826796    0.000000
     0.000000    0.000000   30.000000
   V    Mo   W    S 
   3   3   3  18
Direct configuration=    23
   0.30488475 -0.01907107  0.00037373
   0.66758324 -0.02900167 -0.00001692
   0.31017096  0.32779126 -0.00025297
  -0.00529618  0.66445358 -0.00003745
   0.69786025  0.68106150 -0.00000438
  -0.01259514 -0.02947568  0.00000920
   1.01559754  0.36681070  0.00037752
   0.31037007  0.65465270 -0.00072880
   0.69522499  0.36721538  0.00033663
   0.10525015  0.22056881  0.95145360
   0.22188490  0.11029635  0.04998075
   0.11058054  0.56164890  0.94349788
   0.22485186  0.44369644  0.05419760
   0.11378043  0.88988802  0.94568140
   0.22522955  0.78133236  0.05295655
   0.44349412  0.22280082  0.95596980
   0.55588105  0.11012862  0.04174085
   0.44648300  0.55328342  0.95354516
   0.55295513  0.44534684  0.04928594
   0.44541458  0.89224139  0.95167295
   0.55484657  0.77327266  0.04989388
   0.77875106  0.22075259  0.95239900
   0.88868079  0.11410457  0.04605265
   0.78226514  0.56182177  0.94331463
   0.89393369  0.44857072  0.05643119
   0.77691552  0.88902819  0.94495757
   0.89321592  0.77499529  0.05691196
unknown system                          
           1
     8.315526    4.838141    0.000000
    -8.309893    4.828314    0.000000
     0.000000    0.000000   30.000000
   V    Mo   W    S 
   3   3   3  18
Direct configuration=    24
   0.30491425 -0.01902780  0.00035515
   0.66690246 -0.02971741 -0.00012568
   0.30897042  0.32666030 -0.00014794
  -0.00492268  0.66473657 -0.00005816
   0.69840013  0.68116753 -0.00001999
  -0.01234271 -0.02937840 -0.00003048
   1.01567539  0.36719461  0.00039771
   0.31018001  0.65497963 -0.00068288
   0.69559496  0.36744796  0.00035064
   0.10493248  0.22066269  0.95137390
   0.22170882  0.11009273  0.05007689
   0.11069892  0.56175902  0.94346140
   0.22478622  0.44383618  0.05422527
   0.11393930  0.89012610  0.94563385
   0.22537822  0.78151959  0.05302729
   0.44348241  0.22293283  0.95610828
   0.55594292  0.11008668  0.04164038
   0.44652086  0.55314503  0.95386640
   0.55294710  0.44528445  0.04919195
   0.44518819  0.89208196  0.95159728