   27   27  100    1
  0.9710400E+02  0.1002848E-08  0.1002848E-08  0.3000000E-08  0.5000000E-15
  1.000000000000000E-004
  CAR 
 unknown system                          
    159     34    120
 
  0.0000000E+00  0.0000000E+00  0.0000000E+00  0.1562500E-01
    1      -17.822854   1.000000
    2      -16.673672   1.000000
    3      -16.624189   1.000000
    4      -16.615715   1.000000
    5      -16.449199   1.000000
    6      -16.438455   1.000000
    7      -16.396169   1.000000
    8      -16.376533   1.000000
    9      -16.115317   1.000000
   10      -16.043401   1.000000
   11      -16.009393   1.000000
   12      -15.961752   1.000000
   13      -15.916021   1.000000
   14      -15.862374   1.000000
   15      -15.617794   1.000000
   16      -15.453007   1.000000
   17      -15.339922   1.000000
   18      -15.256618   1.000000
   19       -9.451823   1.000000
   20       -9.021947   1.000000
   21       -8.947600   1.000000
   22       -8.731617   1.000000
   23       -8.722672   1.000000
   24       -8.619495   1.000000
   25       -8.590210   1.000000
   26       -8.505150   1.000000
   27       -8.470624   1.000000
   28       -8.432164   1.000000
   29       -8.368893   1.000000
   30       -8.336139   1.000000
   31       -8.198178   1.000000
   32       -8.166738   1.000000
   33       -8.070185   1.000000
   34       -8.064062   1.000000
   35       -7.838384   1.000000
   36       -7.814739   1.000000
   37       -7.738873   1.000000
   38       -7.657961   1.000000
   39       -7.515613   1.000000
   40       -7.461948   1.000000
   41       -7.313312   1.000000
   42       -7.250790   1.000000
   43       -7.173362   1.000000
   44       -6.889342   1.000000
   45       -6.826757   1.000000
   46       -6.771602   1.000000
   47       -6.718613   1.000000
   48       -6.675292   1.000000
   49       -6.571506   1.000000
   50       -6.472197   1.000000
   51       -6.452884   1.000000
   52       -6.392889   1.000000
   53       -6.283669   1.000000
   54       -6.276578   1.000000
   55       -6.167984   1.000000
   56       -6.154677   1.000000
   57       -6.065951   1.000000
   58       -5.849480   1.000000
   59       -5.735948   1.000000
   60       -5.612976   1.000000
   61       -5.601965   1.000000
   62       -5.337314   1.000000
   63       -5.262643   1.000000
   64       -5.052179   1.000000
   65       -4.983203   1.000000
   66       -4.903457   1.000000
   67       -4.871334   1.000000
   68       -4.673064   1.000000
   69       -4.659366   1.000000
   70       -4.627191   1.000000
   71       -4.546264   1.000000
   72       -4.496846   1.000000
   73       -4.445523   1.000000
   74       -4.381740   1.000000
   75       -4.041989   1.000000
   76       -4.037052   1.000000
   77       -3.697041   0.999300
   78       -3.545126   0.983010
   79       -3.422123   0.894452
   80       -3.366963   0.805246
   81       -3.184737   0.334319
   82       -2.793718   0.000704
   83       -2.567536   0.000001
   84       -2.556176   0.000001
   85       -2.510982   0.000000
   86       -2.371720   0.000000
   87       -2.323075   0.000000
   88       -2.287958   0.000000
   89       -2.166326   0.000000
   90       -2.062203   0.000000
   91       -1.880738   0.000000
   92       -1.848565   0.000000
   93       -1.439660   0.000000
   94       -1.428540   0.000000
   95       -1.227633   0.000000
   96       -1.190014   0.000000
   97       -1.089407   0.000000
   98       -0.961371   0.000000
   99       -0.711746   0.000000
  100       -0.505958   0.000000
  101       -0.489543   0.000000
  102       -0.457796   0.000000
  103       -0.389700   0.000000
  104       -0.173726   0.000000
  105       -0.114773   0.000000
  106        0.159811   0.000000
  107        0.175153   0.000000
  108        0.315628   0.000000
  109        0.320345   0.000000
  110        0.411907   0.000000
  111        0.460522   0.000000
  112        0.601815   0.000000
  113        0.693037   0.000000
  114        0.734090   0.000000
  115        0.921931   0.000000
  116        0.927204   0.000000
  117        0.958753   0.000000
  118        1.664253   0.000000
  119        1.836413   0.000000
  120        2.176268   0.000000
 
  0.1250000E+00  0.2775558E-16  0.0000000E+00  0.3125000E-01
    1      -17.798281   1.000000
    2      -16.769427   1.000000
    3      -16.654830   1.000000
    4      -16.617273   1.000000
    5      -16.517759   1.000000
    6      -16.396693   1.000000
    7      -16.353340   1.000000
    8      -16.338817   1.000000
    9      -16.116732   1.000000
   10      -16.078557   1.000000
   11      -15.992952   1.000000
   12      -15.908583   1.000000
   13      -15.878889   1.000000
   14      -15.830805   1.000000
   15      -15.634239   1.000000
   16      -15.461689   1.000000
   17      -15.353167   1.000000
   18      -15.257789   1.000000
   19       -9.447207   1.000000
   20       -9.162725   1.000000
   21       -9.038544   1.000000
   22       -8.844149   1.000000
   23       -8.756369   1.000000
   24       -8.646269   1.000000
   25       -8.578433   1.000000
   26       -8.534978   1.000000
   27       -8.478625   1.000000
   28       -8.434680   1.000000
   29       -8.349462   1.000000
   30       -8.216035   1.000000
   31       -8.169696   1.000000
   32       -8.096121   1.000000
   33       -8.029946   1.000000
   34       -7.907135   1.000000
   35       -7.822279   1.000000
   36       -7.757743   1.000000
   37       -7.654246   1.000000
   38       -7.605130   1.000000
   39       -7.526990   1.000000
   40       -7.482354   1.000000
   41       -7.321633   1.000000
   42       -7.198249   1.000000
   43       -7.168386   1.000000
   44       -6.989295   1.000000
   45       -6.854769   1.000000
   46       -6.804804   1.000000
   47       -6.751096   1.000000
   48       -6.668017   1.000000
   49       -6.560268   1.000000
   50       -6.483924   1.000000
   51       -6.424101   1.000000
   52       -6.353643   1.000000
   53       -6.325781   1.000000
   54       -6.264577   1.000000
   55       -6.173757   1.000000
   56       -6.158266   1.000000
   57       -6.068926   1.000000
   58       -5.844541   1.000000
   59       -5.739657   1.000000
   60       -5.559345   1.000000
   61       -5.522590   1.000000
   62       -5.334470   1.000000
   63       -5.275694   1.000000
   64       -5.175606   1.000000
   65       -5.096975   1.000000
   66       -5.032966   1.000000
   67       -4.860111   1.000000
   68       -4.813058   1.000000
   69       -4.717862   1.000000
   70       -4.629356   1.000000
   71       -4.524188   1.000000
   72       -4.416049   1.000000
   73       -4.284410   1.000000
   74       -4.216909   1.000000
   75       -4.022155   1.000000
   76       -3.912242   0.999999
   77       -3.809620   0.999967
   78       -3.657041   0.998203
   79       -3.551801   0.984902
   80       -3.327863   0.720402
   81       -3.059918   0.094993
   82       -2.769770   0.000387
   83       -2.630915   0.000007
   84       -2.533215   0.000000
   85       -2.498755   0.000000
   86       -2.374836   0.000000
   87       -2.326215   0.000000
   88       -2.260888   0.000000
   89       -2.178846   0.000000
   90       -2.065337   0.000000
   91       -1.871714   0.000000
   92       -1.837413   0.000000
   93       -1.428716   0.000000
   94       -1.415997   0.000000
   95       -1.207242   0.000000
   96       -1.177316   0.000000
   97       -1.070141   0.000000
   98       -0.946079   0.000000
   99       -0.722807   0.000000
  100       -0.583793   0.000000
  101       -0.540800   0.000000
  102       -0.507957   0.000000
  103       -0.461916   0.000000
  104       -0.234890   0.000000
  105       -0.142145   0.000000
  106        0.083570   0.000000
  107        0.151692   0.000000
  108        0.236380   0.000000
  109        0.292524   0.000000
  110        0.374405   0.000000
  111        0.446114   0.000000
  112        0.590878   0.000000
  113        0.653302   0.000000
  114        0.815109   0.000000
  115        0.969700   0.000000
  116        1.022189   0.000000
  117        1.083306   0.000000
  118        1.707175   0.000000
  119        1.876119   0.000000
  120        2.211287   0.000000
 
  0.2500000E+00  0.5551115E-16  0.0000000E+00  0.3125000E-01
    1      -17.726594   1.000000
    2      -16.972030   1.000000
    3      -16.693426   1.000000
    4      -16.618114   1.000000
    5      -16.575749   1.000000
    6      -16.393035   1.000000
    7      -16.308913   1.000000
    8      -16.258477   1.000000
    9      -16.156456   1.000000
   10      -16.047962   1.000000
   11      -15.970750   1.000000
   12      -15.867994   1.000000
   13      -15.816103   1.000000
   14      -15.724229   1.000000
   15      -15.668600   1.000000
   16      -15.483224   1.000000
   17      -15.382487   1.000000
   18      -15.264977   1.000000
   19       -9.542020   1.000000
   20       -9.314880   1.000000
   21       -9.176064   1.000000
   22       -8.959590   1.000000
   23       -8.900652   1.000000
   24       -8.723921   1.000000
   25       -8.553392   1.000000
   26       -8.481470   1.000000
   27       -8.441357   1.000000
   28       -8.365245   1.000000
   29       -8.319928   1.000000
   30       -8.197610   1.000000
   31       -8.157323   1.000000
   32       -8.066707   1.000000
   33       -7.891781   1.000000
   34       -7.769766   1.000000
   35       -7.717060   1.000000
   36       -7.672400   1.000000
   37       -7.604766   1.000000
   38       -7.546405   1.000000
   39       -7.412937   1.000000
   40       -7.348416   1.000000
   41       -7.288716   1.000000
   42       -7.201057   1.000000
   43       -7.081912   1.000000
   44       -7.028872   1.000000
   45       -6.946170   1.000000
   46       -6.853513   1.000000
   47       -6.765905   1.000000
   48       -6.685706   1.000000
   49       -6.583931   1.000000
   50       -6.521763   1.000000
   51       -6.420858   1.000000
   52       -6.352356   1.000000
   53       -6.276855   1.000000
   54       -6.209522   1.000000
   55       -6.153333   1.000000
   56       -6.113770   1.000000
   57       -6.040103   1.000000
   58       -5.847393   1.000000
   59       -5.730980   1.000000
   60       -5.590046   1.000000
   61       -5.557176   1.000000
   62       -5.484718   1.000000
   63       -5.416434   1.000000
   64       -5.363189   1.000000
   65       -5.160712   1.000000
   66       -5.107550   1.000000
   67       -4.973228   1.000000
   68       -4.815277   1.000000
   69       -4.678659   1.000000
   70       -4.591242   1.000000
   71       -4.454928   1.000000
   72       -4.326992   1.000000
   73       -4.219676   1.000000
   74       -4.085233   1.000000
   75       -3.989976   1.000000
   76       -3.940118   1.000000
   77       -3.867163   0.999995
   78       -3.717022   0.999575
   79       -3.529441   0.977753
   80       -3.327996   0.720717
   81       -2.981370   0.031018
   82       -2.734933   0.000154
   83       -2.692421   0.000046
   84       -2.513496   0.000000
   85       -2.478745   0.000000
   86       -2.390532   0.000000
   87       -2.327783   0.000000
   88       -2.216778   0.000000
   89       -2.162020   0.000000
   90       -2.062220   0.000000
   91       -1.858794   0.000000
   92       -1.816601   0.000000
   93       -1.423424   0.000000
   94       -1.377395   0.000000
   95       -1.208846   0.000000
   96       -1.119114   0.000000
   97       -1.016927   0.000000
   98       -0.925059   0.000000
   99       -0.808924   0.000000
  100       -0.710738   0.000000
  101       -0.648132   0.000000
  102       -0.607588   0.000000
  103       -0.564282   0.000000
  104       -0.379187   0.000000
  105       -0.212247   0.000000
  106       -0.103682   0.000000
  107        0.009441   0.000000
  108        0.065656   0.000000
  109        0.218899   0.000000
  110        0.380303   0.000000
  111        0.483254   0.000000
  112        0.531242   0.000000
  113        0.667084   0.000000
  114        0.933062   0.000000
  115        1.048982   0.000000
  116        1.196654   0.000000
  117        1.311124   0.000000
  118        1.828006   0.000000
  119        1.990367   0.000000
  120        2.315202   0.000000
 
  0.3750000E+00  0.0000000E+00  0.0000000E+00  0.3125000E-01
    1      -17.617799   1.000000
    2      -17.176516   1.000000
    3      -16.731665   1.000000
    4      -16.627353   1.000000
    5      -16.581777   1.000000
    6      -16.423480   1.000000
    7      -16.278322   1.000000
    8      -16.216694   1.000000
    9      -16.146243   1.000000
   10      -16.022910   1.000000
   11      -15.937452   1.000000
   12      -15.832004   1.000000
   13      -15.765921   1.000000
   14      -15.716029   1.000000
   15      -15.654128   1.000000
   16      -15.484833   1.000000
   17      -15.406202   1.000000
   18      -15.278266   1.000000
   19       -9.732113   1.000000
   20       -9.340134   1.000000
   21       -9.245921   1.000000
   22       -9.042203   1.000000
   23       -8.975270   1.000000
   24       -8.783370   1.000000
   25       -8.505745   1.000000
   26       -8.455713   1.000000
   27       -8.399191   1.000000
   28       -8.342698   1.000000
   29       -8.256895   1.000000
   30       -8.215664   1.000000
   31       -8.145257   1.000000
   32       -8.017628   1.000000
   33       -7.905382   1.000000
   34       -7.772290   1.000000
   35       -7.751322   1.000000
   36       -7.622533   1.000000
   37       -7.585889   1.000000
   38       -7.461546   1.000000
   39       -7.299852   1.000000
   40       -7.260770   1.000000
   41       -7.203428   1.000000
   42       -7.119596   1.000000
   43       -7.064537   1.000000
   44       -6.962879   1.000000
   45       -6.879434   1.000000
   46       -6.807883   1.000000
   47       -6.742920   1.000000
   48       -6.644702   1.000000
   49       -6.601763   1.000000
   50       -6.531588   1.000000
   51       -6.377768   1.000000
   52       -6.283834   1.000000
   53       -6.251894   1.000000
   54       -6.197149   1.000000
   55       -6.118982   1.000000
   56       -6.036010   1.000000
   57       -5.950597   1.000000
   58       -5.935613   1.000000
   59       -5.881686   1.000000
   60       -5.811089   1.000000
   61       -5.716142   1.000000
   62       -5.645400   1.000000
   63       -5.575175   1.000000
   64       -5.431123   1.000000
   65       -5.160282   1.000000
   66       -5.026356   1.000000
   67       -4.924240   1.000000
   68       -4.819080   1.000000
   69       -4.695786   1.000000
   70       -4.609348   1.000000
   71       -4.547916   1.000000
   72       -4.371446   1.000000
   73       -4.253836   1.000000
   74       -4.148008   1.000000
   75       -3.938505   1.000000
   76       -3.787781   0.999938
   77       -3.757173   0.999853
   78       -3.655709   0.998148
   79       -3.462125   0.937412
   80       -3.352170   0.775149
   81       -3.005346   0.044895
   82       -2.728907   0.000130
   83       -2.703030   0.000063
   84       -2.516781   0.000000
   85       -2.458418   0.000000
   86       -2.380805   0.000000
   87       -2.332168   0.000000
   88       -2.196919   0.000000
   89       -2.081369   0.000000
   90       -2.035997   0.000000
   91       -1.855416   0.000000
   92       -1.806282   0.000000
   93       -1.416195   0.000000
   94       -1.341780   0.000000
   95       -1.241420   0.000000
   96       -1.122944   0.000000
   97       -1.022043   0.000000
   98       -0.916695   0.000000
   99       -0.844555   0.000000
  100       -0.823827   0.000000
  101       -0.739486   0.000000
  102       -0.650967   0.000000
  103       -0.603574   0.000000
  104       -0.518139   0.000000
  105       -0.319962   0.000000
  106       -0.228236   0.000000
  107       -0.173616   0.000000
  108       -0.046956   0.000000
  109        0.149032   0.000000
  110        0.333927   0.000000
  111        0.509878   0.000000
  112        0.554283   0.000000
  113        0.678820   0.000000
  114        1.029942   0.000000
  115        1.127931   0.000000
  116        1.320392   0.000000
  117        1.481051   0.000000
  118        2.010421   0.000000
  119        2.167948   0.000000
  120        2.480709   0.000000
 
  0.5000000E+00  0.1110223E-15  0.0000000E+00  0.1562500E-01
    1      -17.535041   1.000000
    2      -17.293303   1.000000
    3      -16.745585   1.000000
    4      -16.638692   1.000000
    5      -16.569494   1.000000
    6      -16.441807   1.000000
    7      -16.253248   1.000000
    8      -16.243027   1.000000
    9      -16.102023   1.000000
   10      -16.016061   1.000000
   11      -15.937647   1.000000
   12      -15.801560   1.000000
   13      -15.754067   1.000000
   14      -15.704309   1.000000
   15      -15.679454   1.000000
   16      -15.475580   1.000000
   17      -15.406769   1.000000
   18      -15.286639   1.000000
   19       -9.807567   1.000000
   20       -9.364714   1.000000
   21       -9.253631   1.000000
   22       -9.078145   1.000000
   23       -8.976138   1.000000
   24       -8.792854   1.000000
   25       -8.539561   1.000000
   26       -8.465119   1.000000
   27       -8.365154   1.000000
   28       -8.327690   1.000000
   29       -8.225153   1.000000
   30       -8.157869   1.000000
   31       -8.136083   1.000000
   32       -7.989740   1.000000
   33       -7.930140   1.000000
   34       -7.831704   1.000000
   35       -7.773213   1.000000
   36       -7.679729   1.000000
   37       -7.565252   1.000000
   38       -7.455130   1.000000
   39       -7.322439   1.000000
   40       -7.249685   1.000000
   41       -7.098975   1.000000
   42       -7.044960   1.000000
   43       -6.981563   1.000000
   44       -6.925314   1.000000
   45       -6.826637   1.000000
   46       -6.774449   1.000000
   47       -6.656446   1.000000
   48       -6.648908   1.000000
   49       -6.554553   1.000000
   50       -6.515563   1.000000
   51       -6.400321   1.000000
   52       -6.333250   1.000000
   53       -6.315507   1.000000
   54       -6.197369   1.000000
   55       -6.107319   1.000000
   56       -6.047199   1.000000
   57       -6.027402   1.000000
   58       -5.913753   1.000000
   59       -5.863438   1.000000
   60       -5.810962   1.000000
   61       -5.752735   1.000000
   62       -5.671483   1.000000
   63       -5.541876   1.000000
   64       -5.482095   1.000000
   65       -5.341990   1.000000
   66       -5.031353   1.000000
   67       -4.910771   1.000000
   68       -4.876971   1.000000
   69       -4.739552   1.000000
   70       -4.582585   1.000000
   71       -4.515433   1.000000
   72       -4.356034   1.000000
   73       -4.270345   1.000000
   74       -4.214931   1.000000
   75       -3.867165   0.999995
   76       -3.749790   0.999820
   77       -3.700467   0.999356
   78       -3.593629   0.993117
   79       -3.470467   0.944352
   80       -3.361755   0.794942
   81       -3.016560   0.052916
   82       -2.730183   0.000135
   83       -2.714632   0.000088
   84       -2.519590   0.000000
   85       -2.451090   0.000000
   86       -2.367878   0.000000
   87       -2.332725   0.000000
   88       -2.181282   0.000000
   89       -2.055539   0.000000
   90       -2.004308   0.000000
   91       -1.857260   0.000000
   92       -1.805829   0.000000
   93       -1.399966   0.000000
   94       -1.318943   0.000000
   95       -1.297377   0.000000
   96       -1.141196   0.000000
   97       -1.052091   0.000000
   98       -0.937050   0.000000
   99       -0.863954   0.000000
  100       -0.799110   0.000000
  101       -0.752338   0.000000
  102       -0.684885   0.000000
  103       -0.616966   0.000000
  104       -0.566250   0.000000
  105       -0.366390   0.000000
  106       -0.284170   0.000000
  107       -0.239503   0.000000
  108       -0.086567   0.000000
  109        0.122378   0.000000
  110        0.316459   0.000000
  111        0.509258   0.000000
  112        0.570659   0.000000
  113        0.685377   0.000000
  114        1.066309   0.000000
  115        1.159317   0.000000
  116        1.363869   0.000000
  117        1.539183   0.000000
  118        2.222086   0.000000
  119        2.262576   0.000000
  120        2.393214   0.000000
 
  0.0000000E+00  0.1250000E+00  0.0000000E+00  0.3125000E-01
    1      -17.798269   1.000000
    2      -16.769437   1.000000
    3      -16.655285   1.000000
    4      -16.617435   1.000000
    5      -16.516491   1.000000
    6      -16.396110   1.000000
    7      -16.353911   1.000000
    8      -16.339553   1.000000
    9      -16.117832   1.000000
   10      -16.077222   1.000000
   11      -15.993868   1.000000
   12      -15.908212   1.000000
   13      -15.879058   1.000000
   14      -15.830201   1.000000
   15      -15.634160   1.000000
   16      -15.461704   1.000000
   17      -15.353169   1.000000
   18      -15.257890   1.000000
   19       -9.447107   1.000000
   20       -9.163095   1.000000
   21       -9.038932   1.000000
   22       -8.843840   1.000000
   23       -8.756552   1.000000
   24       -8.644299   1.000000
   25       -8.578397   1.000000
   26       -8.535681   1.000000
   27       -8.477310   1.000000
   28       -8.436170   1.000000
   29       -8.349522   1.000000
   30       -8.217019   1.000000
   31       -8.170127   1.000000
   32       -8.096570   1.000000
   33       -8.029745   1.000000
   34       -7.906907   1.000000
   35       -7.823092   1.000000
   36       -7.756780   1.000000
   37       -7.653797   1.000000
   38       -7.604619   1.000000
   39       -7.527488   1.000000
   40       -7.481712   1.000000
   41       -7.321327   1.000000
   42       -7.198945   1.000000
   43       -7.168510   1.000000
   44       -6.988518   1.000000
   45       -6.853714   1.000000
   46       -6.804659   1.000000
   47       -6.753158   1.000000
   48       -6.669112   1.000000
   49       -6.558713   1.000000
   50       -6.484593   1.000000
   51       -6.425303   1.000000
   52       -6.352054   1.000000
   53       -6.327132   1.000000
   54       -6.264319   1.000000
   55       -6.174756   1.000000
   56       -6.156198   1.000000
   57       -6.068410   1.000000
   58       -5.844803   1.000000
   59       -5.739917   1.000000
   60       -5.552104   1.000000
   61       -5.529350   1.000000
   62       -5.336616   1.000000
   63       -5.271692   1.000000
   64       -5.175283   1.000000
   65       -5.099213   1.000000
   66       -5.031444   1.000000
   67       -4.861927   1.000000
   68       -4.813206   1.000000
   69       -4.721847   1.000000
   70       -4.626776   1.000000
   71       -4.521442   1.000000
   72       -4.416509   1.000000
   73       -4.285617   1.000000
   74       -4.216784   1.000000
   75       -4.023174   1.000000
   76       -3.909324   0.999999
   77       -3.810506   0.999968
   78       -3.658319   0.998254
   79       -3.550093   0.984436
   80       -3.328856   0.722758
   81       -3.060506   0.095697
   82       -2.769234   0.000381
   83       -2.630517   0.000007
   84       -2.533973   0.000000
   85       -2.498138   0.000000
   86       -2.374590   0.000000
   87       -2.329063   0.000000
   88       -2.259806   0.000000
   89       -2.177840   0.000000
   90       -2.067029   0.000000
   91       -1.873497   0.000000
   92       -1.835175   0.000000
   93       -1.424326   0.000000
   94       -1.418615   0.000000
   95       -1.211511   0.000000
   96       -1.173755   0.000000
   97       -1.069963   0.000000
   98       -0.945782   0.000000
   99       -0.722518   0.000000
  100       -0.580607   0.000000
  101       -0.544033   0.000000
  102       -0.507060   0.000000
  103       -0.464961   0.000000
  104       -0.235214   0.000000
  105       -0.137161   0.000000
  106        0.081265   0.000000
  107        0.154245   0.000000
  108        0.236409   0.000000
  109        0.288220   0.000000
  110        0.375373   0.000000
  111        0.446235   0.000000
  112        0.592235   0.000000
  113        0.652428   0.000000
  114        0.812772   0.000000
  115        0.972231   0.000000
  116        1.020528   0.000000
  117        1.084469   0.000000
  118        1.707190   0.000000
  119        1.876098   0.000000
  120        2.211301   0.000000
 
  0.1250000E+00  0.1250000E+00  0.0000000E+00  0.3125000E-01
    1      -17.751449   1.000000
    2      -16.855717   1.000000
    3      -16.802182   1.000000
    4      -16.622668   1.000000
    5      -16.439494   1.000000
    6      -16.418490   1.000000
    7      -16.330745   1.000000
    8      -16.302720   1.000000
    9      -16.126927   1.000000
   10      -16.086889   1.000000
   11      -15.925651   1.000000
   12      -15.922166   1.000000
   13      -15.792470   1.000000
   14      -15.781751   1.000000
   15      -15.669598   1.000000
   16      -15.472023   1.000000
   17      -15.382937   1.000000
   18      -15.255073   1.000000
   19       -9.468694   1.000000
   20       -9.332054   1.000000
   21       -9.150904   1.000000
   22       -9.016556   1.000000
   23       -8.726132   1.000000
   24       -8.668538   1.000000
   25       -8.543379   1.000000
   26       -8.508783   1.000000
   27       -8.485191   1.000000
   28       -8.433305   1.000000
   29       -8.257234   1.000000
   30       -8.195907   1.000000
   31       -8.175472   1.000000
   32       -8.083553   1.000000
   33       -7.963480   1.000000
   34       -7.809342   1.000000
   35       -7.802174   1.000000
   36       -7.726401   1.000000
   37       -7.528248   1.000000
   38       -7.486086   1.000000
   39       -7.451160   1.000000
   40       -7.389320   1.000000
   41       -7.302715   1.000000
   42       -7.229582   1.000000
   43       -7.128050   1.000000
   44       -7.068015   1.000000
   45       -6.905827   1.000000
   46       -6.797777   1.000000
   47       -6.754187   1.000000
   48       -6.731130   1.000000
   49       -6.554124   1.000000
   50       -6.497068   1.000000
   51       -6.464426   1.000000
   52       -6.342099   1.000000
   53       -6.280648   1.000000
   54       -6.236043   1.000000
   55       -6.159595   1.000000
   56       -6.146281   1.000000
   57       -6.060958   1.000000
   58       -5.834671   1.000000
   59       -5.799271   1.000000
   60       -5.532035   1.000000
   61       -5.465335   1.000000
   62       -5.413945   1.000000
   63       -5.400335   1.000000
   64       -5.258434   1.000000
   65       -5.111383   1.000000
   66       -5.097643   1.000000
   67       -5.028060   1.000000
   68       -4.839189   1.000000
   69       -4.830571   1.000000
   70       -4.546503   1.000000
   71       -4.416734   1.000000
   72       -4.279513   1.000000
   73       -4.213169   1.000000
   74       -4.068543   1.000000
   75       -4.036134   1.000000
   76       -3.949151   1.000000
   77       -3.880165   0.999996
   78       -3.739129   0.999760
   79       -3.541122   0.981781
   80       -3.380513   0.830547
   81       -2.937200   0.014689
   82       -2.749948   0.000231
   83       -2.615298   0.000004
   84       -2.565258   0.000001
   85       -2.479735   0.000000
   86       -2.383824   0.000000
   87       -2.306659   0.000000
   88       -2.249183   0.000000
   89       -2.158425   0.000000
   90       -2.083333   0.000000
   91       -1.842867   0.000000
   92       -1.821189   0.000000
   93       -1.408149   0.000000
   94       -1.403222   0.000000
   95       -1.197585   0.000000
   96       -1.168117   0.000000
   97       -1.038032   0.000000
   98       -0.939738   0.000000
   99       -0.779679   0.000000
  100       -0.664013   0.000000
  101       -0.649224   0.000000
  102       -0.582093   0.000000
  103       -0.575131   0.000000
  104       -0.265789   0.000000
  105       -0.214289   0.000000
  106       -0.032880   0.000000
  107        0.015141   0.000000
  108        0.104011   0.000000
  109        0.320014   0.000000
  110        0.337611   0.000000
  111        0.477406   0.000000
  112        0.581310   0.000000
  113        0.629859   0.000000
  114        0.940850   0.000000
  115        1.046362   0.000000
  116        1.132831   0.000000
  117        1.189010   0.000000
  118        1.789033   0.000000
  119        1.952919   0.000000
  120        2.280451   0.000000
 
  0.2500000E+00  0.1250000E+00  0.0000000E+00  0.3125000E-01
    1      -17.661085   1.000000
    2      -17.054465   1.000000
    3      -16.877632   1.000000
    4      -16.601983   1.000000
    5      -16.456587   1.000000
    6      -16.400262   1.000000
    7      -16.308029   1.000000
    8      -16.234695   1.000000
    9      -16.159970   1.000000
   10      -16.054401   1.000000
   11      -15.923586   1.000000
   12      -15.872130   1.000000
   13      -15.758676   1.000000
   14      -15.718362   1.000000
   15      -15.669573   1.000000
   16      -15.484214   1.000000
   17      -15.412798   1.000000
   18      -15.259010   1.000000
   19       -9.616724   1.000000
   20       -9.448588   1.000000
   21       -9.264494   1.000000
   22       -9.099800   1.000000
   23       -8.785374   1.000000
   24       -8.643517   1.000000
   25       -8.527771   1.000000
   26       -8.422816   1.000000
   27       -8.409279   1.000000
   28       -8.377903   1.000000
   29       -8.274370   1.000000
   30       -8.213759   1.000000
   31       -8.175375   1.000000
   32       -8.087818   1.000000
   33       -7.926530   1.000000
   34       -7.879332   1.000000
   35       -7.814798   1.000000
   36       -7.556545   1.000000
   37       -7.517265   1.000000
   38       -7.407345   1.000000
   39       -7.326870   1.000000
   40       -7.295881   1.000000
   41       -7.209803   1.000000
   42       -7.190464   1.000000
   43       -7.061129   1.000000
   44       -6.975829   1.000000
   45       -6.947793   1.000000
   46       -6.812364   1.000000
   47       -6.752502   1.000000