       N       E                     dE             d eps       ncg     rms          rms(c)
DAV:   1     0.112417824737E+04    0.11242E+04   -0.35865E+04  8160   0.577E+02
DAV:   2    -0.503113366367E+01   -0.11292E+04   -0.10898E+04 11120   0.173E+02
DAV:   3    -0.200034574933E+03   -0.19500E+03   -0.18722E+03 10920   0.818E+01
DAV:   4    -0.209101584138E+03   -0.90670E+01   -0.87902E+01 12360   0.258E+01
DAV:   5    -0.209392396000E+03   -0.29081E+00   -0.28989E+00 11360   0.336E+00    0.275E+01
DAV:   6    -0.237057108226E+03   -0.27665E+02   -0.11220E+02 12640   0.603E+01    0.597E+01
DAV:   7    -0.196390966951E+03    0.40666E+02   -0.17979E+02 13480   0.150E+02    0.198E+01
DAV:   8    -0.189122018098E+03    0.72689E+01   -0.15939E+01 12160   0.124E+01    0.119E+01
DAV:   9    -0.187414630952E+03    0.17074E+01   -0.27336E+00 13600   0.869E+00    0.593E+00
DAV:  10    -0.186970536528E+03    0.44409E+00   -0.11592E+00 13320   0.411E+00    0.240E+00
DAV:  11    -0.186967247140E+03    0.32894E-02   -0.45268E-01 12360   0.193E+00    0.274E+00
DAV:  12    -0.186880132797E+03    0.87114E-01   -0.29602E-01 12120   0.185E+00    0.192E+00
DAV:  13    -0.186860983434E+03    0.19149E-01   -0.14425E-01 12840   0.199E+00    0.163E+00
DAV:  14    -0.186849181112E+03    0.11802E-01   -0.87594E-02 13160   0.169E+00    0.111E+00
DAV:  15    -0.186836683686E+03    0.12497E-01   -0.20590E-02 12720   0.606E-01    0.564E-01
DAV:  16    -0.186834070685E+03    0.26130E-02   -0.12440E-02 12720   0.590E-01    0.345E-01
DAV:  17    -0.186834516696E+03   -0.44601E-03   -0.43262E-03 12880   0.390E-01    0.425E-01
DAV:  18    -0.186832865654E+03    0.16510E-02   -0.26470E-03 11160   0.310E-01    0.562E-02
DAV:  19    -0.186833624232E+03   -0.75858E-03   -0.86265E-04  9440   0.771E-02    0.913E-02
DAV:  20    -0.186834709948E+03   -0.10857E-02   -0.53415E-04 10120   0.103E-01    0.487E-02
DAV:  21    -0.186835962503E+03   -0.12526E-02   -0.19469E-04  7560   0.551E-02    0.368E-02
DAV:  22    -0.186836438864E+03   -0.47636E-03   -0.80242E-05  6840   0.268E-02    0.307E-02
DAV:  23    -0.186836992165E+03   -0.55330E-03   -0.45790E-05  6520   0.263E-02    0.917E-03
DAV:  24    -0.186837256479E+03   -0.26431E-03   -0.15476E-05  6280   0.113E-02    0.656E-03
DAV:  25    -0.186837576708E+03   -0.32023E-03   -0.10728E-05  5520   0.885E-03    0.437E-03
DAV:  26    -0.186837845406E+03   -0.26870E-03   -0.94157E-06  6800   0.618E-03    0.239E-03
DAV:  27    -0.186837956271E+03   -0.11087E-03   -0.31213E-06  7200   0.425E-03    0.107E-03
DAV:  28    -0.186838003790E+03   -0.47519E-04   -0.19128E-06  6960   0.243E-03
   1 F= -.18683800E+03 E0= -.18666489E+03  d E =-.186838E+03
       N       E                     dE             d eps       ncg     rms          rms(c)
DAV:   1    -0.187435606286E+03   -0.59765E+00   -0.26843E+02  8160   0.347E+01    0.453E+00
DAV:   2    -0.189068647262E+03   -0.16330E+01   -0.19605E+01 12240   0.142E+01    0.639E+00
DAV:   3    -0.189382839810E+03   -0.31419E+00   -0.30035E+00 12440   0.110E+01    0.732E+00
DAV:   4    -0.188714302815E+03    0.66854E+00   -0.73538E-01 12560   0.532E+00    0.212E+00
DAV:   5    -0.188697153322E+03    0.17149E-01   -0.28278E-01 10280   0.166E+00    0.227E+00
DAV:   6    -0.188713692905E+03   -0.16540E-01   -0.37002E-01 12720   0.313E+00    0.398E+00
DAV:   7    -0.188627066519E+03    0.86626E-01   -0.37466E-01 12320   0.330E+00    0.133E+00
DAV:   8    -0.188604880747E+03    0.22186E-01   -0.36722E-02 11480   0.830E-01    0.383E-01
DAV:   9    -0.188603184423E+03    0.16963E-02   -0.78985E-03 11880   0.240E-01    0.242E-01
DAV:  10    -0.188602693467E+03    0.49096E-03   -0.31180E-03 12720   0.221E-01    0.167E-01
DAV:  11    -0.188602889991E+03   -0.19652E-03   -0.17629E-03 12520   0.242E-01    0.230E-01
DAV:  12    -0.188602624787E+03    0.26520E-03   -0.10042E-03 11400   0.181E-01    0.827E-02
DAV:  13    -0.188602588974E+03    0.35813E-04   -0.17710E-04  7600   0.574E-02
   2 F= -.18860259E+03 E0= -.18845512E+03  d E =-.176459E+01
       N       E                     dE             d eps       ncg     rms          rms(c)
DAV:   1    -0.190505579360E+03   -0.19030E+01   -0.30401E+01  9360   0.141E+01    0.449E+00
DAV:   2    -0.190567573816E+03   -0.61994E-01   -0.29339E+00 11080   0.100E+01    0.790E+00
DAV:   3    -0.189971551781E+03    0.59602E+00   -0.13745E+00 12320   0.870E+00    0.409E+00
DAV:   4    -0.189769377463E+03    0.20217E+00   -0.67315E-01 12680   0.378E+00    0.250E+00
DAV:   5    -0.189707245422E+03    0.62132E-01   -0.32375E-01 12240   0.237E+00    0.190E+00
DAV:   6    -0.189672077356E+03    0.35168E-01   -0.85572E-02 12200   0.187E+00    0.778E-01
DAV:   7    -0.189666011846E+03    0.60655E-02   -0.13522E-02 12040   0.592E-01    0.178E-01
DAV:   8    -0.189666035683E+03   -0.23837E-04   -0.21421E-03 10920   0.161E-01    0.116E-01
DAV:   9    -0.189666477055E+03   -0.44137E-03   -0.99560E-04 10440   0.101E-01    0.133E-01
DAV:  10    -0.189666163164E+03    0.31389E-03   -0.67291E-04 10000   0.823E-02    0.337E-02
DAV:  11    -0.189666186890E+03   -0.23726E-04   -0.95595E-05  7160   0.437E-02
   3 F= -.18966619E+03 E0= -.18954125E+03  d E =-.106360E+01
       N       E                     dE             d eps       ncg     rms          rms(c)
DAV:   1    -0.191172074453E+03   -0.15059E+01   -0.63713E+01  8160   0.184E+01    0.466E+00
DAV:   2    -0.191122062120E+03    0.50012E-01   -0.53707E+00 13440   0.889E+00    0.592E+00
DAV:   3    -0.191028080332E+03    0.93982E-01   -0.16226E+00 12240   0.934E+00    0.591E+00
DAV:   4    -0.190661307935E+03    0.36677E+00   -0.10229E+00 13200   0.618E+00    0.239E+00
DAV:   5    -0.190610267544E+03    0.51040E-01   -0.30940E-01 12240   0.297E+00    0.222E+00
DAV:   6    -0.190565127961E+03    0.45140E-01   -0.12945E-01 12320   0.256E+00    0.933E-01
DAV:   7    -0.190561131119E+03    0.39968E-02   -0.24357E-02 12240   0.909E-01    0.479E-01
DAV:   8    -0.190557718971E+03    0.34121E-02   -0.74572E-03 10960   0.447E-01    0.263E-01
DAV:   9    -0.190557487569E+03    0.23140E-03   -0.19707E-03 10760   0.299E-01    0.186E-01
DAV:  10    -0.190557514718E+03   -0.27148E-04   -0.13486E-03 11400   0.165E-01    0.822E-02
DAV:  11    -0.190557421652E+03    0.93065E-04   -0.42332E-04  9320   0.776E-02
   4 F= -.19055742E+03 E0= -.19045469E+03  d E =-.891235E+00
       N       E                     dE             d eps       ncg     rms          rms(c)
DAV:   1    -0.192015830940E+03   -0.14583E+01   -0.12957E+02  8160   0.260E+01    0.598E+00
DAV:   2    -0.191687494076E+03    0.32834E+00   -0.95481E+00 13000   0.914E+00    0.492E+00
DAV:   3    -0.192004463081E+03   -0.31697E+00   -0.22873E+00 12240   0.113E+01    0.870E+00
DAV:   4    -0.191345209067E+03    0.65925E+00   -0.23154E+00 12480   0.111E+01    0.356E+00
DAV:   5    -0.191289256482E+03    0.55953E-01   -0.67000E-01 12280   0.560E+00    0.345E+00
DAV:   6    -0.191124990639E+03    0.16427E+00   -0.25216E-01 12240   0.381E+00    0.826E-01
DAV:   7    -0.191122719524E+03    0.22711E-02   -0.31848E-02 12240   0.928E-01    0.452E-01
DAV:   8    -0.191119553250E+03    0.31663E-02   -0.71888E-03 11080   0.403E-01    0.252E-01
DAV:   9    -0.191120187919E+03   -0.63467E-03   -0.35379E-03 12080   0.421E-01    0.322E-01
DAV:  10    -0.191119563706E+03    0.62421E-03   -0.30641E-03 11600   0.326E-01    0.105E-01
DAV:  11    -0.191119478901E+03    0.84805E-04   -0.55817E-04 10600   0.920E-02
   5 F= -.19111948E+03 E0= -.19103464E+03  d E =-.562057E+00
       N       E                     dE             d eps       ncg     rms          rms(c)
DAV:   1    -0.191163063840E+03   -0.43500E-01   -0.47185E+00  8160   0.459E+00    0.615E-01
DAV:   2    -0.191197999361E+03   -0.34936E-01   -0.17790E-01 13400   0.196E+00    0.160E+00
DAV:   3    -0.191169701381E+03    0.28298E-01   -0.65847E-02 12360   0.197E+00    0.520E-01
DAV:   4    -0.191167745086E+03    0.19563E-02   -0.10017E-02 10840   0.568E-01    0.378E-01
DAV:   5    -0.191167003231E+03    0.74186E-03   -0.60289E-03 11640   0.579E-01    0.341E-01
DAV:   6    -0.191165943630E+03    0.10596E-02   -0.29101E-03 11720   0.356E-01    0.132E-01
DAV:   7    -0.191165780438E+03    0.16319E-03   -0.10761E-03 10360   0.128E-01    0.590E-02
DAV:   8    -0.191165735731E+03    0.44707E-04   -0.19706E-04  7040   0.569E-02
   6 F= -.19116574E+03 E0= -.19107879E+03  d E =-.462568E-01
       N       E                     dE             d eps       ncg     rms          rms(c)
DAV:   1    -0.191211377598E+03   -0.45597E-01   -0.62527E+00  8160   0.522E+00    0.657E-01
DAV:   2    -0.191267625561E+03   -0.56248E-01   -0.21310E-01 13600   0.269E+00    0.210E+00
DAV:   3    -0.191217673527E+03    0.49952E-01   -0.90658E-02 12640   0.234E+00    0.412E-01
DAV:   4    -0.191216820478E+03    0.85305E-03   -0.86067E-03 11160   0.464E-01    0.352E-01
DAV:   5    -0.191216295923E+03    0.52456E-03   -0.54641E-03 12240   0.532E-01    0.339E-01
DAV:   6    -0.191215281051E+03    0.10149E-02   -0.27364E-03 11680   0.352E-01    0.129E-01
DAV:   7    -0.191215191828E+03    0.89224E-04   -0.90931E-04 10320   0.125E-01
   7 F= -.19121519E+03 E0= -.19112422E+03  d E =-.494561E-01
       N       E                     dE             d eps       ncg     rms          rms(c)
DAV:   1    -0.191261043520E+03   -0.45762E-01   -0.64390E+00  8160   0.532E+00    0.690E-01
DAV:   2    -0.191325365349E+03   -0.64322E-01   -0.25235E-01 13600   0.313E+00    0.228E+00
DAV:   3    -0.191267915396E+03    0.57450E-01   -0.10369E-01 12640   0.245E+00    0.370E-01
DAV:   4    -0.191266893966E+03    0.10214E-02   -0.76756E-03 11760   0.353E-01    0.283E-01
DAV:   5    -0.191266533540E+03    0.36043E-03   -0.47597E-03 11840   0.440E-01    0.343E-01
DAV:   6    -0.191265816993E+03    0.71655E-03   -0.40358E-03 11760   0.438E-01    0.197E-01
DAV:   7    -0.191265463535E+03    0.35346E-03   -0.11119E-03 10320   0.182E-01    0.535E-02
DAV:   8    -0.191265413618E+03    0.49917E-04   -0.15804E-04  6800   0.622E-02
   8 F= -.19126541E+03 E0= -.19116950E+03  d E =-.502218E-01
       N       E                     dE             d eps       ncg     rms          rms(c)
DAV:   1    -0.191245562467E+03    0.19901E-01   -0.96267E-01  8160   0.206E+00    0.267E-01
DAV:   2    -0.191254704412E+03   -0.91419E-02   -0.37707E-02 13560   0.120E+00    0.841E-01
DAV:   3    -0.191246331308E+03    0.83731E-02   -0.13021E-02 11920   0.884E-01    0.138E-01
DAV:   4    -0.191246440669E+03   -0.10936E-03   -0.15376E-03 10800   0.213E-01    0.181E-01
DAV:   5    -0.191246225866E+03    0.21480E-03   -0.13203E-03 10360   0.254E-01    0.141E-01
DAV:   6    -0.191246031809E+03    0.19406E-03   -0.56701E-04  9000   0.144E-01    0.490E-02
DAV:   7    -0.191246012985E+03    0.18825E-04   -0.13072E-04  6640   0.496E-02
   9 F= -.19124601E+03 E0= -.19115207E+03  d E =0.194006E-01
       N       E                     dE             d eps       ncg     rms          rms(c)
DAV:   1    -0.191222067608E+03    0.23964E-01   -0.15070E+00  8160   0.259E+00    0.316E-01
DAV:   2    -0.191232654644E+03   -0.10587E-01   -0.55083E-02 13240   0.131E+00    0.875E-01
DAV:   3    -0.191223782195E+03    0.88724E-02   -0.15741E-02 12560   0.961E-01    0.181E-01
DAV:   4    -0.191223713740E+03    0.68456E-04   -0.18456E-03 11360   0.218E-01    0.178E-01
DAV:   5    -0.191223594823E+03    0.11892E-03   -0.15859E-03 10760   0.283E-01    0.182E-01
DAV:   6    -0.191223336145E+03    0.25868E-03   -0.96796E-04  9960   0.204E-01    0.766E-02
DAV:   7    -0.191223270167E+03    0.65978E-04   -0.17878E-04  6400   0.677E-02
  10 F= -.19122327E+03 E0= -.19113162E+03  d E =0.227428E-01
       N       E                     dE             d eps       ncg     rms          rms(c)
DAV:   1    -0.191221757881E+03    0.15783E-02   -0.77040E-01  8160   0.187E+00    0.226E-01
DAV:   2    -0.191224492553E+03   -0.27347E-02   -0.22546E-02 12800   0.648E-01    0.490E-01
DAV:   3    -0.191222509900E+03    0.19827E-02   -0.77884E-03 12400   0.618E-01    0.249E-01
DAV:   4    -0.191222028486E+03    0.48141E-03   -0.17183E-03 10000   0.251E-01    0.124E-01
DAV:   5    -0.191221939784E+03    0.88702E-04   -0.98083E-04 10280   0.189E-01
  11 F= -.19122194E+03 E0= -.19113071E+03  d E =0.133038E-02
       N       E                     dE             d eps       ncg     rms          rms(c)
DAV:   1    -0.191238761697E+03   -0.16733E-01   -0.62816E+00  8160   0.528E+00    0.615E-01
DAV:   2    -0.191260724590E+03   -0.21963E-01   -0.17618E-01 11880   0.166E+00    0.131E+00
DAV:   3    -0.191247944270E+03    0.12780E-01   -0.69849E-02 11280   0.177E+00    0.747E-01
DAV:   4    -0.191243734988E+03    0.42093E-02   -0.14398E-02 12600   0.761E-01    0.456E-01
DAV:   5    -0.191242164347E+03    0.15706E-02   -0.75539E-03 10880   0.668E-01    0.342E-01
DAV:   6    -0.191241245065E+03    0.91928E-03   -0.39570E-03 11680   0.368E-01    0.176E-01
DAV:   7    -0.191240827049E+03    0.41802E-03   -0.15730E-03 11160   0.164E-01    0.754E-02
DAV:   8    -0.191240885155E+03   -0.58106E-04   -0.53198E-04  9000   0.155E-01
  12 F= -.19124089E+03 E0= -.19114701E+03  d E =-.189454E-01
       N       E                     dE             d eps       ncg     rms          rms(c)
DAV:   1    -0.191243902257E+03   -0.30752E-02   -0.57169E-02  8160   0.532E-01    0.960E-02
DAV:   2    -0.191244568458E+03   -0.66620E-03   -0.32527E-03 11840   0.337E-01    0.252E-01
DAV:   3    -0.191243866572E+03    0.70189E-03   -0.13338E-03 10440   0.280E-01    0.611E-02
DAV:   4    -0.191243887166E+03   -0.20594E-04   -0.26844E-04  7040   0.101E-01
  13 F= -.19124389E+03 E0= -.19114947E+03  d E =-.300201E-02
       N       E                     dE             d eps       ncg     rms          rms(c)
DAV:   1    -0.191294455535E+03   -0.50589E-01   -0.69600E+00  8160   0.573E+00    0.946E-01
DAV:   2    -0.191367055878E+03   -0.72600E-01   -0.34829E-01 13080   0.343E+00    0.271E+00
DAV:   3    -0.191293214767E+03    0.73841E-01   -0.16549E-01 12400   0.296E+00    0.625E-01
DAV:   4    -0.191295593765E+03   -0.23790E-02   -0.33304E-02 12400   0.112E+00    0.946E-01
DAV:   5    -0.191289029974E+03    0.65638E-02   -0.31291E-02 12440   0.122E+00    0.593E-01
DAV:   6    -0.191284808094E+03    0.42219E-02   -0.11386E-02 11520   0.562E-01    0.170E-01
DAV:   7    -0.191284632922E+03    0.17517E-03   -0.24883E-03 11720   0.203E-01    0.133E-01
DAV:   8    -0.191284589599E+03    0.43324E-04   -0.11466E-03 10680   0.220E-01    0.145E-01
DAV:   9    -0.191284369354E+03    0.22024E-03   -0.41282E-04  7960   0.137E-01    0.322E-02
DAV:  10    -0.191284367682E+03    0.16724E-05   -0.62717E-05  6000   0.331E-02
  14 F= -.19128437E+03 E0= -.19118381E+03  d E =-.404805E-01
       N       E                     dE             d eps       ncg     rms          rms(c)
DAV:   1    -0.191301906603E+03   -0.17537E-01   -0.12795E+00  8160   0.238E+00    0.235E-01
DAV:   2    -0.191306075813E+03   -0.41692E-02   -0.36008E-02 12960   0.651E-01    0.458E-01
DAV:   3    -0.191304531126E+03    0.15447E-02   -0.95555E-03 11480   0.645E-01    0.308E-01
DAV:   4    -0.191303818966E+03    0.71216E-03   -0.25498E-03 11200   0.308E-01    0.161E-01
DAV:   5    -0.191303624329E+03    0.19464E-03   -0.10511E-03 10000   0.217E-01    0.124E-01
DAV:   6    -0.191303578903E+03    0.45425E-04   -0.71205E-04 10640   0.177E-01
  15 F= -.19130358E+03 E0= -.19120206E+03  d E =-.192112E-01
       N       E                     dE             d eps       ncg     rms          rms(c)
DAV:   1    -0.191310130203E+03   -0.65059E-02   -0.19392E-01  8160   0.937E-01    0.110E-01
DAV:   2    -0.191311580394E+03   -0.14502E-02   -0.72510E-03 13000   0.399E-01    0.342E-01
DAV:   3    -0.191310436623E+03    0.11438E-02   -0.27302E-03 11560   0.361E-01    0.885E-02
DAV:   4    -0.191310497247E+03   -0.60624E-04   -0.41334E-04  8520   0.132E-01
  16 F= -.19131050E+03 E0= -.19120850E+03  d E =-.691834E-02
       N       E                     dE             d eps       ncg     rms          rms(c)
DAV:   1    -0.191325668575E+03   -0.15232E-01   -0.10156E+00  8160   0.211E+00    0.216E-01
DAV:   2    -0.191329688438E+03   -0.40199E-02   -0.23655E-02 13360   0.757E-01    0.541E-01
DAV:   3    -0.191326747433E+03    0.29410E-02   -0.79265E-03 12360   0.638E-01    0.202E-01
DAV:   4    -0.191326721847E+03    0.25586E-04   -0.18492E-03  9960   0.259E-01    0.193E-01
DAV:   5    -0.191326474938E+03    0.24691E-03   -0.13742E-03 10280   0.248E-01    0.133E-01
DAV:   6    -0.191326310417E+03    0.16452E-03   -0.51613E-04  8920   0.128E-01    0.447E-02
DAV:   7    -0.191326301970E+03    0.84470E-05   -0.98346E-05  6800   0.437E-02
  17 F= -.19132630E+03 E0= -.19122325E+03  d E =-.158047E-01
       N       E                     dE             d eps       ncg     rms          rms(c)
DAV:   1    -0.191284862535E+03    0.41448E-01   -0.87469E+00  8160   0.621E+00    0.614E-01
DAV:   2    -0.191319150781E+03   -0.34288E-01   -0.20800E-01 13240   0.224E+00    0.154E+00
DAV:   3    -0.191294214363E+03    0.24936E-01   -0.60013E-02 12520   0.176E+00    0.557E-01
DAV:   4    -0.191294025888E+03    0.18847E-03   -0.14843E-02 11240   0.743E-01    0.546E-01
DAV:   5    -0.191291920741E+03    0.21051E-02   -0.11315E-02 11280   0.704E-01    0.363E-01
DAV:   6    -0.191290609967E+03    0.13108E-02   -0.41874E-03 11600   0.386E-01    0.132E-01
DAV:   7    -0.191290442759E+03    0.16721E-03   -0.10134E-03 11480   0.136E-01    0.796E-02
DAV:   8    -0.191290404035E+03    0.38724E-04   -0.37068E-04  8920   0.124E-01
  18 F= -.19129040E+03 E0= -.19118945E+03  d E =0.358979E-01
       N       E                     dE             d eps       ncg     rms          rms(c)
DAV:   1    -0.191219911606E+03    0.70531E-01   -0.42317E+01  8160   0.136E+01    0.133E+00
DAV:   2    -0.191377068369E+03   -0.15716E+00   -0.93116E-01 13360   0.437E+00    0.315E+00
DAV:   3    -0.191266956906E+03    0.11011E+00   -0.24584E-01 12360   0.376E+00    0.123E+00
DAV:   4    -0.191264275078E+03    0.26818E-02   -0.63918E-02 12720   0.161E+00    0.115E+00
DAV:   5    -0.191254182303E+03    0.10093E-01   -0.46295E-02 11320   0.149E+00    0.694E-01
DAV:   6    -0.191249178623E+03    0.50037E-02   -0.15597E-02 12320   0.746E-01    0.275E-01
DAV:   7    -0.191248729884E+03    0.44874E-03   -0.48897E-03 12760   0.353E-01    0.241E-01
DAV:   8    -0.191248210380E+03    0.51950E-03   -0.20668E-03 10400   0.326E-01    0.141E-01
DAV:   9    -0.191248018474E+03    0.19191E-03   -0.47930E-04  8920   0.145E-01    0.450E-02
DAV:  10    -0.191248004730E+03    0.13744E-04   -0.13863E-04  6760   0.487E-02
  19 F= -.19124800E+03 E0= -.19115031E+03  d E =0.423993E-01
       N       E                     dE             d eps       ncg     rms          rms(c)
DAV:   1    -0.191251702433E+03   -0.36840E-02   -0.95869E-01  8160   0.205E+00    0.216E-01
DAV:   2    -0.191253725430E+03   -0.20230E-02   -0.17160E-02 13360   0.531E-01    0.419E-01
DAV:   3    -0.191252345278E+03    0.13802E-02   -0.61865E-03 12200   0.582E-01    0.263E-01
DAV:   4    -0.191251827259E+03    0.51802E-03   -0.18890E-03  9840   0.270E-01    0.151E-01
DAV:   5    -0.191251722620E+03    0.10464E-03   -0.11087E-03 10320   0.247E-01    0.135E-01
DAV:   6    -0.191251548418E+03    0.17420E-03   -0.52451E-04  8640   0.146E-01    0.491E-02
DAV:   7    -0.191251528672E+03    0.19745E-04   -0.16233E-04  6040   0.665E-02
  20 F= -.19125153E+03 E0= -.19115401E+03  d E =-.352394E-02
       N       E                     dE             d eps       ncg     rms          rms(c)
DAV:   1    -0.191261782298E+03   -0.10234E-01   -0.51598E+00  8160   0.487E+00    0.597E-01
DAV:   2    -0.191285478301E+03   -0.23696E-01   -0.19077E-01 13480   0.190E+00    0.134E+00
DAV:   3    -0.191270458227E+03    0.15020E-01   -0.52584E-02 12320   0.165E+00    0.594E-01
DAV:   4    -0.191268439280E+03    0.20189E-02   -0.13566E-02 12200   0.747E-01    0.471E-01
DAV:   5    -0.191266765228E+03    0.16741E-02   -0.88708E-03 10960   0.675E-01    0.358E-01
DAV:   6    -0.191265571682E+03    0.11935E-02   -0.45536E-03 11480   0.394E-01    0.146E-01
DAV:   7    -0.191265307267E+03    0.26441E-03   -0.13244E-03 11160   0.147E-01    0.792E-02
DAV:   8    -0.191265254040E+03    0.53227E-04   -0.44791E-04  9560   0.124E-01
  21 F= -.19126525E+03 E0= -.19116693E+03  d E =-.137254E-01
       N       E                     dE             d eps       ncg     rms          rms(c)
DAV:   1    -0.191275908194E+03   -0.10601E-01   -0.28974E+00  8160   0.364E+00    0.352E-01
DAV:   2    -0.191282716294E+03   -0.68081E-02   -0.64343E-02 13280   0.917E-01    0.642E-01
DAV:   3    -0.191280001251E+03    0.27150E-02   -0.14772E-02 12520   0.883E-01    0.413E-01
DAV:   4    -0.191278745653E+03    0.12556E-02   -0.41618E-03 11120   0.423E-01    0.225E-01
DAV:   5    -0.191278425258E+03    0.32039E-03   -0.25623E-03 12280   0.356E-01    0.200E-01
DAV:   6    -0.191278285506E+03    0.13975E-03   -0.15736E-03 11320   0.265E-01    0.129E-01
DAV:   7    -0.191277996402E+03    0.28910E-03   -0.57302E-04  8920   0.115E-01    0.337E-02
DAV:   8    -0.191277990380E+03    0.60222E-05   -0.89866E-05  6800   0.464E-02
  22 F= -.19127799E+03 E0= -.19117958E+03  d E =-.127363E-01
       N       E                     dE             d eps       ncg     rms          rms(c)
DAV:   1    -0.191287245878E+03   -0.92495E-02   -0.98731E-01  8160   0.211E+00    0.233E-01
DAV:   2    -0.191290575519E+03   -0.33296E-02   -0.27343E-02 13560   0.709E-01    0.473E-01
DAV:   3    -0.191288593157E+03    0.19824E-02   -0.67306E-03 12080   0.625E-01    0.239E-01
DAV:   4    -0.191288313139E+03    0.28002E-03   -0.20555E-03 10000   0.296E-01    0.193E-01
DAV:   5    -0.191288059776E+03    0.25336E-03   -0.14128E-03  9640   0.269E-01    0.142E-01
DAV:   6    -0.191287862590E+03    0.19719E-03   -0.64328E-04  9400   0.149E-01    0.516E-02
DAV:   7    -0.191287845118E+03    0.17472E-04   -0.15397E-04  6360   0.589E-02
  23 F= -.19128785E+03 E0= -.19118912E+03  d E =-.985474E-02
       N       E                     dE             d eps       ncg     rms          rms(c)
DAV:   1    -0.191280666679E+03    0.71959E-02   -0.20480E-01  8160   0.975E-01    0.109E-01
DAV:   2    -0.191281205996E+03   -0.53932E-03   -0.58994E-03 12360   0.264E-01    0.179E-01
DAV:   3    -0.191281028845E+03    0.17715E-03   -0.14218E-03 10600   0.276E-01    0.137E-01
DAV:   4    -0.191280842696E+03    0.18615E-03   -0.40378E-04  8000   0.137E-01    0.519E-02
DAV:   5    -0.191280838486E+03    0.42103E-05   -0.13978E-04  5840   0.921E-02
  24 F= -.19128084E+03 E0= -.19118223E+03  d E =0.700663E-02
       N       E                     dE             d eps       ncg     rms          rms(c)
DAV:   1    -0.191286637894E+03   -0.57952E-02   -0.19916E-01  8160   0.969E-01    0.146E-01
DAV:   2    -0.191287473130E+03   -0.83524E-03   -0.78400E-03 11480   0.432E-01    0.286E-01
DAV:   3    -0.191286642183E+03    0.83095E-03   -0.22153E-03 11400   0.362E-01    0.111E-01
DAV:   4    -0.191286527761E+03    0.11442E-03   -0.56878E-04  8720   0.144E-01    0.884E-02
DAV:   5    -0.191286536763E+03   -0.90016E-05   -0.46065E-04  7920   0.153E-01
  25 F= -.19128654E+03 E0= -.19118812E+03  d E =-.569828E-02
       N       E                     dE             d eps       ncg     rms          rms(c)
DAV:   1    -0.191295441595E+03   -0.89138E-02   -0.29748E-01  8160   0.121E+00    0.170E-01
DAV:   2    -0.191296414926E+03   -0.97333E-03   -0.10964E-02 12720   0.422E-01    0.303E-01
DAV:   3    -0.191295764662E+03    0.65026E-03   -0.33494E-03 11120   0.429E-01    0.188E-01
DAV:   4    -0.191295469300E+03    0.29536E-03   -0.10097E-03  9720   0.222E-01    0.108E-01
DAV:   5    -0.191295415097E+03    0.54203E-04   -0.60176E-04  8600   0.189E-01
  26 F= -.19129542E+03 E0= -.19119659E+03  d E =-.887833E-02
       N       E                     dE             d eps       ncg     rms          rms(c)
DAV:   1    -0.191288288418E+03    0.71809E-02   -0.51656E-01  8160   0.165E+00    0.326E-01
DAV:   2    -0.191291841207E+03   -0.35528E-02   -0.30594E-02 12000   0.880E-01    0.704E-01
DAV:   3    -0.191287299030E+03    0.45422E-02   -0.14241E-02 11920   0.890E-01    0.321E-01
DAV:   4    -0.191286276256E+03    0.10228E-02   -0.35509E-03 10960   0.381E-01    0.167E-01
DAV:   5    -0.191286182143E+03    0.94113E-04   -0.19925E-03 11000   0.305E-01    0.191E-01
DAV:   6    -0.191285804473E+03    0.37767E-03   -0.12445E-03  9720   0.240E-01    0.884E-02
DAV:   7    -0.191285755719E+03    0.48754E-04   -0.28458E-04  6640   0.112E-01
  27 F= -.19128576E+03 E0= -.19118761E+03  d E =0.965938E-02
       N       E                     dE             d eps       ncg     rms          rms(c)
DAV:   1    -0.191333513416E+03   -0.47709E-01   -0.52791E+00  8160   0.512E+00    0.843E-01
DAV:   2    -0.191348284891E+03   -0.14771E-01   -0.21620E-01 12920   0.198E+00    0.151E+00
DAV:   3    -0.191333742672E+03    0.14542E-01   -0.82680E-02 11320   0.214E+00    0.915E-01
DAV:   4    -0.191326224506E+03    0.75182E-02   -0.27538E-02 12320   0.114E+00    0.620E-01
DAV:   5    -0.191324403967E+03    0.18205E-02   -0.18188E-02 10760   0.102E+00    0.559E-01
DAV:   6    -0.191320760052E+03    0.36439E-02   -0.97434E-03 11600   0.611E-01    0.175E-01
DAV:   7    -0.191320788750E+03   -0.28697E-04   -0.21404E-03 11360   0.290E-01    0.202E-01
DAV:   8    -0.191320431739E+03    0.35701E-03   -0.10447E-03  9760   0.240E-01    0.852E-02
DAV:   9    -0.191320330720E+03    0.10102E-03   -0.13192E-04  6200   0.748E-02    0.238E-02
DAV:  10    -0.191320331745E+03   -0.10249E-05   -0.79783E-05  6920   0.300E-02
  28 F= -.19132033E+03 E0= -.19122139E+03  d E =-.345760E-01
       N       E                     dE             d eps       ncg     rms          rms(c)
DAV:   1    -0.191326934454E+03   -0.66037E-02   -0.24456E-01  8160   0.111E+00    0.219E-01
DAV:   2    -0.191328676531E+03   -0.17421E-02   -0.14082E-02 11920   0.617E-01    0.491E-01
DAV:   3    -0.191326421077E+03    0.22555E-02   -0.60123E-03 11240   0.592E-01    0.195E-01
DAV:   4    -0.191326106667E+03    0.31441E-03   -0.15292E-03 10280   0.264E-01    0.146E-01
DAV:   5    -0.191326075733E+03    0.30934E-04   -0.11960E-03  9560   0.260E-01    0.148E-01
DAV:   6    -0.191325818302E+03    0.25743E-03   -0.60009E-04  8360   0.162E-01    0.515E-02
DAV:   7    -0.191325825859E+03   -0.75570E-05   -0.15166E-04  6240   0.927E-02
  29 F= -.19132583E+03 E0= -.19122753E+03  d E =-.549411E-02
       N       E                     dE             d eps       ncg     rms          rms(c)
DAV:   1    -0.191342028156E+03   -0.16210E-01   -0.98972E-01  8160   0.214E+00    0.235E-01
DAV:   2    -0.191343670467E+03   -0.16423E-02   -0.27040E-02 12240   0.469E-01    0.227E-01
DAV:   3    -0.191344444676E+03   -0.77421E-03   -0.50480E-03 12200   0.501E-01    0.376E-01
DAV:   4    -0.191343121663E+03    0.13230E-02   -0.28047E-03 10280   0.406E-01    0.138E-01
DAV:   5    -0.191342887244E+03    0.23442E-03   -0.66518E-04  9720   0.151E-01    0.762E-02
DAV:   6    -0.191343025739E+03   -0.13850E-03   -0.54703E-04 10160   0.178E-01    0.128E-01
DAV:   7    -0.191342824123E+03    0.20162E-03   -0.28299E-04  7520   0.133E-01    0.243E-02
DAV:   8    -0.191342831142E+03   -0.70196E-05   -0.48372E-05  6000   0.457E-02
  30 F= -.19134283E+03 E0= -.19124508E+03  d E =-.170053E-01
       N       E                     dE             d eps       ncg     rms          rms(c)
DAV:   1    -0.191338345614E+03    0.44785E-02   -0.77820E-02  8160   0.597E-01    0.617E-02
DAV:   2    -0.191338556158E+03   -0.21054E-03   -0.21955E-03 12720   0.158E-01    0.101E-01
DAV:   3    -0.191338488502E+03    0.67656E-04   -0.43725E-04  9480   0.158E-01
  31 F= -.19133849E+03 E0= -.19124070E+03  d E =0.434264E-02
       N       E                     dE             d eps       ncg     rms          rms(c)
DAV:   1    -0.191330098939E+03    0.84572E-02   -0.31186E-01  8160   0.121E+00    0.173E-01
DAV:   2    -0.191330759830E+03   -0.66089E-03   -0.10089E-02 12720   0.369E-01    0.245E-01
DAV:   3    -0.191330532224E+03    0.22761E-03   -0.31211E-03 11520   0.415E-01    0.231E-01
DAV:   4    -0.191330039162E+03    0.49306E-03   -0.13821E-03  9560   0.260E-01    0.980E-02
DAV:   5    -0.191329894146E+03    0.14502E-03   -0.44036E-04  9240   0.103E-01    0.494E-02
DAV:   6    -0.191329935765E+03   -0.41619E-04   -0.25206E-04  7880   0.113E-01
  32 F= -.19132994E+03 E0= -.19123183E+03  d E =0.855274E-02
       N       E                     dE             d eps       ncg     rms          rms(c)
DAV:   1    -0.191353723188E+03   -0.23829E-01   -0.22581E+00  8160   0.324E+00    0.358E-01
DAV:   2    -0.191357541882E+03   -0.38187E-02   -0.63815E-02 12520   0.765E-01    0.346E-01
DAV:   3    -0.191358613993E+03   -0.10721E-02   -0.10545E-02 12000   0.754E-01    0.501E-01
DAV:   4    -0.191356206937E+03    0.24071E-02   -0.59672E-03 10960   0.582E-01    0.235E-01
DAV:   5    -0.191355837714E+03    0.36922E-03   -0.20547E-03 10440   0.340E-01    0.199E-01
DAV:   6    -0.191355660791E+03    0.17692E-03   -0.15316E-03 10200   0.288E-01    0.138E-01
DAV:   7    -0.191355410358E+03    0.25043E-03   -0.43412E-04  8560   0.126E-01    0.395E-02
DAV:   8    -0.191355417727E+03   -0.73691E-05   -0.11223E-04  6640   0.797E-02
  33 F= -.19135542E+03 E0= -.19125829E+03  d E =-.254820E-01
       N       E                     dE             d eps       ncg     rms          rms(c)
DAV:   1    -0.191368057817E+03   -0.12647E-01   -0.57954E-01  8160   0.164E+00    0.187E-01
DAV:   2    -0.191369129192E+03   -0.10714E-02   -0.17365E-02 12640   0.404E-01    0.197E-01
DAV:   3    -0.191369436686E+03   -0.30749E-03   -0.31112E-03 11840   0.410E-01    0.278E-01
DAV:   4    -0.191368711220E+03    0.72547E-03   -0.16638E-03 10080   0.311E-01    0.117E-01
DAV:   5    -0.191368608227E+03    0.10299E-03   -0.48004E-04  8720   0.166E-01    0.940E-02
DAV:   6    -0.191368584683E+03    0.23544E-04   -0.38265E-04  8800   0.149E-01
  34 F= -.19136858E+03 E0= -.19127210E+03  d E =-.131670E-01
       N       E                     dE             d eps       ncg     rms          rms(c)
DAV:   1    -0.191378582713E+03   -0.99745E-02   -0.36530E-01  8160   0.130E+00    0.138E-01
DAV:   2    -0.191379298355E+03   -0.71564E-03   -0.10081E-02 12240   0.290E-01    0.154E-01
DAV:   3    -0.191379465380E+03   -0.16702E-03   -0.18406E-03 11720   0.313E-01    0.215E-01
DAV:   4    -0.191379044363E+03    0.42102E-03   -0.86131E-04  9240   0.230E-01    0.751E-02
DAV:   5    -0.191378972934E+03    0.71428E-04   -0.18877E-04  6440   0.737E-02
  35 F= -.19137897E+03 E0= -.19128327E+03  d E =-.103883E-01
       N       E                     dE             d eps       ncg     rms          rms(c)
DAV:   1    -0.191384307541E+03   -0.52632E-02   -0.10573E-01  8160   0.703E-01    0.126E-01
DAV:   2    -0.191386741284E+03   -0.24337E-02   -0.70635E-03 12720   0.562E-01    0.461E-01
DAV:   3    -0.191384290811E+03    0.24505E-02   -0.34678E-03 11520   0.475E-01    0.664E-02
DAV:   4    -0.191384404739E+03   -0.11393E-03   -0.32012E-04  8320   0.143E-01    0.102E-01
DAV:   5    -0.191384285644E+03    0.11909E-03   -0.19315E-04  7400   0.117E-01    0.317E-02
DAV:   6    -0.191384304478E+03   -0.18833E-04   -0.65871E-05  6000   0.562E-02
  36 F= -.19138430E+03 E0= -.19128909E+03  d E =-.533154E-02
       N       E                     dE             d eps       ncg     rms          rms(c)
DAV:   1    -0.191397359681E+03   -0.13074E-01   -0.58976E-01  8160   0.165E+00    0.188E-01
DAV:   2    -0.191398378315E+03   -0.10186E-02   -0.17001E-02 13520   0.399E-01    0.190E-01
DAV:   3    -0.191398463871E+03   -0.85556E-04   -0.27092E-03 12040   0.391E-01    0.243E-01
DAV:   4    -0.191397949807E+03    0.51406E-03   -0.15963E-03 10120   0.311E-01    0.129E-01
DAV:   5    -0.191397780757E+03    0.16905E-03   -0.54847E-04  9200   0.164E-01    0.839E-02
DAV:   6    -0.191397797395E+03   -0.16638E-04   -0.36978E-04  8760   0.153E-01
  37 F= -.19139780E+03 E0= -.19130318E+03  d E =-.134929E-01
       N       E                     dE             d eps       ncg     rms          rms(c)
DAV:   1    -0.191416768996E+03   -0.18988E-01   -0.13574E+00  8160   0.249E+00    0.260E-01
DAV:   2    -0.191419678660E+03   -0.29097E-02   -0.39364E-02 13520   0.625E-01    0.285E-01
DAV:   3    -0.191419794467E+03   -0.11581E-03   -0.56565E-03 12200   0.573E-01    0.342E-01
DAV:   4    -0.191418736562E+03    0.10579E-02   -0.28137E-03 12200   0.415E-01    0.170E-01
DAV:   5    -0.191418492602E+03    0.24396E-03   -0.96315E-04  9560   0.234E-01    0.131E-01
DAV:   6    -0.191418479518E+03    0.13084E-04   -0.76155E-04 10800   0.210E-01
  38 F= -.19141848E+03 E0= -.19132516E+03  d E =-.206821E-01
       N       E                     dE             d eps       ncg     rms          rms(c)
DAV:   1    -0.191402220297E+03    0.16272E-01   -0.78953E-01  8160   0.189E+00    0.187E-01
DAV:   2    -0.191404399374E+03   -0.21791E-02   -0.21216E-02 13120   0.486E-01    0.313E-01
DAV:   3    -0.191403823735E+03    0.57564E-03   -0.40922E-03 12080   0.496E-01    0.247E-01
DAV:   4    -0.191403235867E+03    0.58787E-03   -0.11740E-03  9600   0.241E-01    0.871E-02
DAV:   5    -0.191403142439E+03    0.93429E-04   -0.35606E-04  8520   0.104E-01
  39 F= -.19140314E+03 E0= -.19130912E+03  d E =0.153371E-01
       N       E                     dE             d eps       ncg     rms          rms(c)
DAV:   1    -0.191369884810E+03    0.33351E-01   -0.43100E+00  8160   0.439E+00    0.446E-01
DAV:   2    -0.191381807645E+03   -0.11923E-01   -0.11325E-01 13320   0.128E+00    0.759E-01
DAV:   3    -0.191377676829E+03    0.41308E-02   -0.19527E-02 11840   0.114E+00    0.522E-01
DAV:   4    -0.191375635201E+03    0.20416E-02   -0.63934E-03 11560   0.584E-01    0.314E-01
DAV:   5    -0.191374969908E+03    0.66529E-03   -0.36028E-03 10480   0.469E-01    0.236E-01
DAV:   6    -0.191374652353E+03    0.31756E-03   -0.21457E-03 12280   0.287E-01    0.133E-01
DAV:   7    -0.191374542865E+03    0.10949E-03   -0.87004E-04  9880   0.197E-01    0.128E-01
DAV:   8    -0.191374368166E+03    0.17470E-03   -0.31296E-04  8240   0.137E-01    0.267E-02
DAV:   9    -0.191374370693E+03   -0.25275E-05   -0.32617E-05  6400   0.301E-02
  40 F= -.19137437E+03 E0= -.19127899E+03  d E =0.287717E-01
       N       E                     dE             d eps       ncg     rms          rms(c)
DAV:   1    -0.191371274180E+03    0.30940E-02   -0.78093E-01  8160   0.184E+00    0.199E-01
DAV:   2    -0.191376123005E+03   -0.48488E-02   -0.18349E-02 13200   0.746E-01    0.651E-01
DAV:   3    -0.191371875339E+03    0.42477E-02   -0.72863E-03 11960   0.688E-01    0.145E-01
DAV:   4    -0.191371842598E+03    0.32741E-04   -0.84576E-04  9960   0.182E-01
  41 F= -.19137184E+03 E0= -.19127634E+03  d E =0.252810E-02
       N       E                     dE             d eps       ncg     rms          rms(c)
DAV:   1    -0.191388082823E+03   -0.16207E-01   -0.18483E+00  8160   0.289E+00    0.313E-01
DAV:   2    -0.191395234333E+03   -0.71515E-02   -0.60067E-02 13480   0.104E+00    0.624E-01
DAV:   3    -0.191391517189E+03    0.37171E-02   -0.10743E-02 11920   0.851E-01    0.282E-01
DAV:   4    -0.191391081156E+03    0.43603E-03   -0.25638E-03 11240   0.369E-01    0.245E-01
DAV:   5    -0.191390589158E+03    0.49200E-03   -0.17401E-03 10080   0.333E-01    0.154E-01
DAV:   6    -0.191390431864E+03    0.15729E-03   -0.92590E-04  9840   0.171E-01    0.814E-02
DAV:   7    -0.191390348416E+03    0.83448E-04   -0.30674E-04  7960   0.103E-01
  42 F= -.19139035E+03 E0= -.19129577E+03  d E =-.185058E-01
       N       E                     dE             d eps       ncg     rms          rms(c)
DAV:   1    -0.191399367741E+03   -0.89359E-02   -0.37269E-01  8160   0.131E+00    0.155E-01
DAV:   2    -0.191401111964E+03   -0.17442E-02   -0.13104E-02 13480   0.442E-01    0.336E-01
DAV:   3    -0.191400126575E+03    0.98539E-03   -0.29048E-03 11600   0.427E-01    0.155E-01
DAV:   4    -0.191399988137E+03    0.13844E-03   -0.62483E-04  8560   0.173E-01    0.995E-02
DAV:   5    -0.191399902833E+03    0.85304E-04   -0.34201E-04  8080   0.141E-01
  43 F= -.19139990E+03 E0= -.19130633E+03  d E =-.955442E-02
       N       E                     dE             d eps       ncg     rms          rms(c)
DAV:   1    -0.191415779394E+03   -0.15791E-01   -0.12810E+00  8160   0.242E+00    0.251E-01
DAV:   2    -0.191418510711E+03   -0.27313E-02   -0.36310E-02 12200   0.560E-01    0.293E-01
DAV:   3    -0.191418976620E+03   -0.46591E-03   -0.52625E-03 12320   0.571E-01    0.371E-01
DAV:   4    -0.191417594539E+03    0.13821E-02   -0.22906E-03 11400   0.393E-01    0.133E-01
DAV:   5    -0.191417580774E+03    0.13765E-04   -0.90294E-04 10080   0.212E-01
  44 F= -.19141758E+03 E0= -.19132563E+03  d E =-.176779E-01
       N       E                     dE             d eps       ncg     rms          rms(c)
DAV:   1    -0.191418385854E+03   -0.79131E-03   -0.55382E-03  8440   0.262E-01    0.909E-02
DAV:   2    -0.191419578334E+03   -0.11925E-02   -0.24935E-03 11960   0.408E-01    0.313E-01
DAV:   3    -0.191418299772E+03    0.12786E-02   -0.15861E-03 10120   0.348E-01    0.686E-02
DAV:   4    -0.191418266650E+03    0.33122E-04   -0.11952E-04  5560   0.795E-02
  45 F= -.19141827E+03 E0= -.19132610E+03  d E =-.685876E-03
       N       E                     dE             d eps       ncg     rms          rms(c)
DAV:   1    -0.191432967270E+03   -0.14667E-01   -0.10916E+00  8160   0.222E+00    0.234E-01
DAV:   2    -0.191435333339E+03   -0.23661E-02   -0.32501E-02 13280   0.577E-01    0.239E-01
DAV:   3    -0.191435439939E+03   -0.10660E-03   -0.39386E-03 12040   0.493E-01    0.285E-01
DAV:   4    -0.191434657727E+03    0.78221E-03   -0.19210E-03 10600   0.344E-01    0.151E-01
DAV:   5    -0.191434520728E+03    0.13700E-03   -0.76590E-04  9680   0.219E-01    0.131E-01
DAV:   6    -0.191434485075E+03    0.35653E-04   -0.61837E-04  8960   0.199E-01
  46 F= -.19143449E+03 E0= -.19134329E+03  d E =-.162184E-01
       N       E                     dE             d eps       ncg     rms          rms(c)
DAV:   1    -0.191432863734E+03    0.16570E-02   -0.97060E-03  8160   0.223E-01    0.202E-02
DAV:   2    -0.191432896609E+03   -0.32875E-04   -0.30214E-04  8760   0.523E-02
  47 F= -.19143290E+03 E0= -.19134175E+03  d E =0.158847E-02
       N       E                     dE             d eps       ncg     rms          rms(c)
DAV:   1    -0.191442246434E+03   -0.93827E-02   -0.41897E-01  8160   0.139E+00    0.158E-01
DAV:   2    -0.191443330735E+03   -0.10843E-02   -0.13766E-02 12320   0.375E-01    0.213E-01
DAV:   3    -0.191443198136E+03    0.13260E-03   -0.24381E-03 11560   0.367E-01    0.220E-01
DAV:   4    -0.191442774324E+03    0.42381E-03   -0.10026E-03  9680   0.255E-01    0.930E-02
DAV:   5    -0.191442630356E+03    0.14397E-03   -0.23895E-04  6560   0.883E-02    0.337E-02
DAV:   6    -0.191442677845E+03   -0.47489E-04   -0.17537E-04  7160   0.947E-02
  48 F= -.19144268E+03 E0= -.19135232E+03  d E =-.978124E-02
       N       E                     dE             d eps       ncg     rms          rms(c)
DAV:   1    -0.191450201933E+03   -0.75716E-02   -0.26808E-01  8160   0.110E+00    0.113E-01
DAV:   2    -0.191450722928E+03   -0.52100E-03   -0.75857E-03 12320   0.243E-01    0.102E-01
DAV:   3    -0.191450722415E+03    0.51310E-06   -0.85731E-04 10880   0.184E-01
  49 F= -.19145072E+03 E0= -.19136118E+03  d E =-.804457E-02
       N       E                     dE             d eps       ncg     rms          rms(c)
DAV:   1    -0.191424056229E+03    0.26667E-01   -0.25660E+00  8160   0.341E+00    0.343E-01
DAV:   2    -0.191432206762E+03   -0.81505E-02   -0.72152E-02 13240   0.997E-01    0.663E-01
DAV:   3    -0.191428696366E+03    0.35104E-02   -0.12951E-02 12000   0.906E-01    0.386E-01
DAV:   4    -0.191427410222E+03    0.12861E-02   -0.37806E-03 11080   0.429E-01    0.175E-01
DAV:   5    -0.191426954435E+03    0.45579E-03   -0.12789E-03 10360   0.183E-01    0.112E-01
DAV:   6    -0.191427167222E+03   -0.21279E-03   -0.10279E-03 11600   0.262E-01    0.163E-01
DAV:   7    -0.191426817732E+03    0.34949E-03   -0.47097E-04  8360   0.182E-01    0.177E-02
DAV:   8    -0.191426829725E+03   -0.11993E-04   -0.48825E-05  5840   0.253E-02
  50 F= -.19142683E+03 E0= -.19133523E+03  d E =0.238927E-01
       N       E                     dE             d eps       ncg     rms          rms(c)
DAV:   1    -0.191390785485E+03    0.36032E-01   -0.60035E+00  8160   0.518E+00    0.512E-01
DAV:   2    -0.191401115878E+03   -0.10330E-01   -0.14674E-01 12840   0.116E+00    0.470E-01
DAV:   3    -0.191399756464E+03    0.13594E-02   -0.16224E-02 12240   0.848E-01    0.491E-01
DAV:   4    -0.191398278733E+03    0.14777E-02   -0.85473E-03 12080   0.735E-01    0.373E-01
DAV:   5    -0.191396685636E+03    0.15931E-02   -0.38448E-03 10680   0.423E-01    0.198E-01
DAV:   6    -0.191397483017E+03   -0.79738E-03   -0.28705E-03 12080   0.444E-01    0.318E-01
DAV:   7    -0.191396350804E+03    0.11322E-02   -0.13377E-03  9680   0.293E-01    0.284E-02
DAV:   8    -0.191396391888E+03   -0.41083E-04   -0.10183E-04  5720   0.568E-02
  51 F= -.19139639E+03 E0= -.19130275E+03  d E =0.304378E-01
       N       E                     dE             d eps       ncg     rms          rms(c)
DAV:   1    -0.191421306503E+03   -0.24956E-01   -0.46102E+00  8160   0.459E+00    0.496E-01
DAV:   2    -0.191429654014E+03   -0.83475E-02   -0.12770E-01 13520   0.115E+00    0.516E-01
DAV:   3    -0.191428440285E+03    0.12137E-02   -0.16777E-02 12200   0.972E-01    0.525E-01
DAV:   4    -0.191426144078E+03    0.22962E-02   -0.85961E-03 11960   0.732E-01    0.346E-01
DAV:   5    -0.191424841354E+03    0.13027E-02   -0.44190E-03 11200   0.446E-01    0.230E-01
DAV:   6    -0.191425081833E+03   -0.24048E-03   -0.31078E-03 10600   0.439E-01    0.251E-01
DAV:   7    -0.191424294385E+03    0.78745E-03   -0.10282E-03 10000   0.236E-01    0.423E-02
DAV:   8    -0.191424324361E+03   -0.29976E-04   -0.14654E-04  5920   0.926E-02
  52 F= -.19142432E+03 E0= -.19133210E+03  d E =-.279325E-01
       N       E                     dE             d eps       ncg     rms          rms(c)
DAV:   1    -0.191419178839E+03    0.51155E-02   -0.72681E-01  8160   0.179E+00    0.196E-01
DAV:   2    -0.191422508271E+03   -0.33294E-02   -0.17128E-02 13400   0.763E-01    0.500E-01
DAV:   3    -0.191419707532E+03    0.28007E-02   -0.46428E-03 12280   0.585E-01    0.151E-01
DAV:   4    -0.191419725682E+03   -0.18150E-04   -0.10018E-03  9520   0.232E-01    0.161E-01
DAV:   5    -0.191419559593E+03    0.16609E-03   -0.81034E-04  9720   0.228E-01    0.112E-01
DAV:   6    -0.191419424778E+03    0.13482E-03   -0.33258E-04  7960   0.113E-01    0.317E-02
DAV:   7    -0.191419431324E+03   -0.65465E-05   -0.72865E-05  6320   0.534E-02
  53 F= -.19141943E+03 E0= -.19132725E+03  d E =0.489304E-02
       N       E                     dE             d eps       ncg     rms          rms(c)
DAV:   1    -0.191434046997E+03   -0.14622E-01   -0.14933E+00  8160   0.259E+00    0.260E-01
DAV:   2    -0.191436842015E+03   -0.27950E-02   -0.40588E-02 13160   0.608E-01    0.232E-01
DAV:   3    -0.191436683417E+03    0.15860E-03   -0.40665E-03 12080   0.448E-01    0.263E-01
DAV:   4    -0.191436173690E+03    0.50973E-03   -0.21741E-03 11200   0.384E-01    0.193E-01
DAV:   5    -0.191435798370E+03    0.37532E-03   -0.10380E-03  9720   0.230E-01    0.111E-01
DAV:   6    -0.191435949636E+03   -0.15127E-03   -0.75392E-04  9840   0.229E-01    0.147E-01
DAV:   7    -0.191435679954E+03    0.26968E-03   -0.29983E-04  7960   0.137E-01    0.205E-02
DAV:   8    -0.191435698110E+03   -0.18156E-04   -0.45187E-05  6200   0.513E-02
  54 F= -.19143570E+03 E0= -.19134472E+03  d E =-.162668E-01
       N       E                     dE             d eps       ncg     rms          rms(c)
DAV:   1    -0.191441960046E+03   -0.62801E-02   -0.20069E-01  8160   0.963E-01    0.114E-01
DAV:   2    -0.191442449220E+03   -0.48917E-03   -0.72249E-03 12160   0.263E-01    0.129E-01
DAV:   3    -0.191442515612E+03   -0.66391E-04   -0.10807E-03 10560   0.255E-01    0.166E-01
DAV:   4    -0.191442249057E+03    0.26655E-03   -0.50662E-04  8400   0.189E-01    0.644E-02
DAV:   5    -0.191442199579E+03    0.49478E-04   -0.11670E-04  5680   0.782E-02
  55 F= -.19144220E+03 E0= -.19135173E+03  d E =-.650147E-02
       N       E                     dE             d eps       ncg     rms          rms(c)
DAV:   1    -0.191422010732E+03    0.20238E-01   -0.18579E+00  8160   0.296E+00    0.394E-01
DAV:   2    -0.191426804426E+03   -0.47937E-02   -0.71749E-02 11360   0.838E-01    0.527E-01
DAV:   3    -0.191426473398E+03    0.33103E-03   -0.13916E-02 12440   0.928E-01    0.558E-01
DAV:   4    -0.191423458930E+03    0.30145E-02   -0.63607E-03 11360   0.614E-01    0.217E-01
DAV:   5    -0.191423089475E+03    0.36945E-03   -0.24110E-03 11200   0.315E-01    0.205E-01
DAV:   6    -0.191422808304E+03    0.28117E-03   -0.16221E-03 12160   0.326E-01    0.131E-01
DAV:   7    -0.191422610992E+03    0.19731E-03   -0.54015E-04  9080   0.168E-01    0.529E-02
DAV:   8    -0.191422607889E+03    0.31032E-05   -0.13804E-04  6680   0.954E-02
  56 F= -.19142261E+03 E0= -.19133095E+03  d E =0.195917E-01
       N       E                     dE             d eps       ncg     rms          rms(c)
DAV:   1    -0.191421810259E+03    0.80073E-03   -0.27996E-03  8840   0.128E-01    0.189E-02
DAV:   2    -0.191421821542E+03   -0.11282E-04   -0.92042E-05  6360   0.381E-02
  57 F= -.19142182E+03 E0= -.19133017E+03  d E =0.786347E-03
       N       E                     dE             d eps       ncg     rms          rms(c)
DAV:   1    -0.191434636494E+03   -0.12826E-01   -0.87229E-01  8160   0.200E+00    0.245E-01
DAV:   2    -0.191438436346E+03   -0.37999E-02   -0.35753E-02 13440   0.769E-01    0.458E-01
DAV:   3    -0.191436636485E+03    0.17999E-02   -0.72743E-03 12240   0.669E-01    0.252E-01
DAV:   4    -0.191436039207E+03    0.59728E-03   -0.19242E-03 11240   0.315E-01    0.142E-01
DAV:   5    -0.191435897056E+03    0.14215E-03   -0.82732E-04 10160   0.230E-01    0.131E-01
DAV:   6    -0.191435794559E+03    0.10250E-03   -0.64739E-04 10200   0.188E-01    0.861E-02
DAV:   7    -0.191435735567E+03    0.58993E-04   -0.21429E-04  6360   0.112E-01
  58 F= -.19143574E+03 E0= -.19134521E+03  d E =-.139140E-01
       N       E                     dE             d eps       ncg     rms          rms(c)
DAV:   1    -0.191451702160E+03   -0.15908E-01   -0.14345E+00  8160   0.255E+00    0.261E-01
DAV:   2    -0.191454268332E+03   -0.25662E-02   -0.39375E-02 13000   0.576E-01    0.222E-01
DAV:   3    -0.191454273188E+03   -0.48567E-05   -0.40843E-03 11760   0.448E-01    0.275E-01
DAV:   4    -0.191453686515E+03    0.58667E-03   -0.23426E-03 11960   0.403E-01    0.189E-01
DAV:   5    -0.191453280854E+03    0.40566E-03   -0.10413E-03  9600   0.224E-01    0.922E-02
DAV:   6    -0.191453485968E+03   -0.20511E-03   -0.76487E-04 10680   0.222E-01    0.149E-01
DAV:   7    -0.191453197843E+03    0.28813E-03   -0.32127E-04  8280   0.144E-01    0.162E-02
DAV:   8    -0.191453216021E+03   -0.18177E-04   -0.37758E-05  5800   0.447E-02
  59 F= -.19145322E+03 E0= -.19136370E+03  d E =-.174805E-01
       N       E                     dE             d eps       ncg     rms          rms(c)
DAV:   1    -0.191456470374E+03   -0.32725E-02   -0.51636E-02  8160   0.484E-01    0.504E-02
DAV:   2    -0.191456594130E+03   -0.12376E-03   -0.15160E-03 13560   0.134E-01    0.650E-02
DAV:   3    -0.191456584010E+03    0.10121E-04   -0.20450E-04  8760   0.120E-01
  60 F= -.19145658E+03 E0= -.19136723E+03  d E =-.336799E-02
       N       E                     dE             d eps       ncg     rms          rms(c)
DAV:   1    -0.191434327412E+03    0.22267E-01   -0.21757E+00  8160   0.312E+00    0.317E-01
DAV:   2    -0.191443196273E+03   -0.88689E-02   -0.60888E-02 13000   0.107E+00    0.748E-01
DAV:   3    -0.191437981475E+03    0.52148E-02   -0.12801E-02 12720   0.938E-01    0.304E-01
DAV:   4    -0.191437330395E+03    0.65108E-03   -0.23793E-03  9960   0.354E-01    0.196E-01
DAV:   5    -0.191437011966E+03    0.31843E-03   -0.13380E-03 10280   0.312E-01    0.147E-01
DAV:   6    -0.191436899296E+03    0.11267E-03   -0.86950E-04 10800   0.187E-01    0.858E-02
DAV:   7    -0.191436773602E+03    0.12569E-03   -0.20229E-04  5920   0.658E-02    0.142E-02
DAV:   8    -0.191436783404E+03   -0.98020E-05   -0.66726E-05  7080   0.310E-02
  61 F= -.19143678E+03 E0= -.19134635E+03  d E =0.198006E-01
       N       E                     dE             d eps       ncg     rms          rms(c)
DAV:   1    -0.191429936892E+03    0.68367E-02   -0.89327E-01  8160   0.198E+00    0.226E-01
DAV:   2    -0.191436271086E+03   -0.63342E-02   -0.23253E-02 13120   0.865E-01    0.744E-01
DAV:   3    -0.191430669423E+03    0.56017E-02   -0.88911E-03 12560   0.793E-01    0.153E-01
DAV:   4    -0.191430613294E+03    0.56129E-04   -0.93102E-04 10040   0.195E-01
  62 F= -.19143061E+03 E0= -.19133960E+03  d E =0.617011E-02
       N       E                     dE             d eps       ncg     rms          rms(c)
DAV:   1    -0.191443702652E+03   -0.13033E-01   -0.12489E+00  8160   0.238E+00    0.287E-01
DAV:   2    -0.191448947172E+03   -0.52445E-02   -0.46276E-02 13320   0.972E-01    0.561E-01
DAV:   3    -0.191445670991E+03    0.32762E-02   -0.83810E-03 11880   0.767E-01    0.224E-01
DAV:   4    -0.191445268225E+03    0.40277E-03   -0.17621E-03 12280   0.290E-01    0.191E-01
DAV:   5    -0.191445092513E+03    0.17571E-03   -0.13893E-03 10560   0.308E-01    0.175E-01
DAV:   6    -0.191444837136E+03    0.25538E-03   -0.88068E-04  9880   0.201E-01    0.754E-02
DAV:   7    -0.191444759544E+03    0.77592E-04   -0.20424E-04  5800   0.872E-02
  63 F= -.19144476E+03 E0= -.19135477E+03  d E =-.141463E-01
       N       E                     dE             d eps       ncg     rms          rms(c)
DAV:   1    -0.191450484795E+03   -0.56477E-02   -0.19840E-01  8160   0.950E-01    0.115E-01
DAV:   2    -0.191451326682E+03   -0.84189E-03   -0.78806E-03 11840   0.334E-01    0.206E-01
DAV:   3    -0.191450972309E+03    0.35437E-03   -0.14016E-03 10760   0.297E-01    0.122E-01
DAV:   4    -0.191450855307E+03    0.11700E-03   -0.38291E-04  8040   0.154E-01    0.737E-02
DAV:   5    -0.191450829214E+03    0.26094E-04   -0.18783E-04  6080   0.112E-01
  64 F= -.19145083E+03 E0= -.19136174E+03  d E =-.606967E-02
       N       E                     dE             d eps       ncg     rms          rms(c)
DAV:   1    -0.191464216085E+03   -0.13361E-01   -0.13441E+00  8160   0.245E+00    0.240E-01
DAV:   2    -0.191466799588E+03   -0.25835E-02   -0.36740E-02 12240   0.545E-01    0.209E-01
DAV:   3    -0.191467582908E+03   -0.78332E-03   -0.44118E-03 12400   0.506E-01    0.361E-01
DAV:   4    -0.191466239699E+03    0.13432E-02   -0.21956E-03 11280   0.398E-01    0.115E-01
DAV:   5    -0.191466157559E+03    0.82141E-04   -0.61149E-04 10040   0.134E-01
  65 F= -.19146616E+03 E0= -.19137807E+03  d E =-.153283E-01
       N       E                     dE             d eps       ncg     rms          rms(c)
DAV:   1    -0.191465061343E+03    0.11784E-02   -0.10112E-02  9560   0.294E-01    0.150E-01
DAV:   2    -0.191470419500E+03   -0.53582E-02   -0.90757E-03 11080   0.834E-01    0.692E-01
DAV:   3    -0.191464811357E+03    0.56081E-02   -0.57828E-03 10080   0.683E-01    0.553E-02
DAV:   4    -0.191464827163E+03   -0.15806E-04   -0.11200E-04  5840   0.768E-02
  66 F= -.19146483E+03 E0= -.19137676E+03  d E =0.133040E-02
       N       E                     dE             d eps       ncg     rms          rms(c)
DAV:   1    -0.191459423370E+03    0.53880E-02   -0.16087E-01  8160   0.854E-01    0.933E-02
DAV:   2    -0.191460000081E+03   -0.57671E-03   -0.54669E-03 12440   0.277E-01    0.172E-01
DAV:   3    -0.191459784701E+03    0.21538E-03   -0.94454E-04 10440   0.250E-01    0.107E-01
DAV:   4    -0.191459651310E+03    0.13339E-03   -0.16691E-04  5840   0.105E-01    0.386E-02
DAV:   5    -0.191459664667E+03   -0.13356E-04   -0.11438E-04  5920   0.742E-02
  67 F= -.19145966E+03 E0= -.19137124E+03  d E =0.516250E-02
       N       E                     dE             d eps       ncg     rms          rms(c)
DAV:   1    -0.191446951708E+03    0.12700E-01   -0.10026E+00  8160   0.215E+00    0.305E-01
DAV:   2    -0.191453399005E+03   -0.64473E-02   -0.45205E-02 12560   0.101E+00    0.740E-01
DAV:   3    -0.191448482017E+03    0.49170E-02   -0.11865E-02 12320   0.878E-01    0.262E-01
DAV:   4    -0.191447784844E+03    0.69717E-03   -0.19868E-03 12160   0.330E-01    0.171E-01
DAV:   5    -0.191447772653E+03    0.12191E-04   -0.15850E-03 10320   0.333E-01    0.187E-01
DAV:   6    -0.191447416667E+03    0.35599E-03   -0.10090E-03 10280   0.222E-01    0.794E-02
DAV:   7    -0.191447391301E+03    0.25366E-04   -0.34819E-04  8320   0.140E-01
  68 F= -.19144739E+03 E0= -.19135801E+03  d E =0.122734E-01
       N       E                     dE             d eps       ncg     rms          rms(c)
DAV:   1    -0.191458488736E+03   -0.11072E-01   -0.81852E-01  8160   0.193E+00    0.226E-01
DAV:   2    -0.191461467246E+03   -0.29785E-02   -0.30513E-02 11440   0.689E-01    0.396E-01
DAV:   3    -0.191460392062E+03    0.10752E-02   -0.51154E-03 12360   0.583E-01    0.263E-01
DAV:   4    -0.191459657074E+03    0.73499E-03   -0.13920E-03 10000   0.288E-01    0.116E-01
DAV:   5    -0.191459683947E+03   -0.26872E-04   -0.76014E-04 10160   0.205E-01
  69 F= -.19145968E+03 E0= -.19137129E+03  d E =-.122926E-01
       N       E                     dE             d eps       ncg     rms          rms(c)
DAV:   1    -0.191459521695E+03    0.13538E-03   -0.98144E-03  9000   0.326E-01    0.789E-02
DAV:   2    -0.191460073055E+03   -0.55136E-03   -0.17903E-03 12560   0.298E-01    0.213E-01
DAV:   3    -0.191459457202E+03    0.61585E-03   -0.95818E-04  9960   0.273E-01    0.670E-02
DAV:   4    -0.191459416358E+03    0.40844E-04   -0.13593E-04  5600   0.811E-02
  70 F= -.19145942E+03 E0= -.19137081E+03  d E =0.267588E-03
       N       E                     dE             d eps       ncg     rms          rms(c)
DAV:   1    -0.191471794024E+03   -0.12337E-01   -0.10997E+00  8160   0.222E+00    0.224E-01
DAV:   2    -0.191475287475E+03   -0.34935E-02   -0.33477E-02 12760   0.673E-01    0.379E-01
DAV:   3    -0.191474351391E+03    0.93608E-03   -0.48449E-03 12400   0.592E-01    0.268E-01
DAV:   4    -0.191473733317E+03    0.61807E-03   -0.13754E-03  9680   0.288E-01    0.138E-01
DAV:   5    -0.191473606066E+03    0.12725E-03   -0.63651E-04  9680   0.215E-01    0.108E-01
DAV:   6    -0.191473574105E+03    0.31962E-04   -0.47060E-04  9440   0.148E-01
  71 F= -.19147357E+03 E0= -.19138618E+03  d E =-.141577E-01
       N       E                     dE             d eps       ncg     rms          rms(c)
DAV:   1    -0.191464752979E+03    0.88531E-02   -0.40449E-01  8160   0.135E+00    0.143E-01
DAV:   2    -0.191466025517E+03   -0.12725E-02   -0.12333E-02 12800   0.419E-01    0.257E-01
DAV:   3    -0.191465541713E+03    0.48380E-03   -0.23437E-03 12120   0.388E-01    0.167E-01
DAV:   4    -0.191465224323E+03    0.31739E-03   -0.54307E-04  8400   0.169E-01    0.615E-02
DAV:   5    -0.191465238519E+03   -0.14197E-04   -0.28365E-04  7560   0.109E-01
  72 F= -.19146524E+03 E0= -.19137716E+03  d E =0.833559E-02
       N       E                     dE             d eps       ncg     rms          rms(c)
DAV:   1    -0.191441271789E+03    0.23953E-01   -0.33143E+00  8160   0.384E+00    0.394E-01
DAV:   2    -0.191452901169E+03   -0.11629E-01   -0.90355E-02 13040   0.125E+00    0.830E-01
DAV:   3    -0.191447238077E+03    0.56631E-02   -0.17655E-02 12520   0.110E+00    0.408E-01
DAV:   4    -0.191445701688E+03    0.15364E-02   -0.31961E-03 11280   0.408E-01    0.208E-01
DAV:   5    -0.191445546424E+03    0.15526E-03   -0.18597E-03 12440   0.374E-01    0.192E-01
DAV:   6    -0.191445400156E+03    0.14627E-03   -0.13601E-03 12000   0.247E-01    0.113E-01
DAV:   7    -0.191445202664E+03    0.19749E-03   -0.50313E-04  9480   0.134E-01    0.644E-02
DAV:   8    -0.191445169027E+03    0.33637E-04   -0.12415E-04  5800   0.921E-02
  73 F= -.19144517E+03 E0= -.19135554E+03  d E =0.200695E-01
       N       E                     dE             d eps       ncg     rms          rms(c)
DAV:   1    -0.191442712319E+03    0.24903E-02   -0.12505E-01  8160   0.745E-01    0.841E-02
DAV:   2    -0.191443208952E+03   -0.49663E-03   -0.32487E-03 13160   0.280E-01    0.190E-01
DAV:   3    -0.191442853496E+03    0.35546E-03   -0.81686E-04 10480   0.242E-01    0.784E-02
DAV:   4    -0.191442828969E+03    0.24527E-04   -0.16535E-04  6040   0.102E-01
  74 F= -.19144283E+03 E0= -.19135285E+03  d E =0.234006E-02
       N       E                     dE             d eps       ncg     rms          rms(c)
DAV:   1    -0.191445393334E+03   -0.25398E-02   -0.52941E-01  8160   0.155E+00    0.186E-01
DAV:   2    -0.191447972382E+03   -0.25790E-02   -0.19517E-02 12960   0.585E-01    0.392E-01
DAV:   3    -0.191446619103E+03    0.13533E-02   -0.41541E-03 12440   0.532E-01    0.198E-01
DAV:   4    -0.191446302251E+03    0.31685E-03   -0.85366E-04  9720   0.214E-01    0.103E-01
DAV:   5    -0.191446252748E+03    0.49503E-04   -0.46515E-04  9240   0.184E-01
  75 F= -.19144625E+03 E0= -.19135719E+03  d E =-.342378E-02
       N       E                     dE             d eps       ncg     rms          rms(c)
DAV:   1    -0.191449468752E+03   -0.31665E-02   -0.88882E-01  8160   0.200E+00    0.255E-01
DAV:   2    -0.191457016643E+03   -0.75479E-02   -0.28889E-02 12880   0.998E-01    0.787E-01
DAV:   3    -0.191450328714E+03    0.66879E-02   -0.97955E-03 12400   0.853E-01    0.165E-01
DAV:   4    -0.191450659875E+03   -0.33116E-03   -0.14771E-03  9760   0.316E-01    0.233E-01
DAV:   5    -0.191450018620E+03    0.64125E-03   -0.92743E-04 10640   0.264E-01    0.600E-02
DAV:   6    -0.191450043445E+03   -0.24824E-04   -0.23405E-04  7600   0.747E-02
  76 F= -.19145004E+03 E0= -.19136142E+03  d E =-.379070E-02
       N       E                     dE             d eps       ncg     rms          rms(c)
DAV:   1    -0.191456013565E+03   -0.59949E-02   -0.47248E-01  8160   0.146E+00    0.161E-01
DAV:   2    -0.191457675448E+03   -0.16619E-02   -0.17439E-02 13320   0.489E-01    0.253E-01
DAV:   3    -0.191457255677E+03    0.41977E-03   -0.25872E-03 11760   0.410E-01    0.189E-01
DAV:   4    -0.191456928650E+03    0.32703E-03   -0.85818E-04  9760   0.231E-01    0.973E-02
DAV:   5    -0.191456845149E+03    0.83501E-04   -0.31899E-04  8280   0.143E-01
  77 F= -.19145685E+03 E0= -.19136896E+03  d E =-.680170E-02
       N       E                     dE             d eps       ncg     rms          rms(c)
DAV:   1    -0.191450044499E+03    0.68842E-02   -0.41591E-01  8160   0.137E+00    0.148E-01
DAV:   2    -0.191452382474E+03   -0.23380E-02   -0.14940E-02 13040   0.482E-01    0.362E-01
DAV:   3    -0.191450987335E+03    0.13951E-02   -0.31627E-03 11520   0.452E-01    0.148E-01
DAV:   4    -0.191450819721E+03    0.16761E-03   -0.65363E-04  8800   0.178E-01    0.825E-02
DAV:   5    -0.191450763007E+03    0.56714E-04   -0.22852E-04  7160   0.115E-01
  78 F= -.19145076E+03 E0= -.19136197E+03  d E =0.608214E-02
       N       E                     dE             d eps       ncg     rms          rms(c)
DAV:   1    -0.191450710077E+03    0.10964E-03   -0.55416E-02  8160   0.521E-01    0.748E-02
DAV:   2    -0.191451111889E+03   -0.40181E-03   -0.19076E-03 13320   0.254E-01    0.191E-01
DAV:   3    -0.191450723116E+03    0.38877E-03   -0.63904E-04  9000   0.220E-01    0.547E-02
DAV:   4    -0.191450746316E+03   -0.23200E-04   -0.12112E-04  5920   0.933E-02
  79 F= -.19145075E+03 E0= -.19136202E+03  d E =0.166905E-04
       N       E                     dE             d eps       ncg     rms          rms(c)
DAV:   1    -0.191456495056E+03   -0.57719E-02   -0.56094E-01  8160   0.159E+00    0.179E-01
DAV:   2    -0.191458736456E+03   -0.22414E-02   -0.19089E-02 13520   0.626E-01    0.349E-01
DAV:   3    -0.191457466811E+03    0.12696E-02   -0.33763E-03 11560   0.483E-01    0.154E-01
DAV:   4    -0.191457338989E+03    0.12782E-03   -0.89420E-04  9920   0.218E-01    0.136E-01
DAV:   5    -0.191457203500E+03    0.13549E-03   -0.51203E-04  8480   0.199E-01    0.103E-01
DAV:   6    -0.191457114677E+03    0.88823E-04   -0.31115E-04  7600   0.126E-01
  80 F= -.19145711E+03 E0= -.19136897E+03  d E =-.636836E-02
       N       E                     dE             d eps       ncg     rms          rms(c)
DAV:   1    -0.191457100887E+03    0.10261E-03   -0.11023E-04  6240   0.644E-02    0.340E-02
DAV:   2    -0.191457363532E+03   -0.26265E-03   -0.46643E-04  9520   0.197E-01    0.153E-01
DAV:   3    -0.191457075432E+03    0.28810E-03   -0.32361E-04  7840   0.160E-01    0.798E-03
DAV:   4    -0.191457088527E+03   -0.13095E-04   -0.11164E-05  5440   0.158E-02
  81 F= -.19145709E+03 E0= -.19136905E+03  d E =0.261503E-04
       N       E                     dE             d eps       ncg     rms          rms(c)
DAV:   1    -0.191455623463E+03    0.14520E-02   -0.21207E-01  8160   0.986E-01    0.147E-01
DAV:   2    -0.191457139135E+03   -0.15157E-02   -0.78597E-03 12160   0.547E-01    0.371E-01
DAV:   3    -0.191455597634E+03    0.15415E-02   -0.25508E-03 11680   0.432E-01    0.100E-01
DAV:   4    -0.191455673972E+03   -0.76337E-04   -0.54221E-04  8280   0.192E-01
  82 F= -.19145567E+03 E0= -.19136722E+03  d E =0.141456E-02
       N       E                     dE             d eps       ncg     rms          rms(c)
DAV:   1    -0.191461709129E+03   -0.61115E-02   -0.71854E-01  8160   0.180E+00    0.206E-01
DAV:   2    -0.191465320838E+03   -0.36117E-02   -0.27617E-02 13240   0.745E-01    0.437E-01
DAV:   3    -0.191463166358E+03    0.21545E-02   -0.47724E-03 11600   0.577E-01    0.142E-01
DAV:   4    -0.191462999715E+03    0.16664E-03   -0.72502E-04 10120   0.184E-01    0.120E-01
DAV:   5    -0.191462938083E+03    0.61633E-04   -0.54307E-04  8800   0.201E-01
  83 F= -.19146294E+03 E0= -.19137585E+03  d E =-.726411E-02
       N       E                     dE             d eps       ncg     rms          rms(c)
DAV:   1    -0.191449207790E+03    0.13792E-01   -0.24696E+00  8160   0.333E+00    0.371E-01
DAV:   2    -0.191456742339E+03   -0.75345E-02   -0.76681E-02 13280   0.117E+00    0.593E-01
DAV:   3    -0.191453272342E+03    0.34700E-02   -0.12578E-02 12200   0.920E-01    0.368E-01
DAV:   4    -0.191452360755E+03    0.91159E-03   -0.47278E-03 12040   0.509E-01    0.274E-01
DAV:   5    -0.191451814257E+03    0.54650E-03   -0.22734E-03 11520   0.393E-01    0.216E-01
DAV:   6    -0.191451450956E+03    0.36330E-03   -0.14165E-03 10360   0.288E-01    0.115E-01
DAV:   7    -0.191451323601E+03    0.12735E-03   -0.34859E-04  8560   0.121E-01    0.563E-02
DAV:   8    -0.191451301429E+03    0.22173E-04   -0.10499E-04  6560   0.873E-02
  84 F= -.19145130E+03 E0= -.19136313E+03  d E =0.116367E-01
       N       E                     dE             d eps       ncg     rms          rms(c)
DAV:   1    -0.191466794347E+03   -0.15471E-01   -0.82282E+00  8160   0.610E+00    0.671E-01
DAV:   2    -0.191488040735E+03   -0.21246E-01   -0.25389E-01 13400   0.196E+00    0.951E-01
DAV:   3    -0.191481286702E+03    0.67540E-02   -0.38347E-02 12280   0.161E+00    0.653E-01
DAV:   4    -0.191477042244E+03    0.42445E-02   -0.12863E-02 12400   0.837E-01    0.420E-01
DAV:   5    -0.191475797611E+03    0.12446E-02   -0.78610E-03 12000   0.660E-01    0.384E-01
DAV:   6    -0.191475230501E+03    0.56711E-03   -0.55485E-03 12360   0.595E-01    0.276E-01
DAV:   7    -0.191474271073E+03    0.95943E-03   -0.15783E-03 11160   0.270E-01    0.102E-01
DAV:   8    -0.191474211997E+03    0.59076E-04   -0.34866E-04  9040   0.150E-01
  85 F= -.19147421E+03 E0= -.19138750E+03  d E =-.229106E-01
       N       E                     dE             d eps       ncg     rms          rms(c)
DAV:   1    -0.191459924025E+03    0.14347E-01   -0.39631E+00  8160   0.424E+00    0.509E-01
DAV:   2    -0.191471601389E+03   -0.11677E-01   -0.11750E-01 13320   0.160E+00    0.869E-01
DAV:   3    -0.191463637411E+03    0.79640E-02   -0.23336E-02 12240   0.126E+00    0.422E-01
DAV:   4    -0.191462399307E+03    0.12381E-02   -0.73966E-03 11960   0.576E-01    0.335E-01
DAV:   5    -0.191461592411E+03    0.80690E-03   -0.50023E-03 12320   0.557E-01    0.296E-01
DAV:   6    -0.191460878669E+03    0.71374E-03   -0.28431E-03 11440   0.411E-01    0.144E-01
DAV:   7    -0.191460640490E+03    0.23818E-03   -0.63880E-04  9920   0.155E-01    0.690E-02
DAV:   8    -0.191460615925E+03    0.24565E-04   -0.15408E-04  7040   0.108E-01
  86 F= -.19146062E+03 E0= -.19137323E+03  d E =0.135961E-01
       N       E                     dE             d eps       ncg     rms          rms(c)
DAV:   1    -0.191471420084E+03   -0.10780E-01   -0.28974E+00  8160   0.361E+00    0.388E-01
DAV:   2    -0.191478716633E+03   -0.72965E-02   -0.85251E-02 13360   0.114E+00    0.559E-01
DAV:   3    -0.191476251985E+03    0.24646E-02   -0.13064E-02 12280   0.932E-01    0.380E-01
DAV:   4    -0.191474855670E+03    0.13963E-02   -0.43177E-03 11200   0.470E-01    0.234E-01
DAV:   5    -0.191474477290E+03    0.37838E-03   -0.26249E-03 11360   0.379E-01    0.218E-01
DAV:   6    -0.191474271773E+03    0.20552E-03   -0.18663E-03 11560   0.346E-01    0.151E-01
DAV:   7    -0.191473975244E+03    0.29653E-03   -0.48664E-04  8640   0.150E-01    0.523E-02
DAV:   8    -0.191473965819E+03    0.94250E-05   -0.10381E-04  6800   0.829E-02
  87 F= -.19147397E+03 E0= -.19138774E+03  d E =-.133499E-01
       N       E                     dE             d eps       ncg     rms          rms(c)
DAV:   1    -0.191478618313E+03   -0.46431E-02   -0.32417E-01  8160   0.120E+00    0.120E-01
DAV:   2    -0.191479303228E+03   -0.68492E-03   -0.97637E-03 12240   0.282E-01    0.868E-02
DAV:   3    -0.191479299015E+03    0.42129E-05   -0.78954E-04 11440   0.167E-01
  88 F= -.19147930E+03 E0= -.19139353E+03  d E =-.533320E-02
       N       E                     dE             d eps       ncg     rms          rms(c)
DAV:   1    -0.191472734870E+03    0.65684E-02   -0.48691E-01  8160   0.148E+00    0.166E-01
DAV:   2    -0.191477024855E+03   -0.42900E-02   -0.17446E-02 13160   0.732E-01    0.550E-01
DAV:   3    -0.191473398651E+03    0.36262E-02   -0.52800E-03 10560   0.613E-01    0.846E-02
DAV:   4    -0.191473449436E+03   -0.50785E-04   -0.41351E-04  8280   0.154E-01
  89 F= -.19147345E+03 E0= -.19138672E+03  d E =0.584958E-02
       N       E                     dE             d eps       ncg     rms          rms(c)
DAV:   1    -0.191478967060E+03   -0.55684E-02   -0.53225E-01  8160   0.154E+00    0.166E-01
DAV:   2    -0.191481104850E+03   -0.21378E-02   -0.18329E-02 13440   0.595E-01    0.335E-01
DAV:   3    -0.191479978671E+03    0.11262E-02   -0.31323E-03 11200   0.465E-01    0.144E-01
DAV:   4    -0.191479806010E+03    0.17266E-03   -0.67619E-04  9280   0.195E-01    0.107E-01
DAV:   5    -0.191479729456E+03    0.76554E-04   -0.39168E-04  8560   0.173E-01
  90 F= -.19147973E+03 E0= -.19139347E+03  d E =-.628002E-02
       N       E                     dE             d eps       ncg     rms          rms(c)
DAV:   1    -0.191475777590E+03    0.40284E-02   -0.17638E-01  8160   0.892E-01    0.101E-01
DAV:   2    -0.191476945299E+03   -0.11677E-02   -0.60429E-03 12640   0.367E-01    0.281E-01
DAV:   3    -0.191476105302E+03    0.84000E-03   -0.16727E-03 10480   0.343E-01    0.101E-01
DAV:   4    -0.191475996745E+03    0.10856E-03   -0.24169E-04  7360   0.101E-01    0.359E-02
DAV:   5    -0.191475981069E+03    0.15676E-04   -0.64905E-05  6640   0.408E-02
  91 F= -.19147598E+03 E0= -.19138968E+03  d E =0.374839E-02
       N       E                     dE             d eps       ncg     rms          rms(c)
DAV:   1    -0.191481860160E+03   -0.58634E-02   -0.56768E-01  8160   0.160E+00    0.160E-01
DAV:   2    -0.191483031374E+03   -0.11712E-02   -0.17098E-02 11760   0.380E-01    0.145E-01
DAV:   3    -0.191483276511E+03   -0.24514E-03   -0.19874E-03 12240   0.342E-01    0.236E-01
DAV:   4    -0.191482696017E+03    0.58049E-03   -0.85657E-04  9480   0.257E-01    0.722E-02
DAV:   5    -0.191482667698E+03    0.28319E-04   -0.24870E-04  6840   0.979E-02
  92 F= -.19148267E+03 E0= -.19139704E+03  d E =-.668663E-02
       N       E                     dE             d eps       ncg     rms          rms(c)
DAV:   1    -0.191483716878E+03   -0.10209E-02   -0.12048E-02  8160   0.267E-01    0.854E-02
DAV:   2    -0.191485136326E+03   -0.14194E-02   -0.27020E-03 12120   0.439E-01    0.350E-01
DAV:   3    -0.191483629130E+03    0.15072E-02   -0.17282E-03  9760   0.370E-01    0.310E-02
DAV:   4    -0.191483666821E+03   -0.37691E-04   -0.59777E-05  5640   0.609E-02
  93 F= -.19148367E+03 E0= -.19139825E+03  d E =-.999122E-03
       N       E                     dE             d eps       ncg     rms          rms(c)
DAV:   1    -0.191483343199E+03    0.28593E-03   -0.14542E-03  8560   0.931E-02    0.167E-02
DAV:   2    -0.191483388204E+03   -0.45006E-04   -0.82487E-05  6640   0.762E-02
  94 F= -.19148339E+03 E0= -.19139782E+03  d E =0.278616E-03
       N       E                     dE             d eps       ncg     rms          rms(c)
DAV:   1    -0.191494492342E+03   -0.11149E-01   -0.18061E+00  8160   0.282E+00    0.272E-01
DAV:   2    -0.191498593529E+03   -0.41012E-02   -0.37231E-02 13320   0.839E-01    0.469E-01
DAV:   3    -0.191496524726E+03    0.20688E-02   -0.76722E-03 11400   0.714E-01    0.264E-01
DAV:   4    -0.191495972232E+03    0.55249E-03   -0.21261E-03 11600   0.334E-01    0.166E-01
DAV:   5    -0.191495842713E+03    0.12952E-03   -0.12110E-03 10000   0.286E-01    0.159E-01
DAV:   6    -0.191495647746E+03    0.19497E-03   -0.80562E-04 10360   0.224E-01    0.808E-02
DAV:   7    -0.191495598299E+03    0.49447E-04   -0.18210E-04  6600   0.101E-01
  95 F= -.19149560E+03 E0= -.19141104E+03  d E =-.122101E-01
       N       E                     dE             d eps       ncg     rms          rms(c)
DAV:   1    -0.191487949150E+03    0.76986E-02   -0.65627E-01  8160   0.169E+00    0.155E-01
DAV:   2    -0.191489180448E+03   -0.12313E-02   -0.11054E-02 12480   0.389E-01    0.262E-01
DAV:   3    -0.191488606700E+03    0.57375E-03   -0.24054E-03 12320   0.408E-01    0.177E-01
DAV:   4    -0.191488351783E+03    0.25492E-03   -0.68023E-04  9440   0.197E-01    0.947E-02
DAV:   5    -0.191488333389E+03    0.18394E-04   -0.37441E-04  8840   0.170E-01
  96 F= -.19148833E+03 E0= -.19140358E+03  d E =0.726491E-02
       N       E                     dE             d eps       ncg     rms          rms(c)
DAV:   1    -0.191490271443E+03   -0.19197E-02   -0.83658E-02  8160   0.633E-01    0.140E-01
DAV:   2    -0.191491306907E+03   -0.10355E-02   -0.71565E-03 10880   0.488E-01    0.311E-01
DAV:   3    -0.191490202507E+03    0.11044E-02   -0.21999E-03 11360   0.399E-01    0.977E-02
DAV:   4    -0.191490135803E+03    0.66704E-04   -0.49131E-04  8200   0.160E-01
  97 F= -.19149014E+03 E0= -.19140563E+03  d E =-.180241E-02
       N       E                     dE             d eps       ncg     rms          rms(c)
DAV:   1    -0.191497504459E+03   -0.73020E-02   -0.59924E-01  8160   0.163E+00    0.197E-01
DAV:   2    -0.191502070729E+03   -0.45663E-02   -0.17282E-02 12960   0.797E-01    0.595E-01
DAV:   3    -0.191498031721E+03    0.40390E-02   -0.58187E-03 11560   0.679E-01    0.133E-01
DAV:   4    -0.191498093986E+03   -0.62265E-04   -0.81351E-04  9600   0.220E-01
  98 F= -.19149809E+03 E0= -.19141442E+03  d E =-.795818E-02
       N       E                     dE             d eps       ncg     rms          rms(c)
DAV:   1    -0.191480134457E+03    0.17897E-01   -0.31318E+00  8160   0.370E+00    0.342E-01
DAV:   2    -0.191489442981E+03   -0.93085E-02   -0.63251E-02 13120   0.123E+00    0.731E-01
DAV:   3    -0.191483184491E+03    0.62585E-02   -0.12125E-02 12280   0.952E-01    0.245E-01
DAV:   4    -0.191483076433E+03    0.10806E-03   -0.22604E-03 11040   0.351E-01    0.250E-01
DAV:   5    -0.191482647662E+03    0.42877E-03   -0.17614E-03 10720   0.367E-01    0.169E-01
DAV:   6    -0.191482434659E+03    0.21300E-03   -0.78743E-04 10240   0.186E-01    0.697E-02
DAV:   7    -0.191482353741E+03    0.80917E-04   -0.20686E-04  6600   0.662E-02
  99 F= -.19148235E+03 E0= -.19139721E+03  d E =0.157402E-01
       N       E                     dE             d eps       ncg     rms          rms(c)
DAV:   1    -0.191472270764E+03    0.10164E-01   -0.26405E+00  8160   0.339E+00    0.321E-01
DAV:   2    -0.191477649028E+03   -0.53783E-02   -0.49955E-02 13000   0.850E-01    0.545E-01
DAV:   3    -0.191475708715E+03    0.19403E-02   -0.10553E-02 12520   0.856E-01    0.392E-01
DAV:   4    -0.191474245519E+03    0.14632E-02   -0.28047E-03 12160   0.394E-01    0.146E-01
DAV:   5    -0.191474080155E+03    0.16536E-03   -0.11268E-03 10240   0.221E-01    0.131E-01
DAV:   6    -0.191474153465E+03   -0.73310E-04   -0.96650E-04 10800   0.263E-01
 100 F= -.19147415E+03 E0= -.19138807E+03  d E =0.820028E-02
