<?xml version="1.0" encoding="ISO-8859-1"?>
<modeling>
 <generator>
  <i name="program" type="string">vasp </i>
  <i name="version" type="string">5.4.1  </i>
  <i name="subversion" type="string">05Feb16 (build Jul 05 2020 17:13:04) complex                          parallel </i>
  <i name="platform" type="string">IFC91_ompi </i>
  <i name="date" type="string">2024 04 26 </i>
  <i name="time" type="string">00:06:21 </i>
 </generator>
 <incar>
  <i type="int" name="ISTART">     0</i>
  <i type="string" name="PREC">normal</i>
  <i type="string" name="ALGO"> Normal</i>
  <i type="int" name="ISPIN">     1</i>
  <i type="int" name="ICHARG">     2</i>
  <i type="int" name="IBRION">     1</i>
  <i type="int" name="NSW">   100</i>
  <i type="int" name="ISIF">     3</i>
  <i type="int" name="ISYM">     0</i>
  <i name="SYMPREC">      0.00000001</i>
  <i name="POTIM">      0.50000000</i>
  <i type="logical" name="LREAL"> F  </i>
  <i type="logical" name="LPLANE"> F  </i>
  <i type="int" name="ISMEAR">     0</i>
  <i type="logical" name="LWAVE"> F  </i>
  <i type="logical" name="LCHARG"> F  </i>
  <v type="int" name="KPOINT_BSE">    -1     0     0     0</v>
 </incar>
 <kpoints>
  <generation param="Gamma">
   <v type="int" name="divisions">       8        8        1 </v>
   <v name="usershift">      0.00000000       0.00000000       0.00000000 </v>
   <v name="genvec1">      0.12500000       0.00000000       0.00000000 </v>
   <v name="genvec2">     -0.00000000       0.12500000       0.00000000 </v>
   <v name="genvec3">      0.00000000       0.00000000       1.00000000 </v>
   <v name="shift">      0.00000000       0.00000000       0.00000000 </v>
  </generation>
  <varray name="kpointlist" >
   <v>       0.00000000       0.00000000       0.00000000 </v>
   <v>       0.12500000       0.00000000       0.00000000 </v>
   <v>       0.25000000       0.00000000       0.00000000 </v>
   <v>       0.37500000       0.00000000       0.00000000 </v>
   <v>       0.50000000       0.00000000       0.00000000 </v>
   <v>       0.00000000       0.12500000       0.00000000 </v>
   <v>       0.12500000       0.12500000       0.00000000 </v>
   <v>       0.25000000       0.12500000       0.00000000 </v>
   <v>       0.37500000       0.12500000       0.00000000 </v>
   <v>       0.50000000       0.12500000       0.00000000 </v>
   <v>      -0.37500000       0.12500000       0.00000000 </v>
   <v>      -0.25000000       0.12500000       0.00000000 </v>
   <v>      -0.12500000       0.12500000       0.00000000 </v>
   <v>       0.00000000       0.25000000       0.00000000 </v>
   <v>       0.12500000       0.25000000       0.00000000 </v>
   <v>       0.25000000       0.25000000       0.00000000 </v>
   <v>       0.37500000       0.25000000       0.00000000 </v>
   <v>       0.50000000       0.25000000       0.00000000 </v>
   <v>      -0.37500000       0.25000000       0.00000000 </v>
   <v>      -0.25000000       0.25000000       0.00000000 </v>
   <v>      -0.12500000       0.25000000       0.00000000 </v>
   <v>      -0.00000000       0.37500000       0.00000000 </v>
   <v>       0.12500000       0.37500000       0.00000000 </v>
   <v>       0.25000000       0.37500000       0.00000000 </v>
   <v>       0.37500000       0.37500000       0.00000000 </v>
   <v>       0.50000000       0.37500000       0.00000000 </v>
   <v>      -0.37500000       0.37500000       0.00000000 </v>
   <v>      -0.25000000       0.37500000       0.00000000 </v>
   <v>      -0.12500000       0.37500000       0.00000000 </v>
   <v>       0.00000000       0.50000000       0.00000000 </v>
   <v>       0.12500000       0.50000000       0.00000000 </v>
   <v>       0.25000000       0.50000000       0.00000000 </v>
   <v>       0.37500000       0.50000000       0.00000000 </v>
   <v>       0.50000000       0.50000000       0.00000000 </v>
  </varray>
  <varray name="weights" >
   <v>       0.01562500 </v>
   <v>       0.03125000 </v>
   <v>       0.03125000 </v>
   <v>       0.03125000 </v>
   <v>       0.01562500 </v>
   <v>       0.03125000 </v>
   <v>       0.03125000 </v>
   <v>       0.03125000 </v>
   <v>       0.03125000 </v>
   <v>       0.03125000 </v>
   <v>       0.03125000 </v>
   <v>       0.03125000 </v>
   <v>       0.03125000 </v>
   <v>       0.03125000 </v>
   <v>       0.03125000 </v>
   <v>       0.03125000 </v>
   <v>       0.03125000 </v>
   <v>       0.03125000 </v>
   <v>       0.03125000 </v>
   <v>       0.03125000 </v>
   <v>       0.03125000 </v>
   <v>       0.03125000 </v>
   <v>       0.03125000 </v>
   <v>       0.03125000 </v>
   <v>       0.03125000 </v>
   <v>       0.03125000 </v>
   <v>       0.03125000 </v>
   <v>       0.03125000 </v>
   <v>       0.03125000 </v>
   <v>       0.01562500 </v>
   <v>       0.03125000 </v>
   <v>       0.03125000 </v>
   <v>       0.03125000 </v>
   <v>       0.01562500 </v>
  </varray>
 </kpoints>
 <parameters>
  <separator name="general" >
   <i type="string" name="SYSTEM">unknown system</i>
   <i type="logical" name="LCOMPAT"> F  </i>
  </separator>
  <separator name="electronic" >
   <i type="string" name="PREC">normal</i>
   <i name="ENMAX">    280.00000000</i>
   <i name="ENAUG">    373.43800000</i>
   <i name="EDIFF">      0.00010000</i>
   <i type="int" name="IALGO">    38</i>
   <i type="int" name="IWAVPR">    11</i>
   <i type="int" name="NBANDS">   120</i>
   <i name="NELECT">    159.00000000</i>
   <i type="int" name="TURBO">     0</i>
   <i type="int" name="IRESTART">     0</i>
   <i type="int" name="NREBOOT">     0</i>
   <i type="int" name="NMIN">     0</i>
   <i name="EREF">      0.00000000</i>
   <separator name="electronic smearing" >
    <i type="int" name="ISMEAR">     0</i>
    <i name="SIGMA">      0.20000000</i>
    <i name="KSPACING">      0.50000000</i>
    <i type="logical" name="KGAMMA"> T  </i>
   </separator>
   <separator name="electronic projectors" >
    <i type="logical" name="LREAL"> F  </i>
    <v name="ROPT">      0.00000000      0.00000000      0.00000000      0.00000000</v>
    <i type="int" name="LMAXPAW">  -100</i>
    <i type="int" name="LMAXMIX">     2</i>
    <i type="logical" name="NLSPLINE"> F  </i>
   </separator>
   <separator name="electronic startup" >
    <i type="int" name="ISTART">     0</i>
    <i type="int" name="ICHARG">     2</i>
    <i type="int" name="INIWAV">     1</i>
   </separator>
   <separator name="electronic spin" >
    <i type="int" name="ISPIN">     1</i>
    <i type="logical" name="LNONCOLLINEAR"> F  </i>
    <v name="MAGMOM">      1.00000000      1.00000000      1.00000000      1.00000000      1.00000000      1.00000000      1.00000000      1.00000000      1.00000000      1.00000000      1.00000000      1.00000000      1.00000000      1.00000000      1.00000000      1.00000000      1.00000000      1.00000000      1.00000000      1.00000000
      1.00000000      1.00000000      1.00000000      1.00000000      1.00000000      1.00000000      1.00000000</v>
    <i name="NUPDOWN">     -1.00000000</i>
    <i type="logical" name="LSORBIT"> F  </i>
    <v name="SAXIS">      0.00000000      0.00000000      1.00000000</v>
    <i type="logical" name="LSPIRAL"> F  </i>
    <v name="QSPIRAL">      0.00000000      0.00000000      0.00000000</v>
    <i type="logical" name="LZEROZ"> F  </i>
   </separator>
   <separator name="electronic exchange-correlation" >
    <i type="logical" name="LASPH"> F  </i>
    <i type="logical" name="LMETAGGA"> F  </i>
   </separator>
   <separator name="electronic convergence" >
    <i type="int" name="NELM">    60</i>
    <i type="int" name="NELMDL">    -5</i>
    <i type="int" name="NELMIN">     2</i>
    <i name="ENINI">    280.00000000</i>
    <separator name="electronic convergence detail" >
     <i type="logical" name="LDIAG"> T  </i>
     <i type="logical" name="LSUBROT"> F  </i>
     <i name="WEIMIN">      0.00100000</i>
     <i name="EBREAK">      0.00000021</i>
     <i name="DEPER">      0.30000000</i>
     <i type="int" name="NRMM">     4</i>
     <i name="TIME">      0.40000000</i>
    </separator>
   </separator>
   <separator name="electronic mixer" >
    <i name="AMIX">      0.40000000</i>
    <i name="BMIX">      1.00000000</i>
    <i name="AMIN">      0.10000000</i>
    <i name="AMIX_MAG">      1.60000000</i>
    <i name="BMIX_MAG">      1.00000000</i>
    <separator name="electronic mixer details" >
     <i type="int" name="IMIX">     4</i>
     <i type="logical" name="MIXFIRST"> F  </i>
     <i type="int" name="MAXMIX">   -45</i>
     <i name="WC">    100.00000000</i>
     <i type="int" name="INIMIX">     1</i>
     <i type="int" name="MIXPRE">     1</i>
     <i type="int" name="MREMOVE">     5</i>
    </separator>
   </separator>
   <separator name="electronic dipolcorrection" >
    <i type="logical" name="LDIPOL"> F  </i>
    <i type="logical" name="LMONO"> F  </i>
    <i type="int" name="IDIPOL">     0</i>
    <i name="EPSILON">      1.00000000</i>
    <v name="DIPOL">   -100.00000000   -100.00000000   -100.00000000</v>
    <i name="EFIELD">      0.00000000</i>
   </separator>
  </separator>
  <separator name="grids" >
   <i type="int" name="NGX">    42</i>
   <i type="int" name="NGY">    42</i>
   <i type="int" name="NGZ">   126</i>
   <i type="int" name="NGXF">    84</i>
   <i type="int" name="NGYF">    84</i>
   <i type="int" name="NGZF">   252</i>
   <i type="logical" name="ADDGRID"> F  </i>
  </separator>
  <separator name="ionic" >
   <i type="int" name="NSW">   100</i>
   <i type="int" name="IBRION">     1</i>
   <i type="int" name="ISIF">     3</i>
   <i name="PSTRESS">      0.00000000</i>
   <i name="EDIFFG">      0.00100000</i>
   <i type="int" name="NFREE">     0</i>
   <i name="POTIM">      0.50000000</i>
   <i name="SMASS">     -3.00000000</i>
   <i name="SCALEE">      1.00000000</i>
  </separator>
  <separator name="ionic md" >
   <i name="TEBEG">      0.00010000</i>
   <i name="TEEND">      0.00010000</i>
   <i type="int" name="NBLOCK">     1</i>
   <i type="int" name="KBLOCK">   100</i>
   <i type="int" name="NPACO">   256</i>
   <i name="APACO">     16.00000000</i>
  </separator>
  <separator name="symmetry" >
   <i type="int" name="ISYM">     0</i>
   <i name="SYMPREC">      0.00000001</i>
  </separator>
  <separator name="dos" >
   <i type="logical" name="LORBIT"> F  </i>
   <v name="RWIGS">     -1.00000000     -1.00000000     -1.00000000     -1.00000000</v>
   <i type="int" name="NEDOS">   301</i>
   <i name="EMIN">     10.00000000</i>
   <i name="EMAX">    -10.00000000</i>
   <i name="EFERMI">      0.00000000</i>
  </separator>
  <separator name="writing" >
   <i type="int" name="NWRITE">     2</i>
   <i type="logical" name="LWAVE"> F  </i>
   <i type="logical" name="LCHARG"> F  </i>
   <i type="logical" name="LPARD"> F  </i>
   <i type="logical" name="LVTOT"> F  </i>
   <i type="logical" name="LVHAR"> F  </i>
   <i type="logical" name="LELF"> F  </i>
   <i type="logical" name="LOPTICS"> F  </i>
   <v name="STM">      0.00000000      0.00000000      0.00000000      0.00000000      0.00000000      0.00000000      0.00000000</v>
  </separator>
  <separator name="performance" >
   <i type="int" name="NPAR">    40</i>
   <i type="int" name="NSIM">     4</i>
   <i type="int" name="NBLK">    -1</i>
   <i type="logical" name="LPLANE"> F  </i>
   <i type="logical" name="LSCALAPACK"> T  </i>
   <i type="logical" name="LSCAAWARE"> F  </i>
   <i type="logical" name="LSCALU"> F  </i>
   <i type="logical" name="LASYNC"> F  </i>
   <i type="logical" name="LORBITALREAL"> F  </i>
  </separator>
  <separator name="miscellaneous" >
   <i type="int" name="IDIOT">     3</i>
   <i type="logical" name="LMUSIC"> F  </i>
   <v name="POMASS">     50.94100000     95.94000000    183.85000000     32.06600000</v>
   <v name="DARWINR">      0.00000000      0.00000000      0.00000000      0.00000000</v>
   <v name="DARWINV">      1.00000000      1.00000000      1.00000000      1.00000000</v>
   <i type="logical" name="LCORR"> T  </i>
  </separator>
  <i type="logical" name="GGA_COMPAT"> T  </i>
  <i type="logical" name="LBERRY"> F  </i>
  <i type="int" name="ICORELEVEL">     0</i>
  <i type="logical" name="LDAU"> F  </i>
  <i type="int" name="I_CONSTRAINED_M">     0</i>
  <separator name="electronic exchange-correlation" >
   <i type="string" name="GGA">--</i>
   <i type="int" name="VOSKOWN">     0</i>
   <i type="logical" name="LHFCALC"> F  </i>
   <i type="string" name="PRECFOCK"></i>
   <i type="logical" name="LSYMGRAD"> F  </i>
   <i type="logical" name="LHFONE"> F  </i>
   <i type="logical" name="LRHFCALC"> F  </i>
   <i type="logical" name="LTHOMAS"> F  </i>
   <i type="logical" name="LMODELHF"> F  </i>
   <i name="ENCUT4O">     -1.00000000</i>
   <i type="int" name="EXXOEP">     0</i>
   <i type="int" name="FOURORBIT">     0</i>
   <i name="AEXX">      0.00000000</i>
   <i name="HFALPHA">      0.00000000</i>
   <i name="MCALPHA">      0.00000000</i>
   <i name="ALDAX">      1.00000000</i>
   <i name="AGGAX">      1.00000000</i>
   <i name="ALDAC">      1.00000000</i>
   <i name="AGGAC">      1.00000000</i>
   <i type="int" name="NKREDX">     1</i>
   <i type="int" name="NKREDY">     1</i>
   <i type="int" name="NKREDZ">     1</i>
   <i type="logical" name="SHIFTRED"> F  </i>
   <i type="logical" name="ODDONLY"> F  </i>
   <i type="logical" name="EVENONLY"> F  </i>
   <i type="int" name="LMAXFOCK">     0</i>
   <i type="int" name="NMAXFOCKAE">     0</i>
   <i type="logical" name="LFOCKAEDFT"> F  </i>
   <i name="HFSCREEN">      0.00000000</i>
   <i name="HFSCREENC">      0.00000000</i>
   <i type="int" name="NBANDSGWLOW">     0</i>
  </separator>
  <separator name="vdW DFT" >
   <i type="logical" name="LUSE_VDW"> F  </i>
   <i name="Zab_VDW">     -0.84910000</i>
   <i name="PARAM1">      0.12340000</i>
   <i name="PARAM2">      1.00000000</i>
   <i name="PARAM3">      0.00000000</i>
  </separator>
  <separator name="model GW" >
   <i type="int" name="MODEL_GW">     0</i>
   <i name="MODEL_EPS0">     58.26239943</i>
   <i name="MODEL_ALPHA">      1.00000000</i>
  </separator>
  <separator name="linear response parameters" >
   <i type="logical" name="LEPSILON"> F  </i>
   <i type="logical" name="LRPA"> F  </i>
   <i type="logical" name="LNABLA"> F  </i>
   <i type="logical" name="LVEL"> F  </i>
   <i type="int" name="KINTER">     0</i>
   <i name="CSHIFT">      0.10000000</i>
   <i name="OMEGAMAX">     -1.00000000</i>
   <i name="DEG_THRESHOLD">      0.00200000</i>
  </separator>
  <separator name="orbital magnetization" >
   <i type="logical" name="NUCIND"> F  </i>
   <v name="MAGPOS">      0.00000000      0.00000000      0.00000000</v>
   <i type="logical" name="LNICSALL"> T  </i>
   <i type="logical" name="ORBITALMAG"> F  </i>
   <i type="logical" name="LMAGBLOCH"> F  </i>
   <i type="logical" name="LCHIMAG"> F  </i>
   <i type="logical" name="LGAUGE"> T  </i>
   <i type="int" name="MAGATOM">     0</i>
   <v name="MAGDIPOL">      0.00000000      0.00000000      0.00000000</v>
   <v name="AVECCONST">      0.00000000      0.00000000      0.00000000</v>
  </separator>
  <separator name="response functions" >
   <i type="logical" name="LADDER"> F  </i>
   <i type="logical" name="LFXC"> F  </i>
   <i type="logical" name="LHARTREE"> T  </i>
   <i type="int" name="IBSE">     0</i>
   <v type="int" name="KPOINT">    -1     0     0     0</v>
   <i type="logical" name="LTCTE"> F  </i>
   <i type="logical" name="LTETE"> F  </i>
   <i type="logical" name="LTRIPLET"> F  </i>
   <i type="logical" name="LFXCEPS"> F  </i>
   <i type="logical" name="LFXHEG"> F  </i>
   <i type="int" name="NATURALO">     0</i>
   <i type="logical" name="L2ORDER"> F  </i>
   <i type="logical" name="LUSEW"> F  </i>
   <i name="ENCUTGW">     -2.00000000</i>
   <i name="ENCUTGWSOFT">     -2.00000000</i>
   <i name="ENCUTLF">     -1.00000000</i>
   <i type="int" name="LMAXMP2">    -1</i>
   <i name="SCISSOR">      0.00000000</i>
   <i type="int" name="NOMEGA">     0</i>
   <i type="int" name="NOMEGAR">     0</i>
   <i type="int" name="NBANDSGW">    -1</i>
   <i type="int" name="NBANDSO">    -1</i>
   <i type="int" name="NBANDSV">    -1</i>
   <i type="int" name="NELM">     1</i>
   <i type="int" name="NELMHF">     1</i>
   <i type="int" name="DIM">     3</i>
   <i type="int" name="ANTIRES">     0</i>
   <i name="OMEGAMAX">    -30.00000000</i>
   <i name="OMEGAMIN">    -30.00000000</i>
   <i name="OMEGATL">   -200.00000000</i>
   <i type="int" name="OMEGAGRID">     0</i>
   <i name="CSHIFT">     -0.10000000</i>
   <i type="logical" name="SELFENERGY"> F  </i>
   <i type="logical" name="LSPECTRAL"> F  </i>
   <i type="logical" name="LSPECTRALGW"> F  </i>
   <i type="logical" name="LSINGLES"> F  </i>
   <i type="logical" name="LFERMIGW"> F  </i>
   <i type="logical" name="ODDONLYGW"> F  </i>
   <i type="logical" name="EVENONLYGW"> F  </i>
   <i type="int" name="NKREDLFX">     1</i>
   <i type="int" name="NKREDLFY">     1</i>
   <i type="int" name="NKREDLFZ">     1</i>
   <i type="int" name="MAXMEM">  1800</i>
   <i type="int" name="TELESCOPE">     0</i>
   <i type="int" name="TAUPAR">     1</i>
   <i type="int" name="OMEGAPAR">    -1</i>
   <i name="LAMBDA">      1.00000000</i>
  </separator>
  <separator name="External order field" >
   <i name="OFIELD_KAPPA">      0.00000000</i>
   <v name="OFIELD_K">      0.00000000      0.00000000      0.00000000</v>
   <i name="OFIELD_Q6_NEAR">      0.00000000</i>
   <i name="OFIELD_Q6_FAR">      0.00000000</i>
   <i name="OFIELD_A">      0.00000000</i>
  </separator>
 </parameters>
 <atominfo>
  <atoms>      27 </atoms>
  <types>       4 </types>
  <array name="atoms" >
   <dimension dim="1">ion</dimension>
   <field type="string">element</field>
   <field type="int">atomtype</field>
   <set>
    <rc><c>V </c><c>   1</c></rc>
    <rc><c>V </c><c>   1</c></rc>
    <rc><c>V </c><c>   1</c></rc>
    <rc><c>Mo</c><c>   2</c></rc>
    <rc><c>Mo</c><c>   2</c></rc>
    <rc><c>Mo</c><c>   2</c></rc>
    <rc><c>W </c><c>   3</c></rc>
    <rc><c>W </c><c>   3</c></rc>
    <rc><c>W </c><c>   3</c></rc>
    <rc><c>S </c><c>   4</c></rc>
    <rc><c>S </c><c>   4</c></rc>
    <rc><c>S </c><c>   4</c></rc>
    <rc><c>S </c><c>   4</c></rc>
    <rc><c>S </c><c>   4</c></rc>
    <rc><c>S </c><c>   4</c></rc>
    <rc><c>S </c><c>   4</c></rc>
    <rc><c>S </c><c>   4</c></rc>
    <rc><c>S </c><c>   4</c></rc>
    <rc><c>S </c><c>   4</c></rc>
    <rc><c>S </c><c>   4</c></rc>
    <rc><c>S </c><c>   4</c></rc>
    <rc><c>S </c><c>   4</c></rc>
    <rc><c>S </c><c>   4</c></rc>
    <rc><c>S </c><c>   4</c></rc>
    <rc><c>S </c><c>   4</c></rc>
    <rc><c>S </c><c>   4</c></rc>
    <rc><c>S </c><c>   4</c></rc>
   </set>
  </array>
  <array name="atomtypes" >
   <dimension dim="1">type</dimension>
   <field type="int">atomspertype</field>
   <field type="string">element</field>
   <field>mass</field>
   <field>valence</field>
   <field type="string">pseudopotential</field>
   <set>
    <rc><c>   3</c><c>V </c><c>     50.94100000</c><c>      5.00000000</c><c> PAW_PBE V 08Apr2002                    </c></rc>
    <rc><c>   3</c><c>Mo</c><c>     95.94000000</c><c>      6.00000000</c><c> PAW_PBE Mo 08Apr2002                   </c></rc>
    <rc><c>   3</c><c>W </c><c>    183.85000000</c><c>      6.00000000</c><c> PAW_PBE W 08Apr2002                    </c></rc>
    <rc><c>  18</c><c>S </c><c>     32.06600000</c><c>      6.00000000</c><c>  PAW_PBE S 17Jan2003                   </c></rc>
   </set>
  </array>
 </atominfo>
 <structure name="initialpos" >
  <crystal>
   <varray name="basis" >
    <v>       8.66999996       5.03999989       0.00000000 </v>
    <v>      -8.66999982       5.04000013       0.00000000 </v>
    <v>       0.00000000       0.00000000      30.00000000 </v>
   </varray>
   <i name="volume">   2621.80797419 </i>
   <varray name="rec_basis" >
    <v>       0.05767013       0.09920635       0.00000000 </v>
    <v>      -0.05767013       0.09920635       0.00000000 </v>
    <v>       0.00000000       0.00000000       0.03333333 </v>
   </varray>
  </crystal>
  <varray name="positions" >
   <v>       0.66666669       0.00000000       0.00000000 </v>
   <v>       0.66666669       0.66666669       0.00000000 </v>
   <v>       0.33333334       0.00000000       0.00000000 </v>
   <v>       0.00000000       0.00000000       0.00000000 </v>
   <v>       0.33333334       0.66666669       0.00000000 </v>
   <v>       0.66666669       0.33333334       0.00000000 </v>
   <v>       1.00000000       0.33333334       0.00000000 </v>
   <v>       0.00000000       0.66666669       0.00000000 </v>
   <v>       0.33333334       0.33333334       0.00000000 </v>
   <v>       0.11068511       0.22244981       0.95539999 </v>
   <v>       0.22244981       0.11068511       0.04460000 </v>
   <v>       0.11068511       0.55578315       0.95539999 </v>
   <v>       0.22244981       0.44401845       0.04460000 </v>
   <v>       0.11068511       0.88911647       0.95539999 </v>
   <v>       0.22244981       0.77735180       0.04460000 </v>
   <v>       0.44401845       0.22244981       0.95539999 </v>
   <v>       0.55578315       0.11068511       0.04460000 </v>
   <v>       0.44401845       0.55578315       0.95539999 </v>
   <v>       0.55578315       0.44401845       0.04460000 </v>
   <v>       0.44401845       0.88911647       0.95539999 </v>
   <v>       0.55578315       0.77735180       0.04460000 </v>
   <v>       0.77735180       0.22244981       0.95539999 </v>
   <v>       0.88911647       0.11068511       0.04460000 </v>
   <v>       0.77735180       0.55578315       0.95539999 </v>
   <v>       0.88911647       0.44401845       0.04460000 </v>
   <v>       0.77735180       0.88911647       0.95539999 </v>
   <v>       0.88911647       0.77735180       0.04460000 </v>
  </varray>
 </structure>
 <calculation>
  <scstep>
   <time name="dav">   22.01   22.07</time>
   <time name="total">   22.06   22.12</time>
   <energy>
    <i name="alphaZ">     81.65567618 </i>
    <i name="ewald">  41890.25209521 </i>
    <i name="hartreedc"> -47722.90107437 </i>
    <i name="XCdc">   -242.92644665 </i>
    <i name="pawpsdc">   3467.42045192 </i>
    <i name="pawaedc">  -2871.19716117 </i>
    <i name="eentropy">     -0.53657933 </i>
    <i name="bandstr">   -239.03123869 </i>
    <i name="atom">   6761.44252427 </i>
    <i name="e_fr_energy">   1124.17824737 </i>
    <i name="e_wo_entrp">   1124.71482670 </i>
    <i name="e_0_energy">   1124.44653703 </i>
   </energy>
  </scstep>
  <scstep>
   <time name="dav">   28.35   28.42</time>
   <time name="total">   28.35   28.42</time>
   <energy>
    <i name="e_fr_energy">     -5.03113366 </i>
    <i name="e_wo_entrp">     -4.84938678 </i>
    <i name="e_0_energy">     -4.94026022 </i>
   </energy>
  </scstep>
  <scstep>
   <time name="dav">   27.93   28.00</time>
   <time name="total">   27.93   28.00</time>
   <energy>
    <i name="e_fr_energy">   -200.03457493 </i>
    <i name="e_wo_entrp">   -199.76429524 </i>
    <i name="e_0_energy">   -199.89943509 </i>
   </energy>
  </scstep>
  <scstep>
   <time name="dav">   30.94   31.01</time>
   <time name="total">   30.94   31.02</time>
   <energy>
    <i name="e_fr_energy">   -209.10158414 </i>
    <i name="e_wo_entrp">   -208.77646353 </i>
    <i name="e_0_energy">   -208.93902383 </i>
   </energy>
  </scstep>
  <scstep>
   <time name="dav">   28.80   28.87</time>
   <time name="total">   29.27   29.35</time>
   <energy>
    <i name="e_fr_energy">   -209.39239600 </i>
    <i name="e_wo_entrp">   -209.06939761 </i>
    <i name="e_0_energy">   -209.23089680 </i>
   </energy>
  </scstep>
  <scstep>
   <time name="dav">   31.37   31.44</time>
   <time name="total">   31.87   31.95</time>
   <energy>
    <i name="e_fr_energy">   -237.05710823 </i>
    <i name="e_wo_entrp">   -236.75819803 </i>
    <i name="e_0_energy">   -236.90765313 </i>
   </energy>
  </scstep>
  <scstep>
   <time name="dav">   33.21   33.29</time>
   <time name="total">   33.71   33.80</time>
   <energy>
    <i name="e_fr_energy">   -196.39096695 </i>
    <i name="e_wo_entrp">   -196.10458300 </i>
    <i name="e_0_energy">   -196.24777497 </i>
   </energy>
  </scstep>
  <scstep>
   <time name="dav">   30.48   30.56</time>
   <time name="total">   31.00   31.08</time>
   <energy>
    <i name="e_fr_energy">   -189.12201810 </i>
    <i name="e_wo_entrp">   -188.81543519 </i>
    <i name="e_0_energy">   -188.96872665 </i>
   </energy>
  </scstep>
  <scstep>
   <time name="dav">   33.49   33.57</time>
   <time name="total">   34.01   34.10</time>
   <energy>
    <i name="e_fr_energy">   -187.41463095 </i>
    <i name="e_wo_entrp">   -187.10000550 </i>
    <i name="e_0_energy">   -187.25731822 </i>
   </energy>
  </scstep>
  <scstep>
   <time name="dav">   32.91   32.99</time>
   <time name="total">   33.45   33.54</time>
   <energy>
    <i name="e_fr_energy">   -186.97053653 </i>
    <i name="e_wo_entrp">   -186.61553372 </i>
    <i name="e_0_energy">   -186.79303512 </i>
   </energy>
  </scstep>
  <scstep>
   <time name="dav">   30.88   30.95</time>
   <time name="total">   31.41   31.49</time>
   <energy>
    <i name="e_fr_energy">   -186.96724714 </i>
    <i name="e_wo_entrp">   -186.62809212 </i>
    <i name="e_0_energy">   -186.79766963 </i>
   </energy>
  </scstep>
  <scstep>
   <time name="dav">   30.41   30.48</time>
   <time name="total">   30.95   31.03</time>
   <energy>
    <i name="e_fr_energy">   -186.88013280 </i>
    <i name="e_wo_entrp">   -186.54168422 </i>
    <i name="e_0_energy">   -186.71090851 </i>
   </energy>
  </scstep>
  <scstep>
   <time name="dav">   31.87   31.95</time>
   <time name="total">   32.41   32.49</time>
   <energy>
    <i name="e_fr_energy">   -186.86098343 </i>
    <i name="e_wo_entrp">   -186.51547859 </i>
    <i name="e_0_energy">   -186.68823101 </i>
   </energy>
  </scstep>
  <scstep>
   <time name="dav">   32.54   32.62</time>
   <time name="total">   33.07   33.16</time>
   <energy>
    <i name="e_fr_energy">   -186.84918111 </i>
    <i name="e_wo_entrp">   -186.49993650 </i>
    <i name="e_0_energy">   -186.67455881 </i>
   </energy>
  </scstep>
  <scstep>
   <time name="dav">   31.58   31.65</time>
   <time name="total">   32.11   32.20</time>
   <energy>
    <i name="e_fr_energy">   -186.83668369 </i>
    <i name="e_wo_entrp">   -186.48820141 </i>
    <i name="e_0_energy">   -186.66244255 </i>
   </energy>
  </scstep>
  <scstep>
   <time name="dav">   31.51   31.59</time>
   <time name="total">   32.05   32.13</time>
   <energy>
    <i name="e_fr_energy">   -186.83407068 </i>
    <i name="e_wo_entrp">   -186.48879624 </i>
    <i name="e_0_energy">   -186.66143346 </i>
   </energy>
  </scstep>
  <scstep>
   <time name="dav">   31.93   32.01</time>
   <time name="total">   32.47   32.55</time>
   <energy>
    <i name="e_fr_energy">   -186.83451670 </i>
    <i name="e_wo_entrp">   -186.48872191 </i>
    <i name="e_0_energy">   -186.66161930 </i>
   </energy>
  </scstep>
  <scstep>
   <time name="dav">   28.26   28.33</time>
   <time name="total">   28.80   28.87</time>
   <energy>
    <i name="e_fr_energy">   -186.83286565 </i>
    <i name="e_wo_entrp">   -186.48642947 </i>
    <i name="e_0_energy">   -186.65964756 </i>
   </energy>
  </scstep>
  <scstep>
   <time name="dav">   24.64   24.70</time>
   <time name="total">   25.17   25.24</time>
   <energy>
    <i name="e_fr_energy">   -186.83362423 </i>
    <i name="e_wo_entrp">   -186.48763048 </i>
    <i name="e_0_energy">   -186.66062736 </i>
   </energy>
  </scstep>
  <scstep>
   <time name="dav">   26.05   26.12</time>
   <time name="total">   26.59   26.66</time>
   <energy>
    <i name="e_fr_energy">   -186.83470995 </i>
    <i name="e_wo_entrp">   -186.48835035 </i>
    <i name="e_0_energy">   -186.66153015 </i>
   </energy>
  </scstep>
  <scstep>
   <time name="dav">   20.79   20.84</time>
   <time name="total">   21.33   21.39</time>
   <energy>
    <i name="e_fr_energy">   -186.83596250 </i>
    <i name="e_wo_entrp">   -186.48981810 </i>
    <i name="e_0_energy">   -186.66289030 </i>
   </energy>
  </scstep>
  <scstep>
   <time name="dav">   19.37   19.42</time>
   <time name="total">   19.91   19.97</time>
   <energy>
    <i name="e_fr_energy">   -186.83643886 </i>
    <i name="e_wo_entrp">   -186.49034045 </i>
    <i name="e_0_energy">   -186.66338966 </i>
   </energy>
  </scstep>
  <scstep>
   <time name="dav">   18.69   18.73</time>
   <time name="total">   19.22   19.28</time>
   <energy>
    <i name="e_fr_energy">   -186.83699216 </i>
    <i name="e_wo_entrp">   -186.49079109 </i>
    <i name="e_0_energy">   -186.66389162 </i>
   </energy>
  </scstep>
  <scstep>
   <time name="dav">   18.21   18.26</time>
   <time name="total">   18.75   18.80</time>
   <energy>
    <i name="e_fr_energy">   -186.83725648 </i>
    <i name="e_wo_entrp">   -186.49102263 </i>
    <i name="e_0_energy">   -186.66413955 </i>
   </energy>
  </scstep>
  <scstep>
   <time name="dav">   16.65   16.69</time>
   <time name="total">   17.19   17.23</time>
   <energy>
    <i name="e_fr_energy">   -186.83757671 </i>
    <i name="e_wo_entrp">   -186.49134052 </i>
    <i name="e_0_energy">   -186.66445861 </i>
   </energy>
  </scstep>
  <scstep>
   <time name="dav">   19.29   19.33</time>
   <time name="total">   19.82   19.88</time>
   <energy>
    <i name="e_fr_energy">   -186.83784541 </i>
    <i name="e_wo_entrp">   -186.49161804 </i>
    <i name="e_0_energy">   -186.66473172 </i>
   </energy>
  </scstep>
  <scstep>
   <time name="dav">   20.19   20.24</time>
   <time name="total">   20.73   20.78</time>
   <energy>
    <i name="e_fr_energy">   -186.83795627 </i>
    <i name="e_wo_entrp">   -186.49173095 </i>
    <i name="e_0_energy">   -186.66484361 </i>
   </energy>
  </scstep>
  <scstep>
   <time name="dav">   19.67   19.72</time>
   <time name="total">   19.71   19.76</time>
   <energy>
    <i name="alphaZ">     81.65567618 </i>
    <i name="ewald">  41890.25209521 </i>
    <i name="hartreedc"> -47832.78757991 </i>
    <i name="XCdc">   -231.61275865 </i>
    <i name="pawpsdc">   4191.97835244 </i>
    <i name="pawaedc">  -3609.97431491 </i>
    <i name="eentropy">     -0.34621854 </i>
    <i name="bandstr">  -1437.44577988 </i>
    <i name="atom">   6761.44252427 </i>
    <i name="e_fr_energy">   -186.83800379 </i>
    <i name="e_wo_entrp">   -186.49178525 </i>
    <i name="e_0_energy">   -186.66489452 </i>
   </energy>
  </scstep>
  <structure>
   <crystal>
    <varray name="basis" >
     <v>       8.66999996       5.03999989       0.00000000 </v>
     <v>      -8.66999982       5.04000013       0.00000000 </v>
     <v>       0.00000000       0.00000000      30.00000000 </v>
    </varray>
    <i name="volume">   2621.80797419 </i>
    <varray name="rec_basis" >
     <v>       0.05767013       0.09920635       0.00000000 </v>
     <v>      -0.05767013       0.09920635       0.00000000 </v>
     <v>       0.00000000       0.00000000       0.03333333 </v>
    </varray>
   </crystal>
   <varray name="positions" >
    <v>       0.66666669       0.00000000       0.00000000 </v>
    <v>       0.66666669       0.66666669       0.00000000 </v>
    <v>       0.33333334       0.00000000       0.00000000 </v>
    <v>       0.00000000       0.00000000       0.00000000 </v>
    <v>       0.33333334       0.66666669       0.00000000 </v>
    <v>       0.66666669       0.33333334       0.00000000 </v>
    <v>       1.00000000       0.33333334       0.00000000 </v>
    <v>       0.00000000       0.66666669       0.00000000 </v>
    <v>       0.33333334       0.33333334       0.00000000 </v>
    <v>       0.11068511       0.22244981       0.95539999 </v>
    <v>       0.22244981       0.11068511       0.04460000 </v>
    <v>       0.11068511       0.55578315       0.95539999 </v>
    <v>       0.22244981       0.44401845       0.04460000 </v>
    <v>       0.11068511       0.88911647       0.95539999 </v>
    <v>       0.22244981       0.77735180       0.04460000 </v>
    <v>       0.44401845       0.22244981       0.95539999 </v>
    <v>       0.55578315       0.11068511       0.04460000 </v>
    <v>       0.44401845       0.55578315       0.95539999 </v>
    <v>       0.55578315       0.44401845       0.04460000 </v>
    <v>       0.44401845       0.88911647       0.95539999 </v>
    <v>       0.55578315       0.77735180       0.04460000 </v>
    <v>       0.77735180       0.22244981       0.95539999 </v>
    <v>       0.88911647       0.11068511       0.04460000 </v>
    <v>       0.77735180       0.55578315       0.95539999 </v>
    <v>       0.88911647       0.44401845       0.04460000 </v>
    <v>       0.77735180       0.88911647       0.95539999 </v>
    <v>       0.88911647       0.77735180       0.04460000 </v>
   </varray>
  </structure>
  <varray name="forces" >
   <v>      -0.00001430      -0.09479173      -0.00000530 </v>
   <v>      -0.08660170       0.04147570      -0.10209701 </v>
   <v>       0.08659965       0.04147633       0.10208775 </v>
   <v>      -0.02856611      -0.01632742      -0.04067767 </v>
   <v>      -0.00002027       0.03276225      -0.00000751 </v>
   <v>       0.02858628      -0.01635897       0.04067561 </v>
   <v>       0.00000428      -0.08181261      -0.00000186 </v>
   <v>      -0.06510425       0.03684470      -0.12481744 </v>
   <v>       0.06512158       0.03680400       0.12481439 </v>
   <v>       0.03644133       0.12346488      -2.89756046 </v>
   <v>       0.68120868       0.16591832       2.13763635 </v>
   <v>       0.03670045      -0.14466050      -2.91740754 </v>
   <v>      -0.03670809      -0.14466641       2.91741279 </v>
   <v>       0.61440091       0.52812848      -2.14101556 </v>
   <v>      -0.61421485       0.58491338       2.16492017 </v>
   <v>       0.37830517      -0.69589731      -2.14653427 </v>
   <v>       0.30602011      -0.68331628       1.43071104 </v>
   <v>       0.61418866       0.58487619      -2.16495612 </v>
   <v>      -0.61435165       0.52806164       2.14106201 </v>
   <v>      -0.31565066       0.66722986      -1.41989918 </v>
   <v>       0.31556567       0.66721965       1.41994789 </v>
   <v>       0.61440216      -0.53579358      -2.15269251 </v>
   <v>      -0.61442091      -0.53580273       2.15268721 </v>
   <v>      -0.68112292       0.16591307      -2.13766881 </v>
   <v>      -0.03644858       0.12345530       2.89755613 </v>
   <v>      -0.30606745      -0.68326097      -1.43074703 </v>
   <v>      -0.37825319      -0.69585525       2.14657694 </v>
  </varray>
  <varray name="stress" >
   <v>       7.32110774       0.00003110      -1.61850620 </v>
   <v>       0.00003096       4.40612613      -0.00000439 </v>
   <v>      -1.61850640      -0.00000442      30.32010236 </v>
  </varray>
  <energy>
   <i name="e_fr_energy">   -186.83800379 </i>
   <i name="e_wo_entrp">   -186.66489452 </i>
   <i name="e_0_energy">     -0.34621854 </i>
  </energy>
  <time name="totalsc">  806.58  808.74</time>
 </calculation>
 <calculation>
  <scstep>
   <time name="dav">   21.98   22.03</time>
   <time name="total">   22.53   22.59</time>
   <energy>
    <i name="alphaZ">     78.92757213 </i>
    <i name="ewald">  39382.51738217 </i>
    <i name="hartreedc"> -45339.90378049 </i>
    <i name="XCdc">   -239.06736632 </i>
    <i name="pawpsdc">   4191.98220405 </i>
    <i name="pawaedc">  -3609.97827379 </i>
    <i name="eentropy">     -0.29907053 </i>
    <i name="bandstr">  -1413.05679778 </i>
    <i name="atom">   6761.44252427 </i>
    <i name="e_fr_energy">   -187.43560629 </i>
    <i name="e_wo_entrp">   -187.13653575 </i>
    <i name="e_0_energy">   -187.28607102 </i>
   </energy>
  </scstep>
  <scstep>
   <time name="dav">   30.61   30.69</time>
   <time name="total">   31.16   31.24</time>
   <energy>
    <i name="e_fr_energy">   -189.06864726 </i>
    <i name="e_wo_entrp">   -188.75965137 </i>
    <i name="e_0_energy">   -188.91414932 </i>
   </energy>
  </scstep>
  <scstep>
   <time name="dav">   30.86   30.94</time>
   <time name="total">   31.41   31.49</time>
   <energy>
    <i name="e_fr_energy">   -189.38283981 </i>
    <i name="e_wo_entrp">   -189.09267419 </i>
    <i name="e_0_energy">   -189.23775700 </i>
   </energy>
  </scstep>
  <scstep>
   <time name="dav">   31.15   31.23</time>
   <time name="total">   31.70   31.78</time>
   <energy>
    <i name="e_fr_energy">   -188.71430282 </i>
    <i name="e_wo_entrp">   -188.41990883 </i>
    <i name="e_0_energy">   -188.56710582 </i>
   </energy>
  </scstep>
  <scstep>
   <time name="dav">   26.39   26.45</time>
   <time name="total">   26.93   27.00</time>
   <energy>
    <i name="e_fr_energy">   -188.69715332 </i>
    <i name="e_wo_entrp">   -188.39727512 </i>
    <i name="e_0_energy">   -188.54721422 </i>
   </energy>
  </scstep>
  <scstep>
   <time name="dav">   31.50   31.58</time>
   <time name="total">   32.05   32.13</time>
   <energy>
    <i name="e_fr_energy">   -188.71369291 </i>
    <i name="e_wo_entrp">   -188.41207448 </i>
    <i name="e_0_energy">   -188.56288369 </i>
   </energy>
  </scstep>
  <scstep>
   <time name="dav">   30.67   30.75</time>
   <time name="total">   31.22   31.30</time>
   <energy>
    <i name="e_fr_energy">   -188.62706652 </i>
    <i name="e_wo_entrp">   -188.33243655 </i>
    <i name="e_0_energy">   -188.47975153 </i>
   </energy>
  </scstep>
  <scstep>
   <time name="dav">   28.91   28.98</time>
   <time name="total">   29.46   29.54</time>
   <energy>
    <i name="e_fr_energy">   -188.60488075 </i>
    <i name="e_wo_entrp">   -188.30959330 </i>
    <i name="e_0_energy">   -188.45723702 </i>
   </energy>
  </scstep>
  <scstep>
   <time name="dav">   29.83   29.90</time>
   <time name="total">   30.37   30.45</time>
   <energy>
    <i name="e_fr_energy">   -188.60318442 </i>
    <i name="e_wo_entrp">   -188.30763793 </i>
    <i name="e_0_energy">   -188.45541118 </i>
   </energy>
  </scstep>
  <scstep>
   <time name="dav">   31.51   31.58</time>
   <time name="total">   32.06   32.14</time>
   <energy>
    <i name="e_fr_energy">   -188.60269347 </i>
    <i name="e_wo_entrp">   -188.30775078 </i>
    <i name="e_0_energy">   -188.45522212 </i>
   </energy>
  </scstep>
  <scstep>
   <time name="dav">   31.22   31.29</time>
   <time name="total">   31.77   31.85</time>
   <energy>
    <i name="e_fr_energy">   -188.60288999 </i>
    <i name="e_wo_entrp">   -188.30797298 </i>
    <i name="e_0_energy">   -188.45543149 </i>
   </energy>
  </scstep>
  <scstep>
   <time name="dav">   28.76   28.83</time>
   <time name="total">   29.31   29.38</time>
   <energy>
    <i name="e_fr_energy">   -188.60262479 </i>
    <i name="e_wo_entrp">   -188.30769018 </i>
    <i name="e_0_energy">   -188.45515748 </i>
   </energy>
  </scstep>
  <scstep>
   <time name="dav">   21.04   21.09</time>
   <time name="total">   21.08   21.13</time>
   <energy>
    <i name="alphaZ">     78.92757213 </i>
    <i name="ewald">  39382.51738217 </i>
    <i name="hartreedc"> -45350.70772679 </i>
    <i name="XCdc">   -237.98489575 </i>
    <i name="pawpsdc">   3950.08804879 </i>
    <i name="pawaedc">  -3364.58124499 </i>
    <i name="eentropy">     -0.29493639 </i>
    <i name="bandstr">  -1408.00931243 </i>
    <i name="atom">   6761.44252427 </i>
    <i name="e_fr_energy">   -188.60258897 </i>
    <i name="e_wo_entrp">   -188.30765258 </i>
    <i name="e_0_energy">   -188.45512078 </i>
   </energy>
  </scstep>
  <structure>
   <crystal>
    <varray name="basis" >
     <v>       8.85559000       5.10493065       0.00000000 </v>
     <v>      -8.85558895       5.10492931       0.00000000 </v>
     <v>       0.00000000       0.00000000      30.00000000 </v>
    </varray>
    <i name="volume">   2712.42985384 </i>
    <varray name="rec_basis" >
     <v>       0.05646151       0.09794453       0.00000000 </v>
     <v>      -0.05646152       0.09794454       0.00000000 </v>
     <v>       0.00000000       0.00000000       0.03333333 </v>
    </varray>
   </crystal>
   <varray name="positions" >
    <v>       0.66621298      -0.00045363      -0.00000001 </v>
    <v>       0.66662425       0.66710613      -0.00016418 </v>
    <v>       0.33377278      -0.00004243       0.00016417 </v>
    <v>      -0.00015762       0.00000133      -0.00006541 </v>
    <v>       0.33349009       0.66682354      -0.00000001 </v>
    <v>       0.66666792       0.33317552       0.00006541 </v>
    <v>       0.99960846       0.33294178      -0.00000000 </v>
    <v>      -0.00000479       0.66702415      -0.00020072 </v>
    <v>       0.33369067       0.33332831       0.00020071 </v>
    <v>       0.11137740       0.22293932       0.95074046 </v>
    <v>       0.22513912       0.10958396       0.04803751 </v>
    <v>       0.11009487       0.55498870       0.95070854 </v>
    <v>       0.22165531       0.44342821       0.04929146 </v>
    <v>       0.11492208       0.88993472       0.95195705 </v>
    <v>       0.22354035       0.78186002       0.04808138 </v>
    <v>       0.44174041       0.21806675       0.95194817 </v>
    <v>       0.55336421       0.10656338       0.04690071 </v>
    <v>       0.44852643       0.55687359       0.95191855 </v>
    <v>       0.55660122       0.44825497       0.04804302 </v>
    <v>       0.44633361       0.89318800       0.95311667 </v>
    <v>       0.55985441       0.77966714       0.04688340 </v>
    <v>       0.77649687       0.21817615       0.95193827 </v>
    <v>       0.88484271       0.10983019       0.04806171 </v>
    <v>       0.77625086       0.55847220       0.95196243 </v>
    <v>       0.88960591       0.44471071       0.04925953 </v>
    <v>       0.77323020       0.88669792       0.95309922 </v>
    <v>       0.88473376       0.77507381       0.04805188 </v>
   </varray>
  </structure>
  <varray name="forces" >
   <v>      -0.00044821      -0.01668149       0.00000124 </v>
   <v>      -0.00979718       0.02057889      -0.02963498 </v>
   <v>       0.00970348       0.02050355       0.02965855 </v>
   <v>      -0.02699567       0.13611241      -0.00714487 </v>
   <v>      -0.00060177      -0.27952426       0.00000969 </v>
   <v>       0.02768821       0.13496740       0.00721342 </v>
   <v>       0.00004638       0.10006888      -0.00016466 </v>
   <v>       0.07915734      -0.06749201      -0.03759386 </v>
   <v>      -0.07860574      -0.06812230       0.03762153 </v>
   <v>      -0.07354896       0.12306371       0.00004609 </v>
   <v>      -0.00091164       0.11456777       0.03473478 </v>
   <v>      -0.08932572      -0.11830251      -0.04404497 </v>
   <v>       0.08951021      -0.11800993       0.04388831 </v>
   <v>       0.09464283      -0.03996422       0.02178475 </v>
   <v>      -0.09648442      -0.03586437      -0.01696429 </v>
   <v>      -0.09810673      -0.05968565       0.07244659 </v>
   <v>       0.01758816      -0.05409854      -0.03009398 </v>
   <v>       0.09597629      -0.03647666       0.01625348 </v>
   <v>      -0.09418237      -0.04056938      -0.02103593 </v>
   <v>      -0.00050463       0.05291544       0.07000306 </v>
   <v>      -0.00037542       0.05288851      -0.06902344 </v>
   <v>       0.08419667       0.02712502       0.02197593 </v>
   <v>      -0.08400959       0.02689662      -0.02182939 </v>
   <v>       0.00179152       0.11444857      -0.03547354 </v>
   <v>       0.07315599       0.12311355       0.00000303 </v>
   <v>      -0.01788491      -0.05345524       0.02888988 </v>
   <v>       0.09832588      -0.05900377      -0.07152641 </v>
  </varray>
  <varray name="stress" >
   <v>     -19.85655153       0.00033056       0.00547071 </v>
   <v>       0.00033068     -19.45168640       0.00016912 </v>
   <v>       0.00547073       0.00016932      -1.70543706 </v>
  </varray>
  <energy>
   <i name="e_fr_energy">   -188.60258897 </i>
   <i name="e_wo_entrp">   -188.45512078 </i>
   <i name="e_0_energy">     -0.29493639 </i>
  </energy>
  <time name="totalsc">  423.45  424.57</time>
 </calculation>
 <calculation>
  <scstep>
   <time name="dav">   24.45   24.50</time>
   <time name="total">   24.98   25.05</time>
   <energy>
    <i name="alphaZ">     82.35795150 </i>
    <i name="ewald">  41308.76802659 </i>
    <i name="hartreedc"> -47307.44950063 </i>
    <i name="XCdc">   -233.85891376 </i>
    <i name="pawpsdc">   3949.06686047 </i>
    <i name="pawaedc">  -3363.55110019 </i>
    <i name="eentropy">     -0.24447798 </i>
    <i name="bandstr">  -1387.03694963 </i>
    <i name="atom">   6761.44252427 </i>
    <i name="e_fr_energy">   -190.50557936 </i>
    <i name="e_wo_entrp">   -190.26110138 </i>
    <i name="e_0_energy">   -190.38334037 </i>
   </energy>
  </scstep>
  <scstep>
   <time name="dav">   28.03   28.10</time>
   <time name="total">   28.55   28.63</time>
   <energy>
    <i name="e_fr_energy">   -190.56757382 </i>
    <i name="e_wo_entrp">   -190.31482383 </i>
    <i name="e_0_energy">   -190.44119882 </i>
   </energy>
  </scstep>
  <scstep>
   <time name="dav">   30.62   30.69</time>
   <time name="total">   31.15   31.23</time>
   <energy>
    <i name="e_fr_energy">   -189.97155178 </i>
    <i name="e_wo_entrp">   -189.71874713 </i>
    <i name="e_0_energy">   -189.84514945 </i>
   </energy>
  </scstep>
  <scstep>
   <time name="dav">   31.36   31.43</time>
   <time name="total">   31.89   31.98</time>
   <energy>
    <i name="e_fr_energy">   -189.76937746 </i>
    <i name="e_wo_entrp">   -189.51758163 </i>
    <i name="e_0_energy">   -189.64347954 </i>
   </energy>
  </scstep>
  <scstep>
   <time name="dav">   30.42   30.49</time>
   <time name="total">   30.96   31.04</time>
   <energy>
    <i name="e_fr_energy">   -189.70724542 </i>
    <i name="e_wo_entrp">   -189.45915391 </i>
    <i name="e_0_energy">   -189.58319967 </i>
   </energy>
  </scstep>
  <scstep>
   <time name="dav">   30.39   30.47</time>
   <time name="total">   30.93   31.01</time>
   <energy>
    <i name="e_fr_energy">   -189.67207736 </i>
    <i name="e_wo_entrp">   -189.42261103 </i>
    <i name="e_0_energy">   -189.54734419 </i>
   </energy>
  </scstep>
  <scstep>
   <time name="dav">   30.05   30.12</time>
   <time name="total">   30.59   30.67</time>
   <energy>
    <i name="e_fr_energy">   -189.66601185 </i>
    <i name="e_wo_entrp">   -189.41578201 </i>
    <i name="e_0_energy">   -189.54089693 </i>
   </energy>
  </scstep>
  <scstep>
   <time name="dav">   27.67   27.74</time>
   <time name="total">   28.21   28.28</time>
   <energy>
    <i name="e_fr_energy">   -189.66603568 </i>
    <i name="e_wo_entrp">   -189.41618268 </i>
    <i name="e_0_energy">   -189.54110918 </i>
   </energy>
  </scstep>
  <scstep>
   <time name="dav">   26.76   26.83</time>
   <time name="total">   27.30   27.37</time>
   <energy>
    <i name="e_fr_energy">   -189.66647706 </i>
    <i name="e_wo_entrp">   -189.41671346 </i>
    <i name="e_0_energy">   -189.54159526 </i>
   </energy>
  </scstep>
  <scstep>
   <time name="dav">   25.83   25.89</time>
   <time name="total">   26.36   26.44</time>
   <energy>
    <i name="e_fr_energy">   -189.66616316 </i>
    <i name="e_wo_entrp">   -189.41625212 </i>
    <i name="e_0_energy">   -189.54120764 </i>
   </energy>
  </scstep>
  <scstep>
   <time name="dav">   20.16   20.21</time>
   <time name="total">   20.20   20.26</time>
   <energy>
    <i name="alphaZ">     82.35795150 </i>
    <i name="ewald">  41308.76802659 </i>
    <i name="hartreedc"> -47280.87170159 </i>
    <i name="XCdc">   -235.25516758 </i>
    <i name="pawpsdc">   4038.27518837 </i>
    <i name="pawaedc">  -3453.96442430 </i>
    <i name="eentropy">     -0.24986878 </i>
    <i name="bandstr">  -1410.16871536 </i>
    <i name="atom">   6761.44252427 </i>
    <i name="e_fr_energy">   -189.66618689 </i>
    <i name="e_wo_entrp">   -189.41631811 </i>
    <i name="e_0_energy">   -189.54125250 </i>
   </energy>
  </scstep>
  <structure>
   <crystal>
    <varray name="basis" >
     <v>       8.66728393       4.99859437       0.00000000 </v>
     <v>      -8.66727928       4.99858679       0.00000000 </v>
     <v>       0.00000000       0.00000000      30.00000000 </v>
    </varray>
    <i name="volume">   2599.45152895 </i>
    <varray name="rec_basis" >
     <v>       0.05768817       0.10002817       0.00000000 </v>
     <v>      -0.05768826       0.10002822       0.00000000 </v>
     <v>       0.00000000       0.00000000       0.03333333 </v>
    </varray>
   </crystal>
   <varray name="positions" >
    <v>       0.66618464      -0.00048110      -0.00000001 </v>
    <v>       0.66664923       0.66715000      -0.00018105 </v>
    <v>       0.33381644      -0.00001749       0.00018105 </v>
    <v>       0.00004404       0.00025505      -0.00006948 </v>
    <v>       0.33302192       0.66635654      -0.00000001 </v>
    <v>       0.66692040       0.33337459       0.00006952 </v>
    <v>       0.99977590       0.33310913      -0.00000010 </v>
    <v>      -0.00004136       0.66683492      -0.00022212 </v>
    <v>       0.33350091       0.33329015       0.00022213 </v>
    <v>       0.11151233       0.22321611       0.95074048 </v>
    <v>       0.22532989       0.10977649       0.04805728 </v>
    <v>       0.10981084       0.55487695       0.95068347 </v>
    <v>       0.22154422       0.44314449       0.04931644 </v>
    <v>       0.11494650       0.88977660       0.95196945 </v>
    <v>       0.22338731       0.78189307       0.04807172 </v>
    <v>       0.44154596       0.21806152       0.95198942 </v>
    <v>       0.55329068       0.10645592       0.04688358 </v>
    <v>       0.44855796       0.55672002       0.95192780 </v>
    <v>       0.55644253       0.44827793       0.04803104 </v>
    <v>       0.44642164       0.89327701       0.95315652 </v>
    <v>       0.55994251       0.77975597       0.04684411 </v>
    <v>       0.77662343       0.21814033       0.95195078 </v>
    <v>       0.88480669       0.10995619       0.04804928 </v>
    <v>       0.77644404       0.55866192       0.95194223 </v>
    <v>       0.88988240       0.44484611       0.04925953 </v>
    <v>       0.77312353       0.88662575       0.95311567 </v>
    <v>       0.88472987       0.77488029       0.04801116 </v>
   </varray>
  </structure>
  <varray name="forces" >
   <v>      -0.00177713       0.03063643      -0.00004210 </v>
   <v>       0.03718739      -0.00358054      -0.00449709 </v>
   <v>      -0.03807064      -0.00419743       0.00407778 </v>
   <v>      -0.02417251       0.18995608       0.00502951 </v>
   <v>      -0.00252809      -0.38385594      -0.00006060 </v>
   <v>       0.02657704       0.18552320      -0.00509607 </v>
   <v>       0.00014862       0.17331341       0.00047228 </v>
   <v>       0.14017681      -0.10632032      -0.00190602 </v>
   <v>      -0.13764074      -0.11073856       0.00183127 </v>
   <v>      -0.03503830       0.06896739      -0.55795212 </v>
   <v>       0.11527094       0.04568193       0.54606659 </v>
   <v>      -0.04800433      -0.06128749      -0.61631278 </v>
   <v>       0.04796476      -0.06117971       0.61568920 </v>
   <v>       0.09458401       0.10113083      -0.47762339 </v>
   <v>      -0.09604395       0.08637680       0.48143888 </v>
   <v>       0.01861355      -0.11786620      -0.41354412 </v>
   <v>       0.05900756      -0.11448350       0.42419899 </v>
   <v>       0.09511778       0.08481153      -0.48152341 </v>
   <v>      -0.09377253       0.09972273       0.47833974 </v>
   <v>      -0.03624621       0.11022323      -0.37245738 </v>
   <v>       0.03449797       0.11014541       0.37346993 </v>
   <v>       0.08632030      -0.10454535      -0.47603636 </v>
   <v>      -0.08604373      -0.10452649       0.47538077 </v>
   <v>      -0.11360289       0.04577463      -0.54609199 </v>
   <v>       0.03511053       0.06906729       0.55742580 </v>
   <v>      -0.05978293      -0.11255382      -0.42444873 </v>
   <v>      -0.01785328      -0.11619556       0.41417140 </v>
  </varray>
  <varray name="stress" >
   <v>     -10.17412869       0.00258804      -0.00536971 </v>
   <v>       0.00258791      -9.82484499       0.00018667 </v>
   <v>      -0.00536949       0.00018658       6.57204535 </v>
  </varray>
  <energy>
   <i name="e_fr_energy">   -189.66618689 </i>
   <i name="e_wo_entrp">   -189.54125250 </i>
   <i name="e_0_energy">     -0.24986878 </i>
  </energy>
  <time name="totalsc">  353.87  354.80</time>
 </calculation>
 <calculation>
  <scstep>
   <time name="dav">   21.94   22.00</time>
   <time name="total">   22.46   22.52</time>
   <energy>
    <i name="alphaZ">     85.85664507 </i>
    <i name="ewald">  42847.40535528 </i>
    <i name="hartreedc"> -48864.33940192 </i>
    <i name="XCdc">   -232.95894775 </i>
    <i name="pawpsdc">   4038.38018895 </i>
    <i name="pawaedc">  -3454.06839986 </i>
    <i name="eentropy">     -0.19676333 </i>
    <i name="bandstr">  -1372.69327517 </i>
    <i name="atom">   6761.44252427 </i>
    <i name="e_fr_energy">   -191.17207445 </i>
    <i name="e_wo_entrp">   -190.97531112 </i>
    <i name="e_0_energy">   -191.07369279 </i>
   </energy>
  </scstep>
  <scstep>
   <time name="dav">   33.14   33.22</time>
   <time name="total">   33.66   33.75</time>
   <energy>
    <i name="e_fr_energy">   -191.12206212 </i>
    <i name="e_wo_entrp">   -190.91088680 </i>
    <i name="e_0_energy">   -191.01647446 </i>
   </energy>
  </scstep>
  <scstep>
   <time name="dav">   30.42   30.49</time>
   <time name="total">   30.94   31.02</time>
   <energy>
    <i name="e_fr_energy">   -191.02808033 </i>
    <i name="e_wo_entrp">   -190.81609193 </i>
    <i name="e_0_energy">   -190.92208613 </i>
   </energy>
  </scstep>
  <scstep>
   <time name="dav">   32.57   32.65</time>
   <time name="total">   33.10   33.18</time>
   <energy>
    <i name="e_fr_energy">   -190.66130793 </i>
    <i name="e_wo_entrp">   -190.45597916 </i>
    <i name="e_0_energy">   -190.55864355 </i>
   </energy>
  </scstep>
  <scstep>
   <time name="dav">   30.40   30.47</time>
   <time name="total">   30.92   31.00</time>
   <energy>
    <i name="e_fr_energy">   -190.61026754 </i>
    <i name="e_wo_entrp">   -190.40557192 </i>
    <i name="e_0_energy">   -190.50791973 </i>
   </energy>
  </scstep>
  <scstep>
   <time name="dav">   30.62   30.69</time>
   <time name="total">   31.14   31.22</time>
   <energy>
    <i name="e_fr_energy">   -190.56512796 </i>
    <i name="e_wo_entrp">   -190.35880728 </i>
    <i name="e_0_energy">   -190.46196762 </i>
   </energy>
  </scstep>
  <scstep>
   <time name="dav">   30.41   30.49</time>
   <time name="total">   30.93   31.02</time>
   <energy>
    <i name="e_fr_energy">   -190.56113112 </i>
    <i name="e_wo_entrp">   -190.35487286 </i>
    <i name="e_0_energy">   -190.45800199 </i>
   </energy>
  </scstep>
  <scstep>
   <time name="dav">   27.80   27.87</time>
   <time name="total">   28.32   28.39</time>
   <energy>
    <i name="e_fr_energy">   -190.55771897 </i>
    <i name="e_wo_entrp">   -190.35207854 </i>
    <i name="e_0_energy">   -190.45489876 </i>
   </energy>
  </scstep>
  <scstep>
   <time name="dav">   27.38   27.44</time>
   <time name="total">   27.90   27.97</time>
   <energy>
    <i name="e_fr_energy">   -190.55748757 </i>
    <i name="e_wo_entrp">   -190.35189804 </i>
    <i name="e_0_energy">   -190.45469281 </i>
   </energy>
  </scstep>
  <scstep>
   <time name="dav">   28.71   28.78</time>
   <time name="total">   29.23   29.31</time>
   <energy>
    <i name="e_fr_energy">   -190.55751472 </i>
    <i name="e_wo_entrp">   -190.35207451 </i>
    <i name="e_0_energy">   -190.45479461 </i>
   </energy>
  </scstep>
  <scstep>
   <time name="dav">   24.41   24.47</time>
   <time name="total">   24.45   24.52</time>
   <energy>
    <i name="alphaZ">     85.85664507 </i>
    <i name="ewald">  42847.40535528 </i>
    <i name="hartreedc"> -48835.59520504 </i>
    <i name="XCdc">   -234.31544209 </i>
    <i name="pawpsdc">   4061.76157028 </i>
    <i name="pawaedc">  -3477.60686456 </i>
    <i name="eentropy">     -0.20545693 </i>
    <i name="bandstr">  -1399.30054794 </i>
    <i name="atom">   6761.44252427 </i>
    <i name="e_fr_energy">   -190.55742165 </i>
    <i name="e_wo_entrp">   -190.35196472 </i>
    <i name="e_0_energy">   -190.45469319 </i>
   </energy>
  </scstep>
  <structure>
   <crystal>
    <varray name="basis" >
     <v>       8.48386364       4.89871623       0.00000000 </v>
     <v>      -8.48372811       4.89848166       0.00000000 </v>
     <v>       0.00000000       0.00000000      30.00000000 </v>
    </varray>
    <i name="volume">   2493.52281078 </i>
    <varray name="rec_basis" >
     <v>       0.05893447       0.10206919       0.00000000 </v>
     <v>      -0.05893729       0.10207082       0.00000000 </v>
     <v>       0.00000000       0.00000000       0.03333333 </v>
    </varray>
   </crystal>
   <varray name="positions" >
    <v>       0.66648714      -0.00016189      -0.00000013 </v>
    <v>       0.66676877       0.66686452      -0.00016897 </v>
    <v>       0.33352138       0.00010117       0.00016772 </v>
    <v>       0.00128828       0.00166628      -0.00004867 </v>
    <v>       0.33033815       0.66369664      -0.00000019 </v>
    <v>       0.66830673       0.33457158       0.00004845 </v>
    <v>       1.00104837       0.33438023       0.00000143 </v>
    <v>      -0.00021042       0.66547417      -0.00019567 </v>
    <v>       0.33211498       0.33307182       0.00019544 </v>
    <v>       0.11173868       0.22358515       0.94910731 </v>
    <v>       0.22602956       0.10930569       0.04962603 </v>
    <v>       0.10945442       0.55474905       0.94891704 </v>
    <v>       0.22141607       0.44278875       0.05108118 </v>
    <v>       0.11627737       0.89042239       0.95055288 </v>
    <v>       0.22388851       0.78308883       0.04949536 </v>
    <v>       0.44089598       0.21693979       0.95071724 </v>
    <v>       0.55269407       0.10531226       0.04815085 </v>
    <v>       0.44973754       0.55721295       0.95050453 </v>
    <v>       0.55708092       0.44959450       0.04944907 </v>
    <v>       0.44707443       0.89429557       0.95200669 </v>
    <v>       0.56095287       0.78041574       0.04799606 </v>
    <v>       0.77595301       0.21683839       0.95053869 </v>
    <v>       0.88350662       0.10928537       0.04945933 </v>
    <v>       0.77598153       0.55935553       0.95037404 </v>
    <v>       0.89025313       0.44507228       0.05089112 </v>
    <v>       0.77199171       0.88604798       0.95184869 </v>
    <v>       0.88362464       0.77423974       0.04928439 </v>
   </varray>
  </structure>
  <varray name="forces" >
   <v>       0.00121309       0.06889212       0.00009130 </v>
   <v>       0.09607546      -0.02738621       0.05184707 </v>
   <v>      -0.09590092      -0.02721568      -0.05164624 </v>
   <v>      -0.02904581       0.22901816       0.01677587 </v>
   <v>       0.00139594      -0.44668835      -0.00021376 </v>
   <v>       0.02686401       0.23176159      -0.01639175 </v>
   <v>      -0.00008934       0.26642034      -0.00006003 </v>
   <v>       0.21251015      -0.15541620       0.03479047 </v>
   <v>      -0.21377950      -0.15252280      -0.03470199 </v>
   <v>      -0.00795424       0.01666315      -0.40046010 </v>
   <v>       0.04633591       0.02823480       0.41038800 </v>
   <v>      -0.01565629      -0.02924397      -0.49709566 </v>
   <v>       0.01586617      -0.02923332       0.49664712 </v>
   <v>       0.03700468       0.03850702      -0.28969655 </v>
   <v>      -0.01789403       0.02184012       0.31991911 </v>
   <v>       0.02552099      -0.00832999      -0.22195848 </v>
   <v>       0.01688242      -0.00947820       0.32148412 </v>
   <v>       0.01860236       0.02325838      -0.31683858 </v>
   <v>      -0.03782319       0.03953713       0.28676169 </v>
   <v>       0.02360802      -0.01128409      -0.23512609 </v>
   <v>      -0.02191665      -0.01140188       0.23260456 </v>
   <v>       0.03784217      -0.03990345      -0.30304381 </v>
   <v>      -0.03761020      -0.04013439       0.30310869 </v>
   <v>      -0.04747617       0.02846457      -0.40698020 </v>
   <v>       0.00760007       0.01628950       0.39962011 </v>
   <v>      -0.01595692      -0.01068472      -0.31913387 </v>
   <v>      -0.02621817      -0.00996363       0.21930901 </v>
  </varray>
  <varray name="stress" >
   <v>      -5.90663241      -0.00526423      -0.10381826 </v>
   <v>      -0.00526392      -5.93904534      -0.00190746 </v>
   <v>      -0.10381813      -0.00190738       4.57064490 </v>
  </varray>
  <energy>
   <i name="e_fr_energy">   -190.55742165 </i>
   <i name="e_wo_entrp">   -190.45469319 </i>
   <i name="e_0_energy">     -0.20545693 </i>
  </energy>
  <time name="totalsc">  365.24  366.20</time>
 </calculation>
 <calculation>
  <scstep>
   <time name="dav">   21.95   22.00</time>
   <time name="total">   22.46   22.52</time>
   <energy>
    <i name="alphaZ">     90.52410318 </i>
    <i name="ewald">  44822.57541417 </i>
    <i name="hartreedc"> -50869.74848201 </i>
    <i name="XCdc">   -231.62747741 </i>
    <i name="pawpsdc">   4061.69959898 </i>
    <i name="pawaedc">  -3477.54085944 </i>
    <i name="eentropy">     -0.15935851 </i>
    <i name="bandstr">  -1349.18129417 </i>
    <i name="atom">   6761.44252427 </i>
    <i name="e_fr_energy">   -192.01583094 </i>
    <i name="e_wo_entrp">   -191.85647243 </i>
    <i name="e_0_energy">   -191.93615168 </i>
   </energy>
  </scstep>
  <scstep>
   <time name="dav">   32.13   32.20</time>
   <time name="total">   32.64   32.72</time>
   <energy>
    <i name="e_fr_energy">   -191.68749408 </i>
    <i name="e_wo_entrp">   -191.50688541 </i>
    <i name="e_0_energy">   -191.59718974 </i>
   </energy>
  </scstep>
  <scstep>
   <time name="dav">   30.42   30.49</time>
   <time name="total">   30.93   31.01</time>
   <energy>
    <i name="e_fr_energy">   -192.00446308 </i>
    <i name="e_wo_entrp">   -191.82836081 </i>
    <i name="e_0_energy">   -191.91641194 </i>
   </energy>
  </scstep>
  <scstep>
   <time name="dav">   30.95   31.03</time>
   <time name="total">   31.46   31.55</time>
   <energy>
    <i name="e_fr_energy">   -191.34520907 </i>
    <i name="e_wo_entrp">   -191.17262991 </i>
    <i name="e_0_energy">   -191.25891949 </i>
   </energy>
  </scstep>
  <scstep>
   <time name="dav">   30.52   30.59</time>
   <time name="total">   31.02   31.11</time>
   <energy>
    <i name="e_fr_energy">   -191.28925648 </i>
    <i name="e_wo_entrp">   -191.12062452 </i>
    <i name="e_0_energy">   -191.20494050 </i>
   </energy>
  </scstep>
  <scstep>
   <time name="dav">   30.40   30.48</time>
   <time name="total">   30.92   31.00</time>
   <energy>
    <i name="e_fr_energy">   -191.12499064 </i>
    <i name="e_wo_entrp">   -190.95427559 </i>
    <i name="e_0_energy">   -191.03963311 </i>
   </energy>
  </scstep>
  <scstep>
   <time name="dav">   30.46   30.53</time>
   <time name="total">   30.97   31.05</time>
   <energy>
    <i name="e_fr_energy">   -191.12271952 </i>
    <i name="e_wo_entrp">   -190.95193376 </i>
    <i name="e_0_energy">   -191.03732664 </i>
   </energy>
  </scstep>
  <scstep>
   <time name="dav">   28.06   28.13</time>
   <time name="total">   28.57   28.65</time>
   <energy>
    <i name="e_fr_energy">   -191.11955325 </i>
    <i name="e_wo_entrp">   -190.94954874 </i>
    <i name="e_0_energy">   -191.03455099 </i>
   </energy>
  </scstep>
  <scstep>
   <time name="dav">   30.15   30.22</time>
   <time name="total">   30.66   30.74</time>
   <energy>
    <i name="e_fr_energy">   -191.12018792 </i>
    <i name="e_wo_entrp">   -190.95032637 </i>
    <i name="e_0_energy">   -191.03525714 </i>
   </energy>
  </scstep>
  <scstep>
   <time name="dav">   29.12   29.19</time>
   <time name="total">   29.63   29.71</time>
   <energy>
    <i name="e_fr_energy">   -191.11956371 </i>
    <i name="e_wo_entrp">   -190.94987499 </i>
    <i name="e_0_energy">   -191.03471935 </i>
   </energy>
  </scstep>
  <scstep>
   <time name="dav">   27.12   27.18</time>
   <time name="total">   27.15   27.23</time>
   <energy>
    <i name="alphaZ">     90.52410318 </i>
    <i name="ewald">  44822.57541417 </i>
    <i name="hartreedc"> -50832.88409465 </i>
    <i name="XCdc">   -233.32500698 </i>
    <i name="pawpsdc">   4082.41064777 </i>
    <i name="pawaedc">  -3498.29924187 </i>
    <i name="eentropy">     -0.16968012 </i>
    <i name="bandstr">  -1383.39414468 </i>
    <i name="atom">   6761.44252427 </i>
    <i name="e_fr_energy">   -191.11947890 </i>
    <i name="e_wo_entrp">   -190.94979878 </i>
    <i name="e_0_energy">   -191.03463884 </i>
   </energy>
  </scstep>
  <structure>
   <crystal>
    <varray name="basis" >
     <v>       8.26221814       4.77048503       0.00000000 </v>
     <v>      -8.26233782       4.77069238       0.00000000 </v>
     <v>       0.00000000       0.00000000      30.00000000 </v>
    </varray>
    <i name="volume">   2364.95580091 </i>
    <varray name="rec_basis" >
     <v>       0.06051731       0.10480963       0.00000000 </v>
     <v>      -0.06051468       0.10480811       0.00000000 </v>
     <v>       0.00000000       0.00000000       0.03333333 </v>
    </varray>
   </crystal>
   <varray name="positions" >
    <v>       0.66744400       0.00078799       0.00000013 </v>
    <v>       0.66711695       0.66575616       0.00003998 </v>
    <v>       0.33241098       0.00044968      -0.00004121 </v>
    <v>       0.00409418       0.00487901       0.00002685 </v>
    <v>       0.32444986       0.65780262      -0.00000106 </v>
    <v>       0.67152319       0.33739789      -0.00002587 </v>
    <v>       1.00449659       0.33782896       0.00000214 </v>
    <v>      -0.00062485       0.66187052      -0.00003522 </v>
    <v>       0.32852172       0.33267155       0.00003516 </v>
    <v>       0.11185984       0.22374287       0.94677601 </v>
    <v>       0.22682514       0.10886891       0.05193741 </v>
    <v>       0.10912458       0.55456981       0.94619213 </v>
    <v>       0.22123746       0.44245775       0.05380364 </v>
    <v>       0.11764145       0.89112478       0.94872440 </v>
    <v>       0.22444448       0.78406659       0.05143300 </v>
    <v>       0.44080344       0.21607452       0.94918145 </v>
    <v>       0.55244223       0.10457971       0.05001545 </v>
    <v>       0.45072791       0.55777596       0.94857850 </v>
    <v>       0.55778590       0.45096863       0.05126743 </v>
    <v>       0.44737130       0.89449459       0.95049264 </v>
    <v>       0.56115768       0.78070367       0.04950171 </v>
    <v>       0.77525877       0.21548113       0.94866486 </v>
    <v>       0.88214955       0.10858749       0.05133218 </v>
    <v>       0.77554399       0.56015855       0.94807557 </v>
    <v>       0.89040574       0.44519102       0.05321851 </v>
    <v>       0.77125754       0.88578610       0.94999334 </v>
    <v>       0.88274484       0.77413800       0.05081076 </v>
   </varray>
  </structure>
  <varray name="forces" >
   <v>       0.00004701       0.06584339      -0.00006793 </v>
   <v>       0.13054022      -0.02616411       0.02125797 </v>
   <v>      -0.13037956      -0.02599734      -0.01994261 </v>
   <v>      -0.04768822       0.21304423       0.00304229 </v>
   <v>       0.00001885      -0.30257507       0.00083852 </v>
   <v>       0.04759190       0.21242167      -0.00405170 </v>
   <v>       0.00011577       0.24242050      -0.00228620 </v>
   <v>       0.24792565      -0.17427644      -0.01665595 </v>
   <v>      -0.24713898      -0.17474327       0.01668753 </v>
   <v>      -0.04742350      -0.02448927      -0.17613942 </v>
   <v>      -0.03546314       0.05052634       0.09475571 </v>
   <v>      -0.00993624      -0.03665822      -0.24845278 </v>
   <v>       0.01004009      -0.03579204       0.24958544 </v>
   <v>      -0.01711283      -0.07468056       0.03929897 </v>
   <v>       0.06408884      -0.07673420       0.01401208 </v>
   <v>      -0.03858045       0.11125386       0.06655762 </v>
   <v>      -0.03996151       0.08053607      -0.00958855 </v>
   <v>      -0.06385929      -0.07656680      -0.01656029 </v>
   <v>       0.01703398      -0.07405212      -0.03744131 </v>
   <v>       0.06436966      -0.14660325       0.06967407 </v>
   <v>      -0.06445944      -0.14640796      -0.06862053 </v>
   <v>       0.00006582       0.10112989      -0.00781020 </v>
   <v>      -0.00049757       0.10161482       0.00927959 </v>
   <v>       0.03491838       0.04974691      -0.09748563 </v>
   <v>       0.04730955      -0.02405694       0.17791312 </v>
   <v>       0.04010917       0.07981892       0.00748596 </v>
   <v>       0.03832586       0.11144097      -0.06528578 </v>
  </varray>
  <varray name="stress" >
   <v>      -0.42558737       0.00572333       0.08407403 </v>
   <v>       0.00572341      -0.11242827       0.00434733 </v>
   <v>       0.08407421       0.00434753      -0.27090288 </v>
  </varray>
  <energy>
   <i name="e_fr_energy">   -191.11947890 </i>
   <i name="e_wo_entrp">   -191.03463884 </i>
   <i name="e_0_energy">     -0.16968012 </i>
  </energy>
  <time name="totalsc">  368.51  369.48</time>
 </calculation>
 <calculation>
  <scstep>
   <time name="dav">   21.96   22.01</time>
   <time name="total">   22.48   22.54</time>
   <energy>
    <i name="alphaZ">     90.75059049 </i>
    <i name="ewald">  44901.91135605 </i>
    <i name="hartreedc"> -50915.61553477 </i>
    <i name="XCdc">   -233.26397629 </i>
    <i name="pawpsdc">   4082.39273446 </i>
    <i name="pawaedc">  -3498.27755865 </i>
    <i name="eentropy">     -0.17345836 </i>
    <i name="bandstr">  -1380.32974104 </i>
    <i name="atom">   6761.44252427 </i>
    <i name="e_fr_energy">   -191.16306384 </i>
    <i name="e_wo_entrp">   -190.98960548 </i>
    <i name="e_0_energy">   -191.07633466 </i>
   </energy>
  </scstep>
  <scstep>
   <time name="dav">   33.09   33.17</time>
   <time name="total">   33.61   33.70</time>
   <energy>
    <i name="e_fr_energy">   -191.19799936 </i>
    <i name="e_wo_entrp">   -191.02531308 </i>
    <i name="e_0_energy">   -191.11165622 </i>
   </energy>
  </scstep>
  <scstep>
   <time name="dav">   30.69   30.77</time>
   <time name="total">   31.20   31.29</time>
   <energy>
    <i name="e_fr_energy">   -191.16970138 </i>
    <i name="e_wo_entrp">   -190.99555166 </i>
    <i name="e_0_energy">   -191.08262652 </i>
   </energy>
  </scstep>
  <scstep>
   <time name="dav">   27.56   27.62</time>
   <time name="total">   28.07   28.14</time>
   <energy>
    <i name="e_fr_energy">   -191.16774509 </i>
    <i name="e_wo_entrp">   -190.99345857 </i>
    <i name="e_0_energy">   -191.08060183 </i>
   </energy>
  </scstep>
  <scstep>
   <time name="dav">   29.26   29.33</time>
   <time name="total">   29.77   29.85</time>
   <energy>
    <i name="e_fr_energy">   -191.16700323 </i>
    <i name="e_wo_entrp">   -190.99367572 </i>
    <i name="e_0_energy">   -191.08033948 </i>
   </energy>
  </scstep>
  <scstep>
   <time name="dav">   29.42   29.49</time>
   <time name="total">   29.93   30.01</time>
   <energy>
    <i name="e_fr_energy">   -191.16594363 </i>
    <i name="e_wo_entrp">   -190.99210386 </i>
    <i name="e_0_energy">   -191.07902374 </i>
   </energy>
  </scstep>
  <scstep>
   <time name="dav">   26.55   26.62</time>
   <time name="total">   27.07   27.14</time>
   <energy>
    <i name="e_fr_energy">   -191.16578044 </i>
    <i name="e_wo_entrp">   -190.99177608 </i>
    <i name="e_0_energy">   -191.07877826 </i>
   </energy>
  </scstep>
  <scstep>
   <time name="dav">   19.84   19.89</time>
   <time name="total">   19.87   19.93</time>
   <energy>
    <i name="alphaZ">     90.75059049 </i>
    <i name="ewald">  44901.91135605 </i>
    <i name="hartreedc"> -50914.64092928 </i>
    <i name="XCdc">   -233.33562618 </i>
    <i name="pawpsdc">   4080.66068483 </i>
    <i name="pawaedc">  -3496.50399481 </i>
    <i name="eentropy">     -0.17389228 </i>
    <i name="bandstr">  -1381.27644883 </i>
    <i name="atom">   6761.44252427 </i>
    <i name="e_fr_energy">   -191.16573573 </i>
    <i name="e_wo_entrp">   -190.99184345 </i>
    <i name="e_0_energy">   -191.07878959 </i>
   </energy>
  </scstep>
  <structure>
   <crystal>
    <varray name="basis" >
     <v>       8.24837530       4.76673365       0.00000000 </v>
     <v>      -8.24834906       4.76668847       0.00000000 </v>
     <v>       0.00000000       0.00000000      30.00000000 </v>
    </varray>
    <i name="volume">   2359.05355316 </i>
    <varray name="rec_basis" >
     <v>       0.06061781       0.10489396       0.00000000 </v>
     <v>      -0.06061838       0.10489429       0.00000000 </v>
     <v>       0.00000000       0.00000000       0.03333333 </v>
    </varray>
   </crystal>
   <varray name="positions" >
    <v>       0.66782515       0.00116884       0.00000002 </v>
    <v>       0.66738906       0.66518116       0.00008227 </v>
    <v>       0.33183717       0.00072216      -0.00008130 </v>
    <v>       0.00516916       0.00625882       0.00003445 </v>
    <v>       0.32265491       0.65600768       0.00000033 </v>
    <v>       0.67289924       0.33846988      -0.00003515 </v>
    <v>       1.00589337       0.33922501      -0.00000168 </v>
    <v>      -0.00080307       0.66007067      -0.00005806 </v>
    <v>       0.32672174       0.33248823       0.00005805 </v>
    <v>       0.11158738       0.22376093       0.94639274 </v>
    <v>       0.22701143       0.10922360       0.05218135 </v>
    <v>       0.10889216       0.55440148       0.94567458 </v>
    <v>       0.22107405       0.44222959       0.05432302 </v>
    <v>       0.11724645       0.89081187       0.94872164 </v>
    <v>       0.22425874       0.78350390       0.05152891 </v>
    <v>       0.44126988       0.21674579       0.94923408 </v>
    <v>       0.55273467       0.10509779       0.05006766 </v>
    <v>       0.45016698       0.55759051       0.94847862 </v>
    <v>       0.55747609       0.45057736       0.05127306 </v>
    <v>       0.44680436       0.89353457       0.95055271 </v>
    <v>       0.56019849       0.78013786       0.04944321 </v>
    <v>       0.77576554       0.21596476       0.94858129 </v>
    <v>       0.88263447       0.10909807       0.05141818 </v>
    <v>       0.77589294       0.56034253       0.94782739 </v>
    <v>       0.89042564       0.44492114       0.05360466 </v>
    <v>       0.77177236       0.88607420       0.94993786 </v>
    <v>       0.88341610       0.77460605       0.05076003 </v>
   </varray>
  </structure>
  <varray name="forces" >
   <v>      -0.00041587       0.03717604       0.00002098 </v>
   <v>       0.11714835      -0.01117005       0.02665300 </v>
   <v>      -0.11786961      -0.01107074      -0.02695696 </v>
   <v>      -0.08160274       0.24188465       0.00389838 </v>
   <v>      -0.00058981      -0.29244212      -0.00017669 </v>
   <v>       0.08202959       0.24079077      -0.00329227 </v>
   <v>      -0.00002544       0.20779884       0.00124557 </v>
   <v>       0.25045553      -0.19589996       0.01388865 </v>
   <v>      -0.24932641      -0.19631394      -0.01361538 </v>
   <v>      -0.04625938      -0.00486620      -0.13600088 </v>
   <v>      -0.02354767       0.04247820       0.07968588 </v>
   <v>      -0.00089888      -0.03068989      -0.19934516 </v>
   <v>       0.00081120      -0.03126948       0.19856140 </v>
   <v>      -0.00209308      -0.06250511       0.06771588 </v>
   <v>       0.03488651      -0.06423344      -0.01717250 </v>
   <v>      -0.04655400       0.08341694       0.11057850 </v>
   <v>      -0.03761825       0.05135552      -0.04684601 </v>
   <v>      -0.03507529      -0.06439714       0.01651147 </v>
   <v>       0.00225768      -0.06287313      -0.06636343 </v>
   <v>       0.03902421      -0.10804834       0.10659614 </v>
   <v>      -0.03939090      -0.10808595      -0.10545672 </v>
   <v>       0.00715003       0.08281087       0.00800357 </v>
   <v>      -0.00722481       0.08303836      -0.00864559 </v>
   <v>       0.02369117       0.04265423      -0.08092282 </v>
   <v>       0.04661009      -0.00495046       0.13514804 </v>
   <v>       0.03753780       0.05142570       0.04591573 </v>
   <v>       0.04688998       0.08398581      -0.10962877 </v>
  </varray>
  <varray name="stress" >
   <v>      -0.08226291      -0.00044956       0.05420619 </v>
   <v>      -0.00044940       0.04009574      -0.00033595 </v>
   <v>       0.05420603      -0.00033597      -1.08439192 </v>
  </varray>
  <energy>
   <i name="e_fr_energy">   -191.16573573 </i>
   <i name="e_wo_entrp">   -191.07878959 </i>
   <i name="e_0_energy">     -0.17389228 </i>
  </energy>
  <time name="totalsc">  264.27  264.97</time>
 </calculation>
 <calculation>
  <scstep>
   <time name="dav">   21.93   21.98</time>
   <time name="total">   22.44   22.50</time>
   <energy>
    <i name="alphaZ">     90.79406687 </i>
    <i name="ewald">  44913.37031329 </i>
    <i name="hartreedc"> -50926.79247433 </i>
    <i name="XCdc">   -233.33654691 </i>
    <i name="pawpsdc">   4080.70817729 </i>
    <i name="pawaedc">  -3496.55193448 </i>
    <i name="eentropy">     -0.18159691 </i>
    <i name="bandstr">  -1380.66390670 </i>
    <i name="atom">   6761.44252427 </i>
    <i name="e_fr_energy">   -191.21137760 </i>
    <i name="e_wo_entrp">   -191.02978069 </i>
    <i name="e_0_energy">   -191.12057914 </i>
   </energy>
  </scstep>
  <scstep>
   <time name="dav">   33.47   33.55</time>
   <time name="total">   33.98   34.07</time>
   <energy>
    <i name="e_fr_energy">   -191.26762556 </i>
    <i name="e_wo_entrp">   -191.08676898 </i>
    <i name="e_0_energy">   -191.17719727 </i>
   </energy>
  </scstep>
  <scstep>
   <time name="dav">   31.31   31.38</time>
   <time name="total">   31.82   31.90</time>
   <energy>
    <i name="e_fr_energy">   -191.21767353 </i>
    <i name="e_wo_entrp">   -191.03577455 </i>
    <i name="e_0_energy">   -191.12672404 </i>
   </energy>
  </scstep>
  <scstep>
   <time name="dav">   28.21   28.28</time>
   <time name="total">   28.72   28.80</time>
   <energy>
    <i name="e_fr_energy">   -191.21682048 </i>
    <i name="e_wo_entrp">   -191.03456306 </i>
    <i name="e_0_energy">   -191.12569177 </i>
   </energy>
  </scstep>
  <scstep>
   <time name="dav">   30.47   30.55</time>
   <time name="total">   30.99   31.07</time>
   <energy>
    <i name="e_fr_energy">   -191.21629592 </i>
    <i name="e_wo_entrp">   -191.03492730 </i>
    <i name="e_0_energy">   -191.12561161 </i>
   </energy>
  </scstep>
  <scstep>
   <time name="dav">   29.35   29.42</time>
   <time name="total">   29.86   29.94</time>
   <energy>
    <i name="e_fr_energy">   -191.21528105 </i>
    <i name="e_wo_entrp">   -191.03347634 </i>
    <i name="e_0_energy">   -191.12437870 </i>
   </energy>
  </scstep>
  <scstep>
   <time name="dav">   26.48   26.54</time>
   <time name="total">   26.51   26.58</time>
   <energy>
    <i name="alphaZ">     90.79406687 </i>
    <i name="ewald">  44913.37031329 </i>
    <i name="hartreedc"> -50927.04724634 </i>
    <i name="XCdc">   -233.34390394 </i>
    <i name="pawpsdc">   4081.40692575 </i>
    <i name="pawaedc">  -3497.25225915 </i>
    <i name="eentropy">     -0.18193945 </i>
    <i name="bandstr">  -1380.40367313 </i>
    <i name="atom">   6761.44252427 </i>
    <i name="e_fr_energy">   -191.21519183 </i>
    <i name="e_wo_entrp">   -191.03325238 </i>
    <i name="e_0_energy">   -191.12422210 </i>
   </energy>
  </scstep>
  <structure>
   <crystal>
    <varray name="basis" >
     <v>       8.24459670       4.76661831       0.00000000 </v>
     <v>      -8.24458468       4.76659773       0.00000000 </v>
     <v>       0.00000000       0.00000000      30.00000000 </v>
    </varray>
    <i name="volume">   2357.92392956 </i>
    <varray name="rec_basis" >
     <v>       0.06064569       0.10489632       0.00000000 </v>
     <v>      -0.06064596       0.10489647       0.00000000 </v>
[...]
      <set comment="kpoint 31">
       <r>  -17.5411    1.0000 </r>
       <r>  -17.2549    1.0000 </r>
       <r>  -16.8913    1.0000 </r>
       <r>  -16.5784    1.0000 </r>
       <r>  -16.4802    1.0000 </r>
       <r>  -16.4362    1.0000 </r>
       <r>  -16.2559    1.0000 </r>
       <r>  -16.2352    1.0000 </r>
       <r>  -16.1147    1.0000 </r>
       <r>  -16.0234    1.0000 </r>
       <r>  -15.9378    1.0000 </r>
       <r>  -15.8932    1.0000 </r>
       <r>  -15.7317    1.0000 </r>
       <r>  -15.6956    1.0000 </r>
       <r>  -15.6580    1.0000 </r>
       <r>  -15.4747    1.0000 </r>
       <r>  -15.3970    1.0000 </r>
       <r>  -15.2831    1.0000 </r>
       <r>   -9.7738    1.0000 </r>
       <r>   -9.4689    1.0000 </r>
       <r>   -9.3304    1.0000 </r>
       <r>   -9.0701    1.0000 </r>
       <r>   -8.8177    1.0000 </r>
       <r>   -8.7137    1.0000 </r>
       <r>   -8.5219    1.0000 </r>
       <r>   -8.4554    1.0000 </r>
       <r>   -8.3734    1.0000 </r>
       <r>   -8.3120    1.0000 </r>
       <r>   -8.2474    1.0000 </r>
       <r>   -8.1988    1.0000 </r>
       <r>   -8.1253    1.0000 </r>
       <r>   -8.0389    1.0000 </r>
       <r>   -7.9727    1.0000 </r>
       <r>   -7.8825    1.0000 </r>
       <r>   -7.8025    1.0000 </r>
       <r>   -7.6490    1.0000 </r>
       <r>   -7.5705    1.0000 </r>
       <r>   -7.4289    1.0000 </r>
       <r>   -7.3030    1.0000 </r>
       <r>   -7.1849    1.0000 </r>
       <r>   -7.1412    1.0000 </r>
       <r>   -7.0484    1.0000 </r>
       <r>   -7.0260    1.0000 </r>
       <r>   -6.9278    1.0000 </r>
       <r>   -6.8340    1.0000 </r>
       <r>   -6.7818    1.0000 </r>
       <r>   -6.7128    1.0000 </r>
       <r>   -6.6436    1.0000 </r>
       <r>   -6.5645    1.0000 </r>
       <r>   -6.4920    1.0000 </r>
       <r>   -6.4239    1.0000 </r>
       <r>   -6.3325    1.0000 </r>
       <r>   -6.3011    1.0000 </r>
       <r>   -6.1848    1.0000 </r>
       <r>   -6.0690    1.0000 </r>
       <r>   -6.0455    1.0000 </r>
       <r>   -5.9422    1.0000 </r>
       <r>   -5.9095    1.0000 </r>
       <r>   -5.8384    1.0000 </r>
       <r>   -5.7994    1.0000 </r>
       <r>   -5.7236    1.0000 </r>
       <r>   -5.6705    1.0000 </r>
       <r>   -5.5179    1.0000 </r>
       <r>   -5.4388    1.0000 </r>
       <r>   -5.2644    1.0000 </r>
       <r>   -5.1089    1.0000 </r>
       <r>   -5.0441    1.0000 </r>
       <r>   -4.9143    1.0000 </r>
       <r>   -4.7684    1.0000 </r>
       <r>   -4.6778    1.0000 </r>
       <r>   -4.4365    1.0000 </r>
       <r>   -4.3359    1.0000 </r>
       <r>   -4.2896    1.0000 </r>
       <r>   -4.2224    1.0000 </r>
       <r>   -3.8511    1.0000 </r>
       <r>   -3.7537    0.9998 </r>
       <r>   -3.7244    0.9996 </r>
       <r>   -3.5706    0.9893 </r>
       <r>   -3.4088    0.8762 </r>
       <r>   -3.3166    0.6931 </r>
       <r>   -3.0139    0.0509 </r>
       <r>   -2.7574    0.0003 </r>
       <r>   -2.7272    0.0001 </r>
       <r>   -2.5335    0.0000 </r>
       <r>   -2.4863    0.0000 </r>
       <r>   -2.4077    0.0000 </r>
       <r>   -2.2999    0.0000 </r>
       <r>   -2.2094    0.0000 </r>
       <r>   -2.0387    0.0000 </r>
       <r>   -2.0155    0.0000 </r>
       <r>   -1.8759    0.0000 </r>
       <r>   -1.8109    0.0000 </r>
       <r>   -1.4001    0.0000 </r>
       <r>   -1.3071    0.0000 </r>
       <r>   -1.2757    0.0000 </r>
       <r>   -1.1269    0.0000 </r>
       <r>   -1.0359    0.0000 </r>
       <r>   -0.9263    0.0000 </r>
       <r>   -0.8666    0.0000 </r>
       <r>   -0.8001    0.0000 </r>
       <r>   -0.7448    0.0000 </r>
       <r>   -0.6960    0.0000 </r>
       <r>   -0.6036    0.0000 </r>
       <r>   -0.5659    0.0000 </r>
       <r>   -0.3412    0.0000 </r>
       <r>   -0.2526    0.0000 </r>
       <r>   -0.1652    0.0000 </r>
       <r>   -0.0873    0.0000 </r>
       <r>    0.0807    0.0000 </r>
       <r>    0.2596    0.0000 </r>
       <r>    0.4458    0.0000 </r>
       <r>    0.6097    0.0000 </r>
       <r>    0.6369    0.0000 </r>
       <r>    1.0688    0.0000 </r>
       <r>    1.1719    0.0000 </r>
       <r>    1.3453    0.0000 </r>
       <r>    1.5552    0.0000 </r>
       <r>    2.1476    0.0000 </r>
       <r>    2.3014    0.0000 </r>
       <r>    2.4064    0.0000 </r>
      </set>
      <set comment="kpoint 32">
       <r>  -17.5376    1.0000 </r>
       <r>  -17.2204    1.0000 </r>
       <r>  -16.9835    1.0000 </r>
       <r>  -16.5716    1.0000 </r>
       <r>  -16.4575    1.0000 </r>
       <r>  -16.3386    1.0000 </r>
       <r>  -16.2627    1.0000 </r>
       <r>  -16.2146    1.0000 </r>
       <r>  -16.1767    1.0000 </r>
       <r>  -16.0467    1.0000 </r>
       <r>  -15.9601    1.0000 </r>
       <r>  -15.9068    1.0000 </r>
       <r>  -15.7301    1.0000 </r>
       <r>  -15.6928    1.0000 </r>
       <r>  -15.6400    1.0000 </r>
       <r>  -15.4785    1.0000 </r>
       <r>  -15.3835    1.0000 </r>
       <r>  -15.2777    1.0000 </r>
       <r>   -9.7290    1.0000 </r>
       <r>   -9.5629    1.0000 </r>
       <r>   -9.3966    1.0000 </r>
       <r>   -9.0280    1.0000 </r>
       <r>   -8.6687    1.0000 </r>
       <r>   -8.6570    1.0000 </r>
       <r>   -8.5618    1.0000 </r>
       <r>   -8.4278    1.0000 </r>
       <r>   -8.3750    1.0000 </r>
       <r>   -8.3130    1.0000 </r>
       <r>   -8.2757    1.0000 </r>
       <r>   -8.2316    1.0000 </r>
       <r>   -8.1453    1.0000 </r>
       <r>   -8.0686    1.0000 </r>
       <r>   -8.0376    1.0000 </r>
       <r>   -7.9073    1.0000 </r>
       <r>   -7.8148    1.0000 </r>
       <r>   -7.6275    1.0000 </r>
       <r>   -7.4975    1.0000 </r>
       <r>   -7.3791    1.0000 </r>
       <r>   -7.2892    1.0000 </r>
       <r>   -7.2700    1.0000 </r>
       <r>   -7.1536    1.0000 </r>
       <r>   -7.0919    1.0000 </r>
       <r>   -7.0213    1.0000 </r>
       <r>   -6.9739    1.0000 </r>
       <r>   -6.8401    1.0000 </r>
       <r>   -6.7863    1.0000 </r>
       <r>   -6.6819    1.0000 </r>
       <r>   -6.6099    1.0000 </r>
       <r>   -6.5519    1.0000 </r>
       <r>   -6.5321    1.0000 </r>
       <r>   -6.3934    1.0000 </r>
       <r>   -6.3603    1.0000 </r>
       <r>   -6.2973    1.0000 </r>
       <r>   -6.1769    1.0000 </r>
       <r>   -6.1009    1.0000 </r>
       <r>   -5.9721    1.0000 </r>
       <r>   -5.9485    1.0000 </r>
       <r>   -5.9125    1.0000 </r>
       <r>   -5.8261    1.0000 </r>
       <r>   -5.7009    1.0000 </r>
       <r>   -5.6113    1.0000 </r>
       <r>   -5.5549    1.0000 </r>
       <r>   -5.4926    1.0000 </r>
       <r>   -5.4259    1.0000 </r>
       <r>   -5.3397    1.0000 </r>
       <r>   -5.2557    1.0000 </r>
       <r>   -5.0391    1.0000 </r>
       <r>   -4.9956    1.0000 </r>
       <r>   -4.8537    1.0000 </r>
       <r>   -4.6682    1.0000 </r>
       <r>   -4.4951    1.0000 </r>
       <r>   -4.3782    1.0000 </r>
       <r>   -4.2998    1.0000 </r>
       <r>   -4.0914    1.0000 </r>
       <r>   -3.8698    1.0000 </r>
       <r>   -3.7845    0.9999 </r>
       <r>   -3.6764    0.9989 </r>
       <r>   -3.5767    0.9905 </r>
       <r>   -3.3656    0.8027 </r>
       <r>   -3.1913    0.3515 </r>
       <r>   -3.0073    0.0462 </r>
       <r>   -2.8176    0.0012 </r>
       <r>   -2.7679    0.0004 </r>
       <r>   -2.6162    0.0000 </r>
       <r>   -2.5170    0.0000 </r>
       <r>   -2.4466    0.0000 </r>
       <r>   -2.2836    0.0000 </r>
       <r>   -2.2382    0.0000 </r>
       <r>   -2.0210    0.0000 </r>
       <r>   -1.9858    0.0000 </r>
       <r>   -1.9092    0.0000 </r>
       <r>   -1.8311    0.0000 </r>
       <r>   -1.4027    0.0000 </r>
       <r>   -1.2790    0.0000 </r>
       <r>   -1.2420    0.0000 </r>
       <r>   -1.1184    0.0000 </r>
       <r>   -0.9839    0.0000 </r>
       <r>   -0.9155    0.0000 </r>
       <r>   -0.8541    0.0000 </r>
       <r>   -0.8182    0.0000 </r>
       <r>   -0.7020    0.0000 </r>
       <r>   -0.6795    0.0000 </r>
       <r>   -0.5887    0.0000 </r>
       <r>   -0.5729    0.0000 </r>
       <r>   -0.3697    0.0000 </r>
       <r>   -0.1833    0.0000 </r>
       <r>   -0.0925    0.0000 </r>
       <r>   -0.0766    0.0000 </r>
       <r>    0.0596    0.0000 </r>
       <r>    0.1773    0.0000 </r>
       <r>    0.3462    0.0000 </r>
       <r>    0.5395    0.0000 </r>
       <r>    0.6331    0.0000 </r>
       <r>    1.0643    0.0000 </r>
       <r>    1.2258    0.0000 </r>
       <r>    1.3358    0.0000 </r>
       <r>    1.5906    0.0000 </r>
       <r>    2.1191    0.0000 </r>
       <r>    2.2695    0.0000 </r>
       <r>    2.5900    0.0000 </r>
      </set>
      <set comment="kpoint 33">
       <r>  -17.5015    1.0000 </r>
       <r>  -17.3158    1.0000 </r>
       <r>  -16.8707    1.0000 </r>
       <r>  -16.5620    1.0000 </r>
       <r>  -16.4908    1.0000 </r>
       <r>  -16.4280    1.0000 </r>
       <r>  -16.2756    1.0000 </r>
       <r>  -16.2220    1.0000 </r>
       <r>  -16.1583    1.0000 </r>
       <r>  -16.0419    1.0000 </r>
       <r>  -15.9378    1.0000 </r>
       <r>  -15.8454    1.0000 </r>
       <r>  -15.7395    1.0000 </r>
       <r>  -15.6850    1.0000 </r>
       <r>  -15.6466    1.0000 </r>
       <r>  -15.4897    1.0000 </r>
       <r>  -15.3883    1.0000 </r>
       <r>  -15.2775    1.0000 </r>
       <r>   -9.8008    1.0000 </r>
       <r>   -9.4465    1.0000 </r>
       <r>   -9.3620    1.0000 </r>
       <r>   -8.9668    1.0000 </r>
       <r>   -8.7946    1.0000 </r>
       <r>   -8.7304    1.0000 </r>
       <r>   -8.6797    1.0000 </r>
       <r>   -8.5300    1.0000 </r>
       <r>   -8.3997    1.0000 </r>
       <r>   -8.3217    1.0000 </r>
       <r>   -8.2296    1.0000 </r>
       <r>   -8.1467    1.0000 </r>
       <r>   -8.1028    1.0000 </r>
       <r>   -8.0552    1.0000 </r>
       <r>   -7.8862    1.0000 </r>
       <r>   -7.8259    1.0000 </r>
       <r>   -7.7988    1.0000 </r>
       <r>   -7.6362    1.0000 </r>
       <r>   -7.5660    1.0000 </r>
       <r>   -7.4527    1.0000 </r>
       <r>   -7.3354    1.0000 </r>
       <r>   -7.3175    1.0000 </r>
       <r>   -7.0923    1.0000 </r>
       <r>   -7.0171    1.0000 </r>
       <r>   -6.9958    1.0000 </r>
       <r>   -6.9181    1.0000 </r>
       <r>   -6.8779    1.0000 </r>
       <r>   -6.7503    1.0000 </r>
       <r>   -6.7062    1.0000 </r>
       <r>   -6.6195    1.0000 </r>
       <r>   -6.5901    1.0000 </r>
       <r>   -6.5538    1.0000 </r>
       <r>   -6.4228    1.0000 </r>
       <r>   -6.3063    1.0000 </r>
       <r>   -6.2329    1.0000 </r>
       <r>   -6.1493    1.0000 </r>
       <r>   -6.0872    1.0000 </r>
       <r>   -5.9816    1.0000 </r>
       <r>   -5.9352    1.0000 </r>
       <r>   -5.9076    1.0000 </r>
       <r>   -5.8427    1.0000 </r>
       <r>   -5.8124    1.0000 </r>
       <r>   -5.6623    1.0000 </r>
       <r>   -5.5920    1.0000 </r>
       <r>   -5.5450    1.0000 </r>
       <r>   -5.4534    1.0000 </r>
       <r>   -5.3592    1.0000 </r>
       <r>   -5.1346    1.0000 </r>
       <r>   -5.0866    1.0000 </r>
       <r>   -4.9177    1.0000 </r>
       <r>   -4.7439    1.0000 </r>
       <r>   -4.6481    1.0000 </r>
       <r>   -4.5419    1.0000 </r>
       <r>   -4.4537    1.0000 </r>
       <r>   -4.3175    1.0000 </r>
       <r>   -3.9783    1.0000 </r>
       <r>   -3.9251    1.0000 </r>
       <r>   -3.7522    0.9998 </r>
       <r>   -3.6691    0.9986 </r>
       <r>   -3.6149    0.9955 </r>
       <r>   -3.3107    0.6782 </r>
       <r>   -3.1593    0.2717 </r>
       <r>   -3.0189    0.0547 </r>
       <r>   -2.8607    0.0033 </r>
       <r>   -2.8130    0.0011 </r>
       <r>   -2.6817    0.0000 </r>
       <r>   -2.5678    0.0000 </r>
       <r>   -2.4644    0.0000 </r>
       <r>   -2.2770    0.0000 </r>
       <r>   -2.2337    0.0000 </r>
       <r>   -2.0038    0.0000 </r>
       <r>   -1.9536    0.0000 </r>
       <r>   -1.9128    0.0000 </r>
       <r>   -1.8433    0.0000 </r>
       <r>   -1.3974    0.0000 </r>
       <r>   -1.2485    0.0000 </r>
       <r>   -1.2174    0.0000 </r>
       <r>   -1.1063    0.0000 </r>
       <r>   -0.9284    0.0000 </r>
       <r>   -0.9089    0.0000 </r>
       <r>   -0.8639    0.0000 </r>
       <r>   -0.8023    0.0000 </r>
       <r>   -0.6785    0.0000 </r>
       <r>   -0.6473    0.0000 </r>
       <r>   -0.6158    0.0000 </r>
       <r>   -0.5528    0.0000 </r>
       <r>   -0.4846    0.0000 </r>
       <r>   -0.1529    0.0000 </r>
       <r>   -0.1243    0.0000 </r>
       <r>   -0.0584    0.0000 </r>
       <r>    0.0593    0.0000 </r>
       <r>    0.1451    0.0000 </r>
       <r>    0.3849    0.0000 </r>
       <r>    0.4611    0.0000 </r>
       <r>    0.6095    0.0000 </r>
       <r>    1.0584    0.0000 </r>
       <r>    1.3051    0.0000 </r>
       <r>    1.3524    0.0000 </r>
       <r>    1.6421    0.0000 </r>
       <r>    2.1549    0.0000 </r>
       <r>    2.3019    0.0000 </r>
       <r>    2.4176    0.0000 </r>
      </set>
      <set comment="kpoint 34">
       <r>  -17.4380    1.0000 </r>
       <r>  -17.4122    1.0000 </r>
       <r>  -16.7161    1.0000 </r>
       <r>  -16.6292    1.0000 </r>
       <r>  -16.5552    1.0000 </r>
       <r>  -16.4750    1.0000 </r>
       <r>  -16.2440    1.0000 </r>
       <r>  -16.2263    1.0000 </r>
       <r>  -16.1785    1.0000 </r>
       <r>  -16.0271    1.0000 </r>
       <r>  -15.9247    1.0000 </r>
       <r>  -15.7915    1.0000 </r>
       <r>  -15.7356    1.0000 </r>
       <r>  -15.6786    1.0000 </r>
       <r>  -15.6709    1.0000 </r>
       <r>  -15.4959    1.0000 </r>
       <r>  -15.3996    1.0000 </r>
       <r>  -15.2775    1.0000 </r>
       <r>   -9.8381    1.0000 </r>
       <r>   -9.3469    1.0000 </r>
       <r>   -9.3016    1.0000 </r>
       <r>   -8.9338    1.0000 </r>
       <r>   -8.8955    1.0000 </r>
       <r>   -8.8603    1.0000 </r>
       <r>   -8.7476    1.0000 </r>
       <r>   -8.5374    1.0000 </r>
       <r>   -8.4119    1.0000 </r>
       <r>   -8.3216    1.0000 </r>
       <r>   -8.2212    1.0000 </r>
       <r>   -8.1348    1.0000 </r>
       <r>   -8.0674    1.0000 </r>
       <r>   -7.9711    1.0000 </r>
       <r>   -7.8594    1.0000 </r>
       <r>   -7.8207    1.0000 </r>
       <r>   -7.6868    1.0000 </r>
       <r>   -7.6265    1.0000 </r>
       <r>   -7.6056    1.0000 </r>
       <r>   -7.4861    1.0000 </r>
       <r>   -7.4196    1.0000 </r>
       <r>   -7.3593    1.0000 </r>
       <r>   -7.0715    1.0000 </r>
       <r>   -7.0105    1.0000 </r>
       <r>   -6.9474    1.0000 </r>
       <r>   -6.9166    1.0000 </r>
       <r>   -6.7793    1.0000 </r>
       <r>   -6.7670    1.0000 </r>
       <r>   -6.6642    1.0000 </r>
       <r>   -6.5913    1.0000 </r>
       <r>   -6.5658    1.0000 </r>
       <r>   -6.5465    1.0000 </r>
       <r>   -6.5367    1.0000 </r>
       <r>   -6.3586    1.0000 </r>
       <r>   -6.2107    1.0000 </r>
       <r>   -6.1615    1.0000 </r>
       <r>   -6.0751    1.0000 </r>
       <r>   -6.0250    1.0000 </r>
       <r>   -5.9134    1.0000 </r>
       <r>   -5.8928    1.0000 </r>
       <r>   -5.8698    1.0000 </r>
       <r>   -5.8002    1.0000 </r>
       <r>   -5.7237    1.0000 </r>
       <r>   -5.5785    1.0000 </r>
       <r>   -5.5432    1.0000 </r>
       <r>   -5.5263    1.0000 </r>
       <r>   -5.4597    1.0000 </r>
       <r>   -5.0952    1.0000 </r>
       <r>   -4.9337    1.0000 </r>
       <r>   -4.8941    1.0000 </r>
       <r>   -4.7481    1.0000 </r>
       <r>   -4.6395    1.0000 </r>
       <r>   -4.4832    1.0000 </r>
       <r>   -4.4493    1.0000 </r>
       <r>   -4.3772    1.0000 </r>
       <r>   -3.9869    1.0000 </r>
       <r>   -3.9121    1.0000 </r>
       <r>   -3.7660    0.9999 </r>
       <r>   -3.6450    0.9976 </r>
       <r>   -3.6350    0.9971 </r>
       <r>   -3.2599    0.5412 </r>
       <r>   -3.2114    0.4055 </r>
       <r>   -3.0264    0.0608 </r>
       <r>   -2.8495    0.0026 </r>
       <r>   -2.8481    0.0025 </r>
       <r>   -2.6987    0.0001 </r>
       <r>   -2.5949    0.0000 </r>
       <r>   -2.4685    0.0000 </r>
       <r>   -2.2681    0.0000 </r>
       <r>   -2.2298    0.0000 </r>
       <r>   -1.9903    0.0000 </r>
       <r>   -1.9710    0.0000 </r>
       <r>   -1.8802    0.0000 </r>
       <r>   -1.8492    0.0000 </r>
       <r>   -1.3901    0.0000 </r>
       <r>   -1.2286    0.0000 </r>
       <r>   -1.2139    0.0000 </r>
       <r>   -1.1048    0.0000 </r>
       <r>   -0.9282    0.0000 </r>
       <r>   -0.8816    0.0000 </r>
       <r>   -0.8546    0.0000 </r>
       <r>   -0.7764    0.0000 </r>
       <r>   -0.6908    0.0000 </r>
       <r>   -0.6864    0.0000 </r>
       <r>   -0.5860    0.0000 </r>
       <r>   -0.5607    0.0000 </r>
       <r>   -0.5332    0.0000 </r>
       <r>   -0.2071    0.0000 </r>
       <r>   -0.1264    0.0000 </r>
       <r>   -0.0227    0.0000 </r>
       <r>    0.0355    0.0000 </r>
       <r>    0.1792    0.0000 </r>
       <r>    0.3629    0.0000 </r>
       <r>    0.4696    0.0000 </r>
       <r>    0.6044    0.0000 </r>
       <r>    1.0614    0.0000 </r>
       <r>    1.3385    0.0000 </r>
       <r>    1.3649    0.0000 </r>
       <r>    1.6707    0.0000 </r>
       <r>    2.2516    0.0000 </r>
       <r>    2.2587    0.0000 </r>
       <r>    2.3908    0.0000 </r>
      </set>
     </set>
    </set>
   </array>
  </eigenvalues>
  <separator name="orbital magnetization" >
   <v name="MAGDIPOLOUT">      0.00000000      0.00000000      0.00000000</v>
  </separator>
 </calculation>
 <structure name="finalpos" >
  <crystal>
   <varray name="basis" >
    <v>       8.28574450       4.81653248       0.00000000 </v>
    <v>      -8.28504443       4.81532537       0.00000000 </v>
    <v>       0.00000000       0.00000000      30.00000000 </v>
   </varray>
   <i name="volume">   2394.11223794 </i>
   <varray name="rec_basis" >
    <v>       0.06033959       0.10381774       0.00000000 </v>
    <v>      -0.06035472       0.10382652       0.00000000 </v>
    <v>       0.00000000       0.00000000       0.03333333 </v>
   </varray>
  </crystal>
  <varray name="positions" >
   <v>       0.68125678       0.01385608      -0.00003364 </v>
   <v>       0.69656612       0.68169949      -0.00083451 </v>
   <v>       0.34766906       0.02957026       0.00080735 </v>
   <v>       0.00373481      -0.00688957      -0.00018728 </v>
   <v>       0.30133247       0.63465743       0.00000563 </v>
   <v>       0.65982375       0.33688077       0.00020294 </v>
   <v>       1.01541248       0.34888396      -0.00000529 </v>
   <v>      -0.00978182       0.64785444      -0.00014401 </v>
   <v>       0.31389162       0.32305878       0.00019454 </v>
   <v>       0.10468909       0.21834958       0.94670772 </v>
   <v>       0.22649886       0.10881598       0.05367505 </v>
   <v>       0.10351101       0.55016097       0.94328638 </v>
   <v>       0.21663496       0.43676208       0.05672901 </v>
   <v>       0.12354560       0.88916687       0.95079217 </v>
   <v>       0.22379998       0.78317977       0.04836863 </v>
   <v>       0.43878765       0.22186028       0.94731004 </v>
   <v>       0.55542513       0.10957706       0.05076893 </v>
   <v>       0.44989125       0.55705334       0.95173342 </v>
   <v>       0.55560878       0.45686712       0.04910138 </v>
   <v>       0.44458743       0.88929434       0.95576780 </v>
   <v>       0.55606314       0.77797897       0.04429572 </v>
   <v>       0.77613263       0.22070020       0.94939401 </v>
   <v>       0.88724320       0.10952317       0.05064791 </v>
   <v>       0.77567364       0.55993747       0.94640507 </v>
   <v>       0.88495372       0.43805701       0.05321430 </v>
   <v>       0.77659328       0.88898607       0.94907512 </v>
   <v>       0.88866984       0.77237253       0.05272149 </v>
  </varray>
 </structure>
</modeling>
