unknown system                          
           1
     8.855590    5.104931    0.000000
    -8.855589    5.104929    0.000000
     0.000000    0.000000   30.000000
   V    Mo   W    S 
   3   3   3  18
Direct configuration=     1
   0.66666669  0.00000000  0.00000000
   0.66666669  0.66666669  0.00000000
   0.33333334  0.00000000  0.00000000
   0.00000000  0.00000000  0.00000000
   0.33333334  0.66666669  0.00000000
   0.66666669  0.33333334  0.00000000
   1.00000000  0.33333334  0.00000000
   0.00000000  0.66666669  0.00000000
   0.33333334  0.33333334  0.00000000
   0.11068511  0.22244981  0.95539999
   0.22244981  0.11068511  0.04460000
   0.11068511  0.55578315  0.95539999
   0.22244981  0.44401845  0.04460000
   0.11068511  0.88911647  0.95539999
   0.22244981  0.77735180  0.04460000
   0.44401845  0.22244981  0.95539999
   0.55578315  0.11068511  0.04460000
   0.44401845  0.55578315  0.95539999
   0.55578315  0.44401845  0.04460000
   0.44401845  0.88911647  0.95539999
   0.55578315  0.77735180  0.04460000
   0.77735180  0.22244981  0.95539999
   0.88911647  0.11068511  0.04460000
   0.77735180  0.55578315  0.95539999
   0.88911647  0.44401845  0.04460000
   0.77735180  0.88911647  0.95539999
   0.88911647  0.77735180  0.04460000
unknown system                          
           1
     8.667284    4.998594    0.000000
    -8.667279    4.998587    0.000000
     0.000000    0.000000   30.000000
   V    Mo   W    S 
   3   3   3  18
Direct configuration=     2
   0.66621298 -0.00045363 -0.00000001
   0.66662425  0.66710613 -0.00016418
   0.33377278 -0.00004243  0.00016417
  -0.00015762  0.00000133 -0.00006541
   0.33349009  0.66682354 -0.00000001
   0.66666792  0.33317552  0.00006541
   0.99960846  0.33294178 -0.00000000
  -0.00000479  0.66702415 -0.00020072
   0.33369067  0.33332831  0.00020071
   0.11137740  0.22293932  0.95074046
   0.22513912  0.10958396  0.04803751
   0.11009487  0.55498870  0.95070854
   0.22165531  0.44342821  0.04929146
   0.11492208  0.88993472  0.95195705
   0.22354035  0.78186002  0.04808138
   0.44174041  0.21806675  0.95194817
   0.55336421  0.10656338  0.04690071
   0.44852643  0.55687359  0.95191855
   0.55660122  0.44825497  0.04804302
   0.44633361  0.89318800  0.95311667
   0.55985441  0.77966714  0.04688340
   0.77649687  0.21817615  0.95193827
   0.88484271  0.10983019  0.04806171
   0.77625086  0.55847220  0.95196243
   0.88960591  0.44471071  0.04925953
   0.77323020  0.88669792  0.95309922
   0.88473376  0.77507381  0.04805188
unknown system                          
           1
     8.483864    4.898716    0.000000
    -8.483728    4.898482    0.000000
     0.000000    0.000000   30.000000
   V    Mo   W    S 
   3   3   3  18
Direct configuration=     3
   0.66618464 -0.00048110 -0.00000001
   0.66664923  0.66715000 -0.00018105
   0.33381644 -0.00001749  0.00018105
   0.00004404  0.00025505 -0.00006948
   0.33302192  0.66635654 -0.00000001
   0.66692040  0.33337459  0.00006952
   0.99977590  0.33310913 -0.00000010
  -0.00004136  0.66683492 -0.00022212
   0.33350091  0.33329015  0.00022213
   0.11151233  0.22321611  0.95074048
   0.22532989  0.10977649  0.04805728
   0.10981084  0.55487695  0.95068347
   0.22154422  0.44314449  0.04931644
   0.11494650  0.88977660  0.95196945
   0.22338731  0.78189307  0.04807172
   0.44154596  0.21806152  0.95198942
   0.55329068  0.10645592  0.04688358
   0.44855796  0.55672002  0.95192780
   0.55644253  0.44827793  0.04803104
   0.44642164  0.89327701  0.95315652
   0.55994251  0.77975597  0.04684411
   0.77662343  0.21814033  0.95195078
   0.88480669  0.10995619  0.04804928
   0.77644404  0.55866192  0.95194223
   0.88988240  0.44484611  0.04925953
   0.77312353  0.88662575  0.95311567
   0.88472987  0.77488029  0.04801116
unknown system                          
           1
     8.262218    4.770485    0.000000
    -8.262338    4.770692    0.000000
     0.000000    0.000000   30.000000
   V    Mo   W    S 
   3   3   3  18
Direct configuration=     4
   0.66648714 -0.00016189 -0.00000013
   0.66676877  0.66686452 -0.00016897
   0.33352138  0.00010117  0.00016772
   0.00128828  0.00166628 -0.00004867
   0.33033815  0.66369664 -0.00000019
   0.66830673  0.33457158  0.00004845
   1.00104837  0.33438023  0.00000143
  -0.00021042  0.66547417 -0.00019567
   0.33211498  0.33307182  0.00019544
   0.11173868  0.22358515  0.94910731
   0.22602956  0.10930569  0.04962603
   0.10945442  0.55474905  0.94891704
   0.22141607  0.44278875  0.05108118
   0.11627737  0.89042239  0.95055288
   0.22388851  0.78308883  0.04949536
   0.44089598  0.21693979  0.95071724
   0.55269407  0.10531226  0.04815085
   0.44973754  0.55721295  0.95050453
   0.55708092  0.44959450  0.04944907
   0.44707443  0.89429557  0.95200669
   0.56095287  0.78041574  0.04799606
   0.77595301  0.21683839  0.95053869
   0.88350662  0.10928537  0.04945933
   0.77598153  0.55935553  0.95037404
   0.89025313  0.44507228  0.05089112
   0.77199171  0.88604798  0.95184869
   0.88362464  0.77423974  0.04928439
unknown system                          
           1
     8.248375    4.766734    0.000000
    -8.248349    4.766688    0.000000
     0.000000    0.000000   30.000000
   V    Mo   W    S 
   3   3   3  18
Direct configuration=     5
   0.66744400  0.00078799  0.00000013
   0.66711695  0.66575616  0.00003998
   0.33241098  0.00044968 -0.00004121
   0.00409418  0.00487901  0.00002685
   0.32444986  0.65780262 -0.00000106
   0.67152319  0.33739789 -0.00002587
   1.00449659  0.33782896  0.00000214
  -0.00062485  0.66187052 -0.00003522
   0.32852172  0.33267155  0.00003516
   0.11185984  0.22374287  0.94677601
   0.22682514  0.10886891  0.05193741
   0.10912458  0.55456981  0.94619213
   0.22123746  0.44245775  0.05380364
   0.11764145  0.89112478  0.94872440
   0.22444448  0.78406659  0.05143300
   0.44080344  0.21607452  0.94918145
   0.55244223  0.10457971  0.05001545
   0.45072791  0.55777596  0.94857850
   0.55778590  0.45096863  0.05126743
   0.44737130  0.89449459  0.95049264
   0.56115768  0.78070367  0.04950171
   0.77525877  0.21548113  0.94866486
   0.88214955  0.10858749  0.05133218
   0.77554399  0.56015855  0.94807557
   0.89040574  0.44519102  0.05321851
   0.77125754  0.88578610  0.94999334
   0.88274484  0.77413800  0.05081076
unknown system                          
           1
     8.244597    4.766618    0.000000
    -8.244585    4.766598    0.000000
     0.000000    0.000000   30.000000
   V    Mo   W    S 
   3   3   3  18
Direct configuration=     6
   0.66782515  0.00116884  0.00000002
   0.66738906  0.66518116  0.00008227
   0.33183717  0.00072216 -0.00008130
   0.00516916  0.00625882  0.00003445
   0.32265491  0.65600768  0.00000033
   0.67289924  0.33846988 -0.00003515
   1.00589337  0.33922501 -0.00000168
  -0.00080307  0.66007067 -0.00005806
   0.32672174  0.33248823  0.00005805
   0.11158738  0.22376093  0.94639274
   0.22701143  0.10922360  0.05218135
   0.10889216  0.55440148  0.94567458
   0.22107405  0.44222959  0.05432302
   0.11724645  0.89081187  0.94872164
   0.22425874  0.78350390  0.05152891
   0.44126988  0.21674579  0.94923408
   0.55273467  0.10509779  0.05006766
   0.45016698  0.55759051  0.94847862
   0.55747609  0.45057736  0.05127306
   0.44680436  0.89353457  0.95055271
   0.56019849  0.78013786  0.04944321
   0.77576554  0.21596476  0.94858129
   0.88263447  0.10909807  0.05141818
   0.77589294  0.56034253  0.94782739
   0.89042564  0.44492114  0.05360466
   0.77177236  0.88607420  0.94993786
   0.88341610  0.77460605  0.05076003
unknown system                          
           1
     8.248381    4.772473    0.000000
    -8.248369    4.772451    0.000000
     0.000000    0.000000   30.000000
   V    Mo   W    S 
   3   3   3  18
Direct configuration=     7
   0.66808469  0.00143155  0.00000006
   0.66777073  0.66463966  0.00014089
   0.33129353  0.00110726 -0.00014052
   0.00650144  0.00822405  0.00004350
   0.32063347  0.65399079 -0.00000003
   0.67485875  0.33979326 -0.00004294
   1.00732257  0.34065439  0.00000090
  -0.00114844  0.65775392 -0.00002760
   0.32440658  0.33213568  0.00002817
   0.11137491  0.22390685  0.94607552
   0.22721329  0.10959380  0.05237740
   0.10867984  0.55419791  0.94521846
   0.22086638  0.44201381  0.05477749
   0.11683445  0.89041038  0.94884380
   0.22397147  0.78294867  0.05151545
   0.44164936  0.21747540  0.94945004
   0.55293145  0.10558021  0.04998994
   0.44961003  0.55730291  0.94849074
   0.55707283  0.45016238  0.05115371
   0.44623379  0.89265989  0.95076104
   0.55932219  0.77956841  0.04923723
   0.77634001  0.21647745  0.94857619
   0.88314841  0.10967436  0.05142195
   0.77626479  0.56054503  0.94762879
   0.89057233  0.44470678  0.05392008
   0.77225491  0.88627166  0.95001365
   0.88415069  0.77498798  0.05054601
unknown system                          
           1
     8.245768    4.769438    0.000000
    -8.245750    4.769407    0.000000
     0.000000    0.000000   30.000000
   V    Mo   W    S 
   3   3   3  18
Direct configuration=     8
   0.66803943  0.00137003 -0.00000040
   0.66817525  0.66421043  0.00020690
   0.33087002  0.00150552 -0.00020500
   0.00783913  0.01061624  0.00007442
   0.31900710  0.65234973 -0.00000043
   0.67726121  0.34116756 -0.00007628
   1.00828311  0.34161224 -0.00000274
  -0.00160405  0.65534122 -0.00006726
   0.32200724  0.33171094  0.00006582
   0.11109769  0.22413523  0.94575893
   0.22739355  0.10994724  0.05250282
   0.10852533  0.55405454  0.94487914
   0.22072777  0.44186149  0.05511886
   0.11637408  0.88998814  0.94909267
   0.22367451  0.78248475  0.05143353
   0.44195687  0.21822198  0.94978070
   0.55305211  0.10593775  0.04983026
   0.44914673  0.55700550  0.94857393
   0.55665396  0.44971003  0.05090393
   0.44578072  0.89206431  0.95104254
   0.55872784  0.77911438  0.04895433
   0.77679989  0.21683398  0.94861417
   0.88350463  0.11013390  0.05138642
   0.77661665  0.56072610  0.94750514
   0.89079966  0.44442957  0.05423982
   0.77261069  0.88638816  0.95017461
   0.88489334  0.77529349  0.05021308
unknown system                          
           1
     8.241742    4.766093    0.000000
    -8.241440    4.765571    0.000000
     0.000000    0.000000   30.000000
   V    Mo   W    S 
   3   3   3  18
Direct configuration=     9
   0.66810903  0.00144844 -0.00000025
   0.66801815  0.66435193  0.00018216
   0.33100776  0.00135196 -0.00018110
   0.00733914  0.00963203  0.00006154
   0.31952731  0.65287802 -0.00000037
   0.67627080  0.34064733 -0.00006245
   1.00802564  0.34135622 -0.00000097
  -0.00139892  0.65626853 -0.00004583
   0.32292766  0.33189883  0.00004510
   0.11120694  0.22403435  0.94586680
   0.22733491  0.10981584  0.05247385
   0.10857066  0.55410029  0.94497750
   0.22077102  0.44190552  0.05501946
   0.11656511  0.89015163  0.94897048
   0.22379395  0.78264960  0.05148419
   0.44184480  0.21792893  0.94963000
   0.55301662  0.10581830  0.04991014
   0.44930987  0.55712440  0.94852266
   0.55681523  0.44989632  0.05102688
   0.44593271  0.89224393  0.95092167
   0.55890627  0.77926730  0.04907620
   0.77664448  0.21672236  0.94858801
   0.88339326  0.10997860  0.05141130
   0.77648659  0.56066656  0.94753325
   0.89069936  0.44453864  0.05413049
   0.77249258  0.88635553  0.95009408
   0.88460352  0.77518305  0.05036511
unknown system                          
           1
     8.235455    4.763404    0.000000
    -8.235135    4.762851    0.000000
     0.000000    0.000000   30.000000
   V    Mo   W    S 
   3   3   3  18
Direct configuration=    10
   0.66845225  0.00185807 -0.00000133
   0.66789162  0.66452039  0.00014800
   0.33113189  0.00124613 -0.00015338
   0.00683654  0.00828599  0.00004704
   0.31971664  0.65313200  0.00000048
   0.67486918  0.33998200 -0.00004928
   1.00795784  0.34130001  0.00000071
  -0.00102546  0.65738217 -0.00003994
   0.32398695  0.33212502  0.00003887
   0.11126797  0.22386892  0.94599860
   0.22732764  0.10962541  0.05243605
   0.10852862  0.55410083  0.94504219
   0.22077008  0.44186364  0.05495141
   0.11687904  0.89033470  0.94877347
   0.22399249  0.78291027  0.05158159
   0.44166079  0.21750444  0.94939881
   0.55296018  0.10570950  0.05002277
   0.44953102  0.55730531  0.94842018
   0.55697582  0.45016357  0.05123153
   0.44607054  0.89236550  0.95078317
   0.55900644  0.77942659  0.04922422
   0.77658074  0.21669314  0.94858078
   0.88336222  0.10990792  0.05141461
   0.77631612  0.56063654  0.94756854
   0.89053476  0.44460025  0.05399717
   0.77240759  0.88634368  0.94997795
   0.88422494  0.77502244  0.05060571
unknown system                          
           1
     8.220272    4.759840    0.000000
    -8.220009    4.759384    0.000000
     0.000000    0.000000   30.000000
   V    Mo   W    S 
   3   3   3  18
Direct configuration=    11
   0.66895308  0.00241753  0.00000064
   0.66809109  0.66460393  0.00020090
   0.33113240  0.00147395 -0.00020299
   0.00677568  0.00749299  0.00003466
   0.31888420  0.65233588  0.00000114
   0.67403446  0.33978851 -0.00003018
   1.00856465  0.34192648  0.00001100
  -0.00065465  0.65776312 -0.00000138
   0.32432110  0.33237703  0.00000518
   0.11121287  0.22376271  0.94602824
   0.22744223  0.10960196  0.05246638
   0.10833646  0.55400859  0.94489020
   0.22068534  0.44166701  0.05508500
   0.11703459  0.89027121  0.94868246
   0.22399095  0.78282868  0.05161232
   0.44152447  0.21743694  0.94931813
   0.55295445  0.10579327  0.05004156
   0.44939723  0.55727719  0.94841055
   0.55689741  0.45028009  0.05129942
   0.44600566  0.89210235  0.95087732
   0.55871996  0.77938635  0.04912324
   0.77678706  0.21697199  0.94861063
   0.88365025  0.11009642  0.05136560
   0.77633129  0.56071614  0.94757168
   0.89042278  0.44454722  0.05395443
   0.77252717  0.88639190  0.94997481
   0.88419229  0.77489498  0.05066896
unknown system                          
           1
     8.222475    4.761338    0.000000
    -8.222169    4.760808    0.000000
     0.000000    0.000000   30.000000
   V    Mo   W    S 
   3   3   3  18
Direct configuration=    12
   0.67048468  0.00406149 -0.00000756
   0.66925107  0.66456995  0.00027196
   0.33093161  0.00272051 -0.00027094
   0.00744531  0.00701725  0.00000615
   0.31551010  0.64898891 -0.00000488
   0.67351633  0.34022511 -0.00002344
   1.01049954  0.34394164 -0.00001609
  -0.00019326  0.65709525 -0.00003623
   0.32357230  0.33260413  0.00002585
   0.11087894  0.22350537  0.94593928
   0.22771736  0.10976695  0.05260379
   0.10779740  0.55376951  0.94438848
   0.22049329  0.44112572  0.05558453
   0.11706477  0.88987573  0.94858729
   0.22385654  0.78233803  0.05162389
   0.44143112  0.21786414  0.94924412
   0.55294315  0.10619750  0.05001452
   0.44886412  0.55709977  0.94844467
   0.55649800  0.45028577  0.05134697
   0.44561241  0.89107615  0.95127305
   0.55766480  0.77903865  0.04871691
   0.77742022  0.21791631  0.94865516
   0.88462877  0.11069896  0.05130658
   0.77652503  0.56095706  0.94751689
   0.89015675  0.44422646  0.05405459
   0.77300105  0.88645035  0.95004591
   0.88464307  0.77479778  0.05070845
unknown system                          
           1
     8.245360    4.776535    0.000000
    -8.246009    4.777653    0.000000
     0.000000    0.000000   30.000000
   V    Mo   W    S 
   3   3   3  18
Direct configuration=    13
   0.67064255  0.00423700 -0.00000730
   0.66940023  0.66460099  0.00027983
   0.33094041  0.00288485 -0.00027768
   0.00749828  0.00698753  0.00000490
   0.31521313  0.64869872 -0.00000358
   0.67347647  0.34023064 -0.00002047
   1.01063470  0.34408730 -0.00001376
  -0.00015903  0.65701639 -0.00003506
   0.32347751  0.33259699  0.00002767
   0.11084366  0.22348383  0.94592497
   0.22774121  0.10977706  0.05262309
   0.10774416  0.55374170  0.94433053
   0.22046369  0.44106902  0.05563814
   0.11707925  0.88984319  0.94858022
   0.22384525  0.78229628  0.05162034
   0.44141851  0.21790664  0.94923713
   0.55293586  0.10622472  0.05001098
   0.44881652  0.55708292  0.94844832
   0.55646212  0.45029052  0.05135113
   0.44557949  0.89098798  0.95132070
   0.55757061  0.77901273  0.04867056
   0.77747370  0.21799326  0.94865294
   0.88470945  0.11075201  0.05130450
   0.77653905  0.56097755  0.94750106
   0.89013681  0.44419294  0.05406639
   0.77303582  0.88645302  0.95005033
   0.88469505  0.77478867  0.05071401
unknown system                          
           1
     8.243449    4.775502    0.000000
    -8.243553    4.775680    0.000000
     0.000000    0.000000   30.000000
   V    Mo   W    S 
   3   3   3  18
Direct configuration=    14
   0.67223882  0.00566242 -0.00000142
   0.67128235  0.66504842  0.00037187
   0.33144570  0.00474598 -0.00033316
   0.00769477  0.00802155 -0.00000480
   0.31265208  0.64585955 -0.00000198
   0.67477620  0.34090484 -0.00000277
   1.01147437  0.34497467 -0.00000657
  -0.00077172  0.65485809 -0.00007294
   0.32148485  0.33241976  0.00007623
   0.11049844  0.22348322  0.94582818
   0.22774723  0.11006932  0.05275750
   0.10727272  0.55341975  0.94397727
   0.22010139  0.44054138  0.05597946
   0.11678494  0.88940571  0.94878090
   0.22349833  0.78166944  0.05142304
   0.44152458  0.21883344  0.94939922
   0.55312603  0.10654542  0.04985428
   0.44833132  0.55675914  0.94867098
   0.55613659  0.45014551  0.05108474
   0.44538693  0.89020423  0.95192902
   0.55687560  0.77881408  0.04803103
   0.77784246  0.21843422  0.94870727
   0.88518566  0.11114330  0.05123429
   0.77673941  0.56105986  0.94742078
   0.89014934  0.44386867  0.05416325
   0.77328406  0.88651169  0.95023683
   0.88545199  0.77481081  0.05049740
unknown system                          
           1
     8.242517    4.775429    0.000000
    -8.242718    4.775775    0.000000
     0.000000    0.000000   30.000000
   V    Mo   W    S 
   3   3   3  18
Direct configuration=    15
   0.67218580  0.00566449 -0.00000274
   0.67183299  0.66515822  0.00038549
   0.33153431  0.00535179 -0.00036029
   0.00821022  0.00925419 -0.00000291
   0.31254423  0.64584237 -0.00000058
   0.67595470  0.34117405 -0.00000590
   1.01117678  0.34468006 -0.00001105
  -0.00123365  0.65386398 -0.00009570
   0.32039391  0.33174495  0.00009923
   0.11039017  0.22359846  0.94571808
   0.22768939  0.11010288  0.05274667
   0.10726575  0.55333566  0.94394216
   0.21998282  0.44052628  0.05603472
   0.11666159  0.88938739  0.94902915
   0.22337270  0.78155777  0.05126519
   0.44165185  0.21909644  0.94959601
   0.55310937  0.10659604  0.04978806
   0.44822102  0.55663657  0.94876616
   0.55606212  0.44995045  0.05090048
   0.44524331  0.89019039  0.95208496
   0.55682920  0.77867641  0.04791647
   0.77783927  0.21839869  0.94864154
   0.88512978  0.11116861  0.05131389
   0.77677804  0.56101310  0.94734799
   0.89027330  0.44375370  0.05428794
   0.77331618  0.88650476  0.95025186
   0.88579934  0.77498675  0.05036302
unknown system                          
           1
     8.243634    4.775824    0.000000
    -8.243717    4.775965    0.000000
     0.000000    0.000000   30.000000
   V    Mo   W    S 
   3   3   3  18
Direct configuration=    16
   0.67246559  0.00592183 -0.00000301
   0.67220430  0.66525208  0.00040073
   0.33163774  0.00572367 -0.00037310
   0.00826635  0.00946254 -0.00000758
   0.31212376  0.64539086 -0.00000212
   0.67620220  0.34128266 -0.00000396
   1.01128826  0.34479763 -0.00001533
  -0.00137190  0.65348487 -0.00010932
   0.32003008  0.33165310  0.00011003
   0.11032625  0.22359872  0.94570693
   0.22767534  0.11014108  0.05275291
   0.10718498  0.55327233  0.94390177
   0.21991198  0.44043747  0.05608090
   0.11661348  0.88932879  0.94909019
   0.22330820  0.78145220  0.05121274
   0.44167243  0.21924948  0.94963632
   0.55313995  0.10665503  0.04976152
   0.44813832  0.55657657  0.94881540
   0.55601326  0.44991845  0.05083895
   0.44520079  0.89006828  0.95219436
   0.55671807  0.77863253  0.04780766
   0.77789169  0.21846965  0.94864456
   0.88520192  0.11122702  0.05131333
   0.77680243  0.56101229  0.94733975
   0.89027468  0.44369148  0.05430535
   0.77335938  0.88651428  0.95027701
   0.88593494  0.77499959  0.05032388
unknown system                          
           1
     8.237412    4.774148    0.000000
    -8.237095    4.773601    0.000000
     0.000000    0.000000   30.000000
   V    Mo   W    S 
   3   3   3  18
Direct configuration=    17
   0.67216500  0.00566260 -0.00000296
   0.67241150  0.66523673  0.00038901
   0.33166264  0.00595745 -0.00037176
   0.00865221  0.01069328 -0.00000345
   0.31222609  0.64549129 -0.00000172
   0.67743372  0.34163649 -0.00000553
   1.01097913  0.34452064 -0.00000052
  -0.00180917  0.65258270 -0.00012943
   0.31916622  0.33123453  0.00013344
   0.11026090  0.22372146  0.94556291
   0.22763798  0.11017033  0.05281975
   0.10726732  0.55326293  0.94389289
   0.21988853  0.44051736  0.05608169
   0.11643343  0.88928753  0.94922785
   0.22323043  0.78142861  0.05114979
   0.44186280  0.21947964  0.94974997
   0.55315191  0.10668085  0.04975007
   0.44807254  0.55647489  0.94886851
   0.55595549  0.44969966  0.05071121
   0.44510200  0.89013093  0.95221475
   0.55676574  0.77853533  0.04779949
   0.77783400  0.21832918  0.94855977
   0.88504777  0.11116948  0.05139492
   0.77684911  0.56095126  0.94726691
   0.89039429  0.44362306  0.05443956
   0.77338535  0.88654749  0.95027739
   0.88618752  0.77518874  0.05022540
unknown system                          
           1
     8.232770    4.772057    0.000000
    -8.231749    4.770295    0.000000
     0.000000    0.000000   30.000000
   V    Mo   W    S 
   3   3   3  18
Direct configuration=    18
   0.67370286  0.00704467  0.00000032
   0.67265748  0.66551986  0.00040593
   0.33168448  0.00613483 -0.00037672
   0.00780387  0.00708342 -0.00004619
   0.31099718  0.64429539 -0.00000487
   0.67382449  0.34072152  0.00005461
   1.01234831  0.34580344  0.00001442
  -0.00061273  0.65472088 -0.00009781
   0.32109542  0.33224335  0.00011076
   0.11029530  0.22319095  0.94595061
   0.22774205  0.10998725  0.05265742
   0.10686072  0.55316109  0.94382019
   0.21975512  0.44008745  0.05614451
   0.11708535  0.88941815  0.94884046
   0.22344956  0.78143433  0.05125695
   0.44121406  0.21889159  0.94937150
   0.55300776  0.10669494  0.04979458
   0.44816181  0.55673124  0.94877462
   0.55607398  0.45040040  0.05108534
   0.44524430  0.88968461  0.95233111
   0.55632303  0.77868668  0.04768747
   0.77810815  0.21900202  0.94871753
   0.88577045  0.11146879  0.05122662
   0.77664677  0.56114737  0.94742857
   0.88993145  0.44368380  0.05402684
   0.77342252  0.88637251  0.95022743
   0.88562071  0.77460393  0.05059770
unknown system                          
           1
     8.233313    4.776068    0.000000
    -8.232621    4.774872    0.000000
     0.000000    0.000000   30.000000
   V    Mo   W    S 
   3   3   3  18
Direct configuration=    19
   0.67647336  0.00962197 -0.00000672
   0.67284246  0.66618959  0.00041677
   0.33190001  0.00623423 -0.00038876
   0.00568908 -0.00106732 -0.00011545
   0.30927768  0.64266858 -0.00002137
   0.66562021  0.33834367  0.00012022
   1.01485720  0.34827340  0.00000227
   0.00212761  0.65981384 -0.00003749
   0.32585628  0.33456598  0.00002986
   0.11036832  0.22208552  0.94676507
   0.22796148  0.10950238  0.05236310
   0.10615533  0.55299344  0.94372030
   0.21959161  0.43938674  0.05625429
   0.11864781  0.88978504  0.94795721
   0.22404249  0.78160923  0.05149545
   0.43980224  0.21743509  0.94854089
   0.55263843  0.10657679  0.04989962
   0.44838141  0.55732770  0.94857808
   0.55637820  0.45198103  0.05193939
   0.44563797  0.88899306  0.95252434
   0.55558737  0.77911225  0.04752578
   0.77851450  0.22024119  0.94908217
   0.88708792  0.11190957  0.05087324
   0.77617501  0.56147658  0.94776150
   0.88893180  0.44380927  0.05317669
   0.77340014  0.88603051  0.95009523
   0.88426852  0.77331512  0.05144824
unknown system                          
           1
     8.245274    4.784845    0.000000
    -8.245654    4.785496    0.000000
     0.000000    0.000000   30.000000
   V    Mo   W    S 
   3   3   3  18
Direct configuration=    20
   0.67649538  0.00960069 -0.00000393
   0.67305293  0.66639509  0.00040576
   0.33210737  0.00636938 -0.00036349
   0.00503952 -0.00239960 -0.00007079
   0.30957969  0.64290690 -0.00000738
   0.66427832  0.33779827  0.00009218
   1.01495558  0.34837724  0.00001217
   0.00243378  0.66053067 -0.00005496
   0.32653354  0.33493918  0.00006537
   0.11028292  0.22198120  0.94685192
   0.22785326  0.10942371  0.05233641
   0.10617182  0.55307789  0.94371987
   0.21967724  0.43941159  0.05623064
   0.11870922  0.88974760  0.94792957
   0.22415698  0.78169921  0.05146491
   0.43977826  0.21746544  0.94848410
   0.55264193  0.10657583  0.04989799
   0.44845220  0.55741910  0.94861393
   0.55636347  0.45204914  0.05193696
   0.44575156  0.88908616  0.95257558
   0.55568472  0.77920912  0.04746843
   0.77841493  0.22037515  0.94912020
   0.88721970  0.11180617  0.05082779
   0.77609019  0.56135273  0.94780743
   0.88881079  0.44372989  0.05308067
   0.77340926  0.88604344  0.95009128
   0.88426990  0.77324328  0.05148729
unknown system                          
           1
     8.249079    4.783341    0.000000
    -8.248928    4.783077    0.000000
     0.000000    0.000000   30.000000
   V    Mo   W    S 
   3   3   3  18
Direct configuration=    21
   0.67520986  0.00842594 -0.00001341
   0.67410846  0.66677987  0.00030203
   0.33284286  0.00744783 -0.00027787
   0.00474331 -0.00048688  0.00000802
   0.31043737  0.64365962 -0.00000933
   0.66612716  0.33765775 -0.00000929
   1.01399929  0.34752855 -0.00001439
   0.00140132  0.65867248 -0.00013669
   0.32484597  0.33414776  0.00012572
   0.10997677  0.22232727  0.94665072
   0.22742754  0.10947170  0.05246603
   0.10666377  0.55324172  0.94380657
   0.21983867  0.43990477  0.05616781
   0.11803179  0.88945330  0.94844356
   0.22403990  0.78186124  0.05118654
   0.44038982  0.21840887  0.94882019
   0.55279822  0.10667634  0.04984202
   0.44850446  0.55722599  0.94887781
   0.55610291  0.45134499  0.05143035
   0.44579120  0.88970301  0.95269285
   0.55633373  0.77921165  0.04735382
   0.77799392  0.21997058  0.94902709
   0.88676027  0.11135789  0.05093418
   0.77613866  0.56083606  0.94769294
   0.88905073  0.44341953  0.05332320
   0.77349882  0.88622926  0.95014489
   0.88515766  0.77373732  0.05116453
unknown system                          
           1
     8.252194    4.785907    0.000000
    -8.252228    4.785961    0.000000
     0.000000    0.000000   30.000000
   V    Mo   W    S 
   3   3   3  18
Direct configuration=    22
   0.67657285  0.00964677 -0.00000670
   0.67574996  0.66776125  0.00031088
   0.33362555  0.00896036 -0.00026406
   0.00395735 -0.00247879 -0.00003448
   0.30922330  0.64241831  0.00000402
   0.66432555  0.33698003  0.00005835
   1.01479471  0.34830567  0.00000404
   0.00138669  0.65906960 -0.00011278
   0.32511975  0.33412951  0.00013737
   0.10980792  0.22194116  0.94684284
   0.22737445  0.10941651  0.05244914
   0.10642471  0.55302301  0.94369777
   0.21959172  0.43965790  0.05625510
   0.11858863  0.88958477  0.94834934
   0.22410263  0.78183614  0.05109120
   0.43983919  0.21820286  0.94855975
   0.55273683  0.10666563  0.04990052
   0.44851239  0.55726585  0.94896020
   0.55620228  0.45191125  0.05150547
   0.44580529  0.88947074  0.95294516
   0.55612069  0.77922141  0.04710553
   0.77814083  0.22023953  0.94908737
   0.88701883  0.11153021  0.05086547
   0.77607324  0.56080759  0.94769620
   0.88869253  0.44328933  0.05311134
   0.77348083  0.88613916  0.95006633
   0.88494576  0.77321869  0.05141454
unknown system                          
           1
     8.251276    4.785105    0.000000
    -8.251230    4.785021    0.000000
     0.000000    0.000000   30.000000
   V    Mo   W    S 
   3   3   3  18
Direct configuration=    23
   0.67651963  0.00963984 -0.00001355
   0.67666389  0.66818617  0.00026819
   0.33411525  0.00993231 -0.00024725
   0.00401225 -0.00165172 -0.00004736
   0.30902644  0.64223215 -0.00001689
   0.66514920  0.33696809  0.00004358
   1.01458844  0.34814856 -0.00001810
   0.00080386  0.65804856 -0.00015559
   0.32412817  0.33353047  0.00014242
   0.10962977  0.22198251  0.94677289
   0.22722664  0.10942109  0.05251355
   0.10647626  0.55297000  0.94370394
   0.21952171  0.43969644  0.05628793
   0.11846139  0.88955198  0.94854822
   0.22401838  0.78183807  0.05097031
   0.43994272  0.21851352  0.94863278
   0.55279135  0.10670207  0.04991390
   0.44848437  0.55716038  0.94907805
   0.55615081  0.45176665  0.05133158
   0.44573619  0.88956225  0.95305659
   0.55621678  0.77914989  0.04700859
   0.77806981  0.22011295  0.94904431
   0.88687776  0.11145494  0.05092109
   0.77609928  0.56065392  0.94762379
   0.88871962  0.44311654  0.05321110
   0.77351666  0.88619951  0.95004752
   0.88526780  0.77332730  0.05137830
unknown system                          
           1
     8.246282    4.783191    0.000000
    -8.246179    4.783009    0.000000
     0.000000    0.000000   30.000000
   V    Mo   W    S 
   3   3   3  18
Direct configuration=    24
   0.67633934  0.00946178 -0.00001502
   0.67593317  0.66778970  0.00028085
   0.33371722  0.00919559 -0.00026028
   0.00414488 -0.00163590 -0.00004438
   0.30925690  0.64247316 -0.00001998
   0.66512938  0.33710313  0.00003650
   1.01457226  0.34810292 -0.00002361
   0.00109841  0.65844070 -0.00014652
   0.32452508  0.33381977  0.00012640
   0.10975550  0.22204151  0.94677825
   0.22731929  0.10943153  0.05248658
   0.10649838  0.55301997  0.94372557
   0.21958731  0.43972427  0.05627062
   0.11842450  0.88954563  0.94846749
   0.22404515  0.78184286  0.05105132
   0.43996891  0.21838941  0.94864789
   0.55276741  0.10668773  0.04989578
   0.44849260  0.55719779  0.94900449
   0.55615396  0.45173924  0.05141394
   0.44576698  0.88955444  0.95296027