   27   27  100    1
  0.9710400E+02  0.1002848E-08  0.1002848E-08  0.3000000E-08  0.5000000E-15
  1.000000000000000E-004
  CAR 
 unknown system                          
    159     34    120
 
  0.0000000E+00  0.0000000E+00  0.0000000E+00  0.1562500E-01
    1      -17.855542   1.000000
    2      -16.807756   1.000000
    3      -16.704424   1.000000
    4      -16.695524   1.000000
    5      -16.528781   1.000000
    6      -16.494818   1.000000
    7      -16.466472   1.000000
    8      -16.216906   1.000000
    9      -16.137606   1.000000
   10      -16.085405   1.000000
   11      -16.069596   1.000000
   12      -15.966743   1.000000
   13      -15.873228   1.000000
   14      -15.714955   1.000000
   15      -15.579631   1.000000
   16      -15.358230   1.000000
   17      -15.339580   1.000000
   18      -15.169102   1.000000
   19       -9.633938   1.000000
   20       -9.066079   1.000000
   21       -9.022126   1.000000
   22       -8.858031   1.000000
   23       -8.770336   1.000000
   24       -8.677872   1.000000
   25       -8.611086   1.000000
   26       -8.603577   1.000000
   27       -8.543203   1.000000
   28       -8.516036   1.000000
   29       -8.425556   1.000000
   30       -8.419681   1.000000
   31       -8.184483   1.000000
   32       -8.093921   1.000000
   33       -8.007213   1.000000
   34       -7.964593   1.000000
   35       -7.804618   1.000000
   36       -7.757131   1.000000
   37       -7.688841   1.000000
   38       -7.610392   1.000000
   39       -7.501494   1.000000
   40       -7.452152   1.000000
   41       -7.326856   1.000000
   42       -7.259312   1.000000
   43       -7.093162   1.000000
   44       -6.887020   1.000000
   45       -6.857811   1.000000
   46       -6.816318   1.000000
   47       -6.741860   1.000000
   48       -6.645839   1.000000
   49       -6.552441   1.000000
   50       -6.456336   1.000000
   51       -6.403810   1.000000
   52       -6.327449   1.000000
   53       -6.283302   1.000000
   54       -6.267648   1.000000
   55       -6.234253   1.000000
   56       -6.160292   1.000000
   57       -6.036040   1.000000
   58       -6.031648   1.000000
   59       -5.815515   1.000000
   60       -5.536344   1.000000
   61       -5.384634   1.000000
   62       -5.299452   1.000000
   63       -5.241125   1.000000
   64       -5.197464   1.000000
   65       -5.065986   1.000000
   66       -5.010978   1.000000
   67       -4.966145   1.000000
   68       -4.819201   1.000000
   69       -4.789759   1.000000
   70       -4.667137   1.000000
   71       -4.632484   1.000000
   72       -4.587725   1.000000
   73       -4.521297   1.000000
   74       -4.416975   1.000000
   75       -4.058156   1.000000
   76       -3.968162   0.999996
   77       -3.836390   0.999789
   78       -3.561523   0.943255
   79       -3.469502   0.824335
   80       -3.435459   0.755310
   81       -3.182877   0.136818
   82       -2.982417   0.005999
   83       -2.910187   0.001252
   84       -2.760574   0.000022
   85       -2.582041   0.000000
   86       -2.459852   0.000000
   87       -2.391775   0.000000
   88       -2.343707   0.000000
   89       -2.333230   0.000000
   90       -2.220430   0.000000
   91       -1.761971   0.000000
   92       -1.660058   0.000000
   93       -1.256131   0.000000
   94       -1.185795   0.000000
   95       -1.022197   0.000000
   96       -0.994226   0.000000
   97       -0.925270   0.000000
   98       -0.812922   0.000000
   99       -0.803526   0.000000
  100       -0.691030   0.000000
  101       -0.588708   0.000000
  102       -0.482611   0.000000
  103       -0.474217   0.000000
  104       -0.338434   0.000000
  105       -0.160573   0.000000
  106       -0.105547   0.000000
  107       -0.066297   0.000000
  108        0.181190   0.000000
  109        0.200337   0.000000
  110        0.277852   0.000000
  111        0.299739   0.000000
  112        0.529119   0.000000
  113        0.554590   0.000000
  114        0.871372   0.000000
  115        0.948305   0.000000
  116        0.952064   0.000000
  117        1.013178   0.000000
  118        1.624892   0.000000
  119        1.832457   0.000000
  120        2.152085   0.000000
 
  0.1250000E+00  0.2775558E-16  0.0000000E+00  0.3125000E-01
    1      -17.833065   1.000000
    2      -16.823184   1.000000
    3      -16.801196   1.000000
    4      -16.690185   1.000000
    5      -16.552055   1.000000
    6      -16.479256   1.000000
    7      -16.433846   1.000000
    8      -16.252755   1.000000
    9      -16.136416   1.000000
   10      -16.056304   1.000000
   11      -16.000331   1.000000
   12      -15.949810   1.000000
   13      -15.859595   1.000000
   14      -15.710153   1.000000
   15      -15.586839   1.000000
   16      -15.369757   1.000000
   17      -15.347000   1.000000
   18      -15.171804   1.000000
   19       -9.631140   1.000000
   20       -9.187817   1.000000
   21       -9.104900   1.000000
   22       -8.929676   1.000000
   23       -8.803495   1.000000
   24       -8.712670   1.000000
   25       -8.657121   1.000000
   26       -8.570408   1.000000
   27       -8.535376   1.000000
   28       -8.498196   1.000000
   29       -8.395706   1.000000
   30       -8.277203   1.000000
   31       -8.136469   1.000000
   32       -8.048878   1.000000
   33       -7.974871   1.000000
   34       -7.890821   1.000000
   35       -7.822833   1.000000
   36       -7.725606   1.000000
   37       -7.625027   1.000000
   38       -7.572049   1.000000
   39       -7.528941   1.000000
   40       -7.462622   1.000000
   41       -7.300903   1.000000
   42       -7.230816   1.000000
   43       -7.153352   1.000000
   44       -6.938198   1.000000
   45       -6.884888   1.000000
   46       -6.784836   1.000000
   47       -6.721740   1.000000
   48       -6.674136   1.000000
   49       -6.522294   1.000000
   50       -6.427501   1.000000
   51       -6.418091   1.000000
   52       -6.382901   1.000000
   53       -6.301766   1.000000
   54       -6.266119   1.000000
   55       -6.219992   1.000000
   56       -6.125439   1.000000
   57       -6.043840   1.000000
   58       -5.993336   1.000000
   59       -5.781639   1.000000
   60       -5.517327   1.000000
   61       -5.413220   1.000000
   62       -5.397819   1.000000
   63       -5.308389   1.000000
   64       -5.229356   1.000000
   65       -5.082662   1.000000
   66       -5.014074   1.000000
   67       -4.933472   1.000000
   68       -4.861546   1.000000
   69       -4.778529   1.000000
   70       -4.710723   1.000000
   71       -4.651974   1.000000
   72       -4.577980   1.000000
   73       -4.463856   1.000000
   74       -4.294039   1.000000
   75       -4.058183   1.000000
   76       -3.919944   0.999981
   77       -3.854024   0.999869
   78       -3.674458   0.991374
   79       -3.596786   0.966528
   80       -3.402507   0.676630
   81       -3.082480   0.035565
   82       -2.977067   0.005386
   83       -2.861265   0.000377
   84       -2.748089   0.000015
   85       -2.581945   0.000000
   86       -2.443629   0.000000
   87       -2.375297   0.000000
   88       -2.340450   0.000000
   89       -2.320888   0.000000
   90       -2.197551   0.000000
   91       -1.766143   0.000000
   92       -1.655666   0.000000
   93       -1.259493   0.000000
   94       -1.195905   0.000000
   95       -1.024730   0.000000
   96       -0.994542   0.000000
   97       -0.923959   0.000000
   98       -0.827314   0.000000
   99       -0.812393   0.000000
  100       -0.742803   0.000000
  101       -0.630480   0.000000
  102       -0.559447   0.000000
  103       -0.514177   0.000000
  104       -0.379200   0.000000
  105       -0.227309   0.000000
  106       -0.120399   0.000000
  107       -0.081250   0.000000
  108        0.157694   0.000000
  109        0.193306   0.000000
  110        0.262847   0.000000
  111        0.318920   0.000000
  112        0.493089   0.000000
  113        0.570531   0.000000
  114        0.860121   0.000000
  115        0.971310   0.000000
  116        1.013422   0.000000
  117        1.077898   0.000000
  118        1.667333   0.000000
  119        1.872882   0.000000
  120        2.186376   0.000000
 
  0.2500000E+00  0.5551115E-16  0.0000000E+00  0.3125000E-01
    1      -17.768755   1.000000
    2      -17.001286   1.000000
    3      -16.794929   1.000000
    4      -16.728835   1.000000
    5      -16.595969   1.000000
    6      -16.481430   1.000000
    7      -16.400724   1.000000
    8      -16.214140   1.000000
    9      -16.136299   1.000000
   10      -16.016348   1.000000
   11      -15.964350   1.000000
   12      -15.891921   1.000000
   13      -15.795100   1.000000
   14      -15.696396   1.000000
   15      -15.599597   1.000000
   16      -15.399192   1.000000
   17      -15.361337   1.000000
   18      -15.180734   1.000000
   19       -9.667882   1.000000
   20       -9.375608   1.000000
   21       -9.235562   1.000000
   22       -9.048916   1.000000
   23       -8.889612   1.000000
   24       -8.758464   1.000000
   25       -8.608762   1.000000
   26       -8.569881   1.000000
   27       -8.493926   1.000000
   28       -8.411068   1.000000
   29       -8.331876   1.000000
   30       -8.209611   1.000000
   31       -8.112201   1.000000
   32       -8.014708   1.000000
   33       -7.933635   1.000000
   34       -7.843395   1.000000
   35       -7.723535   1.000000
   36       -7.664489   1.000000
   37       -7.580789   1.000000
   38       -7.542968   1.000000
   39       -7.482328   1.000000
   40       -7.344560   1.000000
   41       -7.299077   1.000000
   42       -7.216937   1.000000
   43       -7.096854   1.000000
   44       -7.013426   1.000000
   45       -6.872405   1.000000
   46       -6.792884   1.000000
   47       -6.712727   1.000000
   48       -6.672191   1.000000
   49       -6.534621   1.000000
   50       -6.460877   1.000000
   51       -6.399471   1.000000
   52       -6.383223   1.000000
   53       -6.332382   1.000000
   54       -6.247772   1.000000
   55       -6.160866   1.000000
   56       -6.106250   1.000000
   57       -5.970885   1.000000
   58       -5.941558   1.000000
   59       -5.755020   1.000000
   60       -5.667487   1.000000
   61       -5.602531   1.000000
   62       -5.468073   1.000000
   63       -5.402544   1.000000
   64       -5.304612   1.000000
   65       -5.178104   1.000000
   66       -4.986598   1.000000
   67       -4.929736   1.000000
   68       -4.859304   1.000000
   69       -4.750782   1.000000
   70       -4.730047   1.000000
   71       -4.613294   1.000000
   72       -4.527395   1.000000
   73       -4.325798   1.000000
   74       -4.269138   1.000000
   75       -4.101132   1.000000
   76       -3.947458   0.999992
   77       -3.864100   0.999901
   78       -3.789235   0.999296
   79       -3.646378   0.985472
   80       -3.385486   0.632293
   81       -2.985705   0.006406
   82       -2.951348   0.003149
   83       -2.784592   0.000046
   84       -2.690848   0.000002
   85       -2.575432   0.000000
   86       -2.432576   0.000000
   87       -2.376436   0.000000
   88       -2.289742   0.000000
   89       -2.271500   0.000000
   90       -2.127086   0.000000
   91       -1.767363   0.000000
   92       -1.649737   0.000000
   93       -1.292552   0.000000
   94       -1.213826   0.000000
   95       -1.054082   0.000000
   96       -0.992925   0.000000
   97       -0.942292   0.000000
   98       -0.914112   0.000000
   99       -0.854435   0.000000
  100       -0.815080   0.000000
  101       -0.711927   0.000000
  102       -0.671034   0.000000
  103       -0.590013   0.000000
  104       -0.471994   0.000000
  105       -0.320241   0.000000
  106       -0.204154   0.000000
  107       -0.089181   0.000000
  108        0.033233   0.000000
  109        0.065288   0.000000
  110        0.305901   0.000000
  111        0.348063   0.000000
  112        0.472152   0.000000
  113        0.564286   0.000000
  114        0.880471   0.000000
  115        1.037980   0.000000
  116        1.118905   0.000000
  117        1.221233   0.000000
  118        1.785617   0.000000
  119        1.989075   0.000000
  120        2.286733   0.000000
 
  0.3750000E+00  0.0000000E+00  0.0000000E+00  0.3125000E-01
    1      -17.677426   1.000000
    2      -17.177773   1.000000
    3      -16.785091   1.000000
    4      -16.762682   1.000000
    5      -16.634128   1.000000
    6      -16.493153   1.000000
    7      -16.388143   1.000000
    8      -16.165694   1.000000
    9      -16.100105   1.000000
   10      -16.006140   1.000000
   11      -15.911382   1.000000
   12      -15.884239   1.000000
   13      -15.759084   1.000000
   14      -15.662610   1.000000
   15      -15.607739   1.000000
   16      -15.417031   1.000000
   17      -15.374158   1.000000
   18      -15.193897   1.000000
   19       -9.786948   1.000000
   20       -9.423204   1.000000
   21       -9.334041   1.000000
   22       -9.121695   1.000000
   23       -8.969845   1.000000
   24       -8.779470   1.000000
   25       -8.578749   1.000000
   26       -8.515676   1.000000
   27       -8.411225   1.000000
   28       -8.331111   1.000000
   29       -8.305098   1.000000
   30       -8.236153   1.000000
   31       -8.128492   1.000000
   32       -8.020351   1.000000
   33       -7.944857   1.000000
   34       -7.879788   1.000000
   35       -7.740805   1.000000
   36       -7.684155   1.000000
   37       -7.558458   1.000000
   38       -7.455428   1.000000
   39       -7.339043   1.000000
   40       -7.265008   1.000000
   41       -7.225711   1.000000
   42       -7.134461   1.000000
   43       -7.046937   1.000000
   44       -6.932811   1.000000
   45       -6.848804   1.000000
   46       -6.811285   1.000000
   47       -6.697299   1.000000
   48       -6.644506   1.000000
   49       -6.540251   1.000000
   50       -6.471557   1.000000
   51       -6.398835   1.000000
   52       -6.349955   1.000000
   53       -6.338920   1.000000
   54       -6.181849   1.000000
   55       -6.114538   1.000000
   56       -6.055062   1.000000
   57       -5.969711   1.000000
   58       -5.923038   1.000000
   59       -5.877929   1.000000
   60       -5.782427   1.000000
   61       -5.740118   1.000000
   62       -5.585232   1.000000
   63       -5.519270   1.000000
   64       -5.347182   1.000000
   65       -5.198098   1.000000
   66       -4.995863   1.000000
   67       -4.905851   1.000000
   68       -4.842709   1.000000
   69       -4.758616   1.000000
   70       -4.730468   1.000000
   71       -4.603622   1.000000
   72       -4.548903   1.000000
   73       -4.429841   1.000000
   74       -4.197516   1.000000
   75       -4.062857   1.000000
   76       -4.009492   0.999999
   77       -3.870924   0.999919
   78       -3.763587   0.998700
   79       -3.572610   0.951653
   80       -3.405437   0.684033
   81       -2.950305   0.003079
   82       -2.912914   0.001334
   83       -2.743997   0.000013
   84       -2.630561   0.000000
   85       -2.542140   0.000000
   86       -2.441865   0.000000
   87       -2.366656   0.000000
   88       -2.244981   0.000000
   89       -2.205136   0.000000
   90       -2.034481   0.000000
   91       -1.758077   0.000000
   92       -1.643333   0.000000
   93       -1.386293   0.000000
   94       -1.223944   0.000000
   95       -1.097597   0.000000
   96       -1.046741   0.000000
   97       -0.984447   0.000000
   98       -0.962804   0.000000
   99       -0.929613   0.000000
  100       -0.878126   0.000000
  101       -0.772635   0.000000
  102       -0.733580   0.000000
  103       -0.621040   0.000000
  104       -0.544702   0.000000
  105       -0.339646   0.000000
  106       -0.307340   0.000000
  107       -0.138979   0.000000
  108       -0.111450   0.000000
  109       -0.035298   0.000000
  110        0.295779   0.000000
  111        0.385727   0.000000
  112        0.474968   0.000000
  113        0.548096   0.000000
  114        0.914272   0.000000
  115        1.090475   0.000000
  116        1.237173   0.000000
  117        1.333131   0.000000
  118        1.960100   0.000000
  119        2.168582   0.000000
  120        2.400904   0.000000
 
  0.5000000E+00  0.1110223E-15  0.0000000E+00  0.1562500E-01
    1      -17.619403   1.000000
    2      -17.266451   1.000000
    3      -16.780625   1.000000
    4      -16.775000   1.000000
    5      -16.648865   1.000000
    6      -16.498624   1.000000
    7      -16.384013   1.000000
    8      -16.164495   1.000000
    9      -16.049553   1.000000
   10      -16.006662   1.000000
   11      -15.906767   1.000000
   12      -15.882970   1.000000
   13      -15.714866   1.000000
   14      -15.701271   1.000000
   15      -15.593018   1.000000
   16      -15.420134   1.000000
   17      -15.375173   1.000000
   18      -15.201286   1.000000
   19       -9.846595   1.000000
   20       -9.430596   1.000000
   21       -9.362512   1.000000
   22       -9.143810   1.000000
   23       -8.994304   1.000000
   24       -8.787078   1.000000
   25       -8.573743   1.000000
   26       -8.491009   1.000000
   27       -8.386712   1.000000
   28       -8.327322   1.000000
   29       -8.269553   1.000000
   30       -8.181124   1.000000
   31       -8.122724   1.000000
   32       -8.029797   1.000000
   33       -8.001110   1.000000
   34       -7.947489   1.000000
   35       -7.768500   1.000000
   36       -7.727816   1.000000
   37       -7.524218   1.000000
   38       -7.398982   1.000000
   39       -7.331980   1.000000
   40       -7.256001   1.000000
   41       -7.123231   1.000000
   42       -7.055851   1.000000
   43       -7.010195   1.000000
   44       -6.928631   1.000000
   45       -6.846517   1.000000
   46       -6.721025   1.000000
   47       -6.666876   1.000000
   48       -6.615826   1.000000
   49       -6.561183   1.000000
   50       -6.520584   1.000000
   51       -6.437341   1.000000
   52       -6.366658   1.000000
   53       -6.302696   1.000000
   54       -6.216404   1.000000
   55       -6.133303   1.000000
   56       -6.048043   1.000000
   57       -5.958321   1.000000
   58       -5.910121   1.000000
   59       -5.863233   1.000000
   60       -5.837055   1.000000
   61       -5.742018   1.000000
   62       -5.576632   1.000000
   63       -5.529256   1.000000
   64       -5.345292   1.000000
   65       -5.300317   1.000000
   66       -5.107310   1.000000
   67       -4.908040   1.000000
   68       -4.876614   1.000000
   69       -4.765372   1.000000
   70       -4.715571   1.000000
   71       -4.595358   1.000000
   72       -4.536368   1.000000
   73       -4.421182   1.000000
   74       -4.188915   1.000000
   75       -4.100379   1.000000
   76       -3.984401   0.999998
   77       -3.836301   0.999789
   78       -3.747990   0.998141
   79       -3.538260   0.921935
   80       -3.423409   0.727774
   81       -2.930529   0.001994
   82       -2.908250   0.001196
   83       -2.731489   0.000009
   84       -2.615280   0.000000
   85       -2.521564   0.000000
   86       -2.438134   0.000000
   87       -2.359811   0.000000
   88       -2.229150   0.000000
   89       -2.173314   0.000000
   90       -1.991347   0.000000
   91       -1.752654   0.000000
   92       -1.635824   0.000000
   93       -1.447616   0.000000
   94       -1.223116   0.000000
   95       -1.124246   0.000000
   96       -1.066046   0.000000
   97       -1.023118   0.000000
   98       -0.998865   0.000000
   99       -0.942912   0.000000
  100       -0.914356   0.000000
  101       -0.781702   0.000000
  102       -0.723265   0.000000
  103       -0.651091   0.000000
  104       -0.571229   0.000000
  105       -0.370842   0.000000
  106       -0.297958   0.000000
  107       -0.216737   0.000000
  108       -0.137774   0.000000
  109       -0.072726   0.000000
  110        0.288488   0.000000
  111        0.394329   0.000000
  112        0.480073   0.000000
  113        0.543956   0.000000
  114        0.927256   0.000000
  115        1.108777   0.000000
  116        1.286129   0.000000
  117        1.373713   0.000000
  118        2.121560   0.000000
  119        2.260156   0.000000
  120        2.386932   0.000000
 
  0.0000000E+00  0.1250000E+00  0.0000000E+00  0.3125000E-01
    1      -17.831006   1.000000
    2      -16.859089   1.000000
    3      -16.803546   1.000000
    4      -16.627073   1.000000
    5      -16.581400   1.000000
    6      -16.464277   1.000000
    7      -16.411987   1.000000
    8      -16.286155   1.000000
    9      -16.165602   1.000000
   10      -16.062408   1.000000
   11      -15.989855   1.000000
   12      -15.934127   1.000000
   13      -15.855689   1.000000
   14      -15.701241   1.000000
   15      -15.585918   1.000000
   16      -15.374090   1.000000
   17      -15.343132   1.000000
   18      -15.176093   1.000000
   19       -9.624046   1.000000
   20       -9.224308   1.000000
   21       -9.103588   1.000000
   22       -8.934355   1.000000
   23       -8.768882   1.000000
   24       -8.742488   1.000000
   25       -8.626961   1.000000
   26       -8.579048   1.000000
   27       -8.534505   1.000000
   28       -8.416461   1.000000
   29       -8.389789   1.000000
   30       -8.297245   1.000000
   31       -8.249694   1.000000
   32       -8.033409   1.000000
   33       -7.967913   1.000000
   34       -7.879087   1.000000
   35       -7.796397   1.000000
   36       -7.752091   1.000000
   37       -7.718147   1.000000
   38       -7.497687   1.000000
   39       -7.444288   1.000000
   40       -7.384459   1.000000
   41       -7.357760   1.000000
   42       -7.344231   1.000000
   43       -7.096610   1.000000
   44       -6.935941   1.000000
   45       -6.850445   1.000000
   46       -6.838222   1.000000
   47       -6.753119   1.000000
   48       -6.659997   1.000000
   49       -6.568801   1.000000
   50       -6.450524   1.000000
   51       -6.415061   1.000000
   52       -6.352811   1.000000
   53       -6.268999   1.000000
   54       -6.259950   1.000000
   55       -6.182727   1.000000
   56       -6.149176   1.000000
   57       -6.057381   1.000000
   58       -5.946196   1.000000
   59       -5.775351   1.000000
   60       -5.528252   1.000000
   61       -5.427382   1.000000
   62       -5.361267   1.000000
   63       -5.310724   1.000000
   64       -5.199679   1.000000
   65       -5.184956   1.000000
   66       -4.972190   1.000000
   67       -4.968616   1.000000
   68       -4.872256   1.000000
   69       -4.796357   1.000000
   70       -4.676351   1.000000
   71       -4.595252   1.000000
   72       -4.550297   1.000000
   73       -4.477930   1.000000
   74       -4.370466   1.000000
   75       -4.037953   1.000000
   76       -3.885831   0.999947
   77       -3.881558   0.999940
   78       -3.682883   0.992674
   79       -3.602795   0.969572
   80       -3.323238   0.459289
   81       -3.142034   0.083251
   82       -3.018628   0.012031
   83       -2.871867   0.000494
   84       -2.728534   0.000008
   85       -2.593061   0.000000
   86       -2.434669   0.000000
   87       -2.392932   0.000000
   88       -2.331970   0.000000
   89       -2.317143   0.000000
   90       -2.180299   0.000000
   91       -1.778767   0.000000
   92       -1.652125   0.000000
   93       -1.269816   0.000000
   94       -1.174463   0.000000
   95       -1.035596   0.000000
   96       -0.992357   0.000000
   97       -0.926158   0.000000
   98       -0.813160   0.000000
   99       -0.784906   0.000000
  100       -0.729372   0.000000
  101       -0.603642   0.000000
  102       -0.557244   0.000000
  103       -0.499311   0.000000
  104       -0.355681   0.000000
  105       -0.267610   0.000000
  106       -0.177529   0.000000
  107       -0.134183   0.000000
  108        0.178843   0.000000
  109        0.212012   0.000000
  110        0.279280   0.000000
  111        0.300463   0.000000
  112        0.477133   0.000000
  113        0.582242   0.000000
  114        0.886472   0.000000
  115        0.962126   0.000000
  116        0.999950   0.000000
  117        1.094492   0.000000
  118        1.668522   0.000000
  119        1.871778   0.000000
  120        2.187123   0.000000
 
  0.1250000E+00  0.1250000E+00  0.0000000E+00  0.3125000E-01
    1      -17.785216   1.000000
    2      -16.977678   1.000000
    3      -16.800357   1.000000
    4      -16.710686   1.000000
    5      -16.557438   1.000000
    6      -16.463057   1.000000
    7      -16.384850   1.000000
    8      -16.276716   1.000000
    9      -16.159391   1.000000
   10      -16.037653   1.000000
   11      -15.975441   1.000000
   12      -15.890767   1.000000
   13      -15.805523   1.000000
   14      -15.678486   1.000000
   15      -15.594762   1.000000
   16      -15.400946   1.000000
   17      -15.349486   1.000000
   18      -15.185131   1.000000
   19       -9.640518   1.000000
   20       -9.341170   1.000000
   21       -9.250531   1.000000
   22       -9.042045   1.000000
   23       -8.792977   1.000000
   24       -8.729795   1.000000
   25       -8.652526   1.000000
   26       -8.543784   1.000000
   27       -8.479357   1.000000
   28       -8.419580   1.000000
   29       -8.346344   1.000000
   30       -8.272210   1.000000
   31       -8.133999   1.000000
   32       -8.029309   1.000000
   33       -7.980419   1.000000
   34       -7.873124   1.000000
   35       -7.724748   1.000000
   36       -7.648517   1.000000
   37       -7.611935   1.000000
   38       -7.556043   1.000000
   39       -7.445478   1.000000
   40       -7.336606   1.000000
   41       -7.312018   1.000000
   42       -7.231276   1.000000
   43       -7.135899   1.000000
   44       -7.031241   1.000000
   45       -6.846381   1.000000
   46       -6.821629   1.000000
   47       -6.764964   1.000000
   48       -6.648464   1.000000
   49       -6.534764   1.000000
   50       -6.481505   1.000000
   51       -6.414931   1.000000
   52       -6.392393   1.000000
   53       -6.292987   1.000000
   54       -6.242356   1.000000
   55       -6.166813   1.000000
   56       -6.110454   1.000000
   57       -5.977580   1.000000
   58       -5.902042   1.000000
   59       -5.760279   1.000000
   60       -5.624185   1.000000
   61       -5.508436   1.000000
   62       -5.434416   1.000000
   63       -5.350012   1.000000
   64       -5.297414   1.000000
   65       -5.212261   1.000000
   66       -5.072324   1.000000
   67       -4.912827   1.000000
   68       -4.854020   1.000000
   69       -4.764914   1.000000
   70       -4.698713   1.000000
   71       -4.617954   1.000000
   72       -4.512515   1.000000
   73       -4.338428   1.000000
   74       -4.296634   1.000000
   75       -4.099617   1.000000
   76       -4.010326   0.999999
   77       -3.811448   0.999596
   78       -3.757995   0.998521
   79       -3.644631   0.985011
   80       -3.295711   0.383282
   81       -3.077631   0.032963
   82       -3.020271   0.012399
   83       -2.812206   0.000101
   84       -2.694584   0.000003
   85       -2.598849   0.000000
   86       -2.452761   0.000000
   87       -2.375796   0.000000
   88       -2.296440   0.000000
   89       -2.263401   0.000000
   90       -2.135929   0.000000
   91       -1.789187   0.000000
   92       -1.646254   0.000000
   93       -1.288551   0.000000
   94       -1.177577   0.000000
   95       -1.062810   0.000000
   96       -0.993752   0.000000
   97       -0.919939   0.000000
   98       -0.832079   0.000000
   99       -0.816493   0.000000
  100       -0.774620   0.000000
  101       -0.671459   0.000000
  102       -0.627922   0.000000
  103       -0.557547   0.000000
  104       -0.442204   0.000000
  105       -0.379232   0.000000
  106       -0.225756   0.000000
  107       -0.131285   0.000000
  108        0.085638   0.000000
  109        0.180318   0.000000
  110        0.249125   0.000000
  111        0.290234   0.000000
  112        0.480247   0.000000
  113        0.601284   0.000000
  114        0.891000   0.000000
  115        1.025423   0.000000
  116        1.073231   0.000000
  117        1.194256   0.000000
  118        1.750118   0.000000
  119        1.949465   0.000000
  120        2.255508   0.000000
 
  0.2500000E+00  0.1250000E+00  0.0000000E+00  0.3125000E-01
    1      -17.703507   1.000000
    2      -17.123168   1.000000
    3      -16.840739   1.000000
    4      -16.773107   1.000000
    5      -16.541274   1.000000
    6      -16.476705   1.000000
    7      -16.370602   1.000000
    8      -16.215547   1.000000
    9      -16.125046   1.000000
   10      -16.027364   1.000000
   11      -15.939972   1.000000
   12      -15.883397   1.000000
   13      -15.767751   1.000000
   14      -15.636473   1.000000
   15      -15.597045   1.000000
   16      -15.427696   1.000000
   17      -15.361206   1.000000
   18      -15.196111   1.000000
   19       -9.734654   1.000000
   20       -9.426392   1.000000
   21       -9.363997   1.000000
   22       -9.166136   1.000000
   23       -8.807339   1.000000
   24       -8.745286   1.000000
   25       -8.567685   1.000000
   26       -8.504919   1.000000
   27       -8.451075   1.000000
   28       -8.358448   1.000000
   29       -8.326259   1.000000
   30       -8.260234   1.000000
   31       -8.123888   1.000000
   32       -8.028766   1.000000
   33       -7.996355   1.000000
   34       -7.830250   1.000000
   35       -7.773215   1.000000
   36       -7.729112   1.000000
   37       -7.580664   1.000000
   38       -7.404093   1.000000
   39       -7.354703   1.000000
   40       -7.275467   1.000000
   41       -7.185690   1.000000
   42       -7.183162   1.000000
   43       -7.124585   1.000000
   44       -6.975789   1.000000
   45       -6.842102   1.000000
   46       -6.791238   1.000000
   47       -6.733951   1.000000