       N       E                     dE             d eps       ncg     rms          rms(c)
DAV:   1     0.112402436828E+04    0.11240E+04   -0.35867E+04  8160   0.577E+02
DAV:   2    -0.625902805676E+01   -0.11303E+04   -0.10916E+04 11200   0.173E+02
DAV:   3    -0.200289571061E+03   -0.19403E+03   -0.18668E+03 10960   0.817E+01
DAV:   4    -0.209080112523E+03   -0.87905E+01   -0.85118E+01 12120   0.255E+01
DAV:   5    -0.209393993658E+03   -0.31388E+00   -0.31297E+00 11600   0.352E+00    0.275E+01
DAV:   6    -0.237095248307E+03   -0.27701E+02   -0.11205E+02 12560   0.603E+01    0.597E+01
DAV:   7    -0.196372163733E+03    0.40723E+02   -0.17989E+02 13480   0.151E+02    0.198E+01
DAV:   8    -0.189120008081E+03    0.72522E+01   -0.15940E+01 12080   0.124E+01    0.119E+01
DAV:   9    -0.187443332616E+03    0.16767E+01   -0.27466E+00 13480   0.859E+00    0.610E+00
DAV:  10    -0.186969455520E+03    0.47388E+00   -0.11813E+00 13480   0.425E+00    0.239E+00
DAV:  11    -0.186975599213E+03   -0.61437E-02   -0.46366E-01 12680   0.213E+00    0.290E+00
DAV:  12    -0.186918967140E+03    0.56632E-01   -0.38114E-01 13240   0.287E+00    0.270E+00
DAV:  13    -0.186861853190E+03    0.57114E-01   -0.17772E-01 13080   0.254E+00    0.150E+00
DAV:  14    -0.186846892188E+03    0.14961E-01   -0.80159E-02 13080   0.147E+00    0.898E-01
DAV:  15    -0.186837819357E+03    0.90728E-02   -0.17453E-02 12440   0.520E-01    0.594E-01
DAV:  16    -0.186837240897E+03    0.57846E-03   -0.91493E-03 13160   0.539E-01    0.572E-01
DAV:  17    -0.186834742280E+03    0.24986E-02   -0.95069E-03 12520   0.542E-01    0.325E-01
DAV:  18    -0.186833683474E+03    0.10588E-02   -0.19575E-03 12840   0.225E-01    0.550E-02
DAV:  19    -0.186834243072E+03   -0.55960E-03   -0.82370E-04 10520   0.731E-02    0.998E-02
DAV:  20    -0.186834640712E+03   -0.39764E-03   -0.58739E-04  9640   0.628E-02    0.675E-02
DAV:  21    -0.186835510148E+03   -0.86944E-03   -0.26208E-04  7680   0.609E-02    0.290E-02
DAV:  22    -0.186836224872E+03   -0.71472E-03   -0.93544E-05  6440   0.341E-02    0.349E-02
DAV:  23    -0.186837455560E+03   -0.12307E-02   -0.15993E-04  7480   0.414E-02    0.940E-03
DAV:  24    -0.186838007708E+03   -0.55215E-03   -0.23548E-05  6720   0.118E-02    0.812E-03
DAV:  25    -0.186838430568E+03   -0.42286E-03   -0.15661E-05  5520   0.136E-02    0.608E-03
DAV:  26    -0.186838644752E+03   -0.21418E-03   -0.88535E-06  6800   0.739E-03    0.223E-03
DAV:  27    -0.186838747870E+03   -0.10312E-03   -0.41320E-06  6920   0.406E-03    0.106E-03
DAV:  28    -0.186838788299E+03   -0.40429E-04   -0.18713E-06  7400   0.273E-03
   1 F= -.18683879E+03 E0= -.18666559E+03  d E =-.186839E+03
       N       E                     dE             d eps       ncg     rms          rms(c)
DAV:   1    -0.187434644613E+03   -0.59590E+00   -0.26825E+02  8160   0.347E+01    0.456E+00
DAV:   2    -0.189157520872E+03   -0.17229E+01   -0.19763E+01 12240   0.146E+01    0.728E+00
DAV:   3    -0.189354640441E+03   -0.19712E+00   -0.33414E+00 12440   0.114E+01    0.715E+00
DAV:   4    -0.188722879019E+03    0.63176E+00   -0.73616E-01 12600   0.505E+00    0.220E+00
DAV:   5    -0.188705225657E+03    0.17653E-01   -0.29770E-01 10960   0.196E+00    0.257E+00
DAV:   6    -0.188756863803E+03   -0.51638E-01   -0.45347E-01 12680   0.393E+00    0.416E+00
DAV:   7    -0.188620158676E+03    0.13671E+00   -0.32705E-01 12680   0.337E+00    0.107E+00
DAV:   8    -0.188614831128E+03    0.53275E-02   -0.58799E-02 12560   0.122E+00    0.114E+00
DAV:   9    -0.188603688941E+03    0.11142E-01   -0.23670E-02 12720   0.910E-01    0.382E-01
DAV:  10    -0.188602859319E+03    0.82962E-03   -0.48616E-03 11720   0.284E-01    0.212E-01
DAV:  11    -0.188602193529E+03    0.66579E-03   -0.26096E-03 12240   0.151E-01    0.792E-02
DAV:  12    -0.188602323502E+03   -0.12997E-03   -0.83083E-04 11040   0.856E-02    0.635E-02
DAV:  13    -0.188602303844E+03    0.19658E-04   -0.22191E-04  8040   0.494E-02
   2 F= -.18860230E+03 E0= -.18845492E+03  d E =-.176352E+01
       N       E                     dE             d eps       ncg     rms          rms(c)
DAV:   1    -0.190504715020E+03   -0.19024E+01   -0.30377E+01  9360   0.141E+01    0.449E+00
DAV:   2    -0.190569413429E+03   -0.64698E-01   -0.29388E+00 11080   0.100E+01    0.791E+00
DAV:   3    -0.189970612890E+03    0.59880E+00   -0.13755E+00 12360   0.870E+00    0.409E+00
DAV:   4    -0.189769199983E+03    0.20141E+00   -0.67225E-01 12720   0.377E+00    0.250E+00
DAV:   5    -0.189707794415E+03    0.61406E-01   -0.32594E-01 12240   0.237E+00    0.191E+00
DAV:   6    -0.189671967021E+03    0.35827E-01   -0.87012E-02 12200   0.189E+00    0.791E-01
DAV:   7    -0.189665714922E+03    0.62521E-02   -0.13953E-02 12040   0.603E-01    0.180E-01
DAV:   8    -0.189665830751E+03   -0.11583E-03   -0.23197E-03 10960   0.168E-01    0.137E-01
DAV:   9    -0.189666199702E+03   -0.36895E-03   -0.12791E-03 10600   0.180E-01    0.199E-01
DAV:  10    -0.189666359443E+03   -0.15974E-03   -0.15369E-03 10480   0.270E-01    0.216E-01
DAV:  11    -0.189665883742E+03    0.47570E-03   -0.76219E-04  9320   0.164E-01    0.285E-02
DAV:  12    -0.189665904348E+03   -0.20606E-04   -0.80576E-05  6160   0.335E-02
   3 F= -.18966590E+03 E0= -.18954100E+03  d E =-.106360E+01
       N       E                     dE             d eps       ncg     rms          rms(c)
DAV:   1    -0.191175968543E+03   -0.15101E+01   -0.63703E+01  8160   0.184E+01    0.467E+00
DAV:   2    -0.191129399879E+03    0.46569E-01   -0.53755E+00 13440   0.894E+00    0.597E+00
DAV:   3    -0.191024976371E+03    0.10442E+00   -0.16250E+00 12240   0.936E+00    0.587E+00
DAV:   4    -0.190660806909E+03    0.36417E+00   -0.10132E+00 13200   0.613E+00    0.238E+00
DAV:   5    -0.190605408521E+03    0.55398E-01   -0.30425E-01 12240   0.288E+00    0.210E+00
DAV:   6    -0.190565669050E+03    0.39739E-01   -0.12234E-01 12440   0.248E+00    0.965E-01
DAV:   7    -0.190561097126E+03    0.45719E-02   -0.25290E-02 12240   0.926E-01    0.451E-01
DAV:   8    -0.190557394895E+03    0.37022E-02   -0.64793E-03 10600   0.296E-01    0.152E-01
DAV:   9    -0.190558113349E+03   -0.71845E-03   -0.19775E-03 11480   0.270E-01    0.267E-01
DAV:  10    -0.190557693114E+03    0.42023E-03   -0.18116E-03 10800   0.298E-01    0.124E-01
DAV:  11    -0.190557533591E+03    0.15952E-03   -0.43132E-04  8800   0.110E-01    0.460E-02
DAV:  12    -0.190557528109E+03    0.54815E-05   -0.96381E-05  7240   0.490E-02
   4 F= -.19055753E+03 E0= -.19045481E+03  d E =-.891624E+00
       N       E                     dE             d eps       ncg     rms          rms(c)
DAV:   1    -0.191981477110E+03   -0.14239E+01   -0.12853E+02  8160   0.258E+01    0.590E+00
DAV:   2    -0.191668397945E+03    0.31308E+00   -0.94323E+00 13000   0.903E+00    0.482E+00
DAV:   3    -0.191985680466E+03   -0.31728E+00   -0.22297E+00 12160   0.111E+01    0.867E+00
DAV:   4    -0.191344442975E+03    0.64124E+00   -0.23050E+00 12240   0.111E+01    0.360E+00
DAV:   5    -0.191295643309E+03    0.48800E-01   -0.68424E-01 12200   0.571E+00    0.349E+00
DAV:   6    -0.191123809180E+03    0.17183E+00   -0.25035E-01 12120   0.380E+00    0.782E-01
DAV:   7    -0.191122190899E+03    0.16183E-02   -0.31229E-02 12240   0.883E-01    0.437E-01
DAV:   8    -0.191118967719E+03    0.32232E-02   -0.66070E-03 10800   0.332E-01    0.207E-01
DAV:   9    -0.191120281211E+03   -0.13135E-02   -0.38157E-03 12040   0.419E-01    0.371E-01
DAV:  10    -0.191119213710E+03    0.10675E-02   -0.33291E-03 11720   0.395E-01    0.117E-01
DAV:  11    -0.191119102043E+03    0.11167E-03   -0.55811E-04 10240   0.105E-01    0.628E-02
DAV:  12    -0.191119055369E+03    0.46674E-04   -0.11888E-04  7560   0.607E-02
   5 F= -.19111906E+03 E0= -.19103397E+03  d E =-.561527E+00
       N       E                     dE             d eps       ncg     rms          rms(c)
DAV:   1    -0.191166348788E+03   -0.47247E-01   -0.51522E+00  8160   0.482E+00    0.669E-01
DAV:   2    -0.191197777448E+03   -0.31429E-01   -0.19411E-01 13440   0.189E+00    0.154E+00
DAV:   3    -0.191172934120E+03    0.24843E-01   -0.70588E-02 12440   0.202E+00    0.636E-01
DAV:   4    -0.191169652302E+03    0.32818E-02   -0.12772E-02 10600   0.669E-01    0.423E-01
DAV:   5    -0.191168842258E+03    0.81004E-03   -0.79999E-03 11640   0.675E-01    0.398E-01
DAV:   6    -0.191167399894E+03    0.14424E-02   -0.40130E-03 11720   0.417E-01    0.151E-01
DAV:   7    -0.191167123922E+03    0.27597E-03   -0.13921E-03 10480   0.145E-01    0.626E-02
DAV:   8    -0.191167074410E+03    0.49512E-04   -0.21244E-04  7040   0.577E-02
   6 F= -.19116707E+03 E0= -.19108013E+03  d E =-.480190E-01
       N       E                     dE             d eps       ncg     rms          rms(c)
DAV:   1    -0.191202451046E+03   -0.35327E-01   -0.35831E+00  8160   0.396E+00    0.527E-01
DAV:   2    -0.191242494166E+03   -0.40043E-01   -0.14394E-01 13600   0.243E+00    0.178E+00
DAV:   3    -0.191206172988E+03    0.36321E-01   -0.59446E-02 12600   0.191E+00    0.281E-01
DAV:   4    -0.191205931306E+03    0.24168E-03   -0.48908E-03 11560   0.336E-01    0.264E-01
DAV:   5    -0.191205644160E+03    0.28715E-03   -0.31641E-03 11840   0.401E-01    0.264E-01
DAV:   6    -0.191205028214E+03    0.61595E-03   -0.16873E-03 10320   0.278E-01    0.986E-02
DAV:   7    -0.191205000571E+03    0.27643E-04   -0.53358E-04 10080   0.992E-02
   7 F= -.19120500E+03 E0= -.19111481E+03  d E =-.379262E-01
       N       E                     dE             d eps       ncg     rms          rms(c)
DAV:   1    -0.191257231283E+03   -0.52203E-01   -0.87587E+00  8160   0.619E+00    0.752E-01
DAV:   2    -0.191329986361E+03   -0.72755E-01   -0.28765E-01 13560   0.311E+00    0.239E+00
DAV:   3    -0.191266197356E+03    0.63789E-01   -0.12115E-01 12600   0.266E+00    0.469E-01
DAV:   4    -0.191264876000E+03    0.13214E-02   -0.10665E-02 11080   0.486E-01    0.379E-01
DAV:   5    -0.191264496831E+03    0.37917E-03   -0.71137E-03 12560   0.595E-01    0.411E-01
DAV:   6    -0.191263058259E+03    0.14386E-02   -0.41162E-03 11680   0.435E-01    0.161E-01
DAV:   7    -0.191262882870E+03    0.17539E-03   -0.11865E-03 10840   0.150E-01    0.665E-02
DAV:   8    -0.191262812215E+03    0.70655E-04   -0.28609E-04  8160   0.850E-02
   8 F= -.19126281E+03 E0= -.19116740E+03  d E =-.578116E-01
       N       E                     dE             d eps       ncg     rms          rms(c)
DAV:   1    -0.191247023204E+03    0.15860E-01   -0.65243E-01  8160   0.169E+00    0.205E-01
DAV:   2    -0.191252702535E+03   -0.56793E-02   -0.21764E-02 13560   0.799E-01    0.649E-01
DAV:   3    -0.191247640020E+03    0.50625E-02   -0.85236E-03 11720   0.710E-01    0.137E-01
DAV:   4    -0.191247644591E+03   -0.45714E-05   -0.11012E-03 10120   0.187E-01    0.141E-01
DAV:   5    -0.191247493664E+03    0.15093E-03   -0.67647E-04  9240   0.183E-01    0.922E-02
DAV:   6    -0.191247413423E+03    0.80241E-04   -0.23559E-04  6520   0.920E-02
   9 F= -.19124741E+03 E0= -.19115336E+03  d E =0.153988E-01
       N       E                     dE             d eps       ncg     rms          rms(c)
DAV:   1    -0.191250273398E+03   -0.27797E-02   -0.70729E-02  8160   0.561E-01    0.710E-02
DAV:   2    -0.191250802780E+03   -0.52938E-03   -0.25272E-03 13080   0.272E-01    0.214E-01
DAV:   3    -0.191250318135E+03    0.48464E-03   -0.99703E-04 10240   0.227E-01    0.567E-02
DAV:   4    -0.191250322345E+03   -0.42097E-05   -0.15308E-04  6440   0.846E-02
  10 F= -.19125032E+03 E0= -.19115588E+03  d E =-.290892E-02
       N       E                     dE             d eps       ncg     rms          rms(c)
DAV:   1    -0.191244045606E+03    0.62725E-02   -0.10020E+00  8160   0.212E+00    0.222E-01
DAV:   2    -0.191247244602E+03   -0.31990E-02   -0.27475E-02 13360   0.671E-01    0.465E-01
DAV:   3    -0.191245479043E+03    0.17656E-02   -0.73892E-03 12560   0.600E-01    0.253E-01
DAV:   4    -0.191245061293E+03    0.41775E-03   -0.17563E-03 10040   0.262E-01    0.142E-01
DAV:   5    -0.191244917463E+03    0.14383E-03   -0.10069E-03 10000   0.208E-01    0.129E-01
DAV:   6    -0.191244813889E+03    0.10357E-03   -0.54236E-04  8920   0.172E-01    0.736E-02
DAV:   7    -0.191244736777E+03    0.77112E-04   -0.15295E-04  6480   0.743E-02
  11 F= -.19124474E+03 E0= -.19115083E+03  d E =0.558557E-02
       N       E                     dE             d eps       ncg     rms          rms(c)
DAV:   1    -0.191228791016E+03    0.16023E-01   -0.12778E+01  8160   0.759E+00    0.828E-01
DAV:   2    -0.191274039033E+03   -0.45248E-01   -0.36138E-01 13320   0.243E+00    0.186E+00
DAV:   3    -0.191247842089E+03    0.26197E-01   -0.12656E-01 12200   0.236E+00    0.949E-01
DAV:   4    -0.191239753491E+03    0.80886E-02   -0.20960E-02 12040   0.833E-01    0.392E-01
DAV:   5    -0.191238360792E+03    0.13927E-02   -0.11620E-02 12640   0.579E-01    0.434E-01
DAV:   6    -0.191238537993E+03   -0.17720E-03   -0.10219E-02 12400   0.714E-01    0.437E-01
DAV:   7    -0.191236445426E+03    0.20926E-02   -0.42825E-03 11200   0.412E-01    0.985E-02
DAV:   8    -0.191236503426E+03   -0.57999E-04   -0.77036E-04 10200   0.184E-01
  12 F= -.19123650E+03 E0= -.19114268E+03  d E =0.823335E-02
       N       E                     dE             d eps       ncg     rms          rms(c)
DAV:   1    -0.191244256639E+03   -0.78112E-02   -0.81960E-01  8160   0.192E+00    0.236E-01
DAV:   2    -0.191250040946E+03   -0.57843E-02   -0.30301E-02 12280   0.895E-01    0.664E-01
DAV:   3    -0.191245422040E+03    0.46189E-02   -0.10949E-02 12120   0.744E-01    0.184E-01
DAV:   4    -0.191245552253E+03   -0.13021E-03   -0.19725E-03 10000   0.288E-01    0.222E-01
DAV:   5    -0.191245128941E+03    0.42331E-03   -0.13430E-03  9920   0.268E-01    0.113E-01
DAV:   6    -0.191245013731E+03    0.11521E-03   -0.45044E-04  8120   0.111E-01    0.524E-02
DAV:   7    -0.191244997991E+03    0.15740E-04   -0.15941E-04  6800   0.669E-02
  13 F= -.19124500E+03 E0= -.19114966E+03  d E =-.849457E-02
       N       E                     dE             d eps       ncg     rms          rms(c)
DAV:   1    -0.191273282190E+03   -0.28268E-01   -0.23378E+00  8160   0.332E+00    0.568E-01
DAV:   2    -0.191298461636E+03   -0.25179E-01   -0.12367E-01 12720   0.207E+00    0.157E+00
DAV:   3    -0.191272032837E+03    0.26429E-01   -0.51873E-02 12320   0.171E+00    0.312E-01
DAV:   4    -0.191271159845E+03    0.87299E-03   -0.65544E-03 11800   0.334E-01    0.284E-01
DAV:   5    -0.191270918550E+03    0.24129E-03   -0.58444E-03 12160   0.479E-01    0.367E-01
DAV:   6    -0.191269797597E+03    0.11210E-02   -0.41811E-03 11480   0.427E-01    0.149E-01
DAV:   7    -0.191269570416E+03    0.22718E-03   -0.75691E-04 10000   0.140E-01    0.478E-02
DAV:   8    -0.191269562090E+03    0.83257E-05   -0.16510E-04  6920   0.831E-02
  14 F= -.19126956E+03 E0= -.19117082E+03  d E =-.245641E-01
       N       E                     dE             d eps       ncg     rms          rms(c)
DAV:   1    -0.191291154956E+03   -0.21585E-01   -0.27055E+00  8160   0.348E+00    0.396E-01
DAV:   2    -0.191305915535E+03   -0.14761E-01   -0.93048E-02 13120   0.138E+00    0.966E-01
DAV:   3    -0.191295904163E+03    0.10011E-01   -0.26399E-02 12400   0.120E+00    0.318E-01
DAV:   4    -0.191294950578E+03    0.95358E-03   -0.28221E-03 11080   0.260E-01    0.169E-01
DAV:   5    -0.191295038608E+03   -0.88030E-04   -0.20909E-03 10760   0.293E-01    0.241E-01
DAV:   6    -0.191294733727E+03    0.30488E-03   -0.21077E-03 10400   0.296E-01    0.143E-01
DAV:   7    -0.191294512446E+03    0.22128E-03   -0.57412E-04  8960   0.120E-01    0.319E-02
DAV:   8    -0.191294507566E+03    0.48806E-05   -0.89392E-05  6680   0.496E-02
  15 F= -.19129451E+03 E0= -.19119300E+03  d E =-.249455E-01
       N       E                     dE             d eps       ncg     rms          rms(c)
DAV:   1    -0.191296676334E+03   -0.21639E-02   -0.47125E-01  8160   0.145E+00    0.148E-01
DAV:   2    -0.191298608051E+03   -0.19317E-02   -0.13584E-02 12600   0.477E-01    0.358E-01
DAV:   3    -0.191297428230E+03    0.11798E-02   -0.42933E-03 11440   0.430E-01    0.172E-01
DAV:   4    -0.191297222867E+03    0.20536E-03   -0.89752E-04  9400   0.175E-01    0.844E-02
DAV:   5    -0.191297167840E+03    0.55027E-04   -0.35542E-04  7880   0.126E-01
  16 F= -.19129717E+03 E0= -.19119596E+03  d E =-.266027E-02
       N       E                     dE             d eps       ncg     rms          rms(c)
DAV:   1    -0.191316056327E+03   -0.18833E-01   -0.23390E+00  8160   0.333E+00    0.454E-01
DAV:   2    -0.191328140882E+03   -0.12085E-01   -0.92767E-02 12360   0.143E+00    0.997E-01
DAV:   3    -0.191318255476E+03    0.98854E-02   -0.28921E-02 12240   0.123E+00    0.355E-01
DAV:   4    -0.191317552952E+03    0.70252E-03   -0.68809E-03 11720   0.429E-01    0.338E-01
DAV:   5    -0.191317149899E+03    0.40305E-03   -0.64851E-03 12480   0.525E-01    0.355E-01
DAV:   6    -0.191316045014E+03    0.11049E-02   -0.34360E-03 11560   0.362E-01    0.118E-01
DAV:   7    -0.191315860139E+03    0.18488E-03   -0.70600E-04 10080   0.111E-01    0.403E-02
DAV:   8    -0.191315838330E+03    0.21810E-04   -0.11232E-04  7680   0.602E-02
  17 F= -.19131584E+03 E0= -.19121221E+03  d E =-.186705E-01
       N       E                     dE             d eps       ncg     rms          rms(c)
DAV:   1    -0.191324302703E+03   -0.84426E-02   -0.75299E-01  8160   0.185E+00    0.200E-01
DAV:   2    -0.191326331208E+03   -0.20285E-02   -0.21959E-02 11200   0.519E-01    0.308E-01
DAV:   3    -0.191325808058E+03    0.52315E-03   -0.49740E-03 12400   0.491E-01    0.237E-01
DAV:   4    -0.191325367282E+03    0.44078E-03   -0.15209E-03  9960   0.239E-01    0.147E-01
DAV:   5    -0.191325266188E+03    0.10109E-03   -0.96689E-04  8680   0.218E-01    0.127E-01
DAV:   6    -0.191325179894E+03    0.86294E-04   -0.54151E-04  8520   0.137E-01
  18 F= -.19132518E+03 E0= -.19122096E+03  d E =-.934156E-02
       N       E                     dE             d eps       ncg     rms          rms(c)
DAV:   1    -0.191342938206E+03   -0.17672E-01   -0.22430E+00  8160   0.315E+00    0.306E-01
DAV:   2    -0.191349129643E+03   -0.61914E-02   -0.51704E-02 13240   0.845E-01    0.642E-01
DAV:   3    -0.191346016734E+03    0.31129E-02   -0.16480E-02 12600   0.842E-01    0.399E-01
DAV:   4    -0.191344790327E+03    0.12264E-02   -0.42846E-03 11200   0.373E-01    0.171E-01
DAV:   5    -0.191344564399E+03    0.22593E-03   -0.17294E-03 10600   0.241E-01    0.164E-01
DAV:   6    -0.191344514343E+03    0.50056E-04   -0.13223E-03 10400   0.262E-01    0.139E-01
DAV:   7    -0.191344290880E+03    0.22346E-03   -0.53040E-04  8640   0.150E-01    0.293E-02
DAV:   8    -0.191344294911E+03   -0.40313E-05   -0.75548E-05  6640   0.490E-02
  19 F= -.19134429E+03 E0= -.19123981E+03  d E =-.191150E-01
       N       E                     dE             d eps       ncg     rms          rms(c)
DAV:   1    -0.191349603464E+03   -0.53126E-02   -0.12563E+00  8160   0.242E+00    0.257E-01
DAV:   2    -0.191351994928E+03   -0.23915E-02   -0.34717E-02 11600   0.590E-01    0.326E-01
DAV:   3    -0.191352208439E+03   -0.21351E-03   -0.79968E-03 12360   0.593E-01    0.372E-01
DAV:   4    -0.191350950795E+03    0.12576E-02   -0.34840E-03 10600   0.385E-01    0.175E-01
DAV:   5    -0.191350853495E+03    0.97300E-04   -0.16046E-03  9680   0.289E-01    0.172E-01
DAV:   6    -0.191350668505E+03    0.18499E-03   -0.10275E-03  9920   0.203E-01    0.949E-02
DAV:   7    -0.191350529698E+03    0.13881E-03   -0.28795E-04  6440   0.881E-02    0.428E-02
DAV:   8    -0.191350528786E+03    0.91221E-06   -0.11729E-04  6680   0.752E-02
  20 F= -.19135053E+03 E0= -.19124599E+03  d E =-.623387E-02
       N       E                     dE             d eps       ncg     rms          rms(c)
DAV:   1    -0.191392048774E+03   -0.41519E-01   -0.39722E+00  8160   0.432E+00    0.521E-01
DAV:   2    -0.191407909930E+03   -0.15861E-01   -0.13326E-01 13320   0.154E+00    0.105E+00
DAV:   3    -0.191398362024E+03    0.95479E-02   -0.34720E-02 12200   0.138E+00    0.511E-01
DAV:   4    -0.191397370662E+03    0.99136E-03   -0.10908E-02 12200   0.660E-01    0.479E-01
DAV:   5    -0.191395471183E+03    0.18995E-02   -0.77516E-03 10760   0.607E-01    0.294E-01
DAV:   6    -0.191394733211E+03    0.73797E-03   -0.34172E-03 10000   0.313E-01    0.126E-01
DAV:   7    -0.191394477223E+03    0.25599E-03   -0.82706E-04 10800   0.116E-01    0.476E-02
DAV:   8    -0.191394475126E+03    0.20968E-05   -0.17793E-04  8160   0.899E-02
  21 F= -.19139448E+03 E0= -.19129088E+03  d E =-.439463E-01
       N       E                     dE             d eps       ncg     rms          rms(c)
DAV:   1    -0.191373636933E+03    0.20840E-01   -0.16970E+00  8160   0.280E+00    0.287E-01
DAV:   2    -0.191376453184E+03   -0.28163E-02   -0.45092E-02 11320   0.591E-01    0.292E-01
DAV:   3    -0.191378077324E+03   -0.16241E-02   -0.95792E-03 12360   0.668E-01    0.502E-01
DAV:   4    -0.191375339318E+03    0.27380E-02   -0.47046E-03 10720   0.471E-01    0.116E-01
DAV:   5    -0.191375825928E+03   -0.48661E-03   -0.16109E-03  9840   0.290E-01    0.238E-01
DAV:   6    -0.191375230913E+03    0.59501E-03   -0.11478E-03 10200   0.246E-01    0.698E-02
DAV:   7    -0.191375201339E+03    0.29574E-04   -0.22855E-04  6640   0.968E-02
  22 F= -.19137520E+03 E0= -.19127030E+03  d E =0.192738E-01
       N       E                     dE             d eps       ncg     rms          rms(c)
DAV:   1    -0.191403517707E+03   -0.28287E-01   -0.29143E+00  8160   0.359E+00    0.352E-01
DAV:   2    -0.191409990300E+03   -0.64726E-02   -0.63366E-02 12600   0.878E-01    0.637E-01
DAV:   3    -0.191407648840E+03    0.23415E-02   -0.19722E-02 12520   0.941E-01    0.500E-01
DAV:   4    -0.191405699738E+03    0.19491E-02   -0.61753E-03 11400   0.474E-01    0.230E-01
DAV:   5    -0.191405459169E+03    0.24057E-03   -0.28264E-03 11080   0.356E-01    0.225E-01
DAV:   6    -0.191405163467E+03    0.29570E-03   -0.19806E-03 10640   0.296E-01    0.135E-01
DAV:   7    -0.191405011381E+03    0.15209E-03   -0.85701E-04 10160   0.169E-01    0.912E-02
DAV:   8    -0.191404970118E+03    0.41264E-04   -0.36950E-04  8000   0.131E-01
  23 F= -.19140497E+03 E0= -.19130002E+03  d E =-.297688E-01
       N       E                     dE             d eps       ncg     rms          rms(c)
DAV:   1    -0.191421520514E+03   -0.16509E-01   -0.71474E-01  8160   0.184E+00    0.225E-01
DAV:   2    -0.191423129263E+03   -0.16087E-02   -0.22928E-02 11720   0.517E-01    0.308E-01
DAV:   3    -0.191422946408E+03    0.18285E-03   -0.51363E-03 11640   0.524E-01    0.293E-01
DAV:   4    -0.191422211813E+03    0.73460E-03   -0.23829E-03 10120   0.322E-01    0.176E-01
DAV:   5    -0.191422051470E+03    0.16034E-03   -0.13583E-03  9760   0.257E-01    0.142E-01
DAV:   6    -0.191421887842E+03    0.16363E-03   -0.75470E-04  9680   0.157E-01    0.643E-02
DAV:   7    -0.191421845283E+03    0.42559E-04   -0.17664E-04  6440   0.800E-02
  24 F= -.19142185E+03 E0= -.19131781E+03  d E =-.168752E-01
       N       E                     dE             d eps       ncg     rms          rms(c)
DAV:   1    -0.191477645289E+03   -0.55757E-01   -0.52127E+00  8160   0.489E+00    0.555E-01
DAV:   2    -0.191501434261E+03   -0.23789E-01   -0.16570E-01 13560   0.184E+00    0.130E+00
DAV:   3    -0.191485956048E+03    0.15478E-01   -0.46076E-02 12240   0.159E+00    0.539E-01
DAV:   4    -0.191485185262E+03    0.77079E-03   -0.12852E-02 11520   0.713E-01    0.501E-01
DAV:   5    -0.191483052247E+03    0.21330E-02   -0.79934E-03 11080   0.633E-01    0.314E-01
DAV:   6    -0.191482115035E+03    0.93721E-03   -0.35183E-03 10560   0.333E-01    0.126E-01
DAV:   7    -0.191481899824E+03    0.21521E-03   -0.89412E-04 10720   0.115E-01    0.455E-02
DAV:   8    -0.191481881569E+03    0.18255E-04   -0.16085E-04  8200   0.738E-02
  25 F= -.19148188E+03 E0= -.19138034E+03  d E =-.600363E-01
       N       E                     dE             d eps       ncg     rms          rms(c)
DAV:   1    -0.191464789935E+03    0.17110E-01   -0.39907E-01  8160   0.136E+00    0.144E-01
DAV:   2    -0.191466186927E+03   -0.13970E-02   -0.12253E-02 11800   0.397E-01    0.294E-01
DAV:   3    -0.191465562150E+03    0.62478E-03   -0.33490E-03 12080   0.392E-01    0.176E-01
DAV:   4    -0.191465278636E+03    0.28351E-03   -0.77520E-04  8480   0.163E-01    0.723E-02
DAV:   5    -0.191465206815E+03    0.71821E-04   -0.24965E-04  6520   0.845E-02
  26 F= -.19146521E+03 E0= -.19136241E+03  d E =0.166748E-01
       N       E                     dE             d eps       ncg     rms          rms(c)
DAV:   1    -0.191475918973E+03   -0.10640E-01   -0.12390E+00  8160   0.238E+00    0.274E-01
DAV:   2    -0.191479833059E+03   -0.39141E-02   -0.35442E-02 12800   0.730E-01    0.551E-01
DAV:   3    -0.191477625158E+03    0.22079E-02   -0.13073E-02 12440   0.760E-01    0.355E-01
DAV:   4    -0.191476539687E+03    0.10855E-02   -0.31499E-03 11080   0.346E-01    0.148E-01
DAV:   5    -0.191476472885E+03    0.66802E-04   -0.15117E-03 10120   0.248E-01    0.171E-01
DAV:   6    -0.191476334723E+03    0.13816E-03   -0.12117E-03 10640   0.246E-01    0.124E-01
DAV:   7    -0.191476207243E+03    0.12748E-03   -0.60053E-04  8720   0.152E-01    0.840E-02
DAV:   8    -0.191476162899E+03    0.44345E-04   -0.23046E-04  6720   0.111E-01
  27 F= -.19147616E+03 E0= -.19137285E+03  d E =-.109561E-01
       N       E                     dE             d eps       ncg     rms          rms(c)
DAV:   1    -0.191520269572E+03   -0.44062E-01   -0.28849E+00  8160   0.368E+00    0.434E-01
DAV:   2    -0.191532669936E+03   -0.12400E-01   -0.10314E-01 12920   0.129E+00    0.912E-01
DAV:   3    -0.191526181109E+03    0.64888E-02   -0.25864E-02 12440   0.119E+00    0.480E-01
DAV:   4    -0.191524873456E+03    0.13077E-02   -0.77012E-03 11320   0.560E-01    0.354E-01
DAV:   5    -0.191523710903E+03    0.11626E-02   -0.38902E-03 10360   0.467E-01    0.221E-01
DAV:   6    -0.191523401117E+03    0.30979E-03   -0.22058E-03 10960   0.269E-01    0.122E-01
DAV:   7    -0.191523143943E+03    0.25717E-03   -0.69810E-04 10600   0.113E-01    0.435E-02
DAV:   8    -0.191523148519E+03   -0.45758E-05   -0.15125E-04  8040   0.835E-02
  28 F= -.19152315E+03 E0= -.19142290E+03  d E =-.469856E-01
       N       E                     dE             d eps       ncg     rms          rms(c)
DAV:   1    -0.191582821467E+03   -0.59678E-01   -0.55702E+00  8160   0.504E+00    0.556E-01
DAV:   2    -0.191608409704E+03   -0.25588E-01   -0.17943E-01 12960   0.186E+00    0.132E+00
DAV:   3    -0.191592951197E+03    0.15459E-01   -0.45075E-02 12440   0.163E+00    0.554E-01
DAV:   4    -0.191591703062E+03    0.12481E-02   -0.11217E-02 11600   0.696E-01    0.457E-01
DAV:   5    -0.191589764772E+03    0.19383E-02   -0.61387E-03 10680   0.602E-01    0.285E-01
DAV:   6    -0.191589159670E+03    0.60510E-03   -0.31618E-03 11160   0.326E-01    0.142E-01
DAV:   7    -0.191588847865E+03    0.31181E-03   -0.98992E-04 10760   0.129E-01    0.524E-02
DAV:   8    -0.191588849677E+03   -0.18125E-05   -0.21143E-04  8800   0.971E-02
  29 F= -.19158885E+03 E0= -.19149179E+03  d E =-.657012E-01
       N       E                     dE             d eps       ncg     rms          rms(c)
DAV:   1    -0.191677427569E+03   -0.88580E-01   -0.18967E+01  8160   0.930E+00    0.978E-01
DAV:   2    -0.191757892589E+03   -0.80465E-01   -0.60160E-01 12680   0.318E+00    0.221E+00
DAV:   3    -0.191716354831E+03    0.41538E-01   -0.12792E-01 12480   0.286E+00    0.101E+00
DAV:   4    -0.191708352818E+03    0.80020E-02   -0.26659E-02 12680   0.106E+00    0.588E-01
DAV:   5    -0.191705054432E+03    0.32984E-02   -0.11809E-02 11400   0.873E-01    0.464E-01
DAV:   6    -0.191704560001E+03    0.49443E-03   -0.97387E-03 12480   0.675E-01    0.335E-01
DAV:   7    -0.191702679208E+03    0.18808E-02   -0.38022E-03 12120   0.313E-01    0.600E-02
DAV:   8    -0.191702729816E+03   -0.50607E-04   -0.47855E-04 11640   0.115E-01
  30 F= -.19170273E+03 E0= -.19161080E+03  d E =-.113880E+00
       N       E                     dE             d eps       ncg     rms          rms(c)
DAV:   1    -0.191760622641E+03   -0.57943E-01   -0.10049E+01  8160   0.684E+00    0.826E-01
DAV:   2    -0.191813788548E+03   -0.53166E-01   -0.41544E-01 13200   0.266E+00    0.184E+00
DAV:   3    -0.191785036412E+03    0.28752E-01   -0.83064E-02 12280   0.236E+00    0.799E-01
DAV:   4    -0.191779113989E+03    0.59224E-02   -0.16340E-02 12680   0.900E-01    0.472E-01
DAV:   5    -0.191777654257E+03    0.14597E-02   -0.86761E-03 11480   0.799E-01    0.423E-01
DAV:   6    -0.191776782689E+03    0.87157E-03   -0.72617E-03 12360   0.572E-01    0.259E-01
DAV:   7    -0.191775646793E+03    0.11359E-02   -0.27231E-03 11840   0.271E-01    0.127E-01
DAV:   8    -0.191775564045E+03    0.82748E-04   -0.66687E-04 10560   0.190E-01
  31 F= -.19177556E+03 E0= -.19168559E+03  d E =-.728342E-01
       N       E                     dE             d eps       ncg     rms          rms(c)
DAV:   1    -0.191785648101E+03   -0.10001E-01   -0.40631E+01  8160   0.137E+01    0.147E+00
DAV:   2    -0.191963838637E+03   -0.17819E+00   -0.14806E+00 12120   0.459E+00    0.294E+00
DAV:   3    -0.191889051857E+03    0.74787E-01   -0.22943E-01 12320   0.407E+00    0.150E+00
DAV:   4    -0.191861870769E+03    0.27181E-01   -0.40582E-02 12880   0.143E+00    0.478E-01
DAV:   5    -0.191861196942E+03    0.67383E-03   -0.19757E-02 11600   0.531E-01    0.422E-01
DAV:   6    -0.191857567851E+03    0.36291E-02   -0.11146E-02 12640   0.432E-01    0.205E-01
DAV:   7    -0.191857499193E+03    0.68658E-04   -0.25138E-03 13480   0.356E-01    0.170E-01
DAV:   8    -0.191857166790E+03    0.33240E-03   -0.72005E-04 11520   0.188E-01    0.661E-02
DAV:   9    -0.191857137186E+03    0.29604E-04   -0.29411E-04  8800   0.113E-01
  32 F= -.19185714E+03 E0= -.19177015E+03  d E =-.815731E-01
       N       E                     dE             d eps       ncg     rms          rms(c)
DAV:   1    -0.191852442485E+03    0.47243E-02   -0.40126E+00  8160   0.426E+00    0.400E-01
DAV:   2    -0.191862319190E+03   -0.98767E-02   -0.80633E-02 12360   0.114E+00    0.806E-01
DAV:   3    -0.191856713727E+03    0.56055E-02   -0.18003E-02 13080   0.110E+00    0.420E-01
DAV:   4    -0.191855053069E+03    0.16607E-02   -0.40472E-03 12000   0.426E-01    0.189E-01
DAV:   5    -0.191854484888E+03    0.56818E-03   -0.18229E-03 11560   0.215E-01    0.119E-01
DAV:   6    -0.191854821820E+03   -0.33693E-03   -0.13968E-03 10800   0.296E-01    0.210E-01
DAV:   7    -0.191854325475E+03    0.49634E-03   -0.82390E-04 10080   0.238E-01    0.530E-02
DAV:   8    -0.191854320982E+03    0.44931E-05   -0.11773E-04  6760   0.873E-02
  33 F= -.19185432E+03 E0= -.19176681E+03  d E =0.281620E-02
       N       E                     dE             d eps       ncg     rms          rms(c)
DAV:   1    -0.191864710704E+03   -0.10385E-01   -0.91379E-01  8160   0.204E+00    0.236E-01
DAV:   2    -0.191868254152E+03   -0.35434E-02   -0.35236E-02 11280   0.630E-01    0.399E-01
DAV:   3    -0.191867261327E+03    0.99282E-03   -0.55871E-03 12240   0.618E-01    0.282E-01
DAV:   4    -0.191866327745E+03    0.93358E-03   -0.11980E-03 10880   0.269E-01    0.877E-02
DAV:   5    -0.191866495542E+03   -0.16780E-03   -0.65544E-04 10200   0.224E-01    0.144E-01
DAV:   6    -0.191866259225E+03    0.23632E-03   -0.41978E-04  9840   0.168E-01    0.343E-02
DAV:   7    -0.191866244964E+03    0.14261E-04   -0.98747E-05  7720   0.450E-02
  34 F= -.19186624E+03 E0= -.19177907E+03  d E =-.119240E-01
       N       E                     dE             d eps       ncg     rms          rms(c)
DAV:   1    -0.191878752176E+03   -0.12493E-01   -0.50628E+00  8160   0.478E+00    0.563E-01
DAV:   2    -0.191896915417E+03   -0.18163E-01   -0.20939E-01 11560   0.135E+00    0.720E-01
DAV:   3    -0.191897035830E+03   -0.12041E-03   -0.27103E-02 11200   0.138E+00    0.795E-01
DAV:   4    -0.191890453729E+03    0.65821E-02   -0.92685E-03 12560   0.808E-01    0.285E-01
DAV:   5    -0.191890412256E+03    0.41473E-04   -0.34809E-03 11080   0.542E-01    0.282E-01
DAV:   6    -0.191889562434E+03    0.84982E-03   -0.21252E-03 12480   0.293E-01    0.700E-02
DAV:   7    -0.191889469941E+03    0.92493E-04   -0.39029E-04 10440   0.733E-02
  35 F= -.19188947E+03 E0= -.19180304E+03  d E =-.232250E-01
       N       E                     dE             d eps       ncg     rms          rms(c)
DAV:   1    -0.191894232420E+03   -0.46700E-02   -0.37471E+00  8160   0.411E+00    0.471E-01
DAV:   2    -0.191907382537E+03   -0.13150E-01   -0.15101E-01 11520   0.117E+00    0.598E-01
DAV:   3    -0.191907734294E+03   -0.35176E-03   -0.18934E-02 11280   0.116E+00    0.664E-01
DAV:   4    -0.191903022533E+03    0.47118E-02   -0.62389E-03 11480   0.672E-01    0.217E-01
DAV:   5    -0.191903204111E+03   -0.18158E-03   -0.23164E-03 11240   0.443E-01    0.246E-01
DAV:   6    -0.191902628664E+03    0.57545E-03   -0.15864E-03 12560   0.275E-01    0.785E-02
DAV:   7    -0.191902518121E+03    0.11054E-03   -0.35181E-04 11320   0.871E-02    0.390E-02
DAV:   8    -0.191902524967E+03   -0.68456E-05   -0.91479E-05  7240   0.799E-02
  36 F= -.19190252E+03 E0= -.19181660E+03  d E =-.130550E-01
       N       E                     dE             d eps       ncg     rms          rms(c)
DAV:   1    -0.191905358261E+03   -0.28401E-02   -0.40091E-01  8160   0.135E+00    0.156E-01
DAV:   2    -0.191906568467E+03   -0.12102E-02   -0.16786E-02 10600   0.367E-01    0.136E-01
DAV:   3    -0.191906894912E+03   -0.32645E-03   -0.17314E-03 12160   0.344E-01    0.224E-01
DAV:   4    -0.191906323670E+03    0.57124E-03   -0.81619E-04 10640   0.247E-01    0.668E-02
DAV:   5    -0.191906389226E+03   -0.65556E-04   -0.28251E-04  8720   0.148E-01
  37 F= -.19190639E+03 E0= -.19182072E+03  d E =-.386426E-02
       N       E                     dE             d eps       ncg     rms          rms(c)
DAV:   1    -0.191908474300E+03   -0.21506E-02   -0.41758E-01  8160   0.138E+00    0.167E-01
DAV:   2    -0.191909995714E+03   -0.15214E-02   -0.17392E-02 10320   0.405E-01    0.211E-01
DAV:   3    -0.191909844353E+03    0.15136E-03   -0.21067E-03 12440   0.398E-01    0.188E-01
DAV:   4    -0.191909458599E+03    0.38575E-03   -0.60279E-04 10080   0.212E-01    0.897E-02
DAV:   5    -0.191909472982E+03   -0.14383E-04   -0.33977E-04  9280   0.166E-01
  38 F= -.19190947E+03 E0= -.19182404E+03  d E =-.308376E-02
       N       E                     dE             d eps       ncg     rms          rms(c)
DAV:   1    -0.191911381268E+03   -0.19227E-02   -0.33680E-01  8160   0.124E+00    0.160E-01
DAV:   2    -0.191912919010E+03   -0.15377E-02   -0.14969E-02 10560   0.484E-01    0.258E-01
DAV:   3    -0.191912404086E+03    0.51492E-03   -0.24541E-03 11480   0.411E-01    0.180E-01
DAV:   4    -0.191912143994E+03    0.26009E-03   -0.72720E-04 10360   0.217E-01    0.101E-01
DAV:   5    -0.191912072174E+03    0.71819E-04   -0.31455E-04  9480   0.156E-01
  39 F= -.19191207E+03 E0= -.19182681E+03  d E =-.259919E-02
       N       E                     dE             d eps       ncg     rms          rms(c)
DAV:   1    -0.191913069284E+03   -0.92529E-03   -0.12970E+00  8160   0.243E+00    0.293E-01
DAV:   2    -0.191918004585E+03   -0.49353E-02   -0.53245E-02 11240   0.789E-01    0.397E-01
DAV:   3    -0.191916935684E+03    0.10689E-02   -0.63298E-03 12720   0.705E-01    0.293E-01
DAV:   4    -0.191915927668E+03    0.10080E-02   -0.16018E-03 11160   0.331E-01    0.131E-01
DAV:   5    -0.191916152436E+03   -0.22477E-03   -0.12830E-03 11520   0.293E-01    0.191E-01
DAV:   6    -0.191915869718E+03    0.28272E-03   -0.88972E-04 10320   0.231E-01    0.752E-02
DAV:   7    -0.191915764003E+03    0.10571E-03   -0.17436E-04  7200   0.797E-02    0.268E-02
DAV:   8    -0.191915769761E+03   -0.57579E-05   -0.70188E-05  8080   0.564E-02
  40 F= -.19191577E+03 E0= -.19183067E+03  d E =-.369759E-02
       N       E                     dE             d eps       ncg     rms          rms(c)
DAV:   1    -0.191915927442E+03   -0.16344E-03   -0.35468E-02  8160   0.401E-01    0.630E-02
DAV:   2    -0.191916501941E+03   -0.57450E-03   -0.21499E-03 12760   0.289E-01    0.219E-01
DAV:   3    -0.191915970539E+03    0.53140E-03   -0.68410E-04  9880   0.227E-01    0.306E-02
DAV:   4    -0.191915976391E+03   -0.58515E-05   -0.38433E-05  6280   0.534E-02
  41 F= -.19191598E+03 E0= -.19183083E+03  d E =-.206630E-03
