<?xml version="1.0" encoding="ISO-8859-1"?>
<modeling>
 <generator>
  <i name="program" type="string">vasp </i>
  <i name="version" type="string">5.4.1  </i>
  <i name="subversion" type="string">05Feb16 (build Jul 05 2020 17:13:04) complex                          parallel </i>
  <i name="platform" type="string">IFC91_ompi </i>
  <i name="date" type="string">2024 04 25 </i>
  <i name="time" type="string">15:09:41 </i>
 </generator>
 <incar>
  <i type="int" name="ISTART">     0</i>
  <i type="string" name="PREC">normal</i>
  <i type="string" name="ALGO"> Normal</i>
  <i type="int" name="ISPIN">     1</i>
  <i type="int" name="ICHARG">     2</i>
  <i type="int" name="IBRION">     1</i>
  <i type="int" name="NSW">   100</i>
  <i type="int" name="ISIF">     3</i>
  <i type="int" name="ISYM">     0</i>
  <i name="SYMPREC">      0.00000001</i>
  <i name="POTIM">      0.50000000</i>
  <i type="logical" name="LREAL"> F  </i>
  <i type="logical" name="LPLANE"> F  </i>
  <i type="int" name="ISMEAR">     0</i>
  <i type="logical" name="LWAVE"> F  </i>
  <i type="logical" name="LCHARG"> F  </i>
  <v type="int" name="KPOINT_BSE">    -1     0     0     0</v>
 </incar>
 <kpoints>
  <generation param="Gamma">
   <v type="int" name="divisions">       8        8        1 </v>
   <v name="usershift">      0.00000000       0.00000000       0.00000000 </v>
   <v name="genvec1">      0.12500000       0.00000000       0.00000000 </v>
   <v name="genvec2">     -0.00000000       0.12500000       0.00000000 </v>
   <v name="genvec3">      0.00000000       0.00000000       1.00000000 </v>
   <v name="shift">      0.00000000       0.00000000       0.00000000 </v>
  </generation>
  <varray name="kpointlist" >
   <v>       0.00000000       0.00000000       0.00000000 </v>
   <v>       0.12500000       0.00000000       0.00000000 </v>
   <v>       0.25000000       0.00000000       0.00000000 </v>
   <v>       0.37500000       0.00000000       0.00000000 </v>
   <v>       0.50000000       0.00000000       0.00000000 </v>
   <v>       0.00000000       0.12500000       0.00000000 </v>
   <v>       0.12500000       0.12500000       0.00000000 </v>
   <v>       0.25000000       0.12500000       0.00000000 </v>
   <v>       0.37500000       0.12500000       0.00000000 </v>
   <v>       0.50000000       0.12500000       0.00000000 </v>
   <v>      -0.37500000       0.12500000       0.00000000 </v>
   <v>      -0.25000000       0.12500000       0.00000000 </v>
   <v>      -0.12500000       0.12500000       0.00000000 </v>
   <v>       0.00000000       0.25000000       0.00000000 </v>
   <v>       0.12500000       0.25000000       0.00000000 </v>
   <v>       0.25000000       0.25000000       0.00000000 </v>
   <v>       0.37500000       0.25000000       0.00000000 </v>
   <v>       0.50000000       0.25000000       0.00000000 </v>
   <v>      -0.37500000       0.25000000       0.00000000 </v>
   <v>      -0.25000000       0.25000000       0.00000000 </v>
   <v>      -0.12500000       0.25000000       0.00000000 </v>
   <v>      -0.00000000       0.37500000       0.00000000 </v>
   <v>       0.12500000       0.37500000       0.00000000 </v>
   <v>       0.25000000       0.37500000       0.00000000 </v>
   <v>       0.37500000       0.37500000       0.00000000 </v>
   <v>       0.50000000       0.37500000       0.00000000 </v>
   <v>      -0.37500000       0.37500000       0.00000000 </v>
   <v>      -0.25000000       0.37500000       0.00000000 </v>
   <v>      -0.12500000       0.37500000       0.00000000 </v>
   <v>       0.00000000       0.50000000       0.00000000 </v>
   <v>       0.12500000       0.50000000       0.00000000 </v>
   <v>       0.25000000       0.50000000       0.00000000 </v>
   <v>       0.37500000       0.50000000       0.00000000 </v>
   <v>       0.50000000       0.50000000       0.00000000 </v>
  </varray>
  <varray name="weights" >
   <v>       0.01562500 </v>
   <v>       0.03125000 </v>
   <v>       0.03125000 </v>
   <v>       0.03125000 </v>
   <v>       0.01562500 </v>
   <v>       0.03125000 </v>
   <v>       0.03125000 </v>
   <v>       0.03125000 </v>
   <v>       0.03125000 </v>
   <v>       0.03125000 </v>
   <v>       0.03125000 </v>
   <v>       0.03125000 </v>
   <v>       0.03125000 </v>
   <v>       0.03125000 </v>
   <v>       0.03125000 </v>
   <v>       0.03125000 </v>
   <v>       0.03125000 </v>
   <v>       0.03125000 </v>
   <v>       0.03125000 </v>
   <v>       0.03125000 </v>
   <v>       0.03125000 </v>
   <v>       0.03125000 </v>
   <v>       0.03125000 </v>
   <v>       0.03125000 </v>
   <v>       0.03125000 </v>
   <v>       0.03125000 </v>
   <v>       0.03125000 </v>
   <v>       0.03125000 </v>
   <v>       0.03125000 </v>
   <v>       0.01562500 </v>
   <v>       0.03125000 </v>
   <v>       0.03125000 </v>
   <v>       0.03125000 </v>
   <v>       0.01562500 </v>
  </varray>
 </kpoints>
 <parameters>
  <separator name="general" >
   <i type="string" name="SYSTEM">unknown system</i>
   <i type="logical" name="LCOMPAT"> F  </i>
  </separator>
  <separator name="electronic" >
   <i type="string" name="PREC">normal</i>
   <i name="ENMAX">    280.00000000</i>
   <i name="ENAUG">    373.43800000</i>
   <i name="EDIFF">      0.00010000</i>
   <i type="int" name="IALGO">    38</i>
   <i type="int" name="IWAVPR">    11</i>
   <i type="int" name="NBANDS">   120</i>
   <i name="NELECT">    159.00000000</i>
   <i type="int" name="TURBO">     0</i>
   <i type="int" name="IRESTART">     0</i>
   <i type="int" name="NREBOOT">     0</i>
   <i type="int" name="NMIN">     0</i>
   <i name="EREF">      0.00000000</i>
   <separator name="electronic smearing" >
    <i type="int" name="ISMEAR">     0</i>
    <i name="SIGMA">      0.20000000</i>
    <i name="KSPACING">      0.50000000</i>
    <i type="logical" name="KGAMMA"> T  </i>
   </separator>
   <separator name="electronic projectors" >
    <i type="logical" name="LREAL"> F  </i>
    <v name="ROPT">      0.00000000      0.00000000      0.00000000      0.00000000</v>
    <i type="int" name="LMAXPAW">  -100</i>
    <i type="int" name="LMAXMIX">     2</i>
    <i type="logical" name="NLSPLINE"> F  </i>
   </separator>
   <separator name="electronic startup" >
    <i type="int" name="ISTART">     0</i>
    <i type="int" name="ICHARG">     2</i>
    <i type="int" name="INIWAV">     1</i>
   </separator>
   <separator name="electronic spin" >
    <i type="int" name="ISPIN">     1</i>
    <i type="logical" name="LNONCOLLINEAR"> F  </i>
    <v name="MAGMOM">      1.00000000      1.00000000      1.00000000      1.00000000      1.00000000      1.00000000      1.00000000      1.00000000      1.00000000      1.00000000      1.00000000      1.00000000      1.00000000      1.00000000      1.00000000      1.00000000      1.00000000      1.00000000      1.00000000      1.00000000
      1.00000000      1.00000000      1.00000000      1.00000000      1.00000000      1.00000000      1.00000000</v>
    <i name="NUPDOWN">     -1.00000000</i>
    <i type="logical" name="LSORBIT"> F  </i>
    <v name="SAXIS">      0.00000000      0.00000000      1.00000000</v>
    <i type="logical" name="LSPIRAL"> F  </i>
    <v name="QSPIRAL">      0.00000000      0.00000000      0.00000000</v>
    <i type="logical" name="LZEROZ"> F  </i>
   </separator>
   <separator name="electronic exchange-correlation" >
    <i type="logical" name="LASPH"> F  </i>
    <i type="logical" name="LMETAGGA"> F  </i>
   </separator>
   <separator name="electronic convergence" >
    <i type="int" name="NELM">    60</i>
    <i type="int" name="NELMDL">    -5</i>
    <i type="int" name="NELMIN">     2</i>
    <i name="ENINI">    280.00000000</i>
    <separator name="electronic convergence detail" >
     <i type="logical" name="LDIAG"> T  </i>
     <i type="logical" name="LSUBROT"> F  </i>
     <i name="WEIMIN">      0.00100000</i>
     <i name="EBREAK">      0.00000021</i>
     <i name="DEPER">      0.30000000</i>
     <i type="int" name="NRMM">     4</i>
     <i name="TIME">      0.40000000</i>
    </separator>
   </separator>
   <separator name="electronic mixer" >
    <i name="AMIX">      0.40000000</i>
    <i name="BMIX">      1.00000000</i>
    <i name="AMIN">      0.10000000</i>
    <i name="AMIX_MAG">      1.60000000</i>
    <i name="BMIX_MAG">      1.00000000</i>
    <separator name="electronic mixer details" >
     <i type="int" name="IMIX">     4</i>
     <i type="logical" name="MIXFIRST"> F  </i>
     <i type="int" name="MAXMIX">   -45</i>
     <i name="WC">    100.00000000</i>
     <i type="int" name="INIMIX">     1</i>
     <i type="int" name="MIXPRE">     1</i>
     <i type="int" name="MREMOVE">     5</i>
    </separator>
   </separator>
   <separator name="electronic dipolcorrection" >
    <i type="logical" name="LDIPOL"> F  </i>
    <i type="logical" name="LMONO"> F  </i>
    <i type="int" name="IDIPOL">     0</i>
    <i name="EPSILON">      1.00000000</i>
    <v name="DIPOL">   -100.00000000   -100.00000000   -100.00000000</v>
    <i name="EFIELD">      0.00000000</i>
   </separator>
  </separator>
  <separator name="grids" >
   <i type="int" name="NGX">    42</i>
   <i type="int" name="NGY">    42</i>
   <i type="int" name="NGZ">   126</i>
   <i type="int" name="NGXF">    84</i>
   <i type="int" name="NGYF">    84</i>
   <i type="int" name="NGZF">   252</i>
   <i type="logical" name="ADDGRID"> F  </i>
  </separator>
  <separator name="ionic" >
   <i type="int" name="NSW">   100</i>
   <i type="int" name="IBRION">     1</i>
   <i type="int" name="ISIF">     3</i>
   <i name="PSTRESS">      0.00000000</i>
   <i name="EDIFFG">      0.00100000</i>
   <i type="int" name="NFREE">     0</i>
   <i name="POTIM">      0.50000000</i>
   <i name="SMASS">     -3.00000000</i>
   <i name="SCALEE">      1.00000000</i>
  </separator>
  <separator name="ionic md" >
   <i name="TEBEG">      0.00010000</i>
   <i name="TEEND">      0.00010000</i>
   <i type="int" name="NBLOCK">     1</i>
   <i type="int" name="KBLOCK">   100</i>
   <i type="int" name="NPACO">   256</i>
   <i name="APACO">     16.00000000</i>
  </separator>
  <separator name="symmetry" >
   <i type="int" name="ISYM">     0</i>
   <i name="SYMPREC">      0.00000001</i>
  </separator>
  <separator name="dos" >
   <i type="logical" name="LORBIT"> F  </i>
   <v name="RWIGS">     -1.00000000     -1.00000000     -1.00000000     -1.00000000</v>
   <i type="int" name="NEDOS">   301</i>
   <i name="EMIN">     10.00000000</i>
   <i name="EMAX">    -10.00000000</i>
   <i name="EFERMI">      0.00000000</i>
  </separator>
  <separator name="writing" >
   <i type="int" name="NWRITE">     2</i>
   <i type="logical" name="LWAVE"> F  </i>
   <i type="logical" name="LCHARG"> F  </i>
   <i type="logical" name="LPARD"> F  </i>
   <i type="logical" name="LVTOT"> F  </i>
   <i type="logical" name="LVHAR"> F  </i>
   <i type="logical" name="LELF"> F  </i>
   <i type="logical" name="LOPTICS"> F  </i>
   <v name="STM">      0.00000000      0.00000000      0.00000000      0.00000000      0.00000000      0.00000000      0.00000000</v>
  </separator>
  <separator name="performance" >
   <i type="int" name="NPAR">    40</i>
   <i type="int" name="NSIM">     4</i>
   <i type="int" name="NBLK">    -1</i>
   <i type="logical" name="LPLANE"> F  </i>
   <i type="logical" name="LSCALAPACK"> T  </i>
   <i type="logical" name="LSCAAWARE"> F  </i>
   <i type="logical" name="LSCALU"> F  </i>
   <i type="logical" name="LASYNC"> F  </i>
   <i type="logical" name="LORBITALREAL"> F  </i>
  </separator>
  <separator name="miscellaneous" >
   <i type="int" name="IDIOT">     3</i>
   <i type="logical" name="LMUSIC"> F  </i>
   <v name="POMASS">     50.94100000     95.94000000    183.85000000     32.06600000</v>
   <v name="DARWINR">      0.00000000      0.00000000      0.00000000      0.00000000</v>
   <v name="DARWINV">      1.00000000      1.00000000      1.00000000      1.00000000</v>
   <i type="logical" name="LCORR"> T  </i>
  </separator>
  <i type="logical" name="GGA_COMPAT"> T  </i>
  <i type="logical" name="LBERRY"> F  </i>
  <i type="int" name="ICORELEVEL">     0</i>
  <i type="logical" name="LDAU"> F  </i>
  <i type="int" name="I_CONSTRAINED_M">     0</i>
  <separator name="electronic exchange-correlation" >
   <i type="string" name="GGA">--</i>
   <i type="int" name="VOSKOWN">     0</i>
   <i type="logical" name="LHFCALC"> F  </i>
   <i type="string" name="PRECFOCK"></i>
   <i type="logical" name="LSYMGRAD"> F  </i>
   <i type="logical" name="LHFONE"> F  </i>
   <i type="logical" name="LRHFCALC"> F  </i>
   <i type="logical" name="LTHOMAS"> F  </i>
   <i type="logical" name="LMODELHF"> F  </i>
   <i name="ENCUT4O">     -1.00000000</i>
   <i type="int" name="EXXOEP">     0</i>
   <i type="int" name="FOURORBIT">     0</i>
   <i name="AEXX">      0.00000000</i>
   <i name="HFALPHA">      0.00000000</i>
   <i name="MCALPHA">      0.00000000</i>
   <i name="ALDAX">      1.00000000</i>
   <i name="AGGAX">      1.00000000</i>
   <i name="ALDAC">      1.00000000</i>
   <i name="AGGAC">      1.00000000</i>
   <i type="int" name="NKREDX">     1</i>
   <i type="int" name="NKREDY">     1</i>
   <i type="int" name="NKREDZ">     1</i>
   <i type="logical" name="SHIFTRED"> F  </i>
   <i type="logical" name="ODDONLY"> F  </i>
   <i type="logical" name="EVENONLY"> F  </i>
   <i type="int" name="LMAXFOCK">     0</i>
   <i type="int" name="NMAXFOCKAE">     0</i>
   <i type="logical" name="LFOCKAEDFT"> F  </i>
   <i name="HFSCREEN">      0.00000000</i>
   <i name="HFSCREENC">      0.00000000</i>
   <i type="int" name="NBANDSGWLOW">     0</i>
  </separator>
  <separator name="vdW DFT" >
   <i type="logical" name="LUSE_VDW"> F  </i>
   <i name="Zab_VDW">     -0.84910000</i>
   <i name="PARAM1">      0.12340000</i>
   <i name="PARAM2">      1.00000000</i>
   <i name="PARAM3">      0.00000000</i>
  </separator>
  <separator name="model GW" >
   <i type="int" name="MODEL_GW">     0</i>
   <i name="MODEL_EPS0">     58.26239943</i>
   <i name="MODEL_ALPHA">      1.00000000</i>
  </separator>
  <separator name="linear response parameters" >
   <i type="logical" name="LEPSILON"> F  </i>
   <i type="logical" name="LRPA"> F  </i>
   <i type="logical" name="LNABLA"> F  </i>
   <i type="logical" name="LVEL"> F  </i>
   <i type="int" name="KINTER">     0</i>
   <i name="CSHIFT">      0.10000000</i>
   <i name="OMEGAMAX">     -1.00000000</i>
   <i name="DEG_THRESHOLD">      0.00200000</i>
  </separator>
  <separator name="orbital magnetization" >
   <i type="logical" name="NUCIND"> F  </i>
   <v name="MAGPOS">      0.00000000      0.00000000      0.00000000</v>
   <i type="logical" name="LNICSALL"> T  </i>
   <i type="logical" name="ORBITALMAG"> F  </i>
   <i type="logical" name="LMAGBLOCH"> F  </i>
   <i type="logical" name="LCHIMAG"> F  </i>
   <i type="logical" name="LGAUGE"> T  </i>
   <i type="int" name="MAGATOM">     0</i>
   <v name="MAGDIPOL">      0.00000000      0.00000000      0.00000000</v>
   <v name="AVECCONST">      0.00000000      0.00000000      0.00000000</v>
  </separator>
  <separator name="response functions" >
   <i type="logical" name="LADDER"> F  </i>
   <i type="logical" name="LFXC"> F  </i>
   <i type="logical" name="LHARTREE"> T  </i>
   <i type="int" name="IBSE">     0</i>
   <v type="int" name="KPOINT">    -1     0     0     0</v>
   <i type="logical" name="LTCTE"> F  </i>
   <i type="logical" name="LTETE"> F  </i>
   <i type="logical" name="LTRIPLET"> F  </i>
   <i type="logical" name="LFXCEPS"> F  </i>
   <i type="logical" name="LFXHEG"> F  </i>
   <i type="int" name="NATURALO">     0</i>
   <i type="logical" name="L2ORDER"> F  </i>
   <i type="logical" name="LUSEW"> F  </i>
   <i name="ENCUTGW">     -2.00000000</i>
   <i name="ENCUTGWSOFT">     -2.00000000</i>
   <i name="ENCUTLF">     -1.00000000</i>
   <i type="int" name="LMAXMP2">    -1</i>
   <i name="SCISSOR">      0.00000000</i>
   <i type="int" name="NOMEGA">     0</i>
   <i type="int" name="NOMEGAR">     0</i>
   <i type="int" name="NBANDSGW">    -1</i>
   <i type="int" name="NBANDSO">    -1</i>
   <i type="int" name="NBANDSV">    -1</i>
   <i type="int" name="NELM">     1</i>
   <i type="int" name="NELMHF">     1</i>
   <i type="int" name="DIM">     3</i>
   <i type="int" name="ANTIRES">     0</i>
   <i name="OMEGAMAX">    -30.00000000</i>
   <i name="OMEGAMIN">    -30.00000000</i>
   <i name="OMEGATL">   -200.00000000</i>
   <i type="int" name="OMEGAGRID">     0</i>
   <i name="CSHIFT">     -0.10000000</i>
   <i type="logical" name="SELFENERGY"> F  </i>
   <i type="logical" name="LSPECTRAL"> F  </i>
   <i type="logical" name="LSPECTRALGW"> F  </i>
   <i type="logical" name="LSINGLES"> F  </i>
   <i type="logical" name="LFERMIGW"> F  </i>
   <i type="logical" name="ODDONLYGW"> F  </i>
   <i type="logical" name="EVENONLYGW"> F  </i>
   <i type="int" name="NKREDLFX">     1</i>
   <i type="int" name="NKREDLFY">     1</i>
   <i type="int" name="NKREDLFZ">     1</i>
   <i type="int" name="MAXMEM">  1800</i>
   <i type="int" name="TELESCOPE">     0</i>
   <i type="int" name="TAUPAR">     1</i>
   <i type="int" name="OMEGAPAR">    -1</i>
   <i name="LAMBDA">      1.00000000</i>
  </separator>
  <separator name="External order field" >
   <i name="OFIELD_KAPPA">      0.00000000</i>
   <v name="OFIELD_K">      0.00000000      0.00000000      0.00000000</v>
   <i name="OFIELD_Q6_NEAR">      0.00000000</i>
   <i name="OFIELD_Q6_FAR">      0.00000000</i>
   <i name="OFIELD_A">      0.00000000</i>
  </separator>
 </parameters>
 <atominfo>
  <atoms>      27 </atoms>
  <types>       4 </types>
  <array name="atoms" >
   <dimension dim="1">ion</dimension>
   <field type="string">element</field>
   <field type="int">atomtype</field>
   <set>
    <rc><c>V </c><c>   1</c></rc>
    <rc><c>V </c><c>   1</c></rc>
    <rc><c>V </c><c>   1</c></rc>
    <rc><c>Mo</c><c>   2</c></rc>
    <rc><c>Mo</c><c>   2</c></rc>
    <rc><c>Mo</c><c>   2</c></rc>
    <rc><c>W </c><c>   3</c></rc>
    <rc><c>W </c><c>   3</c></rc>
    <rc><c>W </c><c>   3</c></rc>
    <rc><c>S </c><c>   4</c></rc>
    <rc><c>S </c><c>   4</c></rc>
    <rc><c>S </c><c>   4</c></rc>
    <rc><c>S </c><c>   4</c></rc>
    <rc><c>S </c><c>   4</c></rc>
    <rc><c>S </c><c>   4</c></rc>
    <rc><c>S </c><c>   4</c></rc>
    <rc><c>S </c><c>   4</c></rc>
    <rc><c>S </c><c>   4</c></rc>
    <rc><c>S </c><c>   4</c></rc>
    <rc><c>S </c><c>   4</c></rc>
    <rc><c>S </c><c>   4</c></rc>
    <rc><c>S </c><c>   4</c></rc>
    <rc><c>S </c><c>   4</c></rc>
    <rc><c>S </c><c>   4</c></rc>
    <rc><c>S </c><c>   4</c></rc>
    <rc><c>S </c><c>   4</c></rc>
    <rc><c>S </c><c>   4</c></rc>
   </set>
  </array>
  <array name="atomtypes" >
   <dimension dim="1">type</dimension>
   <field type="int">atomspertype</field>
   <field type="string">element</field>
   <field>mass</field>
   <field>valence</field>
   <field type="string">pseudopotential</field>
   <set>
    <rc><c>   3</c><c>V </c><c>     50.94100000</c><c>      5.00000000</c><c> PAW_PBE V 08Apr2002                    </c></rc>
    <rc><c>   3</c><c>Mo</c><c>     95.94000000</c><c>      6.00000000</c><c> PAW_PBE Mo 08Apr2002                   </c></rc>
    <rc><c>   3</c><c>W </c><c>    183.85000000</c><c>      6.00000000</c><c> PAW_PBE W 08Apr2002                    </c></rc>
    <rc><c>  18</c><c>S </c><c>     32.06600000</c><c>      6.00000000</c><c>  PAW_PBE S 17Jan2003                   </c></rc>
   </set>
  </array>
 </atominfo>
 <structure name="initialpos" >
  <crystal>
   <varray name="basis" >
    <v>       8.66999996       5.03999989       0.00000000 </v>
    <v>      -8.66999982       5.04000013       0.00000000 </v>
    <v>       0.00000000       0.00000000      30.00000000 </v>
   </varray>
   <i name="volume">   2621.80797419 </i>
   <varray name="rec_basis" >
    <v>       0.05767013       0.09920635       0.00000000 </v>
    <v>      -0.05767013       0.09920635       0.00000000 </v>
    <v>       0.00000000       0.00000000       0.03333333 </v>
   </varray>
  </crystal>
  <varray name="positions" >
   <v>       0.33333334       0.00000000       0.00000000 </v>
   <v>       0.66666669       0.66666669       0.00000000 </v>
   <v>       0.66666669       0.33333334       0.00000000 </v>
   <v>       0.33333334       0.33333334       0.00000000 </v>
   <v>       0.00000000       0.66666669       0.00000000 </v>
   <v>       0.66666669       0.00000000       0.00000000 </v>
   <v>       0.00000000       0.00000000       0.00000000 </v>
   <v>       1.00000000       0.33333334       0.00000000 </v>
   <v>       0.33333334       0.66666669       0.00000000 </v>
   <v>       0.11068511       0.22244981       0.95539999 </v>
   <v>       0.22244981       0.11068511       0.04460000 </v>
   <v>       0.11068511       0.55578315       0.95539999 </v>
   <v>       0.22244981       0.44401845       0.04460000 </v>
   <v>       0.11068511       0.88911647       0.95539999 </v>
   <v>       0.22244981       0.77735180       0.04460000 </v>
   <v>       0.44401845       0.22244981       0.95539999 </v>
   <v>       0.55578315       0.11068511       0.04460000 </v>
   <v>       0.44401845       0.55578315       0.95539999 </v>
   <v>       0.55578315       0.44401845       0.04460000 </v>
   <v>       0.44401845       0.88911647       0.95539999 </v>
   <v>       0.55578315       0.77735180       0.04460000 </v>
   <v>       0.77735180       0.22244981       0.95539999 </v>
   <v>       0.88911647       0.11068511       0.04460000 </v>
   <v>       0.77735180       0.55578315       0.95539999 </v>
   <v>       0.88911647       0.44401845       0.04460000 </v>
   <v>       0.77735180       0.88911647       0.95539999 </v>
   <v>       0.88911647       0.77735180       0.04460000 </v>
  </varray>
 </structure>
 <calculation>
  <scstep>
   <time name="dav">   22.00   22.05</time>
   <time name="total">   22.04   22.10</time>
   <energy>
    <i name="alphaZ">     81.65567618 </i>
    <i name="ewald">  41890.23010356 </i>
    <i name="hartreedc"> -47722.87971471 </i>
    <i name="XCdc">   -242.92665272 </i>
    <i name="pawpsdc">   3467.42045192 </i>
    <i name="pawaedc">  -2871.19716117 </i>
    <i name="eentropy">     -0.54997772 </i>
    <i name="bandstr">   -239.17088132 </i>
    <i name="atom">   6761.44252427 </i>
    <i name="e_fr_energy">   1124.02436828 </i>
    <i name="e_wo_entrp">   1124.57434600 </i>
    <i name="e_0_energy">   1124.29935714 </i>
   </energy>
  </scstep>
  <scstep>
   <time name="dav">   28.47   28.54</time>
   <time name="total">   28.47   28.55</time>
   <energy>
    <i name="e_fr_energy">     -6.25902806 </i>
    <i name="e_wo_entrp">     -6.08236821 </i>
    <i name="e_0_energy">     -6.17069814 </i>
   </energy>
  </scstep>
  <scstep>
   <time name="dav">   27.98   28.05</time>
   <time name="total">   27.98   28.06</time>
   <energy>
    <i name="e_fr_energy">   -200.28957106 </i>
    <i name="e_wo_entrp">   -200.02277874 </i>
    <i name="e_0_energy">   -200.15617490 </i>
   </energy>
  </scstep>
  <scstep>
   <time name="dav">   30.35   30.42</time>
   <time name="total">   30.35   30.43</time>
   <energy>
    <i name="e_fr_energy">   -209.08011252 </i>
    <i name="e_wo_entrp">   -208.75584499 </i>
    <i name="e_0_energy">   -208.91797876 </i>
   </energy>
  </scstep>
  <scstep>
   <time name="dav">   29.20   29.27</time>
   <time name="total">   29.66   29.74</time>
   <energy>
    <i name="e_fr_energy">   -209.39399366 </i>
    <i name="e_wo_entrp">   -209.07170562 </i>
    <i name="e_0_energy">   -209.23284964 </i>
   </energy>
  </scstep>
  <scstep>
   <time name="dav">   31.10   31.18</time>
   <time name="total">   31.60   31.69</time>
   <energy>
    <i name="e_fr_energy">   -237.09524831 </i>
    <i name="e_wo_entrp">   -236.79550481 </i>
    <i name="e_0_energy">   -236.94537656 </i>
   </energy>
  </scstep>
  <scstep>
   <time name="dav">   33.17   33.25</time>
   <time name="total">   33.67   33.76</time>
   <energy>
    <i name="e_fr_energy">   -196.37216373 </i>
    <i name="e_wo_entrp">   -196.08656285 </i>
    <i name="e_0_energy">   -196.22936329 </i>
   </energy>
  </scstep>
  <scstep>
   <time name="dav">   30.20   30.27</time>
   <time name="total">   30.71   30.79</time>
   <energy>
    <i name="e_fr_energy">   -189.12000808 </i>
    <i name="e_wo_entrp">   -188.81295217 </i>
    <i name="e_0_energy">   -188.96648013 </i>
   </energy>
  </scstep>
  <scstep>
   <time name="dav">   33.15   33.23</time>
   <time name="total">   33.67   33.76</time>
   <energy>
    <i name="e_fr_energy">   -187.44333262 </i>
    <i name="e_wo_entrp">   -187.13072876 </i>
    <i name="e_0_energy">   -187.28703069 </i>
   </energy>
  </scstep>
  <scstep>
   <time name="dav">   33.20   33.28</time>
   <time name="total">   33.74   33.83</time>
   <energy>
    <i name="e_fr_energy">   -186.96945552 </i>
    <i name="e_wo_entrp">   -186.61392664 </i>
    <i name="e_0_energy">   -186.79169108 </i>
   </energy>
  </scstep>
  <scstep>
   <time name="dav">   31.50   31.57</time>
   <time name="total">   32.03   32.11</time>
   <energy>
    <i name="e_fr_energy">   -186.97559921 </i>
    <i name="e_wo_entrp">   -186.63682927 </i>
    <i name="e_0_energy">   -186.80621424 </i>
   </energy>
  </scstep>
  <scstep>
   <time name="dav">   32.67   32.75</time>
   <time name="total">   33.20   33.29</time>
   <energy>
    <i name="e_fr_energy">   -186.91896714 </i>
    <i name="e_wo_entrp">   -186.57972688 </i>
    <i name="e_0_energy">   -186.74934701 </i>
   </energy>
  </scstep>
  <scstep>
   <time name="dav">   32.28   32.35</time>
   <time name="total">   32.81   32.90</time>
   <energy>
    <i name="e_fr_energy">   -186.86185319 </i>
    <i name="e_wo_entrp">   -186.51914853 </i>
    <i name="e_0_energy">   -186.69050086 </i>
   </energy>
  </scstep>
  <scstep>
   <time name="dav">   32.28   32.35</time>
   <time name="total">   32.81   32.90</time>
   <energy>
    <i name="e_fr_energy">   -186.84689219 </i>
    <i name="e_wo_entrp">   -186.49762905 </i>
    <i name="e_0_energy">   -186.67226062 </i>
   </energy>
  </scstep>
  <scstep>
   <time name="dav">   30.93   31.00</time>
   <time name="total">   31.46   31.54</time>
   <energy>
    <i name="e_fr_energy">   -186.83781936 </i>
    <i name="e_wo_entrp">   -186.48920062 </i>
    <i name="e_0_energy">   -186.66350999 </i>
   </energy>
  </scstep>
  <scstep>
   <time name="dav">   32.48   32.55</time>
   <time name="total">   33.01   33.10</time>
   <energy>
    <i name="e_fr_energy">   -186.83724090 </i>
    <i name="e_wo_entrp">   -186.48961014 </i>
    <i name="e_0_energy">   -186.66342552 </i>
   </energy>
  </scstep>
  <scstep>
   <time name="dav">   31.01   31.09</time>
   <time name="total">   31.55   31.63</time>
   <energy>
    <i name="e_fr_energy">   -186.83474228 </i>
    <i name="e_wo_entrp">   -186.48932649 </i>
    <i name="e_0_energy">   -186.66203439 </i>
   </energy>
  </scstep>
  <scstep>
   <time name="dav">   31.75   31.82</time>
   <time name="total">   32.28   32.36</time>
   <energy>
    <i name="e_fr_energy">   -186.83368347 </i>
    <i name="e_wo_entrp">   -186.48702068 </i>
    <i name="e_0_energy">   -186.66035208 </i>
   </energy>
  </scstep>
  <scstep>
   <time name="dav">   26.81   26.88</time>
   <time name="total">   27.35   27.42</time>
   <energy>
    <i name="e_fr_energy">   -186.83424307 </i>
    <i name="e_wo_entrp">   -186.48781973 </i>
    <i name="e_0_energy">   -186.66103140 </i>
   </energy>
  </scstep>
  <scstep>
   <time name="dav">   25.00   25.06</time>
   <time name="total">   25.53   25.60</time>
   <energy>
    <i name="e_fr_energy">   -186.83464071 </i>
    <i name="e_wo_entrp">   -186.48839919 </i>
    <i name="e_0_energy">   -186.66151995 </i>
   </energy>
  </scstep>
  <scstep>
   <time name="dav">   21.04   21.09</time>
   <time name="total">   21.57   21.63</time>
   <energy>
    <i name="e_fr_energy">   -186.83551015 </i>
    <i name="e_wo_entrp">   -186.48910463 </i>
    <i name="e_0_energy">   -186.66230739 </i>
   </energy>
  </scstep>
  <scstep>
   <time name="dav">   18.49   18.54</time>
   <time name="total">   19.03   19.08</time>
   <energy>
    <i name="e_fr_energy">   -186.83622487 </i>
    <i name="e_wo_entrp">   -186.48974666 </i>
    <i name="e_0_energy">   -186.66298577 </i>
   </energy>
  </scstep>
  <scstep>
   <time name="dav">   20.59   20.64</time>
   <time name="total">   21.12   21.18</time>
   <energy>
    <i name="e_fr_energy">   -186.83745556 </i>
    <i name="e_wo_entrp">   -186.49109382 </i>
    <i name="e_0_energy">   -186.66427469 </i>
   </energy>
  </scstep>
  <scstep>
   <time name="dav">   19.04   19.08</time>
   <time name="total">   19.57   19.63</time>
   <energy>
    <i name="e_fr_energy">   -186.83800771 </i>
    <i name="e_wo_entrp">   -186.49163127 </i>
    <i name="e_0_energy">   -186.66481949 </i>
   </energy>
  </scstep>
  <scstep>
   <time name="dav">   16.60   16.64</time>
   <time name="total">   17.14   17.19</time>
   <energy>
    <i name="e_fr_energy">   -186.83843057 </i>
    <i name="e_wo_entrp">   -186.49200302 </i>
    <i name="e_0_energy">   -186.66521679 </i>
   </energy>
  </scstep>
  <scstep>
   <time name="dav">   19.20   19.25</time>
   <time name="total">   19.73   19.79</time>
   <energy>
    <i name="e_fr_energy">   -186.83864475 </i>
    <i name="e_wo_entrp">   -186.49223558 </i>
    <i name="e_0_energy">   -186.66544017 </i>
   </energy>
  </scstep>
  <scstep>
   <time name="dav">   19.55   19.60</time>
   <time name="total">   20.08   20.14</time>
   <energy>
    <i name="e_fr_energy">   -186.83874787 </i>
    <i name="e_wo_entrp">   -186.49234888 </i>
    <i name="e_0_energy">   -186.66554837 </i>
   </energy>
  </scstep>
  <scstep>
   <time name="dav">   20.57   20.62</time>
   <time name="total">   20.61   20.67</time>
   <energy>
    <i name="alphaZ">     81.65567618 </i>
    <i name="ewald">  41890.23010356 </i>
    <i name="hartreedc"> -47832.77669028 </i>
    <i name="XCdc">   -231.61216156 </i>
    <i name="pawpsdc">   4191.98154626 </i>
    <i name="pawaedc">  -3609.97856610 </i>
    <i name="eentropy">     -0.34639888 </i>
    <i name="bandstr">  -1437.43482177 </i>
    <i name="atom">   6761.44252427 </i>
    <i name="e_fr_energy">   -186.83878830 </i>
    <i name="e_wo_entrp">   -186.49238942 </i>
    <i name="e_0_energy">   -186.66558886 </i>
   </energy>
  </scstep>
  <structure>
   <crystal>
    <varray name="basis" >
     <v>       8.66999996       5.03999989       0.00000000 </v>
     <v>      -8.66999982       5.04000013       0.00000000 </v>
     <v>       0.00000000       0.00000000      30.00000000 </v>
    </varray>
    <i name="volume">   2621.80797419 </i>
    <varray name="rec_basis" >
     <v>       0.05767013       0.09920635       0.00000000 </v>
     <v>      -0.05767013       0.09920635       0.00000000 </v>
     <v>       0.00000000       0.00000000       0.03333333 </v>
    </varray>
   </crystal>
   <varray name="positions" >
    <v>       0.33333334       0.00000000       0.00000000 </v>
    <v>       0.66666669       0.66666669       0.00000000 </v>
    <v>       0.66666669       0.33333334       0.00000000 </v>
    <v>       0.33333334       0.33333334       0.00000000 </v>
    <v>       0.00000000       0.66666669       0.00000000 </v>
    <v>       0.66666669       0.00000000       0.00000000 </v>
    <v>       0.00000000       0.00000000       0.00000000 </v>
    <v>       1.00000000       0.33333334       0.00000000 </v>
    <v>       0.33333334       0.66666669       0.00000000 </v>
    <v>       0.11068511       0.22244981       0.95539999 </v>
    <v>       0.22244981       0.11068511       0.04460000 </v>
    <v>       0.11068511       0.55578315       0.95539999 </v>
    <v>       0.22244981       0.44401845       0.04460000 </v>
    <v>       0.11068511       0.88911647       0.95539999 </v>
    <v>       0.22244981       0.77735180       0.04460000 </v>
    <v>       0.44401845       0.22244981       0.95539999 </v>
    <v>       0.55578315       0.11068511       0.04460000 </v>
    <v>       0.44401845       0.55578315       0.95539999 </v>
    <v>       0.55578315       0.44401845       0.04460000 </v>
    <v>       0.44401845       0.88911647       0.95539999 </v>
    <v>       0.55578315       0.77735180       0.04460000 </v>
    <v>       0.77735180       0.22244981       0.95539999 </v>
    <v>       0.88911647       0.11068511       0.04460000 </v>
    <v>       0.77735180       0.55578315       0.95539999 </v>
    <v>       0.88911647       0.44401845       0.04460000 </v>
    <v>       0.77735180       0.88911647       0.95539999 </v>
    <v>       0.88911647       0.77735180       0.04460000 </v>
   </varray>
  </structure>
  <varray name="forces" >
   <v>      -0.00234149       0.10372924       0.10460251 </v>
   <v>       0.09476572      -0.03686133      -0.10869981 </v>
   <v>      -0.09465508      -0.05445482       0.00268479 </v>
   <v>       0.04474788       0.01191889      -0.00924291 </v>
   <v>      -0.00683378      -0.03585278      -0.03642289 </v>
   <v>      -0.03724565       0.01020611       0.04569147 </v>
   <v>       0.07164907      -0.04786657      -0.13476613 </v>
   <v>      -0.06765656      -0.02494231       0.00566403 </v>
   <v>      -0.00446877       0.05401486       0.13088821 </v>
   <v>       0.05344107      -0.15263771      -2.91493016 </v>
   <v>       0.69546042      -0.13362860       2.12668635 </v>
   <v>       0.27205407      -0.02331152      -2.89235435 </v>
   <v>      -0.28882854       0.01029280       2.90916901 </v>
   <v>       0.34543427       0.69228055      -2.14935607 </v>
   <v>      -0.36012750       0.72136710       2.18422698 </v>
   <v>       0.89131613       0.00260140      -1.46044823 </v>
   <v>      -0.89796344      -0.02353214       1.47161155 </v>
   <v>       0.39550609       0.72091825      -2.16986682 </v>
   <v>       0.32480597       0.66317800       1.42282771 </v>
   <v>      -0.66001015      -0.13890130      -2.10271849 </v>
   <v>       0.64326724      -0.16172493       2.09855458 </v>
   <v>      -0.65220455       0.15958324      -2.11696270 </v>
   <v>      -0.07985443       0.14960950       2.89588046 </v>
   <v>      -0.34421211      -0.66166790      -1.43146945 </v>
   <v>      -0.35914249      -0.69435204       2.15909500 </v>
   <v>       0.63117972      -0.55653159      -2.17223148 </v>
   <v>      -0.60808311      -0.55343441       2.14188681 </v>
  </varray>
  <varray name="stress" >
   <v>       7.31111916      -0.00343180      -1.52023604 </v>
   <v>      -0.00343190       4.41604779      -0.05275650 </v>
   <v>      -1.52023591      -0.05275659      30.32404206 </v>
  </varray>
  <energy>
   <i name="e_fr_energy">   -186.83878830 </i>
   <i name="e_wo_entrp">   -186.66558886 </i>
   <i name="e_0_energy">     -0.34639888 </i>
  </energy>
  <time name="totalsc">  815.27  817.47</time>
 </calculation>
 <calculation>
  <scstep>
   <time name="dav">   21.92   21.98</time>
   <time name="total">   22.47   22.52</time>
   <energy>
    <i name="alphaZ">     78.92756838 </i>
    <i name="ewald">  39382.45456391 </i>
    <i name="hartreedc"> -45339.84872840 </i>
    <i name="XCdc">   -239.06692463 </i>
    <i name="pawpsdc">   4191.98091321 </i>
    <i name="pawaedc">  -3609.97800869 </i>
    <i name="eentropy">     -0.29775496 </i>
    <i name="bandstr">  -1413.04879771 </i>
    <i name="atom">   6761.44252427 </i>
    <i name="e_fr_energy">   -187.43464461 </i>
    <i name="e_wo_entrp">   -187.13688965 </i>
    <i name="e_0_energy">   -187.28576713 </i>
   </energy>
  </scstep>
  <scstep>
   <time name="dav">   30.56   30.63</time>
   <time name="total">   31.09   31.18</time>
   <energy>
    <i name="e_fr_energy">   -189.15752087 </i>
    <i name="e_wo_entrp">   -188.84454442 </i>
    <i name="e_0_energy">   -189.00103265 </i>
   </energy>
  </scstep>
  <scstep>
   <time name="dav">   30.84   30.92</time>
   <time name="total">   31.38   31.47</time>
   <energy>
    <i name="e_fr_energy">   -189.35464044 </i>
    <i name="e_wo_entrp">   -189.06524573 </i>
    <i name="e_0_energy">   -189.20994309 </i>
   </energy>
  </scstep>
  <scstep>
   <time name="dav">   31.17   31.24</time>
   <time name="total">   31.71   31.80</time>
   <energy>
    <i name="e_fr_energy">   -188.72287902 </i>
    <i name="e_wo_entrp">   -188.42901657 </i>
    <i name="e_0_energy">   -188.57594780 </i>
   </energy>
  </scstep>
  <scstep>
   <time name="dav">   27.78   27.84</time>
   <time name="total">   28.32   28.39</time>
   <energy>
    <i name="e_fr_energy">   -188.70522566 </i>
    <i name="e_wo_entrp">   -188.40575784 </i>
    <i name="e_0_energy">   -188.55549175 </i>
   </energy>
  </scstep>
  <scstep>
   <time name="dav">   31.36   31.43</time>
   <time name="total">   31.90   31.98</time>
   <energy>
    <i name="e_fr_energy">   -188.75686380 </i>
    <i name="e_wo_entrp">   -188.45594635 </i>
    <i name="e_0_energy">   -188.60640507 </i>
   </energy>
  </scstep>
  <scstep>
   <time name="dav">   31.36   31.44</time>
   <time name="total">   31.91   31.99</time>
   <energy>
    <i name="e_fr_energy">   -188.62015868 </i>
    <i name="e_wo_entrp">   -188.32561744 </i>
    <i name="e_0_energy">   -188.47288806 </i>
   </energy>
  </scstep>
  <scstep>
   <time name="dav">   31.10   31.17</time>
   <time name="total">   31.64   31.72</time>
   <energy>
    <i name="e_fr_energy">   -188.61483113 </i>
    <i name="e_wo_entrp">   -188.31970797 </i>
    <i name="e_0_energy">   -188.46726955 </i>
   </energy>
  </scstep>
  <scstep>
   <time name="dav">   31.57   31.65</time>
   <time name="total">   32.12   32.20</time>
   <energy>
    <i name="e_fr_energy">   -188.60368894 </i>
    <i name="e_wo_entrp">   -188.30841798 </i>
    <i name="e_0_energy">   -188.45605346 </i>
   </energy>
  </scstep>
  <scstep>
   <time name="dav">   29.38   29.45</time>
   <time name="total">   29.92   30.00</time>
   <energy>
    <i name="e_fr_energy">   -188.60285932 </i>
    <i name="e_wo_entrp">   -188.30752402 </i>
    <i name="e_0_energy">   -188.45519167 </i>
   </energy>
  </scstep>
  <scstep>
   <time name="dav">   30.45   30.53</time>
   <time name="total">   31.00   31.08</time>
   <energy>
    <i name="e_fr_energy">   -188.60219353 </i>
    <i name="e_wo_entrp">   -188.30744823 </i>
    <i name="e_0_energy">   -188.45482088 </i>
   </energy>
  </scstep>
  <scstep>
   <time name="dav">   28.06   28.13</time>
   <time name="total">   28.60   28.68</time>
   <energy>
    <i name="e_fr_energy">   -188.60232350 </i>
    <i name="e_wo_entrp">   -188.30758768 </i>
    <i name="e_0_energy">   -188.45495559 </i>
   </energy>
  </scstep>
  <scstep>
   <time name="dav">   21.97   22.02</time>
   <time name="total">   22.00   22.06</time>
   <energy>
    <i name="alphaZ">     78.92756838 </i>
    <i name="ewald">  39382.45456391 </i>
    <i name="hartreedc"> -45350.65822928 </i>
    <i name="XCdc">   -237.98546530 </i>
    <i name="pawpsdc">   3950.06306985 </i>
    <i name="pawaedc">  -3364.55633682 </i>
    <i name="eentropy">     -0.29477395 </i>
    <i name="bandstr">  -1407.99522492 </i>
    <i name="atom">   6761.44252427 </i>
    <i name="e_fr_energy">   -188.60230384 </i>
    <i name="e_wo_entrp">   -188.30752989 </i>
    <i name="e_0_energy">   -188.45491687 </i>
   </energy>
  </scstep>
  <structure>
   <crystal>
    <varray name="basis" >
     <v>       8.85528577       5.10498907       0.00000000 </v>
     <v>      -8.85538678       5.10516331       0.00000000 </v>
     <v>       0.00000000       0.00000000      30.00000000 </v>
    </varray>
    <i name="volume">   2712.42998270 </i>
    <varray name="rec_basis" >
     <v>       0.05646409       0.09794229       0.00000000 </v>
     <v>      -0.05646217       0.09794117       0.00000000 </v>
     <v>       0.00000000       0.00000000       0.03333333 </v>
    </varray>
   </crystal>
   <varray name="positions" >
    <v>       0.33382327       0.00050296       0.00016821 </v>
    <v>       0.66675392       0.66622662      -0.00017480 </v>
    <v>       0.66614272       0.33333607       0.00000432 </v>
    <v>       0.33351488       0.33326589      -0.00001486 </v>
    <v>      -0.00019060       0.66651411      -0.00005857 </v>
    <v>       0.66661191       0.00015247       0.00007348 </v>
    <v>      -0.00002975      -0.00042843      -0.00021672 </v>
    <v>       0.99969240       0.33340220       0.00000911 </v>
    <v>       0.33357942       0.66693763       0.00021048 </v>
    <v>       0.11010327       0.22157061       0.95071252 </v>
    <v>       0.22374515       0.10811068       0.04801990 </v>
    <v>       0.11133044       0.55491469       0.95074883 </v>
    <v>       0.22169550       0.44487128       0.04927820 </v>
    <v>       0.11495940       0.89146865       0.95194364 </v>
    <v>       0.22490032       0.78180618       0.04811243 </v>
    <v>       0.44651069       0.21998248       0.95305146 </v>
    <v>       0.55317225       0.11307076       0.04696648 </v>
    <v>       0.44856911       0.55813309       0.95191065 </v>
    <v>       0.55986077       0.44628875       0.04688803 </v>
    <v>       0.44151742       0.89028794       0.95201863 </v>
    <v>       0.55679881       0.77478811       0.04797466 </v>
    <v>       0.77630102       0.22502811       0.95199573 </v>
    <v>       0.88961033       0.11162331       0.04925683 </v>
    <v>       0.77322742       0.55357408       0.95309806 </v>
    <v>       0.88479412       0.44169449       0.04807201 </v>
    <v>       0.77644429       0.88469688       0.95190685 </v>
    <v>       0.88477596       0.77639486       0.04804434 </v>
   </varray>
  </structure>
  <varray name="forces" >
   <v>       0.01402284       0.01887402       0.03245478 </v>
   <v>       0.02415686       0.00554397      -0.03431300 </v>
   <v>      -0.02270779      -0.01410265       0.00206624 </v>
   <v>      -0.23842547      -0.13701531      -0.00158438 </v>
   <v>       0.13296545       0.04802056      -0.00663355 </v>
   <v>       0.10231756       0.09375044       0.00817380 </v>
   <v>      -0.09460166       0.03402659      -0.03752007 </v>
   <v>       0.08552493       0.05517714       0.00001703 </v>
   <v>      -0.01803145      -0.11256617       0.03668816 </v>
   <v>      -0.08188185      -0.12377907      -0.04378689 </v>
   <v>      -0.00148871      -0.11084730      -0.00107847 </v>
   <v>       0.12906053       0.00981745      -0.00580680 </v>
   <v>      -0.13058623       0.00714255       0.05198726 </v>
   <v>      -0.10142868       0.07017443       0.02452798 </v>
   <v>       0.10682280       0.07362685       0.01440730 </v>
   <v>       0.04489635       0.01040308       0.08163798 </v>
   <v>      -0.04981540       0.00077897      -0.04336043 </v>
   <v>      -0.10445037       0.07427286       0.02556443 </v>
   <v>       0.01646279       0.04256383      -0.06864979 </v>
   <v>       0.01062709      -0.10272344       0.05463184 </v>
   <v>      -0.00066815      -0.11366195      -0.00978344 </v>
   <v>      -0.00227062       0.09797624       0.01090141 </v>
   <v>       0.09057345       0.11571562      -0.00297291 </v>
   <v>      -0.01105796      -0.05469396       0.02681840 </v>
   <v>       0.08888873      -0.06691951      -0.02826985 </v>
   <v>       0.09588175       0.03843297      -0.02217624 </v>
   <v>      -0.08478678       0.04001179      -0.06394078 </v>
  </varray>
  <varray name="stress" >
   <v>     -19.86570757      -0.00757067       0.04669010 </v>
   <v>      -0.00757075     -19.44333966      -0.02658225 </v>
   <v>       0.04669005      -0.02658223      -1.71842954 </v>
  </varray>
  <energy>
   <i name="e_fr_energy">   -188.60230384 </i>
   <i name="e_wo_entrp">   -188.45491687 </i>
   <i name="e_0_energy">     -0.29477395 </i>
  </energy>
  <time name="totalsc">  426.33  427.45</time>
 </calculation>
 <calculation>
  <scstep>
   <time name="dav">   24.41   24.47</time>
   <time name="total">   24.94   25.01</time>
   <energy>
    <i name="alphaZ">     82.35605828 </i>
    <i name="ewald">  41307.64205198 </i>
    <i name="hartreedc"> -47306.51394956 </i>
    <i name="XCdc">   -233.85915008 </i>
    <i name="pawpsdc">   3949.69531090 </i>
    <i name="pawaedc">  -3364.18515748 </i>
    <i name="eentropy">     -0.24440024 </i>
    <i name="bandstr">  -1386.83800310 </i>
    <i name="atom">   6761.44252427 </i>
    <i name="e_fr_energy">   -190.50471502 </i>
    <i name="e_wo_entrp">   -190.26031478 </i>
    <i name="e_0_energy">   -190.38251490 </i>
   </energy>
  </scstep>
  <scstep>
   <time name="dav">   28.00   28.07</time>
   <time name="total">   28.52   28.59</time>
   <energy>
    <i name="e_fr_energy">   -190.56941343 </i>
    <i name="e_wo_entrp">   -190.31656286 </i>
    <i name="e_0_energy">   -190.44298814 </i>
   </energy>
  </scstep>
  <scstep>
   <time name="dav">   30.72   30.80</time>
   <time name="total">   31.25   31.33</time>
   <energy>
    <i name="e_fr_energy">   -189.97061289 </i>
    <i name="e_wo_entrp">   -189.71793348 </i>
    <i name="e_0_energy">   -189.84427318 </i>
   </energy>
  </scstep>
  <scstep>
   <time name="dav">   31.49   31.56</time>
   <time name="total">   32.02   32.10</time>
   <energy>
    <i name="e_fr_energy">   -189.76919998 </i>
    <i name="e_wo_entrp">   -189.51749064 </i>
    <i name="e_0_energy">   -189.64334531 </i>
   </energy>
  </scstep>
  <scstep>
   <time name="dav">   30.35   30.42</time>
   <time name="total">   30.88   30.96</time>
   <energy>
    <i name="e_fr_energy">   -189.70779442 </i>
    <i name="e_wo_entrp">   -189.45965419 </i>
    <i name="e_0_energy">   -189.58372430 </i>
   </energy>
  </scstep>
  <scstep>
   <time name="dav">   30.39   30.47</time>
   <time name="total">   30.92   31.01</time>
   <energy>
    <i name="e_fr_energy">   -189.67196702 </i>
    <i name="e_wo_entrp">   -189.42253357 </i>
    <i name="e_0_energy">   -189.54725029 </i>
   </energy>
  </scstep>
  <scstep>
   <time name="dav">   29.99   30.06</time>
   <time name="total">   30.52   30.60</time>
   <energy>
    <i name="e_fr_energy">   -189.66571492 </i>
    <i name="e_wo_entrp">   -189.41558512 </i>
    <i name="e_0_energy">   -189.54065002 </i>
   </energy>
  </scstep>
  <scstep>
   <time name="dav">   27.76   27.82</time>
   <time name="total">   28.29   28.36</time>
   <energy>
    <i name="e_fr_energy">   -189.66583075 </i>
    <i name="e_wo_entrp">   -189.41597529 </i>
    <i name="e_0_energy">   -189.54090302 </i>
   </energy>
  </scstep>
  <scstep>
   <time name="dav">   27.02   27.09</time>
   <time name="total">   27.55   27.63</time>
   <energy>
    <i name="e_fr_energy">   -189.66619970 </i>
    <i name="e_wo_entrp">   -189.41653120 </i>
    <i name="e_0_energy">   -189.54136545 </i>
   </energy>
  </scstep>
  <scstep>
   <time name="dav">   26.76   26.83</time>
   <time name="total">   27.29   27.37</time>
   <energy>
    <i name="e_fr_energy">   -189.66635944 </i>
    <i name="e_wo_entrp">   -189.41665308 </i>
    <i name="e_0_energy">   -189.54150626 </i>
   </energy>
  </scstep>
  <scstep>
   <time name="dav">   24.44   24.50</time>
   <time name="total">   24.97   25.04</time>
   <energy>
    <i name="e_fr_energy">   -189.66588374 </i>
    <i name="e_wo_entrp">   -189.41604675 </i>
    <i name="e_0_energy">   -189.54096525 </i>
   </energy>
  </scstep>
  <scstep>
   <time name="dav">   18.00   18.04</time>
   <time name="total">   18.03   18.08</time>
   <energy>
    <i name="alphaZ">     82.35605828 </i>
    <i name="ewald">  41307.64205198 </i>
    <i name="hartreedc"> -47279.84159446 </i>
    <i name="XCdc">   -235.25688788 </i>
    <i name="pawpsdc">   4038.26983795 </i>
    <i name="pawaedc">  -3453.95795057 </i>
    <i name="eentropy">     -0.24979875 </i>
    <i name="bandstr">  -1410.07014518 </i>
    <i name="atom">   6761.44252427 </i>
    <i name="e_fr_energy">   -189.66590435 </i>
    <i name="e_wo_entrp">   -189.41610559 </i>
    <i name="e_0_energy">   -189.54100497 </i>
   </energy>
  </scstep>
  <structure>
   <crystal>
    <varray name="basis" >
     <v>       8.66696056       4.99868122       0.00000000 </v>
     <v>      -8.66714215       4.99899534       0.00000000 </v>
     <v>       0.00000000       0.00000000      30.00000000 </v>
    </varray>
    <i name="volume">   2599.51128569 </i>
    <varray name="rec_basis" >
     <v>       0.05769156       0.10002429       0.00000000 </v>
     <v>      -0.05768793       0.10002219       0.00000000 </v>
     <v>       0.00000000       0.00000000       0.03333333 </v>
    </varray>
   </crystal>
   <varray name="positions" >
    <v>       0.33386834       0.00052100       0.00018668 </v>
    <v>       0.66678647       0.66621260      -0.00019432 </v>
    <v>       0.66609726       0.33333438       0.00000549 </v>
    <v>       0.33305602       0.33326662      -0.00001576 </v>
    <v>       0.00001783       0.66646624      -0.00006235 </v>
    <v>       0.66686726       0.00021059       0.00007813 </v>
    <v>      -0.00006404      -0.00028037      -0.00023806 </v>
    <v>       0.99986707       0.33341202       0.00000912 </v>
    <v>       0.33337385       0.66676682       0.00023135 </v>
    <v>       0.10981741       0.22144259       0.95068761 </v>
    <v>       0.22355840       0.10792680       0.04801928 </v>
    <v>       0.11147124       0.55480671       0.95074552 </v>
    <v>       0.22158158       0.44500908       0.04930778 </v>
    <v>       0.11497896       0.89168373       0.95195759 </v>
    <v>       0.22512637       0.78182631       0.04812063 </v>
    <v>       0.44657135       0.21995660       0.95309791 </v>
    <v>       0.55312554       0.11312008       0.04694181 </v>
    <v>       0.44859261       0.55835793       0.95192520 </v>
    <v>       0.55994780       0.44634404       0.04684897 </v>
    <v>       0.44135593       0.89010596       0.95204972 </v>
    <v>       0.55660815       0.77459873       0.04796909 </v>
    <v>       0.77646263       0.22519409       0.95200193 </v>
    <v>       0.88989108       0.11172947       0.04925514 </v>
    <v>       0.77312532       0.55349330       0.95311332 </v>
    <v>       0.88476792       0.44149695       0.04805593 </v>
    <v>       0.77660096       0.88466872       0.95189423 </v>
    <v>       0.88476113       0.77654346       0.04800796 </v>
   </varray>
  </structure>
  <varray name="forces" >
   <v>       0.01945664      -0.03411030       0.00588379 </v>
   <v>      -0.02069348       0.03583425      -0.00662352 </v>
   <v>       0.02257789       0.00831789       0.00110772 </v>
   <v>      -0.32677665      -0.19033953       0.00085190 </v>
   <v>       0.17739053       0.07426112       0.00455367 </v>
   <v>       0.15005077       0.11915391      -0.00544984 </v>
   <v>      -0.16086076       0.06365949      -0.00009363 </v>
   <v>       0.14878378       0.08769447      -0.00099028 </v>
   <v>      -0.02320991      -0.18231873       0.00037837 </v>
   <v>      -0.04935616      -0.06197188      -0.61524216 </v>
   <v>       0.10309335      -0.04820188       0.49362886 </v>
   <v>       0.06381415       0.01431185      -0.56419720 </v>
   <v>      -0.06138734       0.00114636       0.62380031 </v>
   <v>       0.02229232       0.14031024      -0.47325855 </v>
   <v>      -0.01504274       0.14000248       0.52753559 </v>
   <v>       0.11426976       0.00931260      -0.35911481 </v>
   <v>      -0.12751668       0.00833091       0.40950479 </v>
   <v>       0.00535202       0.13339324      -0.47431286 </v>
   <v>       0.04952163       0.10122781       0.37179847 </v>
   <v>      -0.09879917      -0.03154672      -0.43015991 </v>
   <v>       0.12077932      -0.04060532       0.48903878 </v>
   <v>      -0.11921996       0.03198371      -0.48424771 </v>
   <v>       0.06114350       0.05664226       0.55384186 </v>
   <v>      -0.04119917      -0.12218427      -0.42575295 </v>
   <v>      -0.02948245      -0.13469755       0.46966895 </v>
   <v>       0.09495267      -0.09377369      -0.53289030 </v>
   <v>      -0.07993386      -0.08583274       0.42074066 </v>
  </varray>
  <varray name="stress" >
   <v>     -10.16635849       0.00695533       0.02947105 </v>
   <v>       0.00695549      -9.85543435      -0.02291950 </v>
   <v>       0.02947106      -0.02291949       6.54871520 </v>
  </varray>
  <energy>
   <i name="e_fr_energy">   -189.66590435 </i>
   <i name="e_wo_entrp">   -189.54100497 </i>
   <i name="e_0_energy">     -0.24979875 </i>
  </energy>
  <time name="totalsc">  377.11  378.12</time>
 </calculation>
 <calculation>
  <scstep>
   <time name="dav">   21.96   22.01</time>
   <time name="total">   22.47   22.53</time>
   <energy>
    <i name="alphaZ">     85.86317089 </i>
    <i name="ewald">  42851.53899708 </i>
    <i name="hartreedc"> -48868.70974353 </i>
    <i name="XCdc">   -232.94844893 </i>
    <i name="pawpsdc">   4038.32569527 </i>
    <i name="pawaedc">  -3454.01045578 </i>
    <i name="eentropy">     -0.19683256 </i>
    <i name="bandstr">  -1372.48087525 </i>
    <i name="atom">   6761.44252427 </i>
    <i name="e_fr_energy">   -191.17596854 </i>
    <i name="e_wo_entrp">   -190.97913598 </i>
    <i name="e_0_energy">   -191.07755226 </i>
   </energy>
  </scstep>
  <scstep>
   <time name="dav">   33.04   33.12</time>
   <time name="total">   33.55   33.64</time>
   <energy>
    <i name="e_fr_energy">   -191.12939988 </i>
    <i name="e_wo_entrp">   -190.91812882 </i>
    <i name="e_0_energy">   -191.02376435 </i>
   </energy>
  </scstep>
  <scstep>
   <time name="dav">   30.42   30.50</time>
   <time name="total">   30.94   31.02</time>
   <energy>
    <i name="e_fr_energy">   -191.02497637 </i>
    <i name="e_wo_entrp">   -190.81317790 </i>
    <i name="e_0_energy">   -190.91907714 </i>
   </energy>
  </scstep>
  <scstep>
   <time name="dav">   32.56   32.64</time>
   <time name="total">   33.08   33.17</time>
   <energy>
    <i name="e_fr_energy">   -190.66080691 </i>
    <i name="e_wo_entrp">   -190.45547935 </i>
    <i name="e_0_energy">   -190.55814313 </i>
   </energy>
  </scstep>
  <scstep>
   <time name="dav">   30.34   30.42</time>
   <time name="total">   30.86   30.94</time>
   <energy>
    <i name="e_fr_energy">   -190.60540852 </i>
    <i name="e_wo_entrp">   -190.40076740 </i>
    <i name="e_0_energy">   -190.50308796 </i>
   </energy>
  </scstep>
  <scstep>
   <time name="dav">   30.84   30.91</time>
   <time name="total">   31.35   31.43</time>
   <energy>
    <i name="e_fr_energy">   -190.56566905 </i>
    <i name="e_wo_entrp">   -190.35927712 </i>
    <i name="e_0_energy">   -190.46247308 </i>
   </energy>
  </scstep>
  <scstep>
   <time name="dav">   30.44   30.51</time>
   <time name="total">   30.95   31.04</time>
   <energy>
    <i name="e_fr_energy">   -190.56109713 </i>
    <i name="e_wo_entrp">   -190.35486546 </i>
    <i name="e_0_energy">   -190.45798129 </i>
   </energy>
  </scstep>
  <scstep>
   <time name="dav">   27.08   27.15</time>
   <time name="total">   27.59   27.67</time>
   <energy>
    <i name="e_fr_energy">   -190.55739490 </i>
    <i name="e_wo_entrp">   -190.35177116 </i>
    <i name="e_0_energy">   -190.45458303 </i>
   </energy>
  </scstep>
  <scstep>
   <time name="dav">   28.81   28.88</time>
   <time name="total">   29.33   29.41</time>
   <energy>
    <i name="e_fr_energy">   -190.55811335 </i>
    <i name="e_wo_entrp">   -190.35264080 </i>
    <i name="e_0_energy">   -190.45537707 </i>
   </energy>
  </scstep>
  <scstep>
   <time name="dav">   27.46   27.53</time>
   <time name="total">   27.98   28.05</time>
   <energy>
    <i name="e_fr_energy">   -190.55769311 </i>
    <i name="e_wo_entrp">   -190.35228097 </i>
    <i name="e_0_energy">   -190.45498704 </i>
   </energy>
  </scstep>
  <scstep>
   <time name="dav">   23.32   23.38</time>
   <time name="total">   23.84   23.91</time>
   <energy>
    <i name="e_fr_energy">   -190.55753359 </i>
    <i name="e_wo_entrp">   -190.35208436 </i>
    <i name="e_0_energy">   -190.45480897 </i>
   </energy>
  </scstep>
  <scstep>
   <time name="dav">   20.19   20.24</time>
   <time name="total">   20.23   20.29</time>
   <energy>
    <i name="alphaZ">     85.86317089 </i>
    <i name="ewald">  42851.53899708 </i>
    <i name="hartreedc"> -48839.93061570 </i>
    <i name="XCdc">   -234.31201289 </i>
    <i name="pawpsdc">   4061.97151403 </i>
    <i name="pawaedc">  -3477.81718403 </i>
    <i name="eentropy">     -0.20544218 </i>
    <i name="bandstr">  -1399.10847959 </i>
    <i name="atom">   6761.44252427 </i>
    <i name="e_fr_energy">   -190.55752811 </i>
    <i name="e_wo_entrp">   -190.35208593 </i>
    <i name="e_0_energy">   -190.45480702 </i>
   </energy>
  </scstep>
  <structure>
   <crystal>
    <varray name="basis" >
     <v>       8.48431238       4.89829368       0.00000000 </v>
     <v>      -8.48399649       4.89774558       0.00000000 </v>
     <v>       0.00000000       0.00000000      30.00000000 </v>
    </varray>
    <i name="volume">   2493.33329659 </i>
    <varray name="rec_basis" >
     <v>       0.05893009       0.10208017       0.00000000 </v>
     <v>      -0.05893669       0.10208397       0.00000000 </v>
     <v>       0.00000000       0.00000000       0.03333333 </v>
    </varray>
   </crystal>
   <varray name="positions" >
    <v>       0.33359975       0.00009576       0.00017623 </v>
    <v>       0.66694764       0.66665322      -0.00018446 </v>
    <v>       0.66635284       0.33329559       0.00000697 </v>
    <v>       0.33041585       0.33324910      -0.00001192 </v>
    <v>       0.00125665       0.66629157      -0.00004336 </v>
    <v>       0.66829162       0.00040998       0.00005520 </v>
    <v>      -0.00026847       0.00087197      -0.00020635 </v>
    <v>       1.00112954       0.33341385       0.00000620 </v>
    <v>       0.33196269       0.66553880       0.00020118 </v>
    <v>       0.10945126       0.22134008       0.94892385 </v>
    <v>       0.22393713       0.10725659       0.04946528 </v>
    <v>       0.11170932       0.55477091       0.94909881 </v>
    <v>       0.22145132       0.44512369       0.05108961 </v>
    <v>       0.11629516       0.89248106       0.95055124 </v>
    <v>       0.22594131       0.78310218       0.04965268 </v>
    <v>       0.44714123       0.21949824       0.95197702 </v>
    <v>       0.55262262       0.11376542       0.04817758 </v>
    <v>       0.44975631       0.55916569       0.95051487 </v>
    <v>       0.56095755       0.44689951       0.04799592 </v>
    <v>       0.44082020       0.89060207       0.95074387 </v>
    <v>       0.55714909       0.77391389       0.04940907 </v>
    <v>       0.77589739       0.22583036       0.95057502 </v>
    <v>       0.89027778       0.11175819       0.05087902 </v>
    <v>       0.77199623       0.55274976       0.95184408 </v>
    <v>       0.88347455       0.44075908       0.04945497 </v>
    <v>       0.77602356       0.88340610       0.95035313 </v>
    <v>       0.88362435       0.77597179       0.04929417 </v>
   </varray>
  </structure>
  <varray name="forces" >
   <v>       0.02670002      -0.10002279      -0.05234759 </v>
   <v>      -0.07001848       0.07575805       0.05238673 </v>
   <v>       0.05710414       0.03041087       0.00021304 </v>
   <v>      -0.39024171      -0.22540109       0.00041787 </v>
   <v>       0.21596986       0.09515880       0.01634750 </v>
   <v>       0.19195251       0.13783677      -0.01673133 </v>
   <v>      -0.23805402       0.10215304       0.03462767 </v>
   <v>       0.23586683       0.14331442       0.00065328 </v>
   <v>      -0.02684633      -0.27305255      -0.03487304 </v>
   <v>      -0.01731858      -0.02949286      -0.50077428 </v>
   <v>       0.01676205      -0.00335112       0.32948806 </v>
   <v>       0.01736140       0.00106677      -0.40534033 </v>
   <v>      -0.03513197       0.00037591       0.50210191 </v>
   <v>       0.01670851       0.05226707      -0.29281175 </v>
   <v>      -0.00641304       0.06599258       0.40709819 </v>
   <v>      -0.01450127       0.00302046      -0.23648762 </v>
   <v>      -0.02463397       0.01874076       0.32229648 </v>
   <v>       0.01142222       0.02770984      -0.32031856 </v>
   <v>      -0.01761982      -0.01246191       0.23865083 </v>
   <v>      -0.01035061       0.01679583      -0.22839202 </v>
   <v>       0.04087273      -0.01200702       0.29562993 </v>
   <v>      -0.04282976       0.01233459      -0.31286305 </v>
   <v>       0.00870350       0.01677307       0.40389879 </v>
   <v>       0.01476172      -0.02789778      -0.32474533 </v>
   <v>      -0.01814745      -0.05063291       0.30607563 </v>
   <v>       0.05456413      -0.03720941      -0.40946853 </v>
   <v>       0.00335737      -0.02817938       0.22526752 </v>
  </varray>
  <varray name="stress" >
   <v>      -5.87912669       0.00412711      -0.05906786 </v>
   <v>       0.00412729      -5.88939040      -0.02190221 </v>
   <v>      -0.05906773      -0.02190224       4.52548643 </v>
  </varray>
  <energy>
   <i name="e_fr_energy">   -190.55752811 </i>
   <i name="e_wo_entrp">   -190.45480702 </i>
   <i name="e_0_energy">     -0.20544218 </i>
  </energy>
  <time name="totalsc">  384.23  385.25</time>
 </calculation>
 <calculation>
  <scstep>
   <time name="dav">   21.93   21.98</time>
   <time name="total">   22.44   22.50</time>
   <energy>
    <i name="alphaZ">     90.46818826 </i>
    <i name="ewald">  44793.08435265 </i>
    <i name="hartreedc"> -50839.91383996 </i>
    <i name="XCdc">   -231.68399902 </i>
    <i name="pawpsdc">   4061.85649522 </i>
    <i name="pawaedc">  -3477.69772329 </i>
    <i name="eentropy">     -0.15985059 </i>
    <i name="bandstr">  -1349.37762465 </i>
    <i name="atom">   6761.44252427 </i>
    <i name="e_fr_energy">   -191.98147711 </i>
    <i name="e_wo_entrp">   -191.82162652 </i>
    <i name="e_0_energy">   -191.90155182 </i>
   </energy>
  </scstep>
  <scstep>
   <time name="dav">   32.05   32.12</time>
   <time name="total">   32.55   32.64</time>
   <energy>
    <i name="e_fr_energy">   -191.66839794 </i>
    <i name="e_wo_entrp">   -191.48763005 </i>
    <i name="e_0_energy">   -191.57801400 </i>
   </energy>
  </scstep>
  <scstep>
   <time name="dav">   30.26   30.33</time>
   <time name="total">   30.76   30.85</time>
   <energy>
    <i name="e_fr_energy">   -191.98568047 </i>
    <i name="e_wo_entrp">   -191.80915248 </i>
    <i name="e_0_energy">   -191.89741648 </i>
   </energy>
  </scstep>
  <scstep>
   <time name="dav">   30.43   30.51</time>
   <time name="total">   30.94   31.03</time>
   <energy>
    <i name="e_fr_energy">   -191.34444298 </i>
    <i name="e_wo_entrp">   -191.17126094 </i>
    <i name="e_0_energy">   -191.25785196 </i>
   </energy>
  </scstep>
  <scstep>
   <time name="dav">   30.31   30.38</time>
   <time name="total">   30.81   30.90</time>
   <energy>
    <i name="e_fr_energy">   -191.29564331 </i>
    <i name="e_wo_entrp">   -191.12644621 </i>
    <i name="e_0_energy">   -191.21104476 </i>
   </energy>
  </scstep>
  <scstep>
   <time name="dav">   30.16   30.23</time>
   <time name="total">   30.66   30.75</time>
   <energy>
    <i name="e_fr_energy">   -191.12380918 </i>
    <i name="e_wo_entrp">   -190.95272884 </i>
    <i name="e_0_energy">   -191.03826901 </i>
   </energy>
  </scstep>
  <scstep>
   <time name="dav">   30.39   30.46</time>
   <time name="total">   30.90   30.98</time>
   <energy>
    <i name="e_fr_energy">   -191.12219090 </i>
    <i name="e_wo_entrp">   -190.95097658 </i>
    <i name="e_0_energy">   -191.03658374 </i>
   </energy>
  </scstep>
  <scstep>
   <time name="dav">   27.49   27.55</time>
   <time name="total">   27.99   28.07</time>
   <energy>
    <i name="e_fr_energy">   -191.11896772 </i>
    <i name="e_wo_entrp">   -190.94855129 </i>
    <i name="e_0_energy">   -191.03375950 </i>
   </energy>
  </scstep>
  <scstep>
   <time name="dav">   29.99   30.06</time>
   <time name="total">   30.50   30.58</time>
   <energy>
    <i name="e_fr_energy">   -191.12028121 </i>
    <i name="e_wo_entrp">   -190.95003866 </i>
    <i name="e_0_energy">   -191.03515993 </i>
   </energy>
  </scstep>
  <scstep>
   <time name="dav">   29.39   29.46</time>
   <time name="total">   29.90   29.98</time>
   <energy>
    <i name="e_fr_energy">   -191.11921371 </i>
    <i name="e_wo_entrp">   -190.94908910 </i>
    <i name="e_0_energy">   -191.03415140 </i>
   </energy>
  </scstep>
  <scstep>
   <time name="dav">   26.23   26.29</time>
   <time name="total">   26.74   26.81</time>
   <energy>
    <i name="e_fr_energy">   -191.11910204 </i>
    <i name="e_wo_entrp">   -190.94899870 </i>
    <i name="e_0_energy">   -191.03405037 </i>
   </energy>
  </scstep>
  <scstep>
   <time name="dav">   20.87   20.92</time>
   <time name="total">   20.90   20.96</time>
   <energy>
    <i name="alphaZ">     90.46818826 </i>
    <i name="ewald">  44793.08435265 </i>
    <i name="hartreedc"> -50803.52506548 </i>
    <i name="XCdc">   -233.36468994 </i>
    <i name="pawpsdc">   4081.20294277 </i>
    <i name="pawaedc">  -3497.07271849 </i>
    <i name="eentropy">     -0.17016180 </i>
    <i name="bandstr">  -1383.18442760 </i>
    <i name="atom">   6761.44252427 </i>
    <i name="e_fr_energy">   -191.11905537 </i>
    <i name="e_wo_entrp">   -190.94889357 </i>
    <i name="e_0_energy">   -191.03397447 </i>
   </energy>
  </scstep>
  <structure>
   <crystal>
    <varray name="basis" >
     <v>       8.26599350       4.77243582       0.00000000 </v>
     <v>      -8.26508978       4.77086904       0.00000000 </v>
     <v>       0.00000000       0.00000000      30.00000000 </v>
    </varray>
    <i name="volume">   2366.41748940 </i>
    <varray name="rec_basis" >
     <v>       0.06048217       0.10477978       0.00000000 </v>
     <v>      -0.06050204       0.10479123       0.00000000 </v>
     <v>       0.00000000       0.00000000       0.03333333 </v>
    </varray>
   </crystal>
   <varray name="positions" >
    <v>       0.33248866      -0.00140901      -0.00003369 </v>
    <v>       0.66738727       0.66817046       0.00002634 </v>
    <v>       0.66722636       0.33324835       0.00000737 </v>
    <v>       0.32453390       0.33323774      -0.00000745 </v>
    <v>       0.00411438       0.66592297       0.00002878 </v>
    <v>       0.67151704       0.00075453      -0.00002131 </v>
    <v>      -0.00072925       0.00395755      -0.00004490 </v>
    <v>       1.00468226       0.33348273       0.00000693 </v>
    <v>       0.32826108       0.66223930       0.00004017 </v>
    <v>       0.10910672       0.22119957       0.94621017 </v>
    <v>       0.22439781       0.10693285       0.05142313 </v>
    <v>       0.11181952       0.55476138       0.94676624 </v>
    <v>       0.22127721       0.44527373       0.05381320 </v>
    <v>       0.11766557       0.89316480       0.94873193 </v>
    <v>       0.22683759       0.78453471       0.05192420 </v>
    <v>       0.44733300       0.21939831       0.95048083 </v>
    <v>       0.55244440       0.11442620       0.05001936 </v>
    <v>       0.45073956       0.55961155       0.94859515 </v>
    <v>       0.56117467       0.44712208       0.04950663 </v>
    <v>       0.44080675       0.89130075       0.94919100 </v>
    <v>       0.55775921       0.77334214       0.05124835 </v>
    <v>       0.77529421       0.22641476       0.94868104 </v>
    <v>       0.89044619       0.11179602       0.05319901 </v>
    <v>       0.77127230       0.55202920       0.94998475 </v>
    <v>       0.88213192       0.44011710       0.05131950 </v>
    <v>       0.77549132       0.88199946       0.94807265 </v>
    <v>       0.88273480       0.77518526       0.05083052 </v>
   </varray>
  </structure>
  <varray name="forces" >
   <v>       0.04104352      -0.12530175      -0.02141388 </v>
   <v>      -0.08598213       0.10373672       0.02240661 </v>
   <v>       0.05499470       0.02666681      -0.00124276 </v>
   <v>      -0.27003843      -0.15683785      -0.00119444 </v>
   <v>       0.20888775       0.06871488       0.00379891 </v>
   <v>       0.16769938       0.14692809      -0.00375875 </v>
   <v>      -0.27494990       0.12384991      -0.01273761 </v>
   <v>       0.21917608       0.12721630      -0.00222586 </v>
   <v>      -0.02743183      -0.30508597       0.01300487 </v>
   <v>      -0.02191111      -0.02852753      -0.24664987 </v>
   <v>      -0.09652637       0.01743412       0.00906759 </v>
   <v>       0.00348382      -0.05350895      -0.17601973 </v>
   <v>      -0.04028601      -0.00683557       0.25157436 </v>
   <v>      -0.05380500      -0.05153519       0.03727130 </v>
   <v>       0.06110242      -0.00663564       0.09982782 </v>
   <v>      -0.16152235      -0.01806835       0.06685091 </v>
   <v>       0.08851405       0.00306939      -0.00705100 </v>
   <v>      -0.03186249      -0.09586124      -0.01132448 </v>
   <v>      -0.09545686      -0.12935908      -0.07001977 </v>
   <v>       0.11532658       0.01866735       0.07480315 </v>
   <v>      -0.07609035      -0.02218792      -0.04332907 </v>
   <v>       0.08909981       0.05063008      -0.00050108 </v>
   <v>      -0.04871713       0.03095322       0.17399594 </v>
   <v>       0.04432358       0.07836636       0.00922177 </v>
   <v>       0.08570327       0.05472371       0.00473136 </v>
   <v>       0.02857568       0.05812624      -0.10321641 </v>
   <v>       0.07664932       0.09066184      -0.06586988 </v>
  </varray>
  <varray name="stress" >
   <v>      -0.37776398       0.11360182      -0.06318852 </v>
   <v>       0.11360178      -0.48356688       0.08465342 </v>
   <v>      -0.06318865       0.08465337      -0.47165805 </v>
  </varray>
  <energy>
   <i name="e_fr_energy">   -191.11905537 </i>
   <i name="e_wo_entrp">   -191.03397447 </i>
   <i name="e_0_energy">     -0.17016180 </i>
  </energy>
  <time name="totalsc">  387.21  388.24</time>
 </calculation>
 <calculation>
  <scstep>
   <time name="dav">   21.89   21.94</time>
   <time name="total">   22.40   22.45</time>
   <energy>
    <i name="alphaZ">     90.79197763 </i>
    <i name="ewald">  44922.48511377 </i>
    <i name="hartreedc"> -50937.17997086 </i>
    <i name="XCdc">   -233.20818845 </i>
    <i name="pawpsdc">   4081.05678622 </i>
    <i name="pawaedc">  -3496.92093445 </i>
    <i name="eentropy">     -0.17323884 </i>
    <i name="bandstr">  -1379.46041807 </i>
    <i name="atom">   6761.44252427 </i>
    <i name="e_fr_energy">   -191.16634879 </i>
    <i name="e_wo_entrp">   -190.99310994 </i>
    <i name="e_0_energy">   -191.07972937 </i>
   </energy>
  </scstep>
  <scstep>
   <time name="dav">   33.10   33.18</time>
   <time name="total">   33.61   33.70</time>
   <energy>
    <i name="e_fr_energy">   -191.19777745 </i>
    <i name="e_wo_entrp">   -191.02486327 </i>
    <i name="e_0_energy">   -191.11132036 </i>
   </energy>
  </scstep>
  <scstep>
   <time name="dav">   30.82   30.89</time>
   <time name="total">   31.33   31.41</time>
   <energy>
    <i name="e_fr_energy">   -191.17293412 </i>
    <i name="e_wo_entrp">   -190.99866452 </i>
    <i name="e_0_energy">   -191.08579932 </i>
   </energy>
  </scstep>
  <scstep>
   <time name="dav">   27.03   27.09</time>
   <time name="total">   27.53   27.61</time>
   <energy>
    <i name="e_fr_energy">   -191.16965230 </i>
    <i name="e_wo_entrp">   -190.99534751 </i>
    <i name="e_0_energy">   -191.08249990 </i>
   </energy>
  </scstep>
  <scstep>
   <time name="dav">   29.23   29.30</time>
   <time name="total">   29.74   29.82</time>
   <energy>
    <i name="e_fr_energy">   -191.16884226 </i>
    <i name="e_wo_entrp">   -190.99565024 </i>
    <i name="e_0_energy">   -191.08224625 </i>
   </energy>
  </scstep>
  <scstep>
   <time name="dav">   29.35   29.42</time>
   <time name="total">   29.86   29.94</time>
   <energy>
    <i name="e_fr_energy">   -191.16739989 </i>
    <i name="e_wo_entrp">   -190.99356946 </i>
    <i name="e_0_energy">   -191.08048468 </i>
   </energy>
  </scstep>
  <scstep>
   <time name="dav">   26.77   26.84</time>
   <time name="total">   27.29   27.36</time>
   <energy>
    <i name="e_fr_energy">   -191.16712392 </i>
    <i name="e_wo_entrp">   -190.99311716 </i>
    <i name="e_0_energy">   -191.08012054 </i>
   </energy>
  </scstep>
  <scstep>
   <time name="dav">   19.74   19.79</time>
   <time name="total">   19.77   19.83</time>
   <energy>
    <i name="alphaZ">     90.79197763 </i>
    <i name="ewald">  44922.48511377 </i>
    <i name="hartreedc"> -50935.39964434 </i>
    <i name="XCdc">   -233.31243320 </i>
    <i name="pawpsdc">   4081.14933632 </i>
    <i name="pawaedc">  -3496.99919750 </i>
    <i name="eentropy">     -0.17387936 </i>
    <i name="bandstr">  -1381.15087200 </i>
    <i name="atom">   6761.44252427 </i>
    <i name="e_fr_energy">   -191.16707441 </i>
    <i name="e_wo_entrp">   -190.99319505 </i>
    <i name="e_0_energy">   -191.08013473 </i>
   </energy>
  </scstep>
  <structure>
   <crystal>
    <varray name="basis" >
     <v>       8.25399699       4.76586394       0.00000000 </v>
     <v>      -8.25003275       4.75899609       0.00000000 </v>
     <v>       0.00000000       0.00000000      30.00000000 </v>
    </varray>
    <i name="volume">   2357.97818854 </i>
    <varray name="rec_basis" >
     <v>       0.06054758       0.10496322       0.00000000 </v>
     <v>      -0.06063496       0.10501366       0.00000000 </v>
     <v>       0.00000000       0.00000000       0.03333333 </v>
    </varray>
   </crystal>
   <varray name="positions" >
    <v>       0.33190260      -0.00226358      -0.00007773 </v>
    <v>       0.66769310       0.66904903       0.00007212 </v>
    <v>       0.66757299       0.33321902       0.00000525 </v>
    <v>       0.32263875       0.33323211      -0.00000925 </v>
    <v>       0.00523506       0.66563154       0.00003800 </v>
    <v>       0.67294293       0.00103570      -0.00003069 </v>
    <v>      -0.00093324       0.00558613      -0.00006027 </v>
    <v>       1.00617226       0.33348836       0.00000311 </v>
    <v>       0.32640483       0.66056754       0.00005605 </v>
    <v>       0.10887711       0.22111183       0.94567530 </v>
    <v>       0.22421845       0.10730934       0.05152422 </v>
    <v>       0.11154693       0.55446594       0.94636542 </v>
    <v>       0.22111143       0.44536463       0.05435692 </v>
    <v>       0.11728693       0.89308352       0.94871460 </v>
    <v>       0.22702636       0.78437544       0.05219132 </v>
    <v>       0.44674972       0.21979185       0.95052786 </v>
    <v>       0.55272258       0.11419869       0.05008671 </v>
    <v>       0.45017622       0.55921695       0.94849162 </v>
    <v>       0.56020604       0.44673825       0.04945487 </v>
    <v>       0.44125945       0.89107915       0.94924740 </v>
    <v>       0.55743816       0.77343488       0.05125628 </v>
    <v>       0.77580854       0.22643450       0.94859678 </v>
    <v>       0.89046503       0.11211141       0.05359577 </v>
    <v>       0.77179157       0.55227955       0.94992029 </v>
    <v>       0.88262772       0.44011855       0.05140986 </v>
    <v>       0.77586090       0.88215846       0.94779945 </v>
    <v>       0.88341204       0.77539566       0.05078866 </v>
   </varray>
  </structure>
  <varray name="forces" >
   <v>       0.04925099      -0.10342545      -0.02563028 </v>
   <v>      -0.06248207       0.10114888       0.02588297 </v>
   <v>       0.03084249       0.01292275       0.00082560 </v>
   <v>      -0.24917188      -0.14551746       0.00167227 </v>
   <v>       0.24712468       0.04769665       0.00361305 </v>
   <v>       0.16781277       0.19371778      -0.00417556 </v>
   <v>      -0.29243999       0.11286225       0.01131224 </v>
   <v>       0.17724109       0.10262472       0.00052339 </v>
   <v>      -0.04571083      -0.31466090      -0.01079695 </v>
   <v>      -0.02207186      -0.01849208      -0.20336267 </v>
   <v>      -0.07270528       0.00012523      -0.01524780 </v>
   <v>       0.01919066      -0.04593723      -0.14111892 </v>
   <v>      -0.02946256      -0.01203423       0.20368634 </v>
   <v>      -0.05147135      -0.03399825       0.06333040 </v>
   <v>       0.04770375       0.00009144       0.08415136 </v>
   <v>      -0.11434330      -0.01760907       0.10336122 </v>
   <v>       0.06113407      -0.00555133      -0.04652292 </v>
   <v>      -0.03520036      -0.06460712       0.01547719 </v>
   <v>      -0.07185068      -0.08887845      -0.10749170 </v>
   <v>       0.09744589      -0.00002488       0.10948661 </v>
   <v>      -0.05772895      -0.02869394      -0.06679601 </v>
   <v>       0.06686341       0.04771572       0.01160879 </v>
   <v>      -0.03246891       0.04035779       0.13986223 </v>
   <v>       0.02342289       0.05764140       0.04825048 </v>
   <v>       0.07292376       0.03578689      -0.01230447 </v>
   <v>       0.02663920       0.04274545      -0.08664319 </v>
   <v>       0.04951238       0.08399344      -0.10295366 </v>
  </varray>
  <varray name="stress" >
   <v>       0.12196219       0.05282616      -0.04793605 </v>
   <v>       0.05282622       0.06844958       0.06570857 </v>
   <v>      -0.04793617       0.06570849      -1.03773266 </v>
  </varray>
  <energy>
   <i name="e_fr_energy">   -191.16707441 </i>
   <i name="e_wo_entrp">   -191.08013473 </i>
   <i name="e_0_energy">     -0.17387936 </i>
  </energy>
  <time name="totalsc">  264.18  264.88</time>
 </calculation>
 <calculation>
  <scstep>
   <time name="dav">   21.89   21.94</time>
   <time name="total">   22.40   22.46</time>
   <energy>
    <i name="alphaZ">     90.74817651 </i>
    <i name="ewald">  44892.84902277 </i>
    <i name="hartreedc"> -50905.58170638 </i>
    <i name="XCdc">   -233.37935276 </i>
    <i name="pawpsdc">   4081.27227142 </i>
    <i name="pawaedc">  -3497.12327847 </i>
    <i name="eentropy">     -0.18040140 </i>
    <i name="bandstr">  -1381.24970700 </i>
    <i name="atom">   6761.44252427 </i>
    <i name="e_fr_energy">   -191.20245105 </i>
    <i name="e_wo_entrp">   -191.02204965 </i>
    <i name="e_0_energy">   -191.11225035 </i>
   </energy>
  </scstep>
  <scstep>
   <time name="dav">   33.41   33.49</time>
   <time name="total">   33.92   34.00</time>
   <energy>
    <i name="e_fr_energy">   -191.24249417 </i>
    <i name="e_wo_entrp">   -191.06338350 </i>
    <i name="e_0_energy">   -191.15293883 </i>
   </energy>
  </scstep>
  <scstep>
   <time name="dav">   31.16   31.24</time>
   <time name="total">   31.68   31.76</time>
   <energy>
    <i name="e_fr_energy">   -191.20617299 </i>
    <i name="e_wo_entrp">   -191.02585044 </i>
    <i name="e_0_energy">   -191.11601172 </i>
   </energy>
  </scstep>
  <scstep>
   <time name="dav">   29.01   29.08</time>
   <time name="total">   29.52   29.60</time>
   <energy>
    <i name="e_fr_energy">   -191.20593131 </i>
    <i name="e_wo_entrp">   -191.02529394 </i>
    <i name="e_0_energy">   -191.11561262 </i>
   </energy>
  </scstep>
  <scstep>
   <time name="dav">   29.59   29.67</time>
   <time name="total">   30.10   30.18</time>
   <energy>
    <i name="e_fr_energy">   -191.20564416 </i>
    <i name="e_wo_entrp">   -191.02562481 </i>
    <i name="e_0_energy">   -191.11563449 </i>
   </energy>
  </scstep>
  <scstep>
   <time name="dav">   26.43   26.49</time>
   <time name="total">   26.93   27.01</time>
   <energy>
    <i name="e_fr_energy">   -191.20502821 </i>
    <i name="e_wo_entrp">   -191.02471162 </i>
    <i name="e_0_energy">   -191.11486991 </i>
   </energy>
  </scstep>
  <scstep>
   <time name="dav">   25.88   25.95</time>
   <time name="total">   25.92   25.99</time>
   <energy>
    <i name="alphaZ">     90.74817651 </i>
    <i name="ewald">  44892.84902277 </i>
    <i name="hartreedc"> -50906.46693450 </i>
    <i name="XCdc">   -233.35629586 </i>
[...]
      <set comment="kpoint 31">
       <r>  -17.5784    1.0000 </r>
       <r>  -17.3232    1.0000 </r>
       <r>  -16.8673    1.0000 </r>
       <r>  -16.7691    1.0000 </r>
       <r>  -16.5262    1.0000 </r>
       <r>  -16.4450    1.0000 </r>
       <r>  -16.3747    1.0000 </r>
       <r>  -16.2126    1.0000 </r>
       <r>  -16.1624    1.0000 </r>
       <r>  -16.0339    1.0000 </r>
       <r>  -15.8905    1.0000 </r>
       <r>  -15.8101    1.0000 </r>
       <r>  -15.7643    1.0000 </r>
       <r>  -15.6171    1.0000 </r>
       <r>  -15.5936    1.0000 </r>
       <r>  -15.4374    1.0000 </r>
       <r>  -15.3660    1.0000 </r>
       <r>  -15.2114    1.0000 </r>
       <r>   -9.8490    1.0000 </r>
       <r>   -9.4831    1.0000 </r>
       <r>   -9.4159    1.0000 </r>
       <r>   -9.1655    1.0000 </r>
       <r>   -8.8162    1.0000 </r>
       <r>   -8.6874    1.0000 </r>
       <r>   -8.6543    1.0000 </r>
       <r>   -8.5918    1.0000 </r>
       <r>   -8.3824    1.0000 </r>
       <r>   -8.2722    1.0000 </r>
       <r>   -8.2252    1.0000 </r>
       <r>   -8.1832    1.0000 </r>
       <r>   -8.0967    1.0000 </r>
       <r>   -8.0759    1.0000 </r>
       <r>   -7.9523    1.0000 </r>
       <r>   -7.9267    1.0000 </r>
       <r>   -7.8744    1.0000 </r>
       <r>   -7.8081    1.0000 </r>
       <r>   -7.4928    1.0000 </r>
       <r>   -7.4317    1.0000 </r>
       <r>   -7.3638    1.0000 </r>
       <r>   -7.3242    1.0000 </r>
       <r>   -7.1354    1.0000 </r>
       <r>   -7.0588    1.0000 </r>
       <r>   -6.9599    1.0000 </r>
       <r>   -6.9224    1.0000 </r>
       <r>   -6.8693    1.0000 </r>
       <r>   -6.7481    1.0000 </r>
       <r>   -6.6601    1.0000 </r>
       <r>   -6.6162    1.0000 </r>
       <r>   -6.5519    1.0000 </r>
       <r>   -6.4735    1.0000 </r>
       <r>   -6.4071    1.0000 </r>
       <r>   -6.3427    1.0000 </r>
       <r>   -6.2894    1.0000 </r>
       <r>   -6.1631    1.0000 </r>
       <r>   -6.0952    1.0000 </r>
       <r>   -6.0272    1.0000 </r>
       <r>   -5.9616    1.0000 </r>
       <r>   -5.9422    1.0000 </r>
       <r>   -5.8536    1.0000 </r>
       <r>   -5.7539    1.0000 </r>
       <r>   -5.6542    1.0000 </r>
       <r>   -5.5942    1.0000 </r>
       <r>   -5.4880    1.0000 </r>
       <r>   -5.3896    1.0000 </r>
       <r>   -5.2821    1.0000 </r>
       <r>   -5.1660    1.0000 </r>
       <r>   -5.0865    1.0000 </r>
       <r>   -4.8661    1.0000 </r>
       <r>   -4.7246    1.0000 </r>
       <r>   -4.6788    1.0000 </r>
       <r>   -4.5787    1.0000 </r>
       <r>   -4.4644    1.0000 </r>
       <r>   -4.4217    1.0000 </r>
       <r>   -4.4004    1.0000 </r>
       <r>   -4.1418    1.0000 </r>
       <r>   -4.0216    1.0000 </r>
       <r>   -3.8660    0.9999 </r>
       <r>   -3.5345    0.9179 </r>
       <r>   -3.4469    0.7801 </r>
       <r>   -3.3107    0.4242 </r>
       <r>   -3.0964    0.0440 </r>
       <r>   -2.9535    0.0033 </r>
       <r>   -2.8558    0.0003 </r>
       <r>   -2.6368    0.0000 </r>
       <r>   -2.5724    0.0000 </r>
       <r>   -2.5055    0.0000 </r>
       <r>   -2.2931    0.0000 </r>
       <r>   -2.2393    0.0000 </r>
       <r>   -2.1495    0.0000 </r>
       <r>   -1.9764    0.0000 </r>
       <r>   -1.8088    0.0000 </r>
       <r>   -1.6426    0.0000 </r>
       <r>   -1.3221    0.0000 </r>
       <r>   -1.2318    0.0000 </r>
       <r>   -1.0894    0.0000 </r>
       <r>   -1.0345    0.0000 </r>
       <r>   -0.9984    0.0000 </r>
       <r>   -0.9362    0.0000 </r>
       <r>   -0.8483    0.0000 </r>
       <r>   -0.8217    0.0000 </r>
       <r>   -0.7901    0.0000 </r>
       <r>   -0.7340    0.0000 </r>
       <r>   -0.6327    0.0000 </r>
       <r>   -0.5654    0.0000 </r>
       <r>   -0.4978    0.0000 </r>
       <r>   -0.4633    0.0000 </r>
       <r>   -0.2330    0.0000 </r>
       <r>   -0.0574    0.0000 </r>
       <r>   -0.0212    0.0000 </r>
       <r>    0.2176    0.0000 </r>
       <r>    0.2610    0.0000 </r>
       <r>    0.4901    0.0000 </r>
       <r>    0.6658    0.0000 </r>
       <r>    0.9009    0.0000 </r>
       <r>    1.2113    0.0000 </r>
       <r>    1.2412    0.0000 </r>
       <r>    1.3293    0.0000 </r>
       <r>    2.1073    0.0000 </r>
       <r>    2.3025    0.0000 </r>
       <r>    2.3694    0.0000 </r>
      </set>
      <set comment="kpoint 32">
       <r>  -17.6083    1.0000 </r>
       <r>  -17.2374    1.0000 </r>
       <r>  -16.9695    1.0000 </r>
       <r>  -16.7714    1.0000 </r>
       <r>  -16.5128    1.0000 </r>
       <r>  -16.4130    1.0000 </r>
       <r>  -16.3105    1.0000 </r>
       <r>  -16.2444    1.0000 </r>
       <r>  -16.1190    1.0000 </r>
       <r>  -16.0524    1.0000 </r>
       <r>  -15.9349    1.0000 </r>
       <r>  -15.8421    1.0000 </r>
       <r>  -15.7648    1.0000 </r>
       <r>  -15.6228    1.0000 </r>
       <r>  -15.5860    1.0000 </r>
       <r>  -15.4285    1.0000 </r>
       <r>  -15.3635    1.0000 </r>
       <r>  -15.2039    1.0000 </r>
       <r>   -9.7990    1.0000 </r>
       <r>   -9.5608    1.0000 </r>
       <r>   -9.4421    1.0000 </r>
       <r>   -9.2074    1.0000 </r>
       <r>   -8.7043    1.0000 </r>
       <r>   -8.6499    1.0000 </r>
       <r>   -8.5632    1.0000 </r>
       <r>   -8.4428    1.0000 </r>
       <r>   -8.4225    1.0000 </r>
       <r>   -8.3505    1.0000 </r>
       <r>   -8.2804    1.0000 </r>
       <r>   -8.2415    1.0000 </r>
       <r>   -8.1135    1.0000 </r>
       <r>   -8.0902    1.0000 </r>
       <r>   -8.0048    1.0000 </r>
       <r>   -7.9454    1.0000 </r>
       <r>   -7.8616    1.0000 </r>
       <r>   -7.8126    1.0000 </r>
       <r>   -7.5734    1.0000 </r>
       <r>   -7.4004    1.0000 </r>
       <r>   -7.2814    1.0000 </r>
       <r>   -7.2458    1.0000 </r>
       <r>   -7.1717    1.0000 </r>
       <r>   -7.0782    1.0000 </r>
       <r>   -7.0188    1.0000 </r>
       <r>   -6.9182    1.0000 </r>
       <r>   -6.8531    1.0000 </r>
       <r>   -6.7448    1.0000 </r>
       <r>   -6.6814    1.0000 </r>
       <r>   -6.5585    1.0000 </r>
       <r>   -6.5329    1.0000 </r>
       <r>   -6.4655    1.0000 </r>
       <r>   -6.4104    1.0000 </r>
       <r>   -6.3748    1.0000 </r>
       <r>   -6.2852    1.0000 </r>
       <r>   -6.2410    1.0000 </r>
       <r>   -6.1411    1.0000 </r>
       <r>   -6.0250    1.0000 </r>
       <r>   -5.9662    1.0000 </r>
       <r>   -5.8885    1.0000 </r>
       <r>   -5.8571    1.0000 </r>
       <r>   -5.7016    1.0000 </r>
       <r>   -5.6597    1.0000 </r>
       <r>   -5.5465    1.0000 </r>
       <r>   -5.4830    1.0000 </r>
       <r>   -5.3913    1.0000 </r>
       <r>   -5.2300    1.0000 </r>
       <r>   -5.1682    1.0000 </r>
       <r>   -5.0711    1.0000 </r>
       <r>   -4.9468    1.0000 </r>
       <r>   -4.8110    1.0000 </r>
       <r>   -4.6771    1.0000 </r>
       <r>   -4.5978    1.0000 </r>
       <r>   -4.5106    1.0000 </r>
       <r>   -4.4108    1.0000 </r>
       <r>   -4.3537    1.0000 </r>
       <r>   -4.1118    1.0000 </r>
       <r>   -4.0027    1.0000 </r>
       <r>   -3.8038    0.9995 </r>
       <r>   -3.5959    0.9661 </r>
       <r>   -3.5052    0.8819 </r>
       <r>   -3.3259    0.4669 </r>
       <r>   -3.0737    0.0310 </r>
       <r>   -2.9137    0.0014 </r>
       <r>   -2.7826    0.0000 </r>
       <r>   -2.6027    0.0000 </r>
       <r>   -2.5628    0.0000 </r>
       <r>   -2.4900    0.0000 </r>
       <r>   -2.3081    0.0000 </r>
       <r>   -2.2341    0.0000 </r>
       <r>   -2.1752    0.0000 </r>
       <r>   -2.0125    0.0000 </r>
       <r>   -1.7820    0.0000 </r>
       <r>   -1.6579    0.0000 </r>
       <r>   -1.3659    0.0000 </r>
       <r>   -1.2091    0.0000 </r>
       <r>   -1.1503    0.0000 </r>
       <r>   -1.0364    0.0000 </r>
       <r>   -1.0014    0.0000 </r>
       <r>   -0.9715    0.0000 </r>
       <r>   -0.8819    0.0000 </r>
       <r>   -0.8381    0.0000 </r>
       <r>   -0.7816    0.0000 </r>
       <r>   -0.7566    0.0000 </r>
       <r>   -0.5872    0.0000 </r>
       <r>   -0.5690    0.0000 </r>
       <r>   -0.4613    0.0000 </r>
       <r>   -0.3675    0.0000 </r>
       <r>   -0.2060    0.0000 </r>
       <r>   -0.1107    0.0000 </r>
       <r>    0.0356    0.0000 </r>
       <r>    0.1855    0.0000 </r>
       <r>    0.2613    0.0000 </r>
       <r>    0.4706    0.0000 </r>
       <r>    0.6504    0.0000 </r>
       <r>    0.9185    0.0000 </r>
       <r>    1.1511    0.0000 </r>
       <r>    1.2432    0.0000 </r>
       <r>    1.3327    0.0000 </r>
       <r>    2.0720    0.0000 </r>
       <r>    2.2699    0.0000 </r>
       <r>    2.4823    0.0000 </r>
      </set>
      <set comment="kpoint 33">
       <r>  -17.6191    1.0000 </r>
       <r>  -17.2415    1.0000 </r>
       <r>  -16.9033    1.0000 </r>
       <r>  -16.7735    1.0000 </r>
       <r>  -16.5294    1.0000 </r>
       <r>  -16.4892    1.0000 </r>
       <r>  -16.3722    1.0000 </r>
       <r>  -16.1802    1.0000 </r>
       <r>  -16.0611    1.0000 </r>
       <r>  -16.0073    1.0000 </r>
       <r>  -15.9614    1.0000 </r>
       <r>  -15.8645    1.0000 </r>
       <r>  -15.7517    1.0000 </r>
       <r>  -15.6491    1.0000 </r>
       <r>  -15.5903    1.0000 </r>
       <r>  -15.4215    1.0000 </r>
       <r>  -15.3725    1.0000 </r>
       <r>  -15.2001    1.0000 </r>
       <r>   -9.8228    1.0000 </r>
       <r>   -9.4969    1.0000 </r>
       <r>   -9.3998    1.0000 </r>
       <r>   -9.2061    1.0000 </r>
       <r>   -8.8384    1.0000 </r>
       <r>   -8.7015    1.0000 </r>
       <r>   -8.5483    1.0000 </r>
       <r>   -8.4901    1.0000 </r>
       <r>   -8.4163    1.0000 </r>
       <r>   -8.3395    1.0000 </r>
       <r>   -8.2636    1.0000 </r>
       <r>   -8.2165    1.0000 </r>
       <r>   -8.1121    1.0000 </r>
       <r>   -8.0484    1.0000 </r>
       <r>   -8.0153    1.0000 </r>
       <r>   -7.9259    1.0000 </r>
       <r>   -7.8282    1.0000 </r>
       <r>   -7.7347    1.0000 </r>
       <r>   -7.6293    1.0000 </r>
       <r>   -7.3941    1.0000 </r>
       <r>   -7.2944    1.0000 </r>
       <r>   -7.1927    1.0000 </r>
       <r>   -7.1181    1.0000 </r>
       <r>   -7.0957    1.0000 </r>
       <r>   -7.0314    1.0000 </r>
       <r>   -6.9150    1.0000 </r>
       <r>   -6.8229    1.0000 </r>
       <r>   -6.7689    1.0000 </r>
       <r>   -6.6972    1.0000 </r>
       <r>   -6.5986    1.0000 </r>
       <r>   -6.5364    1.0000 </r>
       <r>   -6.4898    1.0000 </r>
       <r>   -6.4108    1.0000 </r>
       <r>   -6.3511    1.0000 </r>
       <r>   -6.3026    1.0000 </r>
       <r>   -6.2413    1.0000 </r>
       <r>   -6.1379    1.0000 </r>
       <r>   -6.0721    1.0000 </r>
       <r>   -5.9562    1.0000 </r>
       <r>   -5.8947    1.0000 </r>
       <r>   -5.8542    1.0000 </r>
       <r>   -5.7843    1.0000 </r>
       <r>   -5.6816    1.0000 </r>
       <r>   -5.6089    1.0000 </r>
       <r>   -5.4670    1.0000 </r>
       <r>   -5.3523    1.0000 </r>
       <r>   -5.2760    1.0000 </r>
       <r>   -5.1165    1.0000 </r>
       <r>   -5.0489    1.0000 </r>
       <r>   -4.8660    1.0000 </r>
       <r>   -4.8085    1.0000 </r>
       <r>   -4.6642    1.0000 </r>
       <r>   -4.6131    1.0000 </r>
       <r>   -4.5303    1.0000 </r>
       <r>   -4.4169    1.0000 </r>
       <r>   -4.2501    1.0000 </r>
       <r>   -4.1192    1.0000 </r>
       <r>   -3.9897    1.0000 </r>
       <r>   -3.8013    0.9995 </r>
       <r>   -3.6846    0.9929 </r>
       <r>   -3.5322    0.9155 </r>
       <r>   -3.3965    0.6613 </r>
       <r>   -2.9917    0.0072 </r>
       <r>   -2.8914    0.0008 </r>
       <r>   -2.7430    0.0000 </r>
       <r>   -2.6029    0.0000 </r>
       <r>   -2.5391    0.0000 </r>
       <r>   -2.4547    0.0000 </r>
       <r>   -2.3445    0.0000 </r>
       <r>   -2.2276    0.0000 </r>
       <r>   -2.1763    0.0000 </r>
       <r>   -2.0124    0.0000 </r>
       <r>   -1.7534    0.0000 </r>
       <r>   -1.6539    0.0000 </r>
       <r>   -1.4222    0.0000 </r>
       <r>   -1.2120    0.0000 </r>
       <r>   -1.1532    0.0000 </r>
       <r>   -1.0489    0.0000 </r>
       <r>   -1.0204    0.0000 </r>
       <r>   -0.9860    0.0000 </r>
       <r>   -0.9313    0.0000 </r>
       <r>   -0.8882    0.0000 </r>
       <r>   -0.7777    0.0000 </r>
       <r>   -0.7350    0.0000 </r>
       <r>   -0.6074    0.0000 </r>
       <r>   -0.5747    0.0000 </r>
       <r>   -0.3896    0.0000 </r>
       <r>   -0.3377    0.0000 </r>
       <r>   -0.1842    0.0000 </r>
       <r>   -0.1506    0.0000 </r>
       <r>   -0.0214    0.0000 </r>
       <r>    0.2343    0.0000 </r>
       <r>    0.3286    0.0000 </r>
       <r>    0.4863    0.0000 </r>
       <r>    0.5955    0.0000 </r>
       <r>    0.9284    0.0000 </r>
       <r>    1.1142    0.0000 </r>
       <r>    1.2658    0.0000 </r>
       <r>    1.3604    0.0000 </r>
       <r>    2.0878    0.0000 </r>
       <r>    2.2995    0.0000 </r>
       <r>    2.3574    0.0000 </r>
      </set>
      <set comment="kpoint 34">
       <r>  -17.6197    1.0000 </r>
       <r>  -17.2654    1.0000 </r>
       <r>  -16.7815    1.0000 </r>
       <r>  -16.7740    1.0000 </r>
       <r>  -16.6507    1.0000 </r>
       <r>  -16.4982    1.0000 </r>
       <r>  -16.3843    1.0000 </r>
       <r>  -16.1646    1.0000 </r>
       <r>  -16.0485    1.0000 </r>
       <r>  -16.0073    1.0000 </r>
       <r>  -15.9050    1.0000 </r>
       <r>  -15.8843    1.0000 </r>
       <r>  -15.7144    1.0000 </r>
       <r>  -15.7005    1.0000 </r>
       <r>  -15.5942    1.0000 </r>
       <r>  -15.4173    1.0000 </r>
       <r>  -15.3792    1.0000 </r>
       <r>  -15.2000    1.0000 </r>
       <r>   -9.8471    1.0000 </r>
       <r>   -9.4310    1.0000 </r>
       <r>   -9.3625    1.0000 </r>
       <r>   -9.1438    1.0000 </r>
       <r>   -8.9941    1.0000 </r>
       <r>   -8.7873    1.0000 </r>
       <r>   -8.5751    1.0000 </r>
       <r>   -8.4884    1.0000 </r>
       <r>   -8.3859    1.0000 </r>
       <r>   -8.3270    1.0000 </r>
       <r>   -8.2694    1.0000 </r>
       <r>   -8.1804    1.0000 </r>
       <r>   -8.1251    1.0000 </r>
       <r>   -8.0306    1.0000 </r>
       <r>   -8.0004    1.0000 </r>
       <r>   -7.9473    1.0000 </r>
       <r>   -7.7684    1.0000 </r>
       <r>   -7.7302    1.0000 </r>
       <r>   -7.5242    1.0000 </r>
       <r>   -7.3988    1.0000 </r>
       <r>   -7.3297    1.0000 </r>
       <r>   -7.2553    1.0000 </r>
       <r>   -7.1198    1.0000 </r>
       <r>   -7.0549    1.0000 </r>
       <r>   -7.0102    1.0000 </r>
       <r>   -6.9280    1.0000 </r>
       <r>   -6.8473    1.0000 </r>
       <r>   -6.7219    1.0000 </r>
       <r>   -6.6690    1.0000 </r>
       <r>   -6.6174    1.0000 </r>
       <r>   -6.5651    1.0000 </r>
       <r>   -6.5212    1.0000 </r>
       <r>   -6.4386    1.0000 </r>
       <r>   -6.3610    1.0000 </r>
       <r>   -6.2981    1.0000 </r>
       <r>   -6.2187    1.0000 </r>
       <r>   -6.1313    1.0000 </r>
       <r>   -6.0505    1.0000 </r>
       <r>   -5.9599    1.0000 </r>
       <r>   -5.9120    1.0000 </r>
       <r>   -5.8613    1.0000 </r>
       <r>   -5.8378    1.0000 </r>
       <r>   -5.7428    1.0000 </r>
       <r>   -5.5811    1.0000 </r>
       <r>   -5.5248    1.0000 </r>
       <r>   -5.3450    1.0000 </r>
       <r>   -5.2993    1.0000 </r>
       <r>   -5.1079    1.0000 </r>
       <r>   -4.9117    1.0000 </r>
       <r>   -4.8783    1.0000 </r>
       <r>   -4.7650    1.0000 </r>
       <r>   -4.7163    1.0000 </r>
       <r>   -4.5953    1.0000 </r>
       <r>   -4.5329    1.0000 </r>
       <r>   -4.4207    1.0000 </r>
       <r>   -4.1899    1.0000 </r>
       <r>   -4.0953    1.0000 </r>
       <r>   -3.9850    1.0000 </r>
       <r>   -3.8362    0.9998 </r>
       <r>   -3.7417    0.9979 </r>
       <r>   -3.5370    0.9207 </r>
       <r>   -3.4283    0.7392 </r>
       <r>   -2.9385    0.0024 </r>
       <r>   -2.9022    0.0010 </r>
       <r>   -2.7331    0.0000 </r>
       <r>   -2.6098    0.0000 </r>
       <r>   -2.5261    0.0000 </r>
       <r>   -2.4326    0.0000 </r>
       <r>   -2.3638    0.0000 </r>
       <r>   -2.2298    0.0000 </r>
       <r>   -2.1717    0.0000 </r>
       <r>   -1.9970    0.0000 </r>
       <r>   -1.7424    0.0000 </r>
       <r>   -1.6445    0.0000 </r>
       <r>   -1.4552    0.0000 </r>
       <r>   -1.2215    0.0000 </r>
       <r>   -1.1265    0.0000 </r>
       <r>   -1.0666    0.0000 </r>
       <r>   -1.0196    0.0000 </r>
       <r>   -0.9995    0.0000 </r>
       <r>   -0.9399    0.0000 </r>
       <r>   -0.9182    0.0000 </r>
       <r>   -0.7828    0.0000 </r>
       <r>   -0.7163    0.0000 </r>
       <r>   -0.6465    0.0000 </r>
       <r>   -0.5719    0.0000 </r>
       <r>   -0.3740    0.0000 </r>
       <r>   -0.2987    0.0000 </r>
       <r>   -0.2180    0.0000 </r>
       <r>   -0.1424    0.0000 </r>
       <r>   -0.0724    0.0000 </r>
       <r>    0.2894    0.0000 </r>
       <r>    0.3928    0.0000 </r>
       <r>    0.4810    0.0000 </r>
       <r>    0.5475    0.0000 </r>
       <r>    0.9259    0.0000 </r>
       <r>    1.1100    0.0000 </r>
       <r>    1.2884    0.0000 </r>
       <r>    1.3742    0.0000 </r>
       <r>    2.1214    0.0000 </r>
       <r>    2.2605    0.0000 </r>
       <r>    2.3864    0.0000 </r>
      </set>
     </set>
    </set>
   </array>
  </eigenvalues>
  <separator name="orbital magnetization" >
   <v name="MAGDIPOLOUT">      0.00000000      0.00000000      0.00000000</v>
  </separator>
 </calculation>
 <structure name="finalpos" >
  <crystal>
   <varray name="basis" >
    <v>       8.35431845       4.82373794       0.00000000 </v>
    <v>      -8.33861640       4.79654426       0.00000000 </v>
    <v>       0.00000000       0.00000000      30.00000000 </v>
   </varray>
   <i name="volume">   2408.85475416 </i>
   <varray name="rec_basis" >
    <v>       0.05973641       0.10384955       0.00000000 </v>
    <v>      -0.06007508       0.10404511       0.00000000 </v>
    <v>       0.00000000       0.00000000       0.03333333 </v>
   </varray>
  </crystal>
  <varray name="positions" >
   <v>       0.34948609      -0.01940599       0.00105023 </v>
   <v>       0.70230662       0.68707602      -0.00113123 </v>
   <v>       0.68850630       0.33297017       0.00002543 </v>
   <v>       0.29617755       0.33293985       0.00004552 </v>
   <v>       0.00612779       0.64803237       0.00048494 </v>
   <v>       0.69136324       0.01841829      -0.00049357 </v>
   <v>      -0.01250472       0.02198940      -0.00052561 </v>
   <v>       0.99762527       0.33328118      -0.00000245 </v>
   <v>       0.29857633       0.64426858       0.00056222 </v>
   <v>       0.10021370       0.22211457       0.94292401 </v>
   <v>       0.22178333       0.10728714       0.04785926 </v>
   <v>       0.10464990       0.54837536       0.94333551 </v>
   <v>       0.21125998       0.44429081       0.05708561 </v>
   <v>       0.11632579       0.89611668       0.95674039 </v>
   <v>       0.22507378       0.77916384       0.05453930 </v>
   <v>       0.44237919       0.22020418       0.95802627 </v>
   <v>       0.55866707       0.11436642       0.05092691 </v>
   <v>       0.44773418       0.55901001       0.95224317 </v>
   <v>       0.55539237       0.44638258       0.04183926 </v>
   <v>       0.44515622       0.88126274       0.95028201 </v>
   <v>       0.55333696       0.77044069       0.04331296 </v>
   <v>       0.77365885       0.22524572       0.94538325 </v>
   <v>       0.88954272       0.11814009       0.05664475 </v>
   <v>       0.77742916       0.55215484       0.94917542 </v>
   <v>       0.88169999       0.44132026       0.05459660 </v>
   <v>       0.77931970       0.88763730       0.94532316 </v>
   <v>       0.89692708       0.78513134       0.04974659 </v>
  </varray>
 </structure>
</modeling>
