unknown system                          
           1
     8.855286    5.104989    0.000000
    -8.855387    5.105163    0.000000
     0.000000    0.000000   30.000000
   V    Mo   W    S 
   3   3   3  18
Direct configuration=     1
   0.33333334  0.00000000  0.00000000
   0.66666669  0.66666669  0.00000000
   0.66666669  0.33333334  0.00000000
   0.33333334  0.33333334  0.00000000
   0.00000000  0.66666669  0.00000000
   0.66666669  0.00000000  0.00000000
   0.00000000  0.00000000  0.00000000
   1.00000000  0.33333334  0.00000000
   0.33333334  0.66666669  0.00000000
   0.11068511  0.22244981  0.95539999
   0.22244981  0.11068511  0.04460000
   0.11068511  0.55578315  0.95539999
   0.22244981  0.44401845  0.04460000
   0.11068511  0.88911647  0.95539999
   0.22244981  0.77735180  0.04460000
   0.44401845  0.22244981  0.95539999
   0.55578315  0.11068511  0.04460000
   0.44401845  0.55578315  0.95539999
   0.55578315  0.44401845  0.04460000
   0.44401845  0.88911647  0.95539999
   0.55578315  0.77735180  0.04460000
   0.77735180  0.22244981  0.95539999
   0.88911647  0.11068511  0.04460000
   0.77735180  0.55578315  0.95539999
   0.88911647  0.44401845  0.04460000
   0.77735180  0.88911647  0.95539999
   0.88911647  0.77735180  0.04460000
unknown system                          
           1
     8.666961    4.998681    0.000000
    -8.667142    4.998995    0.000000
     0.000000    0.000000   30.000000
   V    Mo   W    S 
   3   3   3  18
Direct configuration=     2
   0.33382327  0.00050296  0.00016821
   0.66675392  0.66622662 -0.00017480
   0.66614272  0.33333607  0.00000432
   0.33351488  0.33326589 -0.00001486
  -0.00019060  0.66651411 -0.00005857
   0.66661191  0.00015247  0.00007348
  -0.00002975 -0.00042843 -0.00021672
   0.99969240  0.33340220  0.00000911
   0.33357942  0.66693763  0.00021048
   0.11010327  0.22157061  0.95071252
   0.22374515  0.10811068  0.04801990
   0.11133044  0.55491469  0.95074883
   0.22169550  0.44487128  0.04927820
   0.11495940  0.89146865  0.95194364
   0.22490032  0.78180618  0.04811243
   0.44651069  0.21998248  0.95305146
   0.55317225  0.11307076  0.04696648
   0.44856911  0.55813309  0.95191065
   0.55986077  0.44628875  0.04688803
   0.44151742  0.89028794  0.95201863
   0.55679881  0.77478811  0.04797466
   0.77630102  0.22502811  0.95199573
   0.88961033  0.11162331  0.04925683
   0.77322742  0.55357408  0.95309806
   0.88479412  0.44169449  0.04807201
   0.77644429  0.88469688  0.95190685
   0.88477596  0.77639486  0.04804434
unknown system                          
           1
     8.484312    4.898294    0.000000
    -8.483996    4.897746    0.000000
     0.000000    0.000000   30.000000
   V    Mo   W    S 
   3   3   3  18
Direct configuration=     3
   0.33386834  0.00052100  0.00018668
   0.66678647  0.66621260 -0.00019432
   0.66609726  0.33333438  0.00000549
   0.33305602  0.33326662 -0.00001576
   0.00001783  0.66646624 -0.00006235
   0.66686726  0.00021059  0.00007813
  -0.00006404 -0.00028037 -0.00023806
   0.99986707  0.33341202  0.00000912
   0.33337385  0.66676682  0.00023135
   0.10981741  0.22144259  0.95068761
   0.22355840  0.10792680  0.04801928
   0.11147124  0.55480671  0.95074552
   0.22158158  0.44500908  0.04930778
   0.11497896  0.89168373  0.95195759
   0.22512637  0.78182631  0.04812063
   0.44657135  0.21995660  0.95309791
   0.55312554  0.11312008  0.04694181
   0.44859261  0.55835793  0.95192520
   0.55994780  0.44634404  0.04684897
   0.44135593  0.89010596  0.95204972
   0.55660815  0.77459873  0.04796909
   0.77646263  0.22519409  0.95200193
   0.88989108  0.11172947  0.04925514
   0.77312532  0.55349330  0.95311332
   0.88476792  0.44149695  0.04805593
   0.77660096  0.88466872  0.95189423
   0.88476113  0.77654346  0.04800796
unknown system                          
           1
     8.265993    4.772436    0.000000
    -8.265090    4.770869    0.000000
     0.000000    0.000000   30.000000
   V    Mo   W    S 
   3   3   3  18
Direct configuration=     4
   0.33359975  0.00009576  0.00017623
   0.66694764  0.66665322 -0.00018446
   0.66635284  0.33329559  0.00000697
   0.33041585  0.33324910 -0.00001192
   0.00125665  0.66629157 -0.00004336
   0.66829162  0.00040998  0.00005520
  -0.00026847  0.00087197 -0.00020635
   1.00112954  0.33341385  0.00000620
   0.33196269  0.66553880  0.00020118
   0.10945126  0.22134008  0.94892385
   0.22393713  0.10725659  0.04946528
   0.11170932  0.55477091  0.94909881
   0.22145132  0.44512369  0.05108961
   0.11629516  0.89248106  0.95055124
   0.22594131  0.78310218  0.04965268
   0.44714123  0.21949824  0.95197702
   0.55262262  0.11376542  0.04817758
   0.44975631  0.55916569  0.95051487
   0.56095755  0.44689951  0.04799592
   0.44082020  0.89060207  0.95074387
   0.55714909  0.77391389  0.04940907
   0.77589739  0.22583036  0.95057502
   0.89027778  0.11175819  0.05087902
   0.77199623  0.55274976  0.95184408
   0.88347455  0.44075908  0.04945497
   0.77602356  0.88340610  0.95035313
   0.88362435  0.77597179  0.04929417
unknown system                          
           1
     8.253997    4.765864    0.000000
    -8.250033    4.758996    0.000000
     0.000000    0.000000   30.000000
   V    Mo   W    S 
   3   3   3  18
Direct configuration=     5
   0.33248866 -0.00140901 -0.00003369
   0.66738727  0.66817046  0.00002634
   0.66722636  0.33324835  0.00000737
   0.32453390  0.33323774 -0.00000745
   0.00411438  0.66592297  0.00002878
   0.67151704  0.00075453 -0.00002131
  -0.00072925  0.00395755 -0.00004490
   1.00468226  0.33348273  0.00000693
   0.32826108  0.66223930  0.00004017
   0.10910672  0.22119957  0.94621017
   0.22439781  0.10693285  0.05142313
   0.11181952  0.55476138  0.94676624
   0.22127721  0.44527373  0.05381320
   0.11766557  0.89316480  0.94873193
   0.22683759  0.78453471  0.05192420
   0.44733300  0.21939831  0.95048083
   0.55244440  0.11442620  0.05001936
   0.45073956  0.55961155  0.94859515
   0.56117467  0.44712208  0.04950663
   0.44080675  0.89130075  0.94919100
   0.55775921  0.77334214  0.05124835
   0.77529421  0.22641476  0.94868104
   0.89044619  0.11179602  0.05319901
   0.77127230  0.55202920  0.94998475
   0.88213192  0.44011710  0.05131950
   0.77549132  0.88199946  0.94807265
   0.88273480  0.77518526  0.05083052
unknown system                          
           1
     8.257264    4.767847    0.000000
    -8.251940    4.758625    0.000000
     0.000000    0.000000   30.000000
   V    Mo   W    S 
   3   3   3  18
Direct configuration=     6
   0.33190260 -0.00226358 -0.00007773
   0.66769310  0.66904903  0.00007212
   0.66757299  0.33321902  0.00000525
   0.32263875  0.33323211 -0.00000925
   0.00523506  0.66563154  0.00003800
   0.67294293  0.00103570 -0.00003069
  -0.00093324  0.00558613 -0.00006027
   1.00617226  0.33348836  0.00000311
   0.32640483  0.66056754  0.00005605
   0.10887711  0.22111183  0.94567530
   0.22421845  0.10730934  0.05152422
   0.11154693  0.55446594  0.94636542
   0.22111143  0.44536463  0.05435692
   0.11728693  0.89308352  0.94871460
   0.22702636  0.78437544  0.05219132
   0.44674972  0.21979185  0.95052786
   0.55272258  0.11419869  0.05008671
   0.45017622  0.55921695  0.94849162
   0.56020604  0.44673825  0.04945487
   0.44125945  0.89107915  0.94924740
   0.55743816  0.77343488  0.05125628
   0.77580854  0.22643450  0.94859678
   0.89046503  0.11211141  0.05359577
   0.77179157  0.55227955  0.94992029
   0.88262772  0.44011855  0.05140986
   0.77586090  0.88215846  0.94779945
   0.88341204  0.77539566  0.05078866
unknown system                          
           1
     8.260121    4.769594    0.000000
    -8.251955    4.755448    0.000000
     0.000000    0.000000   30.000000
   V    Mo   W    S 
   3   3   3  18
Direct configuration=     7
   0.33151249 -0.00294905 -0.00012010
   0.66803098  0.66976233  0.00011491
   0.66773321  0.33319363  0.00000661
   0.32113375  0.33322356 -0.00000650
   0.00622397  0.66513872  0.00004401
   0.67445177  0.00153797 -0.00003763
  -0.00122299  0.00705022 -0.00004155
   1.00723785  0.33348989  0.00000397
   0.32463352  0.65906930  0.00003818
   0.10871493  0.22108188  0.94533773
   0.22400223  0.10752763  0.05150111
   0.11136609  0.55417020  0.94613068
   0.22096079  0.44539060  0.05469504
   0.11695800  0.89306186  0.94881700
   0.22717033  0.78423440  0.05233213
   0.44631650  0.22004298  0.95069647
   0.55287655  0.11398739  0.05001198
   0.44973683  0.55898746  0.94851514
   0.55953034  0.44649252  0.04927947
   0.44155090  0.89078798  0.94942601
   0.55711742  0.77345852  0.05114819
   0.77625533  0.22648224  0.94861398
   0.89057713  0.11241801  0.05382843
   0.77215990  0.55250775  0.94999784
   0.88303018  0.44008524  0.05139150
   0.77616166  0.88229907  0.94765453
   0.88399479  0.77568216  0.05062080
unknown system                          
           1
     8.260205    4.769605    0.000000
    -8.252727    4.756650    0.000000
     0.000000    0.000000   30.000000
   V    Mo   W    S 
   3   3   3  18
Direct configuration=     8
   0.33099047 -0.00392154 -0.00019262
   0.66857622  0.67081608  0.00018833
   0.66776098  0.33317257  0.00000867
   0.31899731  0.33321823 -0.00000628
   0.00778323  0.66411629  0.00006824
   0.67711363  0.00256613 -0.00006562
  -0.00175112  0.00933218 -0.00005404
   1.00863737  0.33348469  0.00000013
   0.32181560  0.65671360  0.00004926
   0.10850673  0.22104513  0.94488651
   0.22365938  0.10776668  0.05143955
   0.11106730  0.55364129  0.94575909
   0.22076947  0.44542292  0.05515242
   0.11645469  0.89302258  0.94904433
   0.22738043  0.78403438  0.05251503
   0.44574261  0.22029339  0.95098145
   0.55305923  0.11370264  0.04986669
   0.44915144  0.55873553  0.94858496
   0.55871842  0.44625404  0.04898459
   0.44193785  0.89030253  0.94976134
   0.55664294  0.77350038  0.05091226
   0.77683119  0.22659165  0.94864264
   0.89080882  0.11295467  0.05420286
   0.77262166  0.55280829  0.95014621
   0.88350034  0.43999111  0.05136015
   0.77658322  0.88249288  0.94746410
   0.88485506  0.77615613  0.05029968
unknown system                          
           1
     8.261120    4.770199    0.000000
    -8.254120    4.758074    0.000000
     0.000000    0.000000   30.000000
   V    Mo   W    S 
   3   3   3  18
Direct configuration=     9
   0.33114125 -0.00365392 -0.00017282
   0.66843752  0.67053078  0.00016834
   0.66773197  0.33317987  0.00000834
   0.31962388  0.33321960 -0.00000606
   0.00735754  0.66434653  0.00006129
   0.67643940  0.00233347 -0.00005754
  -0.00163389  0.00869580 -0.00005190
   1.00819290  0.33348549  0.00000126
   0.32257292  0.65736870  0.00004782
   0.10856955  0.22105811  0.94501593
   0.22374999  0.10769079  0.05145273
   0.11114650  0.55377675  0.94585998
   0.22082506  0.44541030  0.05502106
   0.11658547  0.89302642  0.94899061
   0.22731965  0.78408873  0.05246335
   0.44590884  0.22021223  0.95090413
   0.55300409  0.11378269  0.04990325
   0.44932048  0.55881572  0.94856978
   0.55896322  0.44633321  0.04906435
   0.44183489  0.89043173  0.94967729
   0.55677420  0.77349588  0.05096822
   0.77666379  0.22656529  0.94863300
   0.89075286  0.11281641  0.05410148
   0.77248600  0.55272302  0.95010840
   0.88335831  0.44001233  0.05137023
   0.77646351  0.88243888  0.94751735
   0.88462456  0.77602962  0.05038005
unknown system                          
           1
     8.257828    4.767895    0.000000
    -8.250385    4.755003    0.000000
     0.000000    0.000000   30.000000
   V    Mo   W    S 
   3   3   3  18
Direct configuration=    10
   0.33117040 -0.00361114 -0.00016527
   0.66841997  0.67047335  0.00015410
   0.66762714  0.33313759  0.00000742
   0.31961627  0.33317845 -0.00000583
   0.00746775  0.66415584  0.00006075
   0.67672581  0.00259263 -0.00005775
  -0.00165297  0.00889976 -0.00005650
   1.00816749  0.33347124  0.00000205
   0.32232720  0.65721725  0.00005177
   0.10857440  0.22109052  0.94504438
   0.22375595  0.10761162  0.05143081
   0.11111981  0.55372961  0.94585777
   0.22079702  0.44537490  0.05499256
   0.11655540  0.89298967  0.94902594
   0.22731780  0.78412199  0.05244620
   0.44593286  0.22014866  0.95090042
   0.55297939  0.11376934  0.04988651
   0.44938869  0.55888453  0.94858628
   0.55903079  0.44637074  0.04907423
   0.44186021  0.89045885  0.94971519
   0.55676730  0.77354696  0.05094176
   0.77664166  0.22661899  0.94864040
   0.89077425  0.11286326  0.05410507
   0.77248310  0.55271633  0.95011903
   0.88328226  0.43995646  0.05136082
   0.77643300  0.88242610  0.94752888
   0.88465151  0.77602095  0.05035288
unknown system                          
           1
     8.245416    4.760561    0.000000
    -8.236463    4.745055    0.000000
     0.000000    0.000000   30.000000
   V    Mo   W    S 
   3   3   3  18
Direct configuration=    11
   0.33105233 -0.00390295 -0.00012979
   0.66860455  0.67084037  0.00012564
   0.66828411  0.33326126  0.00000364
   0.31876703  0.33325956 -0.00000865
   0.00721054  0.66483081  0.00003489
   0.67580505  0.00173524 -0.00004070
  -0.00130643  0.00871777 -0.00006458
   1.00876261  0.33353155 -0.00001276
   0.32288393  0.65727172  0.00005319
   0.10845364  0.22094441  0.94492349
   0.22375206  0.10779365  0.05149416
   0.11112760  0.55386863  0.94587105
   0.22080837  0.44551869  0.05514104
   0.11673781  0.89320407  0.94886861
   0.22742682  0.78416889  0.05250298
   0.44586848  0.22038217  0.95097669
   0.55301691  0.11375446  0.04989338
   0.44926723  0.55873859  0.94850143
   0.55878083  0.44619825  0.04901088
   0.44171444  0.89036861  0.94955770
   0.55673222  0.77329905  0.05111400
   0.77675653  0.22648099  0.94866696
   0.89063496  0.11273109  0.05409320
   0.77250621  0.55278502  0.95009948
   0.88353037  0.44007724  0.05136065
   0.77646665  0.88228556  0.94744852
   0.88456962  0.77606976  0.05051479
unknown system                          
           1
     8.248586    4.762598    0.000000
    -8.238402    4.744957    0.000000
     0.000000    0.000000   30.000000
   V    Mo   W    S 
   3   3   3  18
Direct configuration=    12
   0.33076259 -0.00536579 -0.00013363
   0.66981224  0.67256173  0.00015602
   0.67090093  0.33361237  0.00000747
   0.31516849  0.33345058  0.00000813
   0.00661885  0.66728052  0.00003324
   0.67271318 -0.00126758 -0.00002698
  -0.00022902  0.00833980 -0.00002223
   1.01095948  0.33374211  0.00000792
   0.32442787  0.65731338  0.00003143
   0.10779028  0.22046741  0.94435082
   0.22366908  0.10840103  0.05164046
   0.11104643  0.55420188  0.94595899
   0.22055073  0.44594942  0.05574526
   0.11745261  0.89396565  0.94845496
   0.22772826  0.78427205  0.05262100
   0.44554198  0.22119805  0.95147404
   0.55311516  0.11351060  0.04987904
   0.44871470  0.55821004  0.94827380
   0.55776707  0.44556276  0.04856433
   0.44113114  0.88991116  0.94919418
   0.55664531  0.77245932  0.05158869
   0.77732254  0.22594621  0.94880264
   0.89021020  0.11242562  0.05394801
   0.77276170  0.55316628  0.95003648
   0.88461545  0.44053889  0.05127840
   0.77659062  0.88193560  0.94722181
   0.88442658  0.77642533  0.05090563
unknown system                          
           1
     8.266980    4.773454    0.000000
    -8.254250    4.751404    0.000000
     0.000000    0.000000   30.000000
   V    Mo   W    S 
   3   3   3  18
Direct configuration=    13
   0.33072892 -0.00595010 -0.00017647
   0.67039403  0.67322780  0.00019883
   0.67156241  0.33366499  0.00000935
   0.31400682  0.33346405  0.00001007
   0.00679583  0.66755165  0.00004136
   0.67259594 -0.00166377 -0.00003517
  -0.00022432  0.00868432 -0.00002571
   1.01154743  0.33379153  0.00001453
   0.32412618  0.65691678  0.00003317
   0.10754172  0.22037651  0.94415687
   0.22360511  0.10853217  0.05162685
   0.11093180  0.55413464  0.94594450
   0.22038923  0.44603015  0.05594208
   0.11750010  0.89407261  0.94846858
   0.22776489  0.78422659  0.05265736
   0.44538092  0.22139614  0.95168621
   0.55313964  0.11335537  0.04985358
   0.44851964  0.55807437  0.94828841
   0.55742613  0.44540494  0.04835615
   0.44107440  0.88968210  0.94922493
   0.55657990  0.77233630  0.05158553
   0.77754075  0.22582875  0.94882358
   0.89015824  0.11249510  0.05394906
   0.77292326  0.55333344  0.95004881
   0.88494433  0.44064411  0.05126435
   0.77666894  0.88196549  0.94717208
   0.88459221  0.77663845  0.05088100
unknown system                          
           1
     8.269899    4.775147    0.000000
    -8.255837    4.750789    0.000000
     0.000000    0.000000   30.000000
   V    Mo   W    S 
   3   3   3  18
Direct configuration=    14
   0.33089522 -0.00673233 -0.00021024
   0.67138839  0.67403395  0.00020762
   0.67207751  0.33360225  0.00000041
   0.31293467  0.33333778 -0.00000636
   0.00737781  0.66702907 -0.00000018
   0.67359800 -0.00115770 -0.00002343
  -0.00066660  0.00970077 -0.00011558
   1.01184217  0.33381663 -0.00002057
   0.32268078  0.65601857  0.00008569
   0.10722886  0.22034760  0.94403253
   0.22352192  0.10855449  0.05148019
   0.11067435  0.55386207  0.94588938
   0.22016487  0.44608359  0.05609147
   0.11729589  0.89399056  0.94870095
   0.22773262  0.78412830  0.05270539
   0.44516904  0.22150164  0.95199581
   0.55311858  0.11309928  0.04977753
   0.44834421  0.55798798  0.94847565
   0.55707993  0.44529230  0.04804089
   0.44118752  0.88930345  0.94940628
   0.55644346  0.77241164  0.05136687
   0.77774272  0.22577502  0.94879390
   0.89014740  0.11275802  0.05402839
   0.77317267  0.55354962  0.95013680
   0.88518449  0.44071154  0.05130907
   0.77678081  0.88217060  0.94714349
   0.88509716  0.77703776  0.05070793
unknown system                          
           1
     8.268279    4.774028    0.000000
    -8.254898    4.750850    0.000000
     0.000000    0.000000   30.000000
   V    Mo   W    S 
   3   3   3  18
Direct configuration=    15
   0.33114008 -0.00780095 -0.00023644
   0.67279483  0.67521764  0.00023925
   0.67303577  0.33360425  0.00000570
   0.31130698  0.33324094  0.00001179
   0.00782564  0.66654362 -0.00000027
   0.67443994 -0.00081832 -0.00000223
  -0.00116033  0.01064780 -0.00013469
   1.01229852  0.33387340 -0.00000370
   0.32128869  0.65512122  0.00013378
   0.10687683  0.22030158  0.94383746
   0.22331260  0.10862529  0.05128806
   0.11045206  0.55363549  0.94582765
   0.21988394  0.44613158  0.05626013
   0.11717640  0.89404739  0.94890763
   0.22771228  0.78400957  0.05275683
   0.44493180  0.22169046  0.95239620
   0.55314191  0.11286540  0.04967355
   0.44804569  0.55787527  0.94867681
   0.55664735  0.44512034  0.04762605
   0.44123014  0.88883722  0.94956004
   0.55626277  0.77234200  0.05116225
   0.77796754  0.22568044  0.94879455
   0.89014501  0.11299710  0.05406384
   0.77343423  0.55377355  0.95023349
   0.88550507  0.44081104  0.05130697
   0.77690135  0.88232639  0.94707368
   0.88561736  0.77751476  0.05054153
unknown system                          
           1
     8.281807    4.782134    0.000000
    -8.266411    4.755466    0.000000
     0.000000    0.000000   30.000000
   V    Mo   W    S 
   3   3   3  18
Direct configuration=    16
   0.33121511 -0.00751133 -0.00023562
   0.67260051  0.67494447  0.00024268
   0.67259327  0.33358813  0.00000845
   0.31196468  0.33326259  0.00001386
   0.00785744  0.66598212  0.00001153
   0.67509008 -0.00024736 -0.00000779
  -0.00145660  0.01064100 -0.00012535
   1.01186826  0.33384552  0.00000196
   0.32102802  0.65511376  0.00012952
   0.10705024  0.22040203  0.94394008
   0.22329435  0.10851467  0.05127697
   0.11049540  0.55359165  0.94578604
   0.21995896  0.44603389  0.05614315
   0.11701614  0.89391244  0.94896050
   0.22763978  0.78395838  0.05275907
   0.44501739  0.22155362  0.95226630
   0.55316286  0.11297105  0.04969883
   0.44814744  0.55799082  0.94870644
   0.55686572  0.44525055  0.04773461
   0.44136592  0.88893933  0.94960165
   0.55627150  0.77247736  0.05108420
   0.77782333  0.22579328  0.94875752
   0.89024124  0.11304310  0.05410962
   0.77335131  0.55366394  0.95022772
   0.88525885  0.44070890  0.05133141
   0.77687293  0.88237754  0.94709592
   0.88562030  0.77741300  0.05048061
unknown system                          
           1
     8.284074    4.783518    0.000000
    -8.267751    4.755243    0.000000
     0.000000    0.000000   30.000000
   V    Mo   W    S 
   3   3   3  18
Direct configuration=    17
   0.33149505 -0.00872903 -0.00025830
   0.67415335  0.67624925  0.00025252
   0.67399069  0.33361913  0.00000419
   0.31020426  0.33317927  0.00001394
   0.00801216  0.66604485 -0.00001667
   0.67502337 -0.00051033  0.00001142
  -0.00171417  0.01119987 -0.00017856
   1.01239735  0.33392797 -0.00000482
   0.32025575  0.65461357  0.00016931
   0.10661035  0.22027169  0.94369043
   0.22315952  0.10865800  0.05115814
   0.11026328  0.55347757  0.94574607
   0.21968113  0.44616847  0.05640165
   0.11710904  0.89410845  0.94905733
   0.22766600  0.78394304  0.05285738
   0.44479773  0.22184975  0.95271399
   0.55316634  0.11274449  0.04963900
   0.44783763  0.55780157  0.94884146
   0.55635285  0.44498110  0.04729083
   0.44125834  0.88846277  0.94961978
   0.55615276  0.77226333  0.05101214
   0.77803476  0.22560564  0.94874500
   0.89010105  0.11317176  0.05413784
   0.77358928  0.55390077  0.95027887
   0.88565747  0.44089332  0.05136402
   0.77693886  0.88242571  0.94698714
   0.88602024  0.77789245  0.05046582
unknown system                          
           1
     8.279085    4.780512    0.000000
    -8.263274    4.753123    0.000000
     0.000000    0.000000   30.000000
   V    Mo   W    S 
   3   3   3  18
Direct configuration=    18
   0.33170996 -0.00944953 -0.00026269
   0.67511915  0.67703163  0.00025755
   0.67490870  0.33365075  0.00000338
   0.30918725  0.33314349  0.00002108
   0.00800153  0.66617034 -0.00003157
   0.67479046 -0.00078993  0.00003151
  -0.00186615  0.01140813 -0.00019710
   1.01271135  0.33398613 -0.00000153
   0.31993817  0.65442597  0.00019458
   0.10635457  0.22019593  0.94358824
   0.22306792  0.10874038  0.05106808
   0.11015695  0.55345464  0.94576489
   0.21951909  0.44624934  0.05649922
   0.11719986  0.89424322  0.94911367
   0.22766262  0.78393248  0.05288794
   0.44469225  0.22202382  0.95298457
   0.55316797  0.11262965  0.04960046
   0.44766156  0.55770001  0.94893555
   0.55607925  0.44482852  0.04701907
   0.44116367  0.88819822  0.94961131
   0.55610707  0.77211312  0.05096578
   0.77812337  0.22547202  0.94874825
   0.89000634  0.11320305  0.05410235
   0.77371002  0.55402915  0.95031118
   0.88588512  0.44102776  0.05137036
   0.77695370  0.88244053  0.94694711
   0.88620269  0.77815564  0.05046664
unknown system                          
           1
     8.283805    4.783548    0.000000
    -8.267161    4.754717    0.000000
     0.000000    0.000000   30.000000
   V    Mo   W    S 
   3   3   3  18
Direct configuration=    19
   0.33194281 -0.00933666 -0.00028556
   0.67528557  0.67695876  0.00027410
   0.67438603  0.33358368  0.00000429
   0.30968214  0.33308347  0.00001868
   0.00835153  0.66478896 -0.00003156
   0.67654668  0.00064827  0.00002876
  -0.00258902  0.01188111 -0.00021260
   1.01204428  0.33394785 -0.00001296
   0.31876228  0.65402249  0.00020394
   0.10653280  0.22035173  0.94369214
   0.22291532  0.10854844  0.05099274
   0.11011292  0.55323814  0.94562008
   0.21956050  0.44610388  0.05639432
   0.11679518  0.89397019  0.94931720
   0.22751333  0.78376234  0.05292927
   0.44476718  0.22182648  0.95287754
   0.55326742  0.11277388  0.04961941
   0.44772075  0.55788255  0.94903458
   0.55633485  0.44501130  0.04709963
   0.44149935  0.88824669  0.94974921
   0.55601350  0.77238383  0.05075170
   0.77794390  0.22566868  0.94865668
   0.89018940  0.11343001  0.05427031
   0.77366733  0.55387202  0.95031220
   0.88551859  0.44083117  0.05145797
   0.77697056  0.88261420  0.94691672
   0.88647926  0.77812098  0.05032111
unknown system                          
           1
     8.293978    4.789458    0.000000
    -8.276056    4.758413    0.000000
     0.000000    0.000000   30.000000
   V    Mo   W    S 
   3   3   3  18
Direct configuration=    20
   0.33222815 -0.01022426 -0.00028411
   0.67643257  0.67784257  0.00026734
   0.67571075  0.33362678 -0.00000219
   0.30854761  0.33303794  0.00001990
   0.00818982  0.66528622 -0.00006200
   0.67570296 -0.00003645  0.00005384
  -0.00264307  0.01187893 -0.00023917
   1.01237808  0.33403821 -0.00002078
   0.31875717  0.65409748  0.00022238
   0.10618337  0.22023312  0.94357417
   0.22285332  0.10865132  0.05091171
   0.10998233  0.55330639  0.94569469
   0.21935695  0.44623083  0.05652302
   0.11703204  0.89419000  0.94932539
   0.22749372  0.78378921  0.05296647
   0.44468392  0.22207620  0.95321385
   0.55325981  0.11263140  0.04959186
   0.44754120  0.55774955  0.94911827
   0.55600190  0.44477708  0.04677310
   0.44130997  0.88796349  0.94966643
   0.55601573  0.77214539  0.05076832
   0.77802097  0.22543604  0.94866970
   0.88996902  0.11337253  0.05418149
   0.77381728  0.55403052  0.95032930
   0.88583234  0.44106362  0.05146609
   0.77694216  0.88261167  0.94686895
   0.88661439  0.77840866  0.05040187
unknown system                          
           1
     8.292374    4.788440    0.000000
    -8.275202    4.758695    0.000000
     0.000000    0.000000   30.000000
   V    Mo   W    S 
   3   3   3  18
Direct configuration=    21
   0.33320977 -0.01168517 -0.00029975
   0.67893509  0.67944529  0.00028076
   0.67755024  0.33364903 -0.00000467
   0.30709931  0.33292472  0.00004190
   0.00821769  0.66424215 -0.00008980
   0.67648958  0.00060800  0.00010406
  -0.00382266  0.01244011 -0.00028896
   1.01205534  0.33416798 -0.00000387
   0.31719495  0.65367816  0.00029472
   0.10577425  0.22021330  0.94343163
   0.22253317  0.10853889  0.05067636
   0.10966646  0.55310450  0.94553058
   0.21902707  0.44628243  0.05663353
   0.11692557  0.89426865  0.94960446
   0.22727446  0.78366019  0.05313354
   0.44465078  0.22223119  0.95366347
   0.55336005  0.11261249  0.04961794
   0.44737015  0.55781178  0.94938318
   0.55579987  0.44465054  0.04629465
   0.44142367  0.88751998  0.94963632
   0.55587973  0.77202098  0.05050742
   0.77787468  0.22528781  0.94848348
   0.88983488  0.11362581  0.05430435
   0.77396229  0.55408005  0.95031028
   0.88586858  0.44121038  0.05166828
   0.77685815  0.88275415  0.94669946
   0.88720133  0.77887104  0.05038660
unknown system                          
           1
     8.286303    4.785068    0.000000
    -8.268607    4.754414    0.000000
     0.000000    0.000000   30.000000
   V    Mo   W    S 
   3   3   3  18
Direct configuration=    22
   0.33258610 -0.01058849 -0.00030300
   0.67720018  0.67825900  0.00028683
   0.67586472  0.33358980  0.00000242
   0.30838804  0.33297258  0.00003353
   0.00842697  0.66419123 -0.00005695
   0.67699016  0.00101721  0.00006711
  -0.00334812  0.01233415 -0.00025579
   1.01191666  0.33403336 -0.00000159
   0.31764475  0.65371772  0.00026185
   0.10617205  0.22030133  0.94352597
   0.22269099  0.10851707  0.05082819
   0.10984756  0.55308851  0.94550152
   0.21929226  0.44616727  0.05653999
   0.11676580  0.89405700  0.94949994
   0.22737971  0.78368941  0.05306308
   0.44469126  0.22199939  0.95326688
   0.55332791  0.11269548  0.04962056
   0.44752905  0.55786178  0.94921759
   0.55606903  0.44484712  0.04669824
   0.44154585  0.88786786  0.94973300
   0.55590972  0.77227545  0.05058785
   0.77790821  0.22553278  0.94853620
   0.89006139  0.11361312  0.05435854
   0.77382903  0.55396064  0.95030829
   0.88563711  0.44096426  0.05159002
   0.77693287  0.88272595  0.94677155
   0.88695519  0.77852348  0.05031806
unknown system                          
           1
     8.290946    4.787848    0.000000
    -8.272707    4.756253    0.000000
     0.000000    0.000000   30.000000
   V    Mo   W    S 
   3   3   3  18
Direct configuration=    23
   0.33276452 -0.01081791 -0.00034425
   0.67760499  0.67846626  0.00030686
   0.67541400  0.33349448  0.00000145
   0.30844618  0.33289611  0.00002295
   0.00900540  0.66273042 -0.00006406
   0.67903320  0.00263771  0.00005681
  -0.00411165  0.01301211 -0.00027651
   1.01136050  0.33396615 -0.00001855
   0.31616729  0.65313895  0.00025651
   0.10627126  0.22041402  0.94358018
   0.22248352  0.10834797  0.05072120
   0.10979091  0.55277886  0.94532991
   0.21929788  0.44606742  0.05649149
   0.11631840  0.89377337  0.94977491
   0.22727961  0.78354016  0.05310201
   0.44463236  0.22178365  0.95324284
   0.55338340  0.11275317  0.04960782
   0.44745945  0.55799935  0.94935024
   0.55619490  0.44502585  0.04671110
   0.44189731  0.88784695  0.94994305
   0.55574070  0.77257376  0.05031707
   0.77784937  0.22573223  0.94844052
   0.89031784  0.11392911  0.05456616
   0.77385486  0.55387931  0.95033669
   0.88538562  0.44076353  0.05168029
   0.77700325  0.88291423  0.94673977
   0.88736940  0.77856722  0.05012342
unknown system                          
           1
     8.300571    4.793632    0.000000
    -8.280656    4.759134    0.000000
     0.000000    0.000000   30.000000
   V    Mo   W    S 
   3   3   3  18
Direct configuration=    24
   0.33325125 -0.01150175 -0.00034215
   0.67878058  0.67921701  0.00030232
   0.67648803  0.33352329 -0.00000313
   0.30773480  0.33285487  0.00002952
   0.00887529  0.66255334 -0.00008296
   0.67891432  0.00257420  0.00008067
  -0.00454084  0.01310723 -0.00029828
   1.01127548  0.33405332 -0.00001994
   0.31574530  0.65310051  0.00027837
   0.10602955  0.22036704  0.94351141
   0.22236604  0.10832698  0.05062151
   0.10965630  0.55275687  0.94530055
   0.21913458  0.44613351  0.05655952
   0.11637478  0.89389234  0.94986848
   0.22719643  0.78350826  0.05317091
   0.44462644  0.22190954  0.95348005
   0.55341800  0.11273905  0.04962563
   0.44739127  0.55800381  0.94945893
   0.55606441  0.44492599  0.04646579
   0.44186365  0.88762384  0.94987616