   27   27  100    1
  0.9710400E+02  0.1002848E-08  0.1002848E-08  0.3000000E-08  0.5000000E-15
  1.000000000000000E-004
  CAR 
 unknown system                          
    159     34    120
 
  0.0000000E+00  0.0000000E+00  0.0000000E+00  0.1562500E-01
    1      -17.825225   1.000000
    2      -16.776687   1.000000
    3      -16.608055   1.000000
    4      -16.599442   1.000000
    5      -16.536967   1.000000
    6      -16.527697   1.000000
    7      -16.415273   1.000000
    8      -16.254237   1.000000
    9      -16.202805   1.000000
   10      -16.156417   1.000000
   11      -16.104256   1.000000
   12      -15.939101   1.000000
   13      -15.908507   1.000000
   14      -15.646003   1.000000
   15      -15.598763   1.000000
   16      -15.495058   1.000000
   17      -15.273213   1.000000
   18      -15.218608   1.000000
   19       -9.306350   1.000000
   20       -9.048087   1.000000
   21       -8.938099   1.000000
   22       -8.854093   1.000000
   23       -8.724371   1.000000
   24       -8.708668   1.000000
   25       -8.695854   1.000000
   26       -8.672333   1.000000
   27       -8.542293   1.000000
   28       -8.479306   1.000000
   29       -8.467038   1.000000
   30       -8.415675   1.000000
   31       -8.344379   1.000000
   32       -8.164697   1.000000
   33       -8.068392   1.000000
   34       -8.002308   1.000000
   35       -7.801158   1.000000
   36       -7.742026   1.000000
   37       -7.685421   1.000000
   38       -7.517574   1.000000
   39       -7.505117   1.000000
   40       -7.379902   1.000000
   41       -7.337511   1.000000
   42       -7.210207   1.000000
   43       -7.073268   1.000000
   44       -6.943278   1.000000
   45       -6.869471   1.000000
   46       -6.796083   1.000000
   47       -6.739185   1.000000
   48       -6.666875   1.000000
   49       -6.606939   1.000000
   50       -6.532571   1.000000
   51       -6.438011   1.000000
   52       -6.262322   1.000000
   53       -6.225342   1.000000
   54       -6.174878   1.000000
   55       -6.154229   1.000000
   56       -6.070304   1.000000
   57       -6.000532   1.000000
   58       -5.902577   1.000000
   59       -5.882700   1.000000
   60       -5.631880   1.000000
   61       -5.613919   1.000000
   62       -5.359680   1.000000
   63       -5.308927   1.000000
   64       -5.082944   1.000000
   65       -5.027115   1.000000
   66       -4.925061   1.000000
   67       -4.901552   1.000000
   68       -4.828119   1.000000
   69       -4.762815   1.000000
   70       -4.707972   1.000000
   71       -4.687118   1.000000
   72       -4.668621   1.000000
   73       -4.458778   1.000000
   74       -4.370746   1.000000
   75       -4.304673   1.000000
   76       -3.977906   1.000000
   77       -3.784284   0.999965
   78       -3.609881   0.996947
   79       -3.490646   0.971212
   80       -3.193306   0.419335
   81       -3.182832   0.390637
   82       -2.854632   0.004683
   83       -2.767132   0.000647
   84       -2.633767   0.000016
   85       -2.575255   0.000002
   86       -2.495624   0.000000
   87       -2.244727   0.000000
   88       -2.222505   0.000000
   89       -2.211619   0.000000
   90       -2.060877   0.000000
   91       -1.707235   0.000000
   92       -1.633061   0.000000
   93       -1.384958   0.000000
   94       -1.207253   0.000000
   95       -1.078121   0.000000
   96       -0.997032   0.000000
   97       -0.952257   0.000000
   98       -0.906485   0.000000
   99       -0.819574   0.000000
  100       -0.638780   0.000000
  101       -0.600281   0.000000
  102       -0.532103   0.000000
  103       -0.385697   0.000000
  104       -0.286581   0.000000
  105       -0.225973   0.000000
  106       -0.159388   0.000000
  107       -0.107293   0.000000
  108       -0.055541   0.000000
  109        0.066979   0.000000
  110        0.230399   0.000000
  111        0.289483   0.000000
  112        0.403655   0.000000
  113        0.827982   0.000000
  114        0.943376   0.000000
  115        1.002539   0.000000
  116        1.141445   0.000000
  117        1.213718   0.000000
  118        1.652586   0.000000
  119        1.845830   0.000000
  120        2.166431   0.000000
 
  0.1250000E+00  0.2775558E-16  0.0000000E+00  0.3125000E-01
    1      -17.800592   1.000000
    2      -16.783641   1.000000
    3      -16.734234   1.000000
    4      -16.650778   1.000000
    5      -16.544522   1.000000
    6      -16.467305   1.000000
    7      -16.386209   1.000000
    8      -16.299210   1.000000
    9      -16.196029   1.000000
   10      -16.081774   1.000000
   11      -16.035084   1.000000
   12      -15.973257   1.000000
   13      -15.863570   1.000000
   14      -15.643258   1.000000
   15      -15.597664   1.000000
   16      -15.500533   1.000000
   17      -15.292326   1.000000
   18      -15.225358   1.000000
   19       -9.310101   1.000000
   20       -9.103621   1.000000
   21       -9.081839   1.000000
   22       -8.969327   1.000000
   23       -8.803315   1.000000
   24       -8.732929   1.000000
   25       -8.678625   1.000000
   26       -8.649251   1.000000
   27       -8.549070   1.000000
   28       -8.526764   1.000000
   29       -8.449020   1.000000
   30       -8.302655   1.000000
   31       -8.211542   1.000000
   32       -8.031242   1.000000
   33       -7.973695   1.000000
   34       -7.881143   1.000000
   35       -7.850934   1.000000
   36       -7.728741   1.000000
   37       -7.685761   1.000000
   38       -7.535301   1.000000
   39       -7.447564   1.000000
   40       -7.403296   1.000000
   41       -7.329381   1.000000
   42       -7.205589   1.000000
   43       -7.124871   1.000000
   44       -6.981052   1.000000
   45       -6.890159   1.000000
   46       -6.809670   1.000000
   47       -6.751983   1.000000
   48       -6.664848   1.000000
   49       -6.594340   1.000000
   50       -6.519846   1.000000
   51       -6.438245   1.000000
   52       -6.309334   1.000000
   53       -6.256118   1.000000
   54       -6.183772   1.000000
   55       -6.096396   1.000000
   56       -6.069664   1.000000
   57       -6.027180   1.000000
   58       -5.890772   1.000000
   59       -5.774157   1.000000
   60       -5.599340   1.000000
   61       -5.572008   1.000000
   62       -5.362984   1.000000
   63       -5.328563   1.000000
   64       -5.217366   1.000000
   65       -5.105283   1.000000
   66       -5.028359   1.000000
   67       -4.955540   1.000000
   68       -4.878791   1.000000
   69       -4.822198   1.000000
   70       -4.669499   1.000000
   71       -4.622923   1.000000
   72       -4.513306   1.000000
   73       -4.399800   1.000000
   74       -4.323924   1.000000
   75       -4.283964   1.000000
   76       -3.919744   1.000000
   77       -3.828717   0.999991
   78       -3.689815   0.999529
   79       -3.493886   0.972686
   80       -3.413769   0.912342
   81       -2.970367   0.037537
   82       -2.873102   0.006798
   83       -2.756303   0.000494
   84       -2.612419   0.000008
   85       -2.567350   0.000002
   86       -2.491255   0.000000
   87       -2.251046   0.000000
   88       -2.197454   0.000000
   89       -2.176192   0.000000
   90       -2.061205   0.000000
   91       -1.704802   0.000000
   92       -1.613806   0.000000
   93       -1.384236   0.000000
   94       -1.213702   0.000000
   95       -1.094909   0.000000
   96       -0.992636   0.000000
   97       -0.959492   0.000000
   98       -0.903607   0.000000
   99       -0.835542   0.000000
  100       -0.705242   0.000000
  101       -0.635424   0.000000
  102       -0.598980   0.000000
  103       -0.487334   0.000000
  104       -0.364321   0.000000
  105       -0.297199   0.000000
  106       -0.146832   0.000000
  107       -0.110595   0.000000
  108        0.028545   0.000000
  109        0.040097   0.000000
  110        0.225146   0.000000
  111        0.286986   0.000000
  112        0.457817   0.000000
  113        0.755569   0.000000
  114        0.892761   0.000000
  115        1.042280   0.000000
  116        1.194865   0.000000
  117        1.300255   0.000000
  118        1.697335   0.000000
  119        1.884574   0.000000
  120        2.201773   0.000000
 
  0.2500000E+00  0.5551115E-16  0.0000000E+00  0.3125000E-01
    1      -17.728765   1.000000
    2      -16.964224   1.000000
    3      -16.767318   1.000000
    4      -16.701548   1.000000
    5      -16.597848   1.000000
    6      -16.438729   1.000000
    7      -16.385805   1.000000
    8      -16.238503   1.000000
    9      -16.161710   1.000000
   10      -16.029656   1.000000
   11      -16.013337   1.000000
   12      -15.898445   1.000000
   13      -15.810832   1.000000
   14      -15.627539   1.000000
   15      -15.589494   1.000000
   16      -15.508310   1.000000
   17      -15.337843   1.000000
   18      -15.248597   1.000000
   19       -9.490160   1.000000
   20       -9.205542   1.000000
   21       -9.160608   1.000000
   22       -9.085133   1.000000
   23       -8.947972   1.000000
   24       -8.812906   1.000000
   25       -8.662969   1.000000
   26       -8.586972   1.000000
   27       -8.496604   1.000000
   28       -8.450189   1.000000
   29       -8.363996   1.000000
   30       -8.205206   1.000000
   31       -8.108800   1.000000
   32       -8.051116   1.000000
   33       -7.917841   1.000000
   34       -7.784392   1.000000
   35       -7.732282   1.000000
   36       -7.633698   1.000000
   37       -7.585390   1.000000
   38       -7.545954   1.000000
   39       -7.463457   1.000000
   40       -7.377013   1.000000
   41       -7.285064   1.000000
   42       -7.198253   1.000000
   43       -7.134246   1.000000
   44       -7.025129   1.000000
   45       -6.921091   1.000000
   46       -6.834262   1.000000
   47       -6.726518   1.000000
   48       -6.684921   1.000000
   49       -6.538755   1.000000
   50       -6.511593   1.000000
   51       -6.427557   1.000000
   52       -6.330005   1.000000
   53       -6.296850   1.000000
   54       -6.188260   1.000000
   55       -6.120993   1.000000
   56       -6.066243   1.000000
   57       -5.924778   1.000000
   58       -5.842885   1.000000
   59       -5.718230   1.000000
   60       -5.646525   1.000000
   61       -5.548852   1.000000
   62       -5.513686   1.000000
   63       -5.453815   1.000000
   64       -5.258478   1.000000
   65       -5.189129   1.000000
   66       -5.163603   1.000000
   67       -5.030729   1.000000
   68       -4.898866   1.000000
   69       -4.814835   1.000000
   70       -4.613538   1.000000
   71       -4.482623   1.000000
   72       -4.450627   1.000000
   73       -4.332517   1.000000
   74       -4.260165   1.000000
   75       -4.158079   1.000000
   76       -4.091476   1.000000
   77       -3.927269   1.000000
   78       -3.738156   0.999868
   79       -3.532007   0.985788
   80       -3.386444   0.877403
   81       -2.957065   0.030461
   82       -2.837234   0.003250
   83       -2.708757   0.000142
   84       -2.608361   0.000007
   85       -2.525930   0.000000
   86       -2.465540   0.000000
   87       -2.245942   0.000000
   88       -2.166057   0.000000
   89       -2.114856   0.000000
   90       -2.027206   0.000000
   91       -1.696108   0.000000
   92       -1.550994   0.000000
   93       -1.383961   0.000000
   94       -1.237537   0.000000
   95       -1.152375   0.000000
   96       -1.034448   0.000000
   97       -0.976398   0.000000
   98       -0.916146   0.000000
   99       -0.876623   0.000000
  100       -0.848199   0.000000
  101       -0.756141   0.000000
  102       -0.650781   0.000000
  103       -0.628092   0.000000
  104       -0.464304   0.000000
  105       -0.380170   0.000000
  106       -0.198939   0.000000
  107       -0.135563   0.000000
  108       -0.045867   0.000000
  109       -0.003773   0.000000
  110        0.172790   0.000000
  111        0.355779   0.000000
  112        0.540967   0.000000
  113        0.686985   0.000000
  114        0.888908   0.000000
  115        1.120432   0.000000
  116        1.246263   0.000000
  117        1.471396   0.000000
  118        1.821711   0.000000
  119        1.996186   0.000000
  120        2.306519   0.000000
 
  0.3750000E+00  0.0000000E+00  0.0000000E+00  0.3125000E-01
    1      -17.619987   1.000000
    2      -17.171486   1.000000
    3      -16.785578   1.000000
    4      -16.707853   1.000000
    5      -16.647800   1.000000
    6      -16.462089   1.000000
    7      -16.362749   1.000000
    8      -16.174587   1.000000
    9      -16.130374   1.000000
   10      -16.037362   1.000000
   11      -15.938614   1.000000
   12      -15.861198   1.000000
   13      -15.773820   1.000000
   14      -15.623384   1.000000
   15      -15.580802   1.000000
   16      -15.477689   1.000000
   17      -15.377601   1.000000
   18      -15.287869   1.000000
   19       -9.702197   1.000000
   20       -9.294010   1.000000
   21       -9.216282   1.000000
   22       -9.084298   1.000000
   23       -9.000044   1.000000
   24       -8.882688   1.000000
   25       -8.616256   1.000000
   26       -8.524104   1.000000
   27       -8.436767   1.000000
   28       -8.330035   1.000000
   29       -8.316417   1.000000
   30       -8.229350   1.000000
   31       -8.100082   1.000000
   32       -8.009140   1.000000
   33       -7.941877   1.000000
   34       -7.835673   1.000000
   35       -7.750103   1.000000
   36       -7.653012   1.000000
   37       -7.589691   1.000000
   38       -7.519993   1.000000
   39       -7.394433   1.000000
   40       -7.300252   1.000000
   41       -7.193727   1.000000
   42       -7.112317   1.000000
   43       -7.065395   1.000000
   44       -6.990301   1.000000
   45       -6.913231   1.000000
   46       -6.771003   1.000000
   47       -6.710066   1.000000
   48       -6.607110   1.000000
   49       -6.542608   1.000000
   50       -6.503684   1.000000
   51       -6.345371   1.000000
   52       -6.321349   1.000000
   53       -6.265389   1.000000
   54       -6.173320   1.000000
   55       -6.086568   1.000000
   56       -6.047284   1.000000
   57       -6.012434   1.000000
   58       -5.992478   1.000000
   59       -5.839979   1.000000
   60       -5.708926   1.000000
   61       -5.651376   1.000000
   62       -5.560400   1.000000
   63       -5.489632   1.000000
   64       -5.315912   1.000000
   65       -5.214763   1.000000
   66       -5.079439   1.000000
   67       -5.037297   1.000000
   68       -4.867078   1.000000
   69       -4.801584   1.000000
   70       -4.704153   1.000000
   71       -4.528894   1.000000
   72       -4.416509   1.000000
   73       -4.337293   1.000000
   74       -4.269609   1.000000
   75       -4.155883   1.000000
   76       -4.054616   1.000000
   77       -3.934140   1.000000
   78       -3.748238   0.999901
   79       -3.572830   0.993432
   80       -3.217052   0.485766
   81       -3.007221   0.064329
   82       -2.847240   0.004017
   83       -2.668976   0.000046
   84       -2.625150   0.000012
   85       -2.493577   0.000000
   86       -2.412831   0.000000
   87       -2.215348   0.000000
   88       -2.145980   0.000000
   89       -2.084937   0.000000
   90       -1.955631   0.000000
   91       -1.679043   0.000000
   92       -1.469047   0.000000
   93       -1.395414   0.000000
   94       -1.281260   0.000000
   95       -1.223988   0.000000
   96       -1.135558   0.000000
   97       -1.047333   0.000000
   98       -0.959621   0.000000
   99       -0.911299   0.000000
  100       -0.891580   0.000000
  101       -0.844296   0.000000
  102       -0.760153   0.000000
  103       -0.620112   0.000000
  104       -0.524172   0.000000
  105       -0.430535   0.000000
  106       -0.309580   0.000000
  107       -0.256342   0.000000
  108       -0.097453   0.000000
  109       -0.040316   0.000000
  110        0.106947   0.000000
  111        0.372441   0.000000
  112        0.595851   0.000000
  113        0.694867   0.000000
  114        0.946650   0.000000
  115        1.180849   0.000000
  116        1.299069   0.000000
  117        1.602971   0.000000
  118        2.006870   0.000000
  119        2.171194   0.000000
  120        2.475965   0.000000
 
  0.5000000E+00  0.1110223E-15  0.0000000E+00  0.1562500E-01
    1      -17.537964   1.000000
    2      -17.288389   1.000000
    3      -16.796781   1.000000
    4      -16.693132   1.000000
    5      -16.676380   1.000000
    6      -16.474074   1.000000
    7      -16.351745   1.000000
    8      -16.160575   1.000000
    9      -16.118406   1.000000
   10      -16.019698   1.000000
   11      -15.913267   1.000000
   12      -15.862348   1.000000
   13      -15.737403   1.000000
   14      -15.661276   1.000000
   15      -15.564866   1.000000
   16      -15.462747   1.000000
   17      -15.364495   1.000000
   18      -15.325638   1.000000
   19       -9.780822   1.000000
   20       -9.332865   1.000000
   21       -9.238434   1.000000
   22       -9.111723   1.000000
   23       -8.960695   1.000000
   24       -8.898750   1.000000
   25       -8.588802   1.000000
   26       -8.526320   1.000000
   27       -8.446965   1.000000
   28       -8.287686   1.000000
   29       -8.255356   1.000000
   30       -8.181066   1.000000
   31       -8.122902   1.000000
   32       -8.019887   1.000000
   33       -7.972848   1.000000
   34       -7.861893   1.000000
   35       -7.746541   1.000000
   36       -7.728490   1.000000
   37       -7.604781   1.000000
   38       -7.489956   1.000000
   39       -7.410834   1.000000
   40       -7.322953   1.000000
   41       -7.200270   1.000000
   42       -7.029491   1.000000
   43       -6.993885   1.000000
   44       -6.918118   1.000000
   45       -6.751383   1.000000
   46       -6.708842   1.000000
   47       -6.642224   1.000000
   48       -6.610914   1.000000
   49       -6.532411   1.000000
   50       -6.474128   1.000000
   51       -6.434907   1.000000
   52       -6.355302   1.000000
   53       -6.325283   1.000000
   54       -6.266913   1.000000
   55       -6.174103   1.000000
   56       -6.052410   1.000000
   57       -6.024511   1.000000
   58       -5.827720   1.000000
   59       -5.810035   1.000000
   60       -5.719972   1.000000
   61       -5.687459   1.000000
   62       -5.557602   1.000000
   63       -5.542950   1.000000
   64       -5.402656   1.000000
   65       -5.224296   1.000000
   66       -5.068933   1.000000
   67       -5.034090   1.000000
   68       -4.944357   1.000000
   69       -4.839899   1.000000
   70       -4.648248   1.000000
   71       -4.540585   1.000000
   72       -4.450640   1.000000
   73       -4.326217   1.000000
   74       -4.273231   1.000000
   75       -4.202846   1.000000
   76       -3.986880   1.000000
   77       -3.853106   0.999996
   78       -3.775704   0.999955
   79       -3.610036   0.996957
   80       -3.100809   0.195545
   81       -3.013265   0.069881
   82       -2.918131   0.015803
   83       -2.663698   0.000039
   84       -2.618576   0.000010
   85       -2.482900   0.000000
   86       -2.386712   0.000000
   87       -2.195016   0.000000
   88       -2.135583   0.000000
   89       -2.074959   0.000000
   90       -1.929402   0.000000
   91       -1.666321   0.000000
   92       -1.431953   0.000000
   93       -1.404985   0.000000
   94       -1.298745   0.000000
   95       -1.252132   0.000000
   96       -1.189457   0.000000
   97       -1.091365   0.000000
   98       -0.991970   0.000000
   99       -0.943943   0.000000
  100       -0.889936   0.000000
  101       -0.849618   0.000000
  102       -0.795499   0.000000
  103       -0.594604   0.000000
  104       -0.557767   0.000000
  105       -0.447732   0.000000
  106       -0.371801   0.000000
  107       -0.312482   0.000000
  108       -0.133723   0.000000
  109       -0.039475   0.000000
  110        0.081889   0.000000
  111        0.372061   0.000000
  112        0.615406   0.000000
  113        0.703656   0.000000
  114        0.975996   0.000000
  115        1.202005   0.000000
  116        1.322546   0.000000
  117        1.651844   0.000000
  118        2.226223   0.000000
  119        2.257000   0.000000
  120        2.396673   0.000000
 
  0.0000000E+00  0.1250000E+00  0.0000000E+00  0.3125000E-01
    1      -17.800323   1.000000
    2      -16.819467   1.000000
    3      -16.718563   1.000000
    4      -16.617653   1.000000
    5      -16.562473   1.000000
    6      -16.457616   1.000000
    7      -16.382906   1.000000
    8      -16.272801   1.000000
    9      -16.199832   1.000000
   10      -16.137648   1.000000
   11      -16.006296   1.000000
   12      -15.931788   1.000000
   13      -15.904059   1.000000
   14      -15.651161   1.000000
   15      -15.603263   1.000000
   16      -15.512070   1.000000
   17      -15.274948   1.000000
   18      -15.222620   1.000000
   19       -9.302576   1.000000
   20       -9.226787   1.000000
   21       -9.056377   1.000000
   22       -8.894066   1.000000
   23       -8.810733   1.000000
   24       -8.747202   1.000000
   25       -8.708899   1.000000
   26       -8.572310   1.000000
   27       -8.541220   1.000000
   28       -8.465822   1.000000
   29       -8.366988   1.000000
   30       -8.331045   1.000000
   31       -8.222559   1.000000
   32       -8.106470   1.000000
   33       -8.045176   1.000000
   34       -7.966940   1.000000
   35       -7.731532   1.000000
   36       -7.692635   1.000000
   37       -7.656334   1.000000
   38       -7.555695   1.000000
   39       -7.520553   1.000000
   40       -7.454897   1.000000
   41       -7.292655   1.000000
   42       -7.183289   1.000000
   43       -7.133486   1.000000
   44       -7.012063   1.000000
   45       -6.861988   1.000000
   46       -6.832539   1.000000
   47       -6.730031   1.000000
   48       -6.627385   1.000000
   49       -6.552383   1.000000
   50       -6.466651   1.000000
   51       -6.431503   1.000000
   52       -6.322645   1.000000
   53       -6.240549   1.000000
   54       -6.195128   1.000000
   55       -6.146444   1.000000
   56       -6.066689   1.000000
   57       -6.020941   1.000000
   58       -5.970419   1.000000
   59       -5.748184   1.000000
   60       -5.635280   1.000000
   61       -5.559745   1.000000
   62       -5.445735   1.000000
   63       -5.429953   1.000000
   64       -5.197127   1.000000
   65       -5.053967   1.000000
   66       -4.952271   1.000000
   67       -4.879745   1.000000
   68       -4.830654   1.000000
   69       -4.766388   1.000000
   70       -4.693214   1.000000
   71       -4.632105   1.000000
   72       -4.583018   1.000000
   73       -4.449724   1.000000
   74       -4.324642   1.000000
   75       -4.257992   1.000000
   76       -4.044114   1.000000
   77       -3.795477   0.999975
   78       -3.686797   0.999492
   79       -3.543574   0.988492
   80       -3.155962   0.320015
   81       -3.140561   0.282120
   82       -2.829979   0.002780
   83       -2.731395   0.000260
   84       -2.625489   0.000012
   85       -2.559789   0.000001
   86       -2.488544   0.000000
   87       -2.211134   0.000000
   88       -2.195622   0.000000
   89       -2.185491   0.000000
   90       -2.060559   0.000000
   91       -1.719836   0.000000
   92       -1.618522   0.000000
   93       -1.384024   0.000000
   94       -1.227781   0.000000
   95       -1.083146   0.000000
   96       -1.024113   0.000000
   97       -0.950420   0.000000
   98       -0.895655   0.000000
   99       -0.806403   0.000000
  100       -0.737680   0.000000
  101       -0.672075   0.000000
  102       -0.602470   0.000000
  103       -0.508597   0.000000
  104       -0.377036   0.000000
  105       -0.252164   0.000000
  106       -0.161480   0.000000
  107       -0.078233   0.000000
  108       -0.014265   0.000000
  109        0.093268   0.000000
  110        0.209929   0.000000
  111        0.328591   0.000000
  112        0.494191   0.000000
  113        0.873600   0.000000
  114        0.918703   0.000000
  115        1.001843   0.000000
  116        1.126674   0.000000
  117        1.181115   0.000000
  118        1.695217   0.000000
  119        1.886184   0.000000
  120        2.201347   0.000000
 
  0.1250000E+00  0.1250000E+00  0.0000000E+00  0.3125000E-01
    1      -17.752680   1.000000
    2      -16.888373   1.000000
    3      -16.815749   1.000000
    4      -16.718019   1.000000
    5      -16.474488   1.000000
    6      -16.440282   1.000000
    7      -16.377387   1.000000
    8      -16.304493   1.000000
    9      -16.184612   1.000000
   10      -16.043889   1.000000
   11      -15.973743   1.000000
   12      -15.922850   1.000000
   13      -15.845596   1.000000
   14      -15.657367   1.000000
   15      -15.606309   1.000000
   16      -15.522813   1.000000
   17      -15.299780   1.000000
   18      -15.228656   1.000000
   19       -9.383300   1.000000
   20       -9.340792   1.000000
   21       -9.165707   1.000000
   22       -9.023291   1.000000
   23       -8.869523   1.000000
   24       -8.711059   1.000000
   25       -8.638890   1.000000
   26       -8.574346   1.000000
   27       -8.538157   1.000000
   28       -8.462533   1.000000
   29       -8.354255   1.000000
   30       -8.236823   1.000000
   31       -8.118848   1.000000
   32       -8.065878   1.000000
   33       -7.997079   1.000000
   34       -7.802748   1.000000
   35       -7.749889   1.000000
   36       -7.699284   1.000000
   37       -7.617212   1.000000
   38       -7.552413   1.000000
   39       -7.452471   1.000000
   40       -7.374349   1.000000
   41       -7.272915   1.000000
   42       -7.230835   1.000000
   43       -7.132895   1.000000
   44       -7.024161   1.000000
   45       -6.901985   1.000000
   46       -6.839806   1.000000
   47       -6.762146   1.000000
   48       -6.654156   1.000000
   49       -6.513026   1.000000
   50       -6.463798   1.000000
   51       -6.395361   1.000000
   52       -6.332683   1.000000
   53       -6.274119   1.000000
   54       -6.218272   1.000000
   55       -6.156137   1.000000
   56       -6.056052   1.000000
   57       -5.976072   1.000000
   58       -5.945279   1.000000
   59       -5.736452   1.000000
   60       -5.568681   1.000000
   61       -5.552977   1.000000
   62       -5.534668   1.000000
   63       -5.428529   1.000000
   64       -5.316789   1.000000
   65       -5.211019   1.000000
   66       -5.069742   1.000000
   67       -4.932461   1.000000
   68       -4.833682   1.000000
   69       -4.807151   1.000000
   70       -4.634366   1.000000
   71       -4.530967   1.000000
   72       -4.449088   1.000000
   73       -4.374495   1.000000
   74       -4.275950   1.000000
   75       -4.207133   1.000000
   76       -4.115794   1.000000
   77       -3.932968   1.000000
   78       -3.699945   0.999636
   79       -3.522023   0.983030
   80       -3.323232   0.762733
   81       -2.947374   0.026032
   82       -2.833377   0.002992
   83       -2.698290   0.000106
   84       -2.615063   0.000009
   85       -2.527621   0.000000
   86       -2.475425   0.000000
   87       -2.186195   0.000000
   88       -2.144556   0.000000
   89       -2.136570   0.000000
   90       -2.064322   0.000000
   91       -1.712425   0.000000
   92       -1.595773   0.000000
   93       -1.385238   0.000000
   94       -1.251726   0.000000
   95       -1.127079   0.000000
   96       -1.039507   0.000000
   97       -0.971574   0.000000
   98       -0.894480   0.000000
   99       -0.868357   0.000000
  100       -0.821092   0.000000
  101       -0.749195   0.000000
  102       -0.681688   0.000000
  103       -0.632919   0.000000
  104       -0.453035   0.000000
  105       -0.306954   0.000000
  106       -0.169818   0.000000
  107       -0.100648   0.000000
  108        0.047241   0.000000
  109        0.075937   0.000000
  110        0.154232   0.000000
  111        0.328722   0.000000
  112        0.537181   0.000000
  113        0.815092   0.000000
  114        0.876139   0.000000
  115        1.067768   0.000000
  116        1.180212   0.000000
  117        1.283936   0.000000
  118        1.777955   0.000000
  119        1.962992   0.000000
  120        2.270905   0.000000
 
  0.2500000E+00  0.1250000E+00  0.0000000E+00  0.3125000E-01
    1      -17.661406   1.000000
    2      -17.051110   1.000000
    3      -16.928642   1.000000
    4      -16.709987   1.000000
    5      -16.481448   1.000000
    6      -16.432919   1.000000
    7      -16.379409   1.000000
    8      -16.241711   1.000000
    9      -16.149816   1.000000
   10      -16.026451   1.000000
   11      -15.956275   1.000000
   12      -15.872033   1.000000
   13      -15.772331   1.000000
   14      -15.660185   1.000000
   15      -15.607209   1.000000
   16      -15.503422   1.000000
   17      -15.349558   1.000000
   18      -15.245587   1.000000
   19       -9.593359   1.000000
   20       -9.446339   1.000000
   21       -9.254190   1.000000
   22       -9.057579   1.000000
   23       -8.893514   1.000000
   24       -8.695807   1.000000
   25       -8.602279   1.000000
   26       -8.517152   1.000000
   27       -8.471620   1.000000
   28       -8.419621   1.000000
   29       -8.311324   1.000000
   30       -8.220430   1.000000
   31       -8.108600   1.000000
   32       -8.042417   1.000000
   33       -7.968643   1.000000
   34       -7.897017   1.000000
   35       -7.772867   1.000000
   36       -7.648254   1.000000
   37       -7.564585   1.000000
   38       -7.503137   1.000000
   39       -7.326846   1.000000
   40       -7.294156   1.000000
   41       -7.244827   1.000000
   42       -7.194389   1.000000
   43       -7.112152   1.000000
   44       -7.003941   1.000000
   45       -6.895756   1.000000
   46       -6.825355   1.000000
   47       -6.724984   1.000000