       N       E                     dE             d eps       ncg     rms          rms(c)
DAV:   1     0.112648681879E+04    0.11265E+04   -0.35979E+04  8160   0.577E+02
DAV:   2     0.200015244290E+01   -0.11245E+04   -0.10790E+04 11000   0.173E+02
DAV:   3    -0.199327309835E+03   -0.20133E+03   -0.19285E+03 10880   0.827E+01
DAV:   4    -0.208929679372E+03   -0.96024E+01   -0.93002E+01 12040   0.266E+01
DAV:   5    -0.209274336520E+03   -0.34466E+00   -0.34366E+00 11400   0.377E+00    0.275E+01
DAV:   6    -0.237127125951E+03   -0.27853E+02   -0.10773E+02 12640   0.605E+01    0.594E+01
DAV:   7    -0.196663140864E+03    0.40464E+02   -0.17759E+02 13080   0.152E+02    0.204E+01
DAV:   8    -0.190082667859E+03    0.65805E+01   -0.20312E+01 11920   0.134E+01    0.137E+01
DAV:   9    -0.188317837162E+03    0.17648E+01   -0.35118E+00 12200   0.623E+00    0.940E+00
DAV:  10    -0.187127161786E+03    0.11907E+01   -0.17839E+00 13320   0.759E+00    0.339E+00
DAV:  11    -0.187012246255E+03    0.11492E+00   -0.65433E-01 12480   0.249E+00    0.236E+00
DAV:  12    -0.187030397669E+03   -0.18151E-01   -0.46029E-01 12920   0.324E+00    0.352E+00
DAV:  13    -0.186933804104E+03    0.96594E-01   -0.29493E-01 13240   0.316E+00    0.193E+00
DAV:  14    -0.186903759661E+03    0.30044E-01   -0.10808E-01 12760   0.174E+00    0.102E+00
DAV:  15    -0.186898225131E+03    0.55345E-02   -0.44734E-02 12480   0.113E+00    0.100E+00
DAV:  16    -0.186891825519E+03    0.63996E-02   -0.16664E-02 12840   0.683E-01    0.490E-01
DAV:  17    -0.186889117066E+03    0.27085E-02   -0.74527E-03 12640   0.393E-01    0.178E-01
DAV:  18    -0.186888586263E+03    0.53080E-03   -0.18845E-03 11480   0.139E-01    0.165E-01
DAV:  19    -0.186888375601E+03    0.21066E-03   -0.75995E-04 10720   0.133E-01    0.461E-02
DAV:  20    -0.186889261106E+03   -0.88550E-03   -0.82768E-04  9120   0.567E-02    0.427E-02
DAV:  21    -0.186890203422E+03   -0.94232E-03   -0.23635E-04  8240   0.537E-02    0.374E-02
DAV:  22    -0.186890952513E+03   -0.74909E-03   -0.94727E-05  6360   0.287E-02    0.329E-02
DAV:  23    -0.186892091928E+03   -0.11394E-02   -0.14125E-04  7480   0.405E-02    0.165E-02
DAV:  24    -0.186892673482E+03   -0.58155E-03   -0.26177E-05  6760   0.175E-02    0.462E-03
DAV:  25    -0.186893040501E+03   -0.36702E-03   -0.16380E-05  5520   0.894E-03    0.512E-03
DAV:  26    -0.186893287250E+03   -0.24675E-03   -0.93874E-06  6760   0.772E-03    0.154E-03
DAV:  27    -0.186893379875E+03   -0.92625E-04   -0.33047E-06  7240   0.401E-03
   1 F= -.18689338E+03 E0= -.18672270E+03  d E =-.186893E+03
       N       E                     dE             d eps       ncg     rms          rms(c)
DAV:   1    -0.187532317353E+03   -0.63903E+00   -0.27046E+02  8160   0.349E+01    0.464E+00
DAV:   2    -0.189489653394E+03   -0.19573E+01   -0.20211E+01 12280   0.155E+01    0.932E+00
DAV:   3    -0.189372984293E+03    0.11667E+00   -0.42181E+00 12440   0.122E+01    0.652E+00
DAV:   4    -0.188787516892E+03    0.58547E+00   -0.58071E-01 12520   0.449E+00    0.176E+00
DAV:   5    -0.188928154945E+03   -0.14064E+00   -0.49761E-01 12360   0.359E+00    0.583E+00
DAV:   6    -0.188751476838E+03    0.17668E+00   -0.84827E-01 12760   0.444E+00    0.193E+00
DAV:   7    -0.188719897791E+03    0.31579E-01   -0.12235E-01 11800   0.144E+00    0.109E+00
DAV:   8    -0.188711577451E+03    0.83203E-02   -0.58496E-02 12960   0.131E+00    0.126E+00
DAV:   9    -0.188700045953E+03    0.11531E-01   -0.20736E-02 11920   0.818E-01    0.299E-01
DAV:  10    -0.188699536268E+03    0.50969E-03   -0.32506E-03 12880   0.213E-01    0.182E-01
DAV:  11    -0.188699129602E+03    0.40667E-03   -0.20922E-03 11680   0.150E-01    0.118E-01
DAV:  12    -0.188699215303E+03   -0.85701E-04   -0.93545E-04 12000   0.887E-02
   2 F= -.18869922E+03 E0= -.18856094E+03  d E =-.180584E+01
       N       E                     dE             d eps       ncg     rms          rms(c)
DAV:   1    -0.190620415206E+03   -0.19213E+01   -0.31002E+01  9120   0.142E+01    0.443E+00
DAV:   2    -0.190570297581E+03    0.50118E-01   -0.27344E+00 11120   0.942E+00    0.722E+00
DAV:   3    -0.190108058520E+03    0.46224E+00   -0.13109E+00 12360   0.859E+00    0.425E+00
DAV:   4    -0.189895121363E+03    0.21294E+00   -0.70214E-01 12560   0.420E+00    0.250E+00
DAV:   5    -0.189848654567E+03    0.46467E-01   -0.33716E-01 12320   0.270E+00    0.233E+00
DAV:   6    -0.189798058451E+03    0.50596E-01   -0.11713E-01 12720   0.214E+00    0.766E-01
DAV:   7    -0.189791476715E+03    0.65817E-02   -0.13774E-02 11600   0.565E-01    0.208E-01
DAV:   8    -0.189792073022E+03   -0.59631E-03   -0.37015E-03 12360   0.298E-01    0.310E-01
DAV:   9    -0.189791527757E+03    0.54526E-03   -0.20436E-03 10720   0.293E-01    0.154E-01
DAV:  10    -0.189791814053E+03   -0.28630E-03   -0.92645E-04  9760   0.138E-01    0.127E-01
DAV:  11    -0.189791540902E+03    0.27315E-03   -0.45681E-04  8840   0.763E-02    0.214E-02
DAV:  12    -0.189791564182E+03   -0.23280E-04   -0.73915E-05  6560   0.287E-02
   3 F= -.18979156E+03 E0= -.18967499E+03  d E =-.109235E+01
       N       E                     dE             d eps       ncg     rms          rms(c)
DAV:   1    -0.191367584957E+03   -0.15760E+01   -0.74698E+01  8160   0.197E+01    0.457E+00
DAV:   2    -0.191183989566E+03    0.18360E+00   -0.53368E+00 13360   0.760E+00    0.450E+00
DAV:   3    -0.191338756974E+03   -0.15477E+00   -0.15089E+00 12200   0.905E+00    0.675E+00
DAV:   4    -0.190939473294E+03    0.39928E+00   -0.13570E+00 12440   0.765E+00    0.296E+00
DAV:   5    -0.190900170344E+03    0.39303E-01   -0.42510E-01 12320   0.397E+00    0.290E+00
DAV:   6    -0.190808650225E+03    0.91520E-01   -0.19856E-01 12320   0.313E+00    0.116E+00
DAV:   7    -0.190797356546E+03    0.11294E-01   -0.42040E-02 12560   0.108E+00    0.453E-01
DAV:   8    -0.190794197620E+03    0.31589E-02   -0.68905E-03 10320   0.376E-01    0.232E-01
DAV:   9    -0.190794298151E+03   -0.10053E-03   -0.22850E-03 11600   0.319E-01    0.235E-01
DAV:  10    -0.190794199291E+03    0.98860E-04   -0.15905E-03 11280   0.216E-01    0.917E-02
DAV:  11    -0.190794094307E+03    0.10498E-03   -0.50781E-04  9440   0.855E-02    0.464E-02
DAV:  12    -0.190794087814E+03    0.64924E-05   -0.10996E-04  7080   0.398E-02
   4 F= -.19079409E+03 E0= -.19069610E+03  d E =-.100252E+01
       N       E                     dE             d eps       ncg     rms          rms(c)
DAV:   1    -0.192257866265E+03   -0.14638E+01   -0.17007E+02  8160   0.290E+01    0.576E+00
DAV:   2    -0.191993136626E+03    0.26473E+00   -0.99410E+00 11000   0.795E+00    0.361E+00
DAV:   3    -0.192066705354E+03   -0.73569E-01   -0.18799E+00 12240   0.796E+00    0.610E+00
DAV:   4    -0.191865741000E+03    0.20096E+00   -0.14977E+00 12040   0.949E+00    0.467E+00
DAV:   5    -0.191602360055E+03    0.26338E+00   -0.61574E-01 12440   0.467E+00    0.150E+00
DAV:   6    -0.191591681368E+03    0.10679E-01   -0.15298E-01 12680   0.266E+00    0.156E+00
DAV:   7    -0.191573432499E+03    0.18249E-01   -0.85008E-02 12400   0.210E+00    0.744E-01
DAV:   8    -0.191566000078E+03    0.74324E-02   -0.13645E-02 11720   0.738E-01    0.368E-01
DAV:   9    -0.191565158149E+03    0.84193E-03   -0.44449E-03 12040   0.461E-01    0.219E-01
DAV:  10    -0.191565134049E+03    0.24100E-04   -0.23903E-03 11520   0.209E-01    0.840E-02
DAV:  11    -0.191565073736E+03    0.60313E-04   -0.54848E-04 10840   0.872E-02
   5 F= -.19156507E+03 E0= -.19147886E+03  d E =-.770986E+00
       N       E                     dE             d eps       ncg     rms          rms(c)
DAV:   1    -0.191688812843E+03   -0.12368E+00   -0.99543E+00  8160   0.671E+00    0.774E-01
DAV:   2    -0.191753062568E+03   -0.64250E-01   -0.38221E-01 12680   0.292E+00    0.202E+00
DAV:   3    -0.191709565958E+03    0.43497E-01   -0.10208E-01 12560   0.241E+00    0.553E-01
DAV:   4    -0.191708762508E+03    0.80345E-03   -0.13666E-02 11640   0.786E-01    0.596E-01
DAV:   5    -0.191705551315E+03    0.32112E-02   -0.91688E-03 11720   0.731E-01    0.305E-01
DAV:   6    -0.191705268778E+03    0.28254E-03   -0.42275E-03 11400   0.349E-01    0.199E-01
DAV:   7    -0.191704713051E+03    0.55573E-03   -0.21010E-03 11600   0.249E-01    0.163E-01
DAV:   8    -0.191704495548E+03    0.21750E-03   -0.72253E-04  9200   0.190E-01    0.603E-02
DAV:   9    -0.191704489608E+03    0.59400E-05   -0.12470E-04  6160   0.640E-02
   6 F= -.19170449E+03 E0= -.19162009E+03  d E =-.139416E+00
       N       E                     dE             d eps       ncg     rms          rms(c)
DAV:   1    -0.191831181536E+03   -0.12669E+00   -0.10721E+01  8160   0.699E+00    0.750E-01
DAV:   2    -0.191877094155E+03   -0.45913E-01   -0.36351E-01 12760   0.257E+00    0.157E+00
DAV:   3    -0.191852120992E+03    0.24973E-01   -0.71633E-02 12600   0.208E+00    0.585E-01
DAV:   4    -0.191848501434E+03    0.36196E-02   -0.10338E-02 11680   0.671E-01    0.431E-01
DAV:   5    -0.191848005966E+03    0.49547E-03   -0.84480E-03 12160   0.709E-01    0.417E-01
DAV:   6    -0.191847023539E+03    0.98243E-03   -0.60143E-03 11960   0.478E-01    0.210E-01
DAV:   7    -0.191846090284E+03    0.93326E-03   -0.17910E-03 10320   0.171E-01    0.380E-02
DAV:   8    -0.191846113222E+03   -0.22938E-04   -0.18038E-04  7440   0.498E-02
   7 F= -.19184611E+03 E0= -.19176413E+03  d E =-.141624E+00
       N       E                     dE             d eps       ncg     rms          rms(c)
DAV:   1    -0.192004780369E+03   -0.15869E+00   -0.24909E+01  8160   0.107E+01    0.110E+00
DAV:   2    -0.192076448622E+03   -0.71668E-01   -0.84809E-01 12320   0.310E+00    0.141E+00
DAV:   3    -0.192070583101E+03    0.58655E-02   -0.10380E-01 12200   0.264E+00    0.124E+00
DAV:   4    -0.192050296367E+03    0.20287E-01   -0.26378E-02 11880   0.130E+00    0.502E-01
DAV:   5    -0.192053818359E+03   -0.35220E-02   -0.18580E-02 12240   0.109E+00    0.805E-01
DAV:   6    -0.192048524108E+03    0.52943E-02   -0.15665E-02 12520   0.897E-01    0.288E-01
DAV:   7    -0.192046832244E+03    0.16919E-02   -0.33034E-03 10400   0.239E-01    0.633E-02
DAV:   8    -0.192046860559E+03   -0.28315E-04   -0.49563E-04 10400   0.982E-02
   8 F= -.19204686E+03 E0= -.19196658E+03  d E =-.200747E+00
       N       E                     dE             d eps       ncg     rms          rms(c)
DAV:   1    -0.192156403886E+03   -0.10957E+00   -0.57379E+01  8160   0.163E+01    0.169E+00
DAV:   2    -0.192321905438E+03   -0.16550E+00   -0.21169E+00 11360   0.431E+00    0.180E+00
DAV:   3    -0.192352179798E+03   -0.30274E-01   -0.24417E-01 12240   0.418E+00    0.242E+00
DAV:   4    -0.192282232632E+03    0.69947E-01   -0.83802E-02 12240   0.258E+00    0.765E-01
DAV:   5    -0.192283899576E+03   -0.16669E-02   -0.31315E-02 12280   0.154E+00    0.939E-01
DAV:   6    -0.192276451496E+03    0.74481E-02   -0.29103E-02 12600   0.123E+00    0.487E-01
DAV:   7    -0.192274359739E+03    0.20918E-02   -0.10616E-02 11840   0.800E-01    0.381E-01
DAV:   8    -0.192272680480E+03    0.16793E-02   -0.26942E-03 11280   0.413E-01    0.869E-02
DAV:   9    -0.192272557457E+03    0.12302E-03   -0.69720E-04 10240   0.936E-02    0.489E-02
DAV:  10    -0.192272517113E+03    0.40345E-04   -0.20398E-04  7920   0.467E-02
   9 F= -.19227252E+03 E0= -.19219797E+03  d E =-.225657E+00
       N       E                     dE             d eps       ncg     rms          rms(c)
DAV:   1    -0.192297490559E+03   -0.24933E-01   -0.18279E+00  8160   0.291E+00    0.408E-01
DAV:   2    -0.192305397178E+03   -0.79066E-02   -0.77596E-02 12440   0.120E+00    0.771E-01
DAV:   3    -0.192300282001E+03    0.51152E-02   -0.16698E-02 12280   0.110E+00    0.389E-01
DAV:   4    -0.192298464242E+03    0.18178E-02   -0.36783E-03 12560   0.469E-01    0.202E-01
DAV:   5    -0.192298623292E+03   -0.15905E-03   -0.26279E-03 11840   0.428E-01    0.259E-01
DAV:   6    -0.192297841520E+03    0.78177E-03   -0.18958E-03 12120   0.332E-01    0.759E-02
DAV:   7    -0.192297759589E+03    0.81932E-04   -0.33760E-04  9000   0.856E-02
  10 F= -.19229776E+03 E0= -.19222416E+03  d E =-.252425E-01
       N       E                     dE             d eps       ncg     rms          rms(c)
DAV:   1    -0.192338643458E+03   -0.40802E-01   -0.15471E+01  8160   0.835E+00    0.895E-01
DAV:   2    -0.192389999081E+03   -0.51356E-01   -0.56862E-01 11840   0.248E+00    0.126E+00
DAV:   3    -0.192384949131E+03    0.50499E-02   -0.71099E-02 12120   0.230E+00    0.112E+00
DAV:   4    -0.192369650214E+03    0.15299E-01   -0.18586E-02 12360   0.116E+00    0.271E-01
DAV:   5    -0.192370190429E+03   -0.54021E-03   -0.70215E-03 11680   0.497E-01    0.354E-01
DAV:   6    -0.192369793246E+03    0.39718E-03   -0.56291E-03 11040   0.647E-01    0.342E-01
DAV:   7    -0.192368376582E+03    0.14167E-02   -0.23686E-03 11800   0.383E-01    0.858E-02
DAV:   8    -0.192368371721E+03    0.48618E-05   -0.43458E-04  8680   0.158E-01
  11 F= -.19236837E+03 E0= -.19229852E+03  d E =-.706121E-01
       N       E                     dE             d eps       ncg     rms          rms(c)
DAV:   1    -0.192380595280E+03   -0.12219E-01   -0.83999E-01  8160   0.197E+00    0.235E-01
DAV:   2    -0.192384075852E+03   -0.34806E-02   -0.32865E-02 12480   0.729E-01    0.432E-01
DAV:   3    -0.192382480391E+03    0.15955E-02   -0.55216E-03 12560   0.641E-01    0.227E-01
DAV:   4    -0.192381848639E+03    0.63175E-03   -0.10447E-03 10440   0.251E-01    0.997E-02
DAV:   5    -0.192381918897E+03   -0.70258E-04   -0.70035E-04 10640   0.219E-01
  12 F= -.19238192E+03 E0= -.19231263E+03  d E =-.135472E-01
       N       E                     dE             d eps       ncg     rms          rms(c)
DAV:   1    -0.192391392850E+03   -0.95442E-02   -0.40504E-01  8160   0.135E+00    0.190E-01
DAV:   2    -0.192393273128E+03   -0.18803E-02   -0.15886E-02 12320   0.580E-01    0.372E-01
DAV:   3    -0.192391886257E+03    0.13869E-02   -0.33319E-03 12520   0.509E-01    0.153E-01
DAV:   4    -0.192391740872E+03    0.14539E-03   -0.75311E-04 10400   0.223E-01    0.129E-01
DAV:   5    -0.192391593283E+03    0.14759E-03   -0.53893E-04 10200   0.203E-01    0.837E-02
DAV:   6    -0.192391539260E+03    0.54023E-04   -0.27247E-04  8040   0.120E-01
  13 F= -.19239154E+03 E0= -.19232272E+03  d E =-.962036E-02
       N       E                     dE             d eps       ncg     rms          rms(c)
DAV:   1    -0.192404608177E+03   -0.13015E-01   -0.11022E+00  8160   0.221E+00    0.254E-01
DAV:   2    -0.192409880441E+03   -0.52723E-02   -0.42632E-02 11000   0.901E-01    0.512E-01
DAV:   3    -0.192407300617E+03    0.25798E-02   -0.69635E-03 12320   0.721E-01    0.230E-01
DAV:   4    -0.192406758526E+03    0.54209E-03   -0.12701E-03 11160   0.283E-01    0.122E-01
DAV:   5    -0.192406724291E+03    0.34236E-04   -0.69208E-04 11120   0.228E-01
  14 F= -.19240672E+03 E0= -.19233903E+03  d E =-.151850E-01
       N       E                     dE             d eps       ncg     rms          rms(c)
DAV:   1    -0.192420480587E+03   -0.13722E-01   -0.19207E+00  8160   0.294E+00    0.328E-01
DAV:   2    -0.192429029853E+03   -0.85493E-02   -0.70978E-02 12360   0.105E+00    0.635E-01
DAV:   3    -0.192425256714E+03    0.37731E-02   -0.10222E-02 12120   0.903E-01    0.295E-01
DAV:   4    -0.192424098814E+03    0.11579E-02   -0.14585E-03 11720   0.289E-01    0.963E-02
DAV:   5    -0.192424539522E+03   -0.44071E-03   -0.12606E-03 12680   0.270E-01    0.199E-01
DAV:   6    -0.192424040882E+03    0.49864E-03   -0.84259E-04 10560   0.249E-01    0.451E-02
DAV:   7    -0.192424013239E+03    0.27644E-04   -0.82560E-05  6320   0.551E-02
  15 F= -.19242401E+03 E0= -.19235756E+03  d E =-.172889E-01
       N       E                     dE             d eps       ncg     rms          rms(c)
DAV:   1    -0.192435291867E+03   -0.11251E-01   -0.24715E+00  8160   0.336E+00    0.402E-01
DAV:   2    -0.192446479104E+03   -0.11187E-01   -0.11196E-01 12240   0.123E+00    0.677E-01
DAV:   3    -0.192443083079E+03    0.33960E-02   -0.15694E-02 12400   0.109E+00    0.422E-01
DAV:   4    -0.192440841917E+03    0.22412E-02   -0.31456E-03 12400   0.457E-01    0.156E-01
DAV:   5    -0.192440915706E+03   -0.73789E-04   -0.17778E-03 11960   0.304E-01    0.200E-01
DAV:   6    -0.192440636540E+03    0.27917E-03   -0.15542E-03 12240   0.324E-01    0.118E-01
DAV:   7    -0.192440388427E+03    0.24811E-03   -0.41236E-04  9240   0.133E-01    0.234E-02
DAV:   8    -0.192440391768E+03   -0.33418E-05   -0.67453E-05  7440   0.470E-02
  16 F= -.19244039E+03 E0= -.19237467E+03  d E =-.163785E-01
       N       E                     dE             d eps       ncg     rms          rms(c)
DAV:   1    -0.192443695432E+03   -0.33070E-02   -0.49978E+00  8160   0.472E+00    0.510E-01
DAV:   2    -0.192465464233E+03   -0.21769E-01   -0.20367E-01 11920   0.165E+00    0.867E-01
DAV:   3    -0.192459554854E+03    0.59094E-02   -0.25401E-02 12120   0.139E+00    0.544E-01
DAV:   4    -0.192455917211E+03    0.36376E-02   -0.49428E-03 12480   0.570E-01    0.169E-01
DAV:   5    -0.192455795040E+03    0.12217E-03   -0.21591E-03 12360   0.257E-01    0.162E-01
DAV:   6    -0.192456039057E+03   -0.24402E-03   -0.19925E-03 11920   0.365E-01    0.220E-01
DAV:   7    -0.192455431158E+03    0.60790E-03   -0.88524E-04 10480   0.243E-01    0.497E-02
DAV:   8    -0.192455423911E+03    0.72472E-05   -0.10790E-04  6120   0.825E-02
  17 F= -.19245542E+03 E0= -.19239092E+03  d E =-.150321E-01
       N       E                     dE             d eps       ncg     rms          rms(c)
DAV:   1    -0.192457519069E+03   -0.20879E-02   -0.40795E-01  8160   0.134E+00    0.156E-01
DAV:   2    -0.192459229033E+03   -0.17100E-02   -0.20671E-02 10400   0.441E-01    0.166E-01
DAV:   3    -0.192459460624E+03   -0.23159E-03   -0.18762E-03 13120   0.382E-01    0.222E-01
DAV:   4    -0.192458851075E+03    0.60955E-03   -0.62630E-04  9720   0.238E-01    0.469E-02
DAV:   5    -0.192458898360E+03   -0.47286E-04   -0.23684E-04  7520   0.936E-02
  18 F= -.19245890E+03 E0= -.19239477E+03  d E =-.347445E-02
       N       E                     dE             d eps       ncg     rms          rms(c)
DAV:   1    -0.192459710747E+03   -0.85967E-03   -0.90967E-01  8160   0.201E+00    0.235E-01
DAV:   2    -0.192463541509E+03   -0.38308E-02   -0.46070E-02 10880   0.636E-01    0.249E-01
DAV:   3    -0.192463978694E+03   -0.43719E-03   -0.46465E-03 11920   0.567E-01    0.329E-01
DAV:   4    -0.192462667662E+03    0.13110E-02   -0.15963E-03 10480   0.355E-01    0.883E-02
DAV:   5    -0.192462805309E+03   -0.13765E-03   -0.59936E-04  9840   0.215E-01    0.137E-01
DAV:   6    -0.192462607292E+03    0.19802E-03   -0.54263E-04 10120   0.172E-01    0.451E-02
DAV:   7    -0.192462581091E+03    0.26201E-04   -0.81607E-05  6360   0.620E-02
  19 F= -.19246258E+03 E0= -.19239896E+03  d E =-.368273E-02
       N       E                     dE             d eps       ncg     rms          rms(c)
DAV:   1    -0.192463195543E+03   -0.58825E-03   -0.46453E-02  8160   0.468E-01    0.645E-02
DAV:   2    -0.192463305847E+03   -0.11030E-03   -0.22823E-03 10760   0.142E-01    0.496E-02
DAV:   3    -0.192463346157E+03   -0.40310E-04   -0.21432E-04  9520   0.127E-01
  20 F= -.19246335E+03 E0= -.19239981E+03  d E =-.765066E-03
