 vasp.5.4.1 05Feb16 (build Jul 05 2020 17:13:04) complex                        
  
 executed on           IFC91_ompi date 2024.04.23  21:59:48
 running on   40 total cores
 distrk:  each k-point on   40 cores,    1 groups
 distr:  one band on NCORES_PER_BAND=   1 cores,   40 groups


--------------------------------------------------------------------------------------------------------


 INCAR:
 POTCAR:   PAW_PBE V 08Apr2002                    
 POTCAR:   PAW_PBE Mo 08Apr2002                   
 POTCAR:   PAW_PBE W 08Apr2002                    
 POTCAR:    PAW_PBE S 17Jan2003                   

 ----------------------------------------------------------------------------- 
|                                                                             |
|           W    W    AA    RRRRR   N    N  II  N    N   GGGG   !!!           |
|           W    W   A  A   R    R  NN   N  II  NN   N  G    G  !!!           |
|           W    W  A    A  R    R  N N  N  II  N N  N  G       !!!           |
|           W WW W  AAAAAA  RRRRR   N  N N  II  N  N N  G  GGG   !            |
|           WW  WW  A    A  R   R   N   NN  II  N   NN  G    G                |
|           W    W  A    A  R    R  N    N  II  N    N   GGGG   !!!           |
|                                                                             |
|      For optimal performance we recommend to set                            |
|        NCORE= 4 - approx SQRT( number of cores)                             |
|      NCORE specifies how many cores store one orbital (NPAR=cpu/NCORE).     |
|      This setting can  greatly improve the performance of VASP for DFT.     |
|      The default, NPAR=number of cores might be grossly inefficient         |
|      on modern multi-core architectures or massively parallel machines.     |
|      Do your own testing !!!!                                               |
|      Unfortunately you need to use the default for GW and RPA calculations. |
|      (for HF NCORE is supported but not extensively tested yet)             |
|                                                                             |
 ----------------------------------------------------------------------------- 

 POTCAR:   PAW_PBE V 08Apr2002                    
   VRHFIN =V: p6 d4 s1                                                          
   LEXCH  = PE                                                                  
   EATOM  =   170.8679 eV,   12.5584 Ry                                         
                                                                                
   TITEL  = PAW_PBE V 08Apr2002                                                 
   LULTRA =        F    use ultrasoft PP ?                                      
   IUNSCR =        1    unscreen: 0-lin 1-nonlin 2-no                           
   RPACOR =    2.000    partial core radius                                     
   POMASS =   50.941; ZVAL   =    5.000    mass and valenz                      
   RCORE  =    2.700    outmost cutoff radius                                   
   RWIGS  =    2.500; RWIGS  =    1.323    wigner-seitz radius (au A)           
   ENMAX  =  192.543; ENMIN  =  144.408 eV                                      
   RCLOC  =    1.779    cutoff for local pot                                    
   LCOR   =        T    correct aug charges                                     
   LPAW   =        T    paw PP                                                  
   EAUG   =  358.662                                                            
   DEXC   =    -.034                                                            
   RMAX   =    3.323    core radius for proj-oper                               
   RAUG   =    1.300    factor for augmentation sphere                          
   RDEP   =    2.762    radius for radial grids                                 
   QCUT   =   -3.762; QGAM   =    7.524    optimization parameters              
                                                                                
   Description                                                                  
     l     E      TYP  RCUT    TYP  RCUT                                        
     2   .000     23  2.700                                                     
     2   .000     23  2.700                                                     
     0   .000     23  2.700                                                     
     0  2.000     23  2.700                                                     
     1   .000     23  2.700                                                     
     1  2.000     23  2.700                                                     
     3   .000      7   .000                                                     
  local pseudopotential read in
  partial core-charges read in
  atomic valenz-charges read in
  non local Contribution for L=           2  read in
    real space projection operators read in
  non local Contribution for L=           2  read in
    real space projection operators read in
  non local Contribution for L=           0  read in
    real space projection operators read in
  non local Contribution for L=           0  read in
    real space projection operators read in
  non local Contribution for L=           1  read in
    real space projection operators read in
  non local Contribution for L=           1  read in
    real space projection operators read in
    PAW grid and wavefunctions read in
 
   number of l-projection  operators is LMAX  =           6
   number of lm-projection operators is LMMAX =          18
 
 POTCAR:   PAW_PBE Mo 08Apr2002                   
   VRHFIN =Mo: 4p5s4d                                                           
   LEXCH  = PE                                                                  
   EATOM  =   217.5180 eV,   15.9871 Ry                                         
                                                                                
   TITEL  = PAW_PBE Mo 08Apr2002                                                
   LULTRA =        F    use ultrasoft PP ?                                      
   IUNSCR =        1    unscreen: 0-lin 1-nonlin 2-no                           
   RPACOR =    2.200    partial core radius                                     
   POMASS =   95.940; ZVAL   =    6.000    mass and valenz                      
   RCORE  =    2.750    outmost cutoff radius                                   
   RWIGS  =    2.750; RWIGS  =    1.455    wigner-seitz radius (au A)           
   ENMAX  =  224.584; ENMIN  =  168.438 eV                                      
   RCLOC  =    2.111    cutoff for local pot                                    
   LCOR   =        T    correct aug charges                                     
   LPAW   =        T    paw PP                                                  
   EAUG   =  345.278                                                            
   DEXC   =    -.088                                                            
   RMAX   =    3.077    core radius for proj-oper                               
   RAUG   =    1.300    factor for augmentation sphere                          
   RDEP   =    2.815    radius for radial grids                                 
   QCUT   =   -4.063; QGAM   =    8.126    optimization parameters              
                                                                                
   Description                                                                  
     l     E      TYP  RCUT    TYP  RCUT                                        
     2   .000     23  2.500                                                     
     2   .000     23  2.500                                                     
     0   .000     23  2.600                                                     
     0  1.000     23  2.600                                                     
     1   .400     23  2.750                                                     
     1  2.000     23  2.750                                                     
     3   .000      7   .000                                                     
  local pseudopotential read in
  partial core-charges read in
  atomic valenz-charges read in
  non local Contribution for L=           2  read in
    real space projection operators read in
  non local Contribution for L=           2  read in
    real space projection operators read in
  non local Contribution for L=           0  read in
    real space projection operators read in
  non local Contribution for L=           0  read in
    real space projection operators read in
  non local Contribution for L=           1  read in
    real space projection operators read in
  non local Contribution for L=           1  read in
    real space projection operators read in
    PAW grid and wavefunctions read in
 
   number of l-projection  operators is LMAX  =           6
   number of lm-projection operators is LMMAX =          18
 
 POTCAR:   PAW_PBE W 08Apr2002                    
   VRHFIN =W : 6s5d                                                             
   LEXCH  = PE                                                                  
   EATOM  =   204.6100 eV,   15.0384 Ry                                         
                                                                                
   TITEL  = PAW_PBE W 08Apr2002                                                 
   LULTRA =        F    use ultrasoft PP ?                                      
   IUNSCR =        1    unscreen: 0-lin 1-nonlin 2-no                           
   RPACOR =    2.330    partial core radius                                     
   POMASS =  183.850; ZVAL   =    6.000    mass and valenz                      
   RCORE  =    2.750    outmost cutoff radius                                   
   RWIGS  =    2.750; RWIGS  =    1.455    wigner-seitz radius (au A)           
   ENMAX  =  223.057; ENMIN  =  167.293 eV                                      
   RCLOC  =    2.147    cutoff for local pot                                    
   LCOR   =        T    correct aug charges                                     
   LPAW   =        T    paw PP                                                  
   EAUG   =  373.438                                                            
   DEXC   =    -.060                                                            
   RMAX   =    3.087    core radius for proj-oper                               
   RAUG   =    1.300    factor for augmentation sphere                          
   RDEP   =    2.886    radius for radial grids                                 
   QCUT   =   -4.049; QGAM   =    8.098    optimization parameters              
                                                                                
   Description                                                                  
     l     E      TYP  RCUT    TYP  RCUT                                        
     2   .000     23  2.500                                                     
     2   .000     23  2.500                                                     
     0   .000     23  2.500                                                     
     0   .000     23  2.500                                                     
     1   .200     23  2.750                                                     
     1  2.000     23  2.750                                                     
     3   .000      7   .000                                                     
  local pseudopotential read in
  partial core-charges read in
  atomic valenz-charges read in
  non local Contribution for L=           2  read in
    real space projection operators read in
  non local Contribution for L=           2  read in
    real space projection operators read in
  non local Contribution for L=           0  read in
    real space projection operators read in
  non local Contribution for L=           0  read in
    real space projection operators read in
  non local Contribution for L=           1  read in
    real space projection operators read in
  non local Contribution for L=           1  read in
    real space projection operators read in
    PAW grid and wavefunctions read in
 
   number of l-projection  operators is LMAX  =           6
   number of lm-projection operators is LMMAX =          18
 
 POTCAR:    PAW_PBE S 17Jan2003                   
   VRHFIN =S : s2p4                                                             
   LEXCH  = PE                                                                  
   EATOM  =   276.8230 eV,   20.3459 Ry                                         
                                                                                
   TITEL  = PAW_PBE S 17Jan2003                                                 
   LULTRA =        F    use ultrasoft PP ?                                      
   IUNSCR =        1    unscreen: 0-lin 1-nonlin 2-no                           
   RPACOR =    1.500    partial core radius                                     
   POMASS =   32.066; ZVAL   =    6.000    mass and valenz                      
   RCORE  =    1.900    outmost cutoff radius                                   
   RWIGS  =    2.200; RWIGS  =    1.164    wigner-seitz radius (au A)           
   ENMAX  =  280.000; ENMIN  =  194.016 eV                                      
   ICORE  =        2    local potential                                         
   LCOR   =        T    correct aug charges                                     
   LPAW   =        T    paw PP                                                  
   EAUG   =  335.092                                                            
   DEXC   =     .000                                                            
   RMAX   =    2.867    core radius for proj-oper                               
   RAUG   =    1.300    factor for augmentation sphere                          
   RDEP   =    1.954    radius for radial grids                                 
   QCUT   =   -4.360; QGAM   =    8.721    optimization parameters              
                                                                                
   Description                                                                  
     l     E      TYP  RCUT    TYP  RCUT                                        
     0   .000     23  1.900                                                     
     0   .000     23  1.900                                                     
     1   .000     23  1.900                                                     
     1   .000     23  1.900                                                     
     2   .000     23  1.900                                                     
  local pseudopotential read in
  partial core-charges read in
  atomic valenz-charges read in
  non local Contribution for L=           0  read in
    real space projection operators read in
  non local Contribution for L=           0  read in
    real space projection operators read in
  non local Contribution for L=           1  read in
    real space projection operators read in
  non local Contribution for L=           1  read in
    real space projection operators read in
    PAW grid and wavefunctions read in
 
   number of l-projection  operators is LMAX  =           4
   number of lm-projection operators is LMMAX =           8
 

 ----------------------------------------------------------------------------- 
|                                                                             |
|  ADVICE TO THIS USER RUNNING 'VASP/VAMP'   (HEAR YOUR MASTER'S VOICE ...):  |
|                                                                             |
|      You have a (more or less) 'large supercell' and for larger cells       |
|      it might be more efficient to use real space projection operators      |
|      So try LREAL= Auto  in the INCAR   file.                               |
|      Mind: If you want to do a very accurate calculations keep the          |
|      reciprocal projection scheme          (i.e. LREAL=.FALSE.)             |
|                                                                             |
 ----------------------------------------------------------------------------- 

 PAW_PBE V 08Apr2002                    :
 energy of atom  1       EATOM= -170.8679
 kinetic energy error for atom=    0.0047 (will be added to EATOM!!)
 PAW_PBE Mo 08Apr2002                   :
 energy of atom  2       EATOM= -217.5180
 kinetic energy error for atom=    0.0215 (will be added to EATOM!!)
 PAW_PBE W 08Apr2002                    :
 energy of atom  3       EATOM= -204.6100
 kinetic energy error for atom=    0.0205 (will be added to EATOM!!)
  PAW_PBE S 17Jan2003                   :
 energy of atom  4       EATOM= -276.8230
 kinetic energy error for atom=    0.0122 (will be added to EATOM!!)
 
 
 POSCAR: crystal structure from VMoWS2 with Hexag
  positions in cartesian coordinates
  No initial velocities read in
 exchange correlation table for  LEXCH =        8
   RHO(1)=    0.500       N(1)  =     2000
   RHO(2)=  100.500       N(2)  =     4000
 


--------------------------------------------------------------------------------------------------------


 ion  position               nearest neighbor table
   1  0.333  0.667  0.000-  15 2.34  18 2.34  20 2.36  21 2.36  13 2.36  12 2.36
   2  0.333  0.000  0.000-  11 2.34  20 2.34  17 2.36  16 2.36  15 2.36  14 2.36
   3  0.000  0.000  0.000-  23 2.34  14 2.34  11 2.36  10 2.36  27 2.36  26 2.36
   4  0.333  0.333  0.000-  13 2.34  16 2.34  19 2.36  18 2.36  11 2.36  10 2.36   5 3.34   6 3.34
                             9 3.36
   5  1.000  0.333  0.000-  25 2.34  10 2.34  13 2.36  12 2.36  22 2.36  23 2.36   6 3.34   7 3.34
                             4 3.34   8 3.36
   6  0.667  0.333  0.000-  19 2.34  22 2.34  25 2.36  24 2.36  17 2.36  16 2.36   5 3.34   9 3.34
                             8 3.34   4 3.34   7 3.36
   7  0.000  0.667  0.000-  27 2.34  12 2.34  14 2.36  15 2.36  24 2.36  25 2.36   9 3.34   5 3.34
                             6 3.36
   8  0.667  0.000  0.000-  17 2.34  26 2.34  23 2.36  22 2.36  21 2.36  20 2.36   9 3.34   6 3.34
                             5 3.36
   9  0.667  0.667  0.000-  21 2.34  24 2.34  27 2.36  26 2.36  19 2.36  18 2.36   7 3.34   8 3.34
                             6 3.34   4 3.36
  10  0.111  0.222  0.955-   5 2.34   3 2.36   4 2.36
  11  0.222  0.111  0.045-   2 2.34   3 2.36   4 2.36
  12  0.111  0.556  0.955-   7 2.34   5 2.36   1 2.36
  13  0.222  0.444  0.045-   4 2.34   5 2.36   1 2.36
  14  0.111  0.889  0.955-   3 2.34   7 2.36   2 2.36
  15  0.222  0.777  0.045-   1 2.34   7 2.36   2 2.36
  16  0.444  0.222  0.955-   4 2.34   2 2.36   6 2.36
  17  0.556  0.111  0.045-   8 2.34   2 2.36   6 2.36
  18  0.444  0.556  0.955-   1 2.34   4 2.36   9 2.36
  19  0.556  0.444  0.045-   6 2.34   4 2.36   9 2.36
  20  0.444  0.889  0.955-   2 2.34   1 2.36   8 2.36
  21  0.556  0.777  0.045-   9 2.34   1 2.36   8 2.36
  22  0.777  0.222  0.955-   6 2.34   8 2.36   5 2.36
  23  0.889  0.111  0.045-   3 2.34   8 2.36   5 2.36
  24  0.777  0.556  0.955-   9 2.34   6 2.36   7 2.36
  25  0.889  0.444  0.045-   5 2.34   6 2.36   7 2.36
  26  0.777  0.889  0.955-   8 2.34   9 2.36   3 2.36
  27  0.889  0.777  0.045-   7 2.34   9 2.36   3 2.36
 

IMPORTANT INFORMATION: All symmetrisations will be switched off!
NOSYMM: (Re-)initialisation of all symmetry stuff for point group C_1.

 
 
 KPOINTS: K-POINTS 	#supercell of CrS2 in hexagona

Automatic generation of k-mesh.
Space group operators:
 irot       det(A)        alpha          n_x          n_y          n_z        tau_x        tau_y        tau_z
    1     1.000000     0.000000     1.000000     0.000000     0.000000     0.000000     0.000000     0.000000
 
 Subroutine IBZKPT returns following result:
 ===========================================
 
 Found     34 irreducible k-points:
 
 Following reciprocal coordinates:
            Coordinates               Weight
  0.000000  0.000000  0.000000      1.000000
  0.125000  0.000000  0.000000      2.000000
  0.250000  0.000000  0.000000      2.000000
  0.375000  0.000000  0.000000      2.000000
  0.500000  0.000000  0.000000      1.000000
  0.000000  0.125000  0.000000      2.000000
  0.125000  0.125000  0.000000      2.000000
  0.250000  0.125000  0.000000      2.000000
  0.375000  0.125000  0.000000      2.000000
  0.500000  0.125000  0.000000      2.000000
 -0.375000  0.125000  0.000000      2.000000
 -0.250000  0.125000  0.000000      2.000000
 -0.125000  0.125000  0.000000      2.000000
  0.000000  0.250000  0.000000      2.000000
  0.125000  0.250000  0.000000      2.000000
  0.250000  0.250000  0.000000      2.000000
  0.375000  0.250000  0.000000      2.000000
  0.500000  0.250000  0.000000      2.000000
 -0.375000  0.250000  0.000000      2.000000
 -0.250000  0.250000  0.000000      2.000000
 -0.125000  0.250000  0.000000      2.000000
 -0.000000  0.375000  0.000000      2.000000
  0.125000  0.375000  0.000000      2.000000
  0.250000  0.375000  0.000000      2.000000
  0.375000  0.375000  0.000000      2.000000
  0.500000  0.375000  0.000000      2.000000
 -0.375000  0.375000  0.000000      2.000000
 -0.250000  0.375000  0.000000      2.000000
 -0.125000  0.375000  0.000000      2.000000
  0.000000  0.500000  0.000000      1.000000
  0.125000  0.500000  0.000000      2.000000
  0.250000  0.500000  0.000000      2.000000
  0.375000  0.500000  0.000000      2.000000
  0.500000  0.500000  0.000000      1.000000
 
 Following cartesian coordinates:
            Coordinates               Weight
  0.000000  0.000000  0.000000      1.000000
  0.007209  0.012401  0.000000      2.000000
  0.014418  0.024802  0.000000      2.000000
  0.021626  0.037202  0.000000      2.000000
  0.028835  0.049603  0.000000      1.000000
 -0.007209  0.012401  0.000000      2.000000
  0.000000  0.024802  0.000000      2.000000
  0.007209  0.037202  0.000000      2.000000
  0.014418  0.049603  0.000000      2.000000
  0.021626  0.062004  0.000000      2.000000
 -0.028835 -0.024802  0.000000      2.000000
 -0.021626 -0.012401  0.000000      2.000000
 -0.014418  0.000000  0.000000      2.000000
 -0.014418  0.024802  0.000000      2.000000
 -0.007209  0.037202  0.000000      2.000000
  0.000000  0.049603  0.000000      2.000000
  0.007209  0.062004  0.000000      2.000000
  0.014418  0.074405  0.000000      2.000000
 -0.036044 -0.012401  0.000000      2.000000
 -0.028835  0.000000  0.000000      2.000000
 -0.021626  0.012401  0.000000      2.000000
 -0.021626  0.037202  0.000000      2.000000
 -0.014418  0.049603  0.000000      2.000000
 -0.007209  0.062004  0.000000      2.000000
  0.000000  0.074405  0.000000      2.000000
  0.007209  0.086806  0.000000      2.000000
 -0.043253  0.000000  0.000000      2.000000
 -0.036044  0.012401  0.000000      2.000000
 -0.028835  0.024802  0.000000      2.000000
 -0.028835  0.049603  0.000000      1.000000
 -0.021626  0.062004  0.000000      2.000000
 -0.014418  0.074405  0.000000      2.000000
 -0.007209  0.086806  0.000000      2.000000
  0.000000  0.099206  0.000000      1.000000
 


--------------------------------------------------------------------------------------------------------




 Dimension of arrays:
   k-points           NKPTS =     34   k-points in BZ     NKDIM =     34   number of bands    NBANDS=    120
   number of dos      NEDOS =    301   number of ions     NIONS =     27
   non local maximal  LDIM  =      6   non local SUM 2l+1 LMDIM =     18
   total plane-waves  NPLWV = 222264
   max r-space proj   IRMAX =      1   max aug-charges    IRDMAX=   5642
   dimension x,y,z NGX =    42 NGY =   42 NGZ =  126
   dimension x,y,z NGXF=    84 NGYF=   84 NGZF=  252
   support grid    NGXF=    84 NGYF=   84 NGZF=  252
   ions per type =               3   3   3  18
 NGX,Y,Z   is equivalent  to a cutoff of   6.96,  6.96,  6.98 a.u.
 NGXF,Y,Z  is equivalent  to a cutoff of  13.92, 13.92, 13.96 a.u.


 I would recommend the setting:
   dimension x,y,z NGX =    41 NGY =   41 NGZ =  123
 SYSTEM =  unknown system                          
 POSCAR =  crystal structure from VMoWS2 with Hexag

 Startparameter for this run:
   NWRITE =      2    write-flag & timer
   PREC   = normal    normal or accurate (medium, high low for compatibility)
   ISTART =      0    job   : 0-new  1-cont  2-samecut
   ICHARG =      2    charge: 1-file 2-atom 10-const
   ISPIN  =      1    spin polarized calculation?
   LNONCOLLINEAR =      F non collinear calculations
   LSORBIT =      F    spin-orbit coupling
   INIWAV =      1    electr: 0-lowe 1-rand  2-diag
   LASPH  =      F    aspherical Exc in radial PAW
   METAGGA=      F    non-selfconsistent MetaGGA calc.

 Electronic Relaxation 1
   ENCUT  =  280.0 eV  20.58 Ry    4.54 a.u.  13.68 13.68 40.93*2*pi/ulx,y,z
   ENINI  =  280.0     initial cutoff
   ENAUG  =  373.4 eV  augmentation charge cutoff
   NELM   =     60;   NELMIN=  2; NELMDL= -5     # of ELM steps 
   EDIFF  = 0.1E-03   stopping-criterion for ELM
   LREAL  =      F    real-space projection
   NLSPLINE    = F    spline interpolate recip. space projectors
   LCOMPAT=      F    compatible to vasp.4.4
   GGA_COMPAT  = T    GGA compatible to vasp.4.4-vasp.4.6
   LMAXPAW     = -100 max onsite density
   LMAXMIX     =    2 max onsite mixed and CHGCAR
   VOSKOWN=      0    Vosko Wilk Nusair interpolation
   ROPT   =    0.00000   0.00000   0.00000   0.00000
 Ionic relaxation
   EDIFFG = 0.1E-02   stopping-criterion for IOM
   NSW    =    100    number of steps for IOM
   NBLOCK =      1;   KBLOCK =    100    inner block; outer block 
   IBRION =      1    ionic relax: 0-MD 1-quasi-New 2-CG
   NFREE  =      0    steps in history (QN), initial steepest desc. (CG)
   ISIF   =      3    stress and relaxation
   IWAVPR =     11    prediction:  0-non 1-charg 2-wave 3-comb
   ISYM   =      0    0-nonsym 1-usesym 2-fastsym
   LCORR  =      T    Harris-Foulkes like correction to forces

   POTIM  = 0.5000    time-step for ionic-motion
   TEIN   =    0.0    initial temperature
   TEBEG  =    0.0;   TEEND  =   0.0 temperature during run
   SMASS  =  -3.00    Nose mass-parameter (am)
   estimated Nose-frequenzy (Omega)   =  0.10E-29 period in steps =****** mass=  -0.230E-26a.u.
   SCALEE = 1.0000    scale energy and forces
   NPACO  =    256;   APACO  = 16.0  distance and # of slots for P.C.
   PSTRESS=    0.0 pullay stress

  Mass of Ions in am
   POMASS =  50.94 95.94183.85 32.07
  Ionic Valenz
   ZVAL   =   5.00  6.00  6.00  6.00
  Atomic Wigner-Seitz radii
   RWIGS  =  -1.00 -1.00 -1.00 -1.00
  virtual crystal weights 
   VCA    =   1.00  1.00  1.00  1.00
   NELECT =     159.0000    total number of electrons
   NUPDOWN=      -1.0000    fix difference up-down

 DOS related values:
   EMIN   =  10.00;   EMAX   =-10.00  energy-range for DOS
   EFERMI =   0.00
   ISMEAR =     0;   SIGMA  =   0.20  broadening in eV -4-tet -1-fermi 0-gaus

 Electronic relaxation 2 (details)
   IALGO  =     38    algorithm
   LDIAG  =      T    sub-space diagonalisation (order eigenvalues)
   LSUBROT=      F    optimize rotation matrix (better conditioning)
   TURBO    =      0    0=normal 1=particle mesh
   IRESTART =      0    0=no restart 2=restart with 2 vectors
   NREBOOT  =      0    no. of reboots
   NMIN     =      0    reboot dimension
   EREF     =   0.00    reference energy to select bands
   IMIX   =      4    mixing-type and parameters
     AMIX     =   0.40;   BMIX     =  1.00
     AMIX_MAG =   1.60;   BMIX_MAG =  1.00
     AMIN     =   0.10
     WC   =   100.;   INIMIX=   1;  MIXPRE=   1;  MAXMIX= -45

 Intra band minimization:
   WEIMIN = 0.0010     energy-eigenvalue tresh-hold
   EBREAK =  0.21E-06  absolut break condition
   DEPER  =   0.30     relativ break condition  

   TIME   =   0.40     timestep for ELM

  volume/ion in A,a.u.               =      97.10       655.29
  Fermi-wavevector in a.u.,A,eV,Ry     =   0.643191  1.215456  5.628665  0.413695
  Thomas-Fermi vector in A             =   1.710110
 
 Write flags
   LWAVE  =      F    write WAVECAR
   LCHARG =      F    write CHGCAR
   LVTOT  =      F    write LOCPOT, total local potential
   LVHAR  =      F    write LOCPOT, Hartree potential only
   LELF   =      F    write electronic localiz. function (ELF)
   LORBIT =      0    0 simple, 1 ext, 2 COOP (PROOUT)


 Dipole corrections
   LMONO  =      F    monopole corrections only (constant potential shift)
   LDIPOL =      F    correct potential (dipole corrections)
   IDIPOL =      0    1-x, 2-y, 3-z, 4-all directions 
   EPSILON=  1.0000000 bulk dielectric constant

 Exchange correlation treatment:
   GGA     =    --    GGA type
   LEXCH   =     8    internal setting for exchange type
   VOSKOWN=      0    Vosko Wilk Nusair interpolation
   LHFCALC =     F    Hartree Fock is set to
   LHFONE  =     F    Hartree Fock one center treatment
   AEXX    =    0.0000 exact exchange contribution

 Linear response parameters
   LEPSILON=     F    determine dielectric tensor
   LRPA    =     F    only Hartree local field effects (RPA)
   LNABLA  =     F    use nabla operator in PAW spheres
   LVEL    =     F    velocity operator in full k-point grid
   LINTERFAST=   F  fast interpolation
   KINTER  =     0    interpolate to denser k-point grid
   CSHIFT  =0.1000    complex shift for real part using Kramers Kronig
   OMEGAMAX=  -1.0    maximum frequency
   DEG_THRESHOLD= 0.2000000E-02 threshold for treating states as degnerate
   RTIME   =    0.100 relaxation time in fs

 Orbital magnetization related:
   ORBITALMAG=     F  switch on orbital magnetization
   LCHIMAG   =     F  perturbation theory with respect to B field
   DQ        =  0.001000  dq finite difference perturbation B field



--------------------------------------------------------------------------------------------------------


 quasi-Newton-method for relaxation of ions
 charge density and potential will be updated during run
 non-spin polarized calculation
 Variant of blocked Davidson
 Davidson routine will perform the subspace rotation
 perform sub-space diagonalisation
    after iterative eigenvector-optimisation
 modified Broyden-mixing scheme, WC =      100.0
 initial mixing is a Kerker type mixing with AMIX =  0.4000 and BMIX =      1.0000
 Hartree-type preconditioning will be used
 using additional bands           40
 reciprocal scheme for non local part
 use partial core corrections
 calculate Harris-corrections to forces 
   (improved forces if not selfconsistent)
 use gradient corrections 
 use of overlap-Matrix (Vanderbilt PP)
 Gauss-broadening in eV      SIGMA  =   0.20


--------------------------------------------------------------------------------------------------------


  energy-cutoff  :      280.00
  volume of cell :     2621.81
      direct lattice vectors                 reciprocal lattice vectors
     8.669999960  5.039999894  0.000000000     0.057670129  0.099206348  0.000000000
    -8.669999821  5.040000133  0.000000000    -0.057670126  0.099206350  0.000000000
     0.000000000  0.000000000 30.000000000     0.000000000  0.000000000  0.033333333

  length of vectors
    10.028484344 10.028484344 30.000000000     0.114750788  0.114750788  0.033333333


 
 k-points in units of 2pi/SCALE and weight: K-POINTS 	#supercell of CrS2 in hexagona
   0.00000000  0.00000000  0.00000000       0.016
   0.00720877  0.01240079  0.00000000       0.031
   0.01441753  0.02480159  0.00000000       0.031
   0.02162630  0.03720238  0.00000000       0.031
   0.02883506  0.04960317  0.00000000       0.016
  -0.00720877  0.01240079  0.00000000       0.031
   0.00000000  0.02480159  0.00000000       0.031
   0.00720877  0.03720238  0.00000000       0.031
   0.01441753  0.04960317  0.00000000       0.031
   0.02162630  0.06200397  0.00000000       0.031
  -0.02883506 -0.02480159  0.00000000       0.031
  -0.02162630 -0.01240079  0.00000000       0.031
  -0.01441753  0.00000000  0.00000000       0.031
  -0.01441753  0.02480159  0.00000000       0.031
  -0.00720877  0.03720238  0.00000000       0.031
   0.00000000  0.04960317  0.00000000       0.031
   0.00720877  0.06200397  0.00000000       0.031
   0.01441753  0.07440476  0.00000000       0.031
  -0.03604383 -0.01240079  0.00000000       0.031
  -0.02883506  0.00000000  0.00000000       0.031
  -0.02162630  0.01240079  0.00000000       0.031
  -0.02162630  0.03720238  0.00000000       0.031
  -0.01441753  0.04960317  0.00000000       0.031
  -0.00720877  0.06200397  0.00000000       0.031
   0.00000000  0.07440476  0.00000000       0.031
   0.00720877  0.08680556  0.00000000       0.031
  -0.04325260  0.00000000  0.00000000       0.031
  -0.03604383  0.01240079  0.00000000       0.031
  -0.02883506  0.02480159  0.00000000       0.031
  -0.02883506  0.04960317  0.00000000       0.016
  -0.02162630  0.06200397  0.00000000       0.031
  -0.01441753  0.07440476  0.00000000       0.031
  -0.00720876  0.08680556  0.00000000       0.031
   0.00000000  0.09920635  0.00000000       0.016
 
 k-points in reciprocal lattice and weights: K-POINTS 	#supercell of CrS2 in hexagona
   0.00000000  0.00000000  0.00000000       0.016
   0.12500000  0.00000000  0.00000000       0.031
   0.25000000  0.00000000  0.00000000       0.031
   0.37500000  0.00000000  0.00000000       0.031
   0.50000000  0.00000000  0.00000000       0.016
   0.00000000  0.12500000  0.00000000       0.031
   0.12500000  0.12500000  0.00000000       0.031
   0.25000000  0.12500000  0.00000000       0.031
   0.37500000  0.12500000  0.00000000       0.031
   0.50000000  0.12500000  0.00000000       0.031
  -0.37500000  0.12500000  0.00000000       0.031
  -0.25000000  0.12500000  0.00000000       0.031
  -0.12500000  0.12500000  0.00000000       0.031
   0.00000000  0.25000000  0.00000000       0.031
   0.12500000  0.25000000  0.00000000       0.031
   0.25000000  0.25000000  0.00000000       0.031
   0.37500000  0.25000000  0.00000000       0.031
   0.50000000  0.25000000  0.00000000       0.031
  -0.37500000  0.25000000  0.00000000       0.031
  -0.25000000  0.25000000  0.00000000       0.031
  -0.12500000  0.25000000  0.00000000       0.031
  -0.00000000  0.37500000  0.00000000       0.031
   0.12500000  0.37500000  0.00000000       0.031
   0.25000000  0.37500000  0.00000000       0.031
   0.37500000  0.37500000  0.00000000       0.031
   0.50000000  0.37500000  0.00000000       0.031
  -0.37500000  0.37500000  0.00000000       0.031
  -0.25000000  0.37500000  0.00000000       0.031
  -0.12500000  0.37500000  0.00000000       0.031
   0.00000000  0.50000000  0.00000000       0.016
   0.12500000  0.50000000  0.00000000       0.031
   0.25000000  0.50000000  0.00000000       0.031
   0.37500000  0.50000000  0.00000000       0.031
   0.50000000  0.50000000  0.00000000       0.016
 
 position of ions in fractional coordinates (direct lattice) 
   0.33333334  0.66666669  0.00000000
   0.33333334  0.00000000  0.00000000
   0.00000000  0.00000000  0.00000000
   0.33333334  0.33333334  0.00000000
   1.00000000  0.33333334  0.00000000
   0.66666669  0.33333334  0.00000000
   0.00000000  0.66666669  0.00000000
   0.66666669  0.00000000  0.00000000
   0.66666669  0.66666669  0.00000000
   0.11068511  0.22244981  0.95539999
   0.22244981  0.11068511  0.04460000
   0.11068511  0.55578315  0.95539999
   0.22244981  0.44401845  0.04460000
   0.11068511  0.88911647  0.95539999
   0.22244981  0.77735180  0.04460000
   0.44401845  0.22244981  0.95539999
   0.55578315  0.11068511  0.04460000
   0.44401845  0.55578315  0.95539999
   0.55578315  0.44401845  0.04460000
   0.44401845  0.88911647  0.95539999
   0.55578315  0.77735180  0.04460000
   0.77735180  0.22244981  0.95539999
   0.88911647  0.11068511  0.04460000
   0.77735180  0.55578315  0.95539999
   0.88911647  0.44401845  0.04460000
   0.77735180  0.88911647  0.95539999
   0.88911647  0.77735180  0.04460000
 
 position of ions in cartesian coordinates  (Angst):
  -2.88999998  5.04000020  0.00000000
   2.89000007  1.68000002  0.00000000
   0.00000000  0.00000000  0.00000000
   0.00000005  3.36000011  0.00000000
   5.77999993  6.71999999  0.00000000
   2.89000012  5.04000012  0.00000000
  -5.78000005  3.36000019  0.00000000
   5.78000015  3.36000003  0.00000000
   0.00000009  6.72000022  0.00000000
  -0.96899991  1.67900001 28.66199970
   0.96899995  1.67899998  1.33799996
  -3.85899993  3.35900011 28.66199970
  -1.92100007  3.35900008  1.33799996
  -6.74899970  5.03900005 28.66199970
  -4.81100010  5.03900017  1.33799996
   1.92100017  3.35900003 28.66199970
   3.85900003  3.35900000  1.33799996
  -0.96899986  5.03900012 28.66199970
   0.96900000  5.03900009  1.33799996
  -3.85899963  6.71900006 28.66199970
  -1.92100003  6.71900019  1.33799996
   4.81100024  5.03900004 28.66199970
   6.74899984  5.03899987  1.33799996
   1.92100021  6.71900014 28.66199970
   3.85899981  6.71899996  1.33799996
  -0.96899956  8.39900008 28.66199970
   0.96899979  8.39900005  1.33799996
 


--------------------------------------------------------------------------------------------------------


 k-point  1 :   0.0000 0.0000 0.0000  plane waves:   27959
 k-point  2 :   0.1250 0.0000 0.0000  plane waves:   27889
 k-point  3 :   0.2500 0.0000 0.0000  plane waves:   27875
 k-point  4 :   0.3750 0.0000 0.0000  plane waves:   27893
 k-point  5 :   0.5000 0.0000 0.0000  plane waves:   27932
 k-point  6 :   0.0000 0.1250 0.0000  plane waves:   27889
 k-point  7 :   0.1250 0.1250 0.0000  plane waves:   27906
 k-point  8 :   0.2500 0.1250 0.0000  plane waves:   27898
 k-point  9 :   0.3750 0.1250 0.0000  plane waves:   27888
 k-point 10 :   0.5000 0.1250 0.0000  plane waves:   27873
 k-point 11 :  -0.3750 0.1250 0.0000  plane waves:   27874
 k-point 12 :  -0.2500 0.1250 0.0000  plane waves:   27895
 k-point 13 :  -0.1250 0.1250 0.0000  plane waves:   27879
 k-point 14 :   0.0000 0.2500 0.0000  plane waves:   27875
 k-point 15 :   0.1250 0.2500 0.0000  plane waves:   27898
 k-point 16 :   0.2500 0.2500 0.0000  plane waves:   27920
 k-point 17 :   0.3750 0.2500 0.0000  plane waves:   27901
 k-point 18 :   0.5000 0.2500 0.0000  plane waves:   27875
 k-point 19 :  -0.3750 0.2500 0.0000  plane waves:   27894
 k-point 20 :  -0.2500 0.2500 0.0000  plane waves:   27870
 k-point 21 :  -0.1250 0.2500 0.0000  plane waves:   27895
 k-point 22 :  -0.0000 0.3750 0.0000  plane waves:   27893
 k-point 23 :   0.1250 0.3750 0.0000  plane waves:   27888
 k-point 24 :   0.2500 0.3750 0.0000  plane waves:   27901
 k-point 25 :   0.3750 0.3750 0.0000  plane waves:   27860
 k-point 26 :   0.5000 0.3750 0.0000  plane waves:   27895
 k-point 27 :  -0.3750 0.3750 0.0000  plane waves:   27858
 k-point 28 :  -0.2500 0.3750 0.0000  plane waves:   27894
 k-point 29 :  -0.1250 0.3750 0.0000  plane waves:   27874
 k-point 30 :   0.0000 0.5000 0.0000  plane waves:   27932
 k-point 31 :   0.1250 0.5000 0.0000  plane waves:   27873
 k-point 32 :   0.2500 0.5000 0.0000  plane waves:   27875
 k-point 33 :   0.3750 0.5000 0.0000  plane waves:   27895
 k-point 34 :   0.5000 0.5000 0.0000  plane waves:   27910

 maximum and minimum number of plane-waves per node :     27959    27858

 maximum number of plane-waves:     27959
 maximum index in each direction: 
   IXMAX=   14   IYMAX=   13   IZMAX=   40
   IXMIN=  -14   IYMIN=  -14   IZMIN=  -40

 WARNING: aliasing errors must be expected set NGX to  58 to avoid them
 WARNING: aliasing errors must be expected set NGY to  56 to avoid them
 WARNING: aliasing errors must be expected set NGZ to 162 to avoid them
 aliasing errors are usually negligible using standard VASP settings
 and one can safely disregard these warnings

 serial   3D FFT for wavefunctions

 total amount of memory used by VASP on root node   650782. kBytes
========================================================================

   base      :      30000. kBytes
   nonl-proj :     559647. kBytes
   fftplans  :       2414. kBytes
   grid      :      12150. kBytes
   one-center:        419. kBytes
   wavefun   :      46152. kBytes
 
     INWAV:  cpu time    0.0001: real time    0.0000
 Broyden mixing: mesh for mixing (old mesh)
   NGX = 27   NGY = 27   NGZ = 81
  (NGX  = 84   NGY  = 84   NGZ  =252)
  gives a total of  59049 points

 initial charge density was supplied:
 charge density of overlapping atoms calculated
 number of electron     159.0000000 magnetization 
 keeping initial charge density in first step


--------------------------------------------------------------------------------------------------------


 Maximum index for augmentation-charges          146 (set IRDMAX)


--------------------------------------------------------------------------------------------------------


 First call to EWALD:  gamma=   0.129
 Maximum number of real-space cells 4x 4x 2
 Maximum number of reciprocal cells 2x 2x 5

 FEWALD executed in parallel
    FEWALD:  cpu time    0.0015: real time    0.0016


----------------------------------------- Iteration    1(   1)  ---------------------------------------


    POTLOK:  cpu time    0.0369: real time    0.0372
    SETDIJ:  cpu time    0.0031: real time    0.0033
     EDDAV:  cpu time   22.0054: real time   22.0638
       DOS:  cpu time    0.0013: real time    0.0014
    --------------------------------------------
      LOOP:  cpu time   22.0498: real time   22.1142

 eigenvalue-minimisations  :  8160
 total energy-change (2. order) : 0.1126487E+04  (-0.3597944E+04)
 number of electron     159.0000000 magnetization 
 augmentation part      159.0000000 magnetization 

 Free energy of the ion-electron system (eV)
  ---------------------------------------------------
  alpha Z        PSCENC =        81.65567618
  Ewald energy   TEWEN  =     41890.25210248
  -Hartree energ DENC   =    -47722.88004849
  -exchange      EXHF   =         0.00000000
  -V(xc)+E(xc)   XCENC  =      -242.92955954
  PAW double counting   =      3467.42045192    -2871.19716117
  entropy T*S    EENTRO =        -0.52800169
  eigenvalues    EBANDS =      -236.74916516
  atomic energy  EATOM  =      6761.44252427
  Solvation  Ediel_sol  =         0.00000000
  ---------------------------------------------------
  free energy    TOTEN  =      1126.48681879 eV

  energy without entropy =     1127.01482048  energy(sigma->0) =     1126.75081964


--------------------------------------------------------------------------------------------------------




----------------------------------------- Iteration    1(   2)  ---------------------------------------


     EDDAV:  cpu time   27.9684: real time   28.0355
       DOS:  cpu time    0.0009: real time    0.0009
    --------------------------------------------
      LOOP:  cpu time   27.9705: real time   28.0437

 eigenvalue-minimisations  : 11000
 total energy-change (2. order) :-0.1124487E+04  (-0.1078955E+04)
 number of electron     159.0000000 magnetization 
 augmentation part      159.0000000 magnetization 

 Free energy of the ion-electron system (eV)
  ---------------------------------------------------
  alpha Z        PSCENC =        81.65567618
  Ewald energy   TEWEN  =     41890.25210248
  -Hartree energ DENC   =    -47722.88004849
  -exchange      EXHF   =         0.00000000
  -V(xc)+E(xc)   XCENC  =      -242.92955954
  PAW double counting   =      3467.42045192    -2871.19716117
  entropy T*S    EENTRO =        -0.17254103
  eigenvalues    EBANDS =     -1361.59129217
  atomic energy  EATOM  =      6761.44252427
  Solvation  Ediel_sol  =         0.00000000
  ---------------------------------------------------
  free energy    TOTEN  =         2.00015244 eV

  energy without entropy =        2.17269347  energy(sigma->0) =        2.08642296


--------------------------------------------------------------------------------------------------------




----------------------------------------- Iteration    1(   3)  ---------------------------------------


     EDDAV:  cpu time   27.8109: real time   27.8791
       DOS:  cpu time    0.0010: real time    0.0010
    --------------------------------------------
      LOOP:  cpu time   27.8140: real time   27.8865

 eigenvalue-minimisations  : 10880
 total energy-change (2. order) :-0.2013275E+03  (-0.1928510E+03)
 number of electron     159.0000000 magnetization 
 augmentation part      159.0000000 magnetization 

 Free energy of the ion-electron system (eV)
  ---------------------------------------------------
  alpha Z        PSCENC =        81.65567618
  Ewald energy   TEWEN  =     41890.25210248
  -Hartree energ DENC   =    -47722.88004849
  -exchange      EXHF   =         0.00000000
  -V(xc)+E(xc)   XCENC  =      -242.92955954
  PAW double counting   =      3467.42045192    -2871.19716117
  entropy T*S    EENTRO =        -0.26258187
  eigenvalues    EBANDS =     -1562.82871361
  atomic energy  EATOM  =      6761.44252427
  Solvation  Ediel_sol  =         0.00000000
  ---------------------------------------------------
  free energy    TOTEN  =      -199.32730983 eV

  energy without entropy =     -199.06472797  energy(sigma->0) =     -199.19601890


--------------------------------------------------------------------------------------------------------




----------------------------------------- Iteration    1(   4)  ---------------------------------------


     EDDAV:  cpu time   30.2267: real time   30.2992
       DOS:  cpu time    0.0010: real time    0.0010
    --------------------------------------------
      LOOP:  cpu time   30.2289: real time   30.3086

 eigenvalue-minimisations  : 12040
 total energy-change (2. order) :-0.9602370E+01  (-0.9300157E+01)
 number of electron     159.0000000 magnetization 
 augmentation part      159.0000000 magnetization 

 Free energy of the ion-electron system (eV)
  ---------------------------------------------------
  alpha Z        PSCENC =        81.65567618
  Ewald energy   TEWEN  =     41890.25210248
  -Hartree energ DENC   =    -47722.88004849
  -exchange      EXHF   =         0.00000000
  -V(xc)+E(xc)   XCENC  =      -242.92955954
  PAW double counting   =      3467.42045192    -2871.19716117
  entropy T*S    EENTRO =        -0.29919206
  eigenvalues    EBANDS =     -1572.39447296
  atomic energy  EATOM  =      6761.44252427
  Solvation  Ediel_sol  =         0.00000000
  ---------------------------------------------------
  free energy    TOTEN  =      -208.92967937 eV

  energy without entropy =     -208.63048732  energy(sigma->0) =     -208.78008334


--------------------------------------------------------------------------------------------------------




----------------------------------------- Iteration    1(   5)  ---------------------------------------


     EDDAV:  cpu time   28.7936: real time   28.8642
       DOS:  cpu time    0.0010: real time    0.0010
    CHARGE:  cpu time    0.4648: real time    0.4659
    MIXING:  cpu time    0.0019: real time    0.0019
    --------------------------------------------
      LOOP:  cpu time   29.2635: real time   29.3405

 eigenvalue-minimisations  : 11400
 total energy-change (2. order) :-0.3446571E+00  (-0.3436572E+00)
 number of electron     159.0000111 magnetization 
 augmentation part       -9.7915453 magnetization 

 Broyden mixing:
  rms(total) = 0.27459E+01    rms(broyden)= 0.27455E+01
  rms(prec ) = 0.29312E+01
  weight for this iteration     100.00

 Free energy of the ion-electron system (eV)
  ---------------------------------------------------
  alpha Z        PSCENC =        81.65567618
  Ewald energy   TEWEN  =     41890.25210248
  -Hartree energ DENC   =    -47722.88004849
  -exchange      EXHF   =         0.00000000
  -V(xc)+E(xc)   XCENC  =      -242.92955954
  PAW double counting   =      3467.42045192    -2871.19716117
  entropy T*S    EENTRO =        -0.29609559
  eigenvalues    EBANDS =     -1572.74222657
  atomic energy  EATOM  =      6761.44252427
  Solvation  Ediel_sol  =         0.00000000
  ---------------------------------------------------
  free energy    TOTEN  =      -209.27433652 eV

  energy without entropy =     -208.97824093  energy(sigma->0) =     -209.12628873


--------------------------------------------------------------------------------------------------------




----------------------------------------- Iteration    1(   6)  ---------------------------------------


    POTLOK:  cpu time    0.0334: real time    0.0337
    SETDIJ:  cpu time    0.0026: real time    0.0026
     EDDAV:  cpu time   31.3565: real time   31.4320
       DOS:  cpu time    0.0010: real time    0.0010
    CHARGE:  cpu time    0.4639: real time    0.4651
    MIXING:  cpu time    0.0016: real time    0.0017
    --------------------------------------------
      LOOP:  cpu time   31.8602: real time   31.9446

 eigenvalue-minimisations  : 12640
 total energy-change (2. order) :-0.2785279E+02  (-0.1077253E+02)
 number of electron     159.0000106 magnetization 
 augmentation part        7.0819052 magnetization 

 Broyden mixing:
  rms(total) = 0.59369E+01    rms(broyden)= 0.59363E+01
  rms(prec ) = 0.65197E+01
  weight for this iteration     100.00

 eigenvalues of (default mixing * dielectric matrix)
  average eigenvalue GAMMA=   0.2933
  0.2933

 Free energy of the ion-electron system (eV)
  ---------------------------------------------------
  alpha Z        PSCENC =        81.65567618
  Ewald energy   TEWEN  =     41890.25210248
  -Hartree energ DENC   =    -47701.25492056
  -exchange      EXHF   =         0.00000000
  -V(xc)+E(xc)   XCENC  =      -233.63328181
  PAW double counting   =      3676.48887725    -3082.58065958
  entropy T*S    EENTRO =        -0.26879875
  eigenvalues    EBANDS =     -1629.22864543
  atomic energy  EATOM  =      6761.44252427
  Solvation  Ediel_sol  =         0.00000000
  ---------------------------------------------------
  free energy    TOTEN  =      -237.12712595 eV

  energy without entropy =     -236.85832720  energy(sigma->0) =     -236.99272658


--------------------------------------------------------------------------------------------------------




----------------------------------------- Iteration    1(   7)  ---------------------------------------


    POTLOK:  cpu time    0.0323: real time    0.0324
    SETDIJ:  cpu time    0.0023: real time    0.0023
     EDDAV:  cpu time   32.3349: real time   32.4125
       DOS:  cpu time    0.0010: real time    0.0010
    CHARGE:  cpu time    0.4685: real time    0.4697
    MIXING:  cpu time    0.0012: real time    0.0012
    --------------------------------------------
      LOOP:  cpu time   32.8414: real time   32.9284

 eigenvalue-minimisations  : 13080
 total energy-change (2. order) : 0.4046399E+02  (-0.1775945E+02)
 number of electron     159.0000087 magnetization 
 augmentation part       -6.2352745 magnetization 

 Broyden mixing:
  rms(total) = 0.20352E+01    rms(broyden)= 0.20333E+01
  rms(prec ) = 0.22597E+01
  weight for this iteration     100.00

 eigenvalues of (default mixing * dielectric matrix)
  average eigenvalue GAMMA=   0.5410
  0.8709  0.2112

 Free energy of the ion-electron system (eV)
  ---------------------------------------------------
  alpha Z        PSCENC =        81.65567618
  Ewald energy   TEWEN  =     41890.25210248
  -Hartree energ DENC   =    -47738.75286882
  -exchange      EXHF   =         0.00000000
  -V(xc)+E(xc)   XCENC  =      -235.01374642
  PAW double counting   =      3764.27334018    -3178.31518947
  entropy T*S    EENTRO =        -0.33546553
  eigenvalues    EBANDS =     -1541.86951373
  atomic energy  EATOM  =      6761.44252427
  Solvation  Ediel_sol  =         0.00000000
  ---------------------------------------------------
  free energy    TOTEN  =      -196.66314086 eV

  energy without entropy =     -196.32767533  energy(sigma->0) =     -196.49540810


--------------------------------------------------------------------------------------------------------




----------------------------------------- Iteration    1(   8)  ---------------------------------------


    POTLOK:  cpu time    0.0322: real time    0.0325
    SETDIJ:  cpu time    0.0025: real time    0.0025
     EDDAV:  cpu time   29.9070: real time   29.9790
       DOS:  cpu time    0.0010: real time    0.0010
    CHARGE:  cpu time    0.4747: real time    0.4758
    MIXING:  cpu time    0.0011: real time    0.0011
    --------------------------------------------
      LOOP:  cpu time   30.4198: real time   30.5013

 eigenvalue-minimisations  : 11920
 total energy-change (2. order) : 0.6580473E+01  (-0.2031193E+01)
 number of electron     159.0000095 magnetization 
 augmentation part       -6.3947943 magnetization 

 Broyden mixing:
  rms(total) = 0.13715E+01    rms(broyden)= 0.13710E+01
  rms(prec ) = 0.14817E+01
  weight for this iteration     100.00

 eigenvalues of (default mixing * dielectric matrix)
  average eigenvalue GAMMA=   0.5277
  1.0501  0.2564  0.2766

 Free energy of the ion-electron system (eV)
  ---------------------------------------------------
  alpha Z        PSCENC =        81.65567618
  Ewald energy   TEWEN  =     41890.25210248
  -Hartree energ DENC   =    -47761.60640552
  -exchange      EXHF   =         0.00000000
  -V(xc)+E(xc)   XCENC  =      -235.04137968
  PAW double counting   =      3903.15214749    -3318.75282354
  entropy T*S    EENTRO =        -0.26879460
  eigenvalues    EBANDS =     -1510.91571492
  atomic energy  EATOM  =      6761.44252427
  Solvation  Ediel_sol  =         0.00000000
  ---------------------------------------------------
  free energy    TOTEN  =      -190.08266786 eV

  energy without entropy =     -189.81387326  energy(sigma->0) =     -189.94827056


--------------------------------------------------------------------------------------------------------




----------------------------------------- Iteration    1(   9)  ---------------------------------------


    POTLOK:  cpu time    0.0304: real time    0.0314
    SETDIJ:  cpu time    0.0024: real time    0.0024
     EDDAV:  cpu time   30.5272: real time   30.6001
       DOS:  cpu time    0.0010: real time    0.0010
    CHARGE:  cpu time    0.4838: real time    0.4850
    MIXING:  cpu time    0.0012: real time    0.0012
    --------------------------------------------
      LOOP:  cpu time   31.0482: real time   31.1307

 eigenvalue-minimisations  : 12200
 total energy-change (2. order) : 0.1764831E+01  (-0.3511757E+00)
 number of electron     159.0000093 magnetization 
 augmentation part       -5.7217601 magnetization 

 Broyden mixing:
  rms(total) = 0.94022E+00    rms(broyden)= 0.93981E+00
  rms(prec ) = 0.10126E+01
  weight for this iteration     100.00

 eigenvalues of (default mixing * dielectric matrix)
  average eigenvalue GAMMA=   0.6964
  1.7099  0.5773  0.2198  0.2788

 Free energy of the ion-electron system (eV)
  ---------------------------------------------------
  alpha Z        PSCENC =        81.65567618
  Ewald energy   TEWEN  =     41890.25210248
  -Hartree energ DENC   =    -47765.70259650
  -exchange      EXHF   =         0.00000000
  -V(xc)+E(xc)   XCENC  =      -234.35963234
  PAW double counting   =      3961.55907863    -3377.87935233
  entropy T*S    EENTRO =        -0.32931393
  eigenvalues    EBANDS =     -1504.95632361
  atomic energy  EATOM  =      6761.44252427
  Solvation  Ediel_sol  =         0.00000000
  ---------------------------------------------------
  free energy    TOTEN  =      -188.31783716 eV

  energy without entropy =     -187.98852323  energy(sigma->0) =     -188.15318019


--------------------------------------------------------------------------------------------------------




----------------------------------------- Iteration    1(  10)  ---------------------------------------


    POTLOK:  cpu time    0.0311: real time    0.0312
    SETDIJ:  cpu time    0.0025: real time    0.0025
     EDDAV:  cpu time   32.8500: real time   32.9292
       DOS:  cpu time    0.0011: real time    0.0011
    CHARGE:  cpu time    0.4943: real time    0.4955
    MIXING:  cpu time    0.0013: real time    0.0013
    --------------------------------------------
      LOOP:  cpu time   33.3813: real time   33.4703

 eigenvalue-minimisations  : 13320
 total energy-change (2. order) : 0.1190675E+01  (-0.1783942E+00)
 number of electron     159.0000092 magnetization 
 augmentation part       -4.3961396 magnetization 

 Broyden mixing:
  rms(total) = 0.33870E+00    rms(broyden)= 0.33837E+00
  rms(prec ) = 0.37044E+00
  weight for this iteration     100.00

 eigenvalues of (default mixing * dielectric matrix)
  average eigenvalue GAMMA=   0.6965
  1.8724  0.6168  0.5117  0.2240  0.2577

 Free energy of the ion-electron system (eV)
  ---------------------------------------------------
  alpha Z        PSCENC =        81.65567618
  Ewald energy   TEWEN  =     41890.25210248
  -Hartree energ DENC   =    -47777.97771778
  -exchange      EXHF   =         0.00000000
  -V(xc)+E(xc)   XCENC  =      -232.74424263
  PAW double counting   =      4089.61500334    -3507.57389730
  entropy T*S    EENTRO =        -0.34230633
  eigenvalues    EBANDS =     -1491.45430401
  atomic energy  EATOM  =      6761.44252427
  Solvation  Ediel_sol  =         0.00000000
  ---------------------------------------------------
  free energy    TOTEN  =      -187.12716179 eV

  energy without entropy =     -186.78485546  energy(sigma->0) =     -186.95600862


--------------------------------------------------------------------------------------------------------




----------------------------------------- Iteration    1(  11)  ---------------------------------------


    POTLOK:  cpu time    0.0306: real time    0.0309
    SETDIJ:  cpu time    0.0024: real time    0.0024
     EDDAV:  cpu time   31.1187: real time   31.1936
       DOS:  cpu time    0.0010: real time    0.0010
    CHARGE:  cpu time    0.4965: real time    0.4977
    MIXING:  cpu time    0.0013: real time    0.0013
    --------------------------------------------
      LOOP:  cpu time   31.6517: real time   31.7361

 eigenvalue-minimisations  : 12480
 total energy-change (2. order) : 0.1149155E+00  (-0.6543259E-01)
 number of electron     159.0000092 magnetization 
 augmentation part       -4.2810532 magnetization 

 Broyden mixing:
  rms(total) = 0.23561E+00    rms(broyden)= 0.23526E+00
  rms(prec ) = 0.25881E+00
  weight for this iteration     100.00

 eigenvalues of (default mixing * dielectric matrix)
  average eigenvalue GAMMA=   0.8683
  1.9169  1.9169  0.6181  0.2865  0.2216  0.2496

 Free energy of the ion-electron system (eV)
  ---------------------------------------------------
  alpha Z        PSCENC =        81.65567618
  Ewald energy   TEWEN  =     41890.25210248
  -Hartree energ DENC   =    -47783.98623946
  -exchange      EXHF   =         0.00000000
  -V(xc)+E(xc)   XCENC  =      -232.39477381
  PAW double counting   =      4126.92387667    -3545.18726923
  entropy T*S    EENTRO =        -0.34868843
  eigenvalues    EBANDS =     -1485.36945493
  atomic energy  EATOM  =      6761.44252427
  Solvation  Ediel_sol  =         0.00000000
  ---------------------------------------------------
  free energy    TOTEN  =      -187.01224626 eV

  energy without entropy =     -186.66355783  energy(sigma->0) =     -186.83790204


--------------------------------------------------------------------------------------------------------




----------------------------------------- Iteration    1(  12)  ---------------------------------------


    POTLOK:  cpu time    0.0307: real time    0.0310
    SETDIJ:  cpu time    0.0023: real time    0.0023
     EDDAV:  cpu time   31.9997: real time   32.0768
       DOS:  cpu time    0.0002: real time    0.0011
    CHARGE:  cpu time    0.5005: real time    0.5017
    MIXING:  cpu time    0.0014: real time    0.0014
    --------------------------------------------
      LOOP:  cpu time   32.5370: real time   32.6234

 eigenvalue-minimisations  : 12920
 total energy-change (2. order) :-0.1815141E-01  (-0.4602863E-01)
 number of electron     159.0000089 magnetization 
 augmentation part       -4.4722063 magnetization 

 Broyden mixing:
  rms(total) = 0.35177E+00    rms(broyden)= 0.35166E+00
  rms(prec ) = 0.38908E+00
  weight for this iteration     100.00

 eigenvalues of (default mixing * dielectric matrix)
  average eigenvalue GAMMA=   0.7960
  1.9968  1.9968  0.6200  0.2753  0.2753  0.2172  0.1906

 Free energy of the ion-electron system (eV)
  ---------------------------------------------------
  alpha Z        PSCENC =        81.65567618
  Ewald energy   TEWEN  =     41890.25210248
  -Hartree energ DENC   =    -47796.79570448
  -exchange      EXHF   =         0.00000000
  -V(xc)+E(xc)   XCENC  =      -232.07256150
  PAW double counting   =      4179.74863934    -3597.97776692
  entropy T*S    EENTRO =        -0.33358870
  eigenvalues    EBANDS =     -1472.94971833
  atomic energy  EATOM  =      6761.44252427
  Solvation  Ediel_sol  =         0.00000000
  ---------------------------------------------------
  free energy    TOTEN  =      -187.03039767 eV

  energy without entropy =     -186.69680897  energy(sigma->0) =     -186.86360332


--------------------------------------------------------------------------------------------------------




----------------------------------------- Iteration    1(  13)  ---------------------------------------


    POTLOK:  cpu time    0.0315: real time    0.0316
    SETDIJ:  cpu time    0.0025: real time    0.0025
     EDDAV:  cpu time   32.7216: real time   32.7997
       DOS:  cpu time    0.0011: real time    0.0011
    CHARGE:  cpu time    0.4973: real time    0.4985
    MIXING:  cpu time    0.0014: real time    0.0014
    --------------------------------------------
      LOOP:  cpu time   33.2565: real time   33.3450

 eigenvalue-minimisations  : 13240
 total energy-change (2. order) : 0.9659356E-01  (-0.2949312E-01)
 number of electron     159.0000089 magnetization 
 augmentation part       -4.4217020 magnetization 

 Broyden mixing:
  rms(total) = 0.19251E+00    rms(broyden)= 0.19234E+00
  rms(prec ) = 0.21331E+00
  weight for this iteration     100.00

 eigenvalues of (default mixing * dielectric matrix)
  average eigenvalue GAMMA=   0.7775
  2.2763  1.7160  0.7317  0.5910  0.2987  0.2242  0.2419  0.1402

 Free energy of the ion-electron system (eV)
  ---------------------------------------------------
  alpha Z        PSCENC =        81.65567618
  Ewald energy   TEWEN  =     41890.25210248
  -Hartree energ DENC   =    -47799.25223200
  -exchange      EXHF   =         0.00000000
  -V(xc)+E(xc)   XCENC  =      -231.99115230
  PAW double counting   =      4187.49416446    -3605.71230197
  entropy T*S    EENTRO =        -0.33608660
  eigenvalues    EBANDS =     -1470.48649862
  atomic energy  EATOM  =      6761.44252427
  Solvation  Ediel_sol  =         0.00000000
  ---------------------------------------------------
  free energy    TOTEN  =      -186.93380410 eV

  energy without entropy =     -186.59771751  energy(sigma->0) =     -186.76576081


--------------------------------------------------------------------------------------------------------




----------------------------------------- Iteration    1(  14)  ---------------------------------------


    POTLOK:  cpu time    0.0312: real time    0.0313
    SETDIJ:  cpu time    0.0024: real time    0.0024
     EDDAV:  cpu time   31.6519: real time   31.7282
       DOS:  cpu time    0.0010: real time    0.0010
    CHARGE:  cpu time    0.5127: real time    0.5140
    MIXING:  cpu time    0.0015: real time    0.0015
    --------------------------------------------
      LOOP:  cpu time   32.2020: real time   32.2871

 eigenvalue-minimisations  : 12760
 total energy-change (2. order) : 0.3004444E-01  (-0.1080837E-01)
 number of electron     159.0000089 magnetization 
 augmentation part       -4.1741861 magnetization 

 Broyden mixing:
  rms(total) = 0.10163E+00    rms(broyden)= 0.10150E+00
  rms(prec ) = 0.11410E+00
  weight for this iteration     100.00

 eigenvalues of (default mixing * dielectric matrix)
  average eigenvalue GAMMA=   0.7361
  2.2901  1.6479  0.9500  0.6020  0.2987  0.2547  0.2229  0.2229  0.1355

 Free energy of the ion-electron system (eV)
  ---------------------------------------------------
  alpha Z        PSCENC =        81.65567618
  Ewald energy   TEWEN  =     41890.25210248
  -Hartree energ DENC   =    -47802.56000188
  -exchange      EXHF   =         0.00000000
  -V(xc)+E(xc)   XCENC  =      -231.87536218
  PAW double counting   =      4192.35944751    -3610.55256213
  entropy T*S    EENTRO =        -0.34105073
  eigenvalues    EBANDS =     -1467.28453318
  atomic energy  EATOM  =      6761.44252427
  Solvation  Ediel_sol  =         0.00000000
  ---------------------------------------------------
  free energy    TOTEN  =      -186.90375966 eV

  energy without entropy =     -186.56270893  energy(sigma->0) =     -186.73323430


--------------------------------------------------------------------------------------------------------




----------------------------------------- Iteration    1(  15)  ---------------------------------------


    POTLOK:  cpu time    0.0315: real time    0.0315
    SETDIJ:  cpu time    0.0025: real time    0.0025
     EDDAV:  cpu time   31.1155: real time   31.1899
       DOS:  cpu time    0.0010: real time    0.0010
    CHARGE:  cpu time    0.4970: real time    0.4981
    MIXING:  cpu time    0.0017: real time    0.0017
    --------------------------------------------
      LOOP:  cpu time   31.6503: real time   31.7343

 eigenvalue-minimisations  : 12480
 total energy-change (2. order) : 0.5534530E-02  (-0.4473439E-02)
 number of electron     159.0000090 magnetization 
 augmentation part       -4.1166431 magnetization 

 Broyden mixing:
  rms(total) = 0.10018E+00    rms(broyden)= 0.10011E+00
  rms(prec ) = 0.11138E+00
  weight for this iteration     100.00

 eigenvalues of (default mixing * dielectric matrix)
  average eigenvalue GAMMA=   0.6991
  2.2872  1.6354  1.0888  0.5999  0.3473  0.3022  0.2264  0.2361  0.1429  0.1250

 Free energy of the ion-electron system (eV)
  ---------------------------------------------------
  alpha Z        PSCENC =        81.65567618
  Ewald energy   TEWEN  =     41890.25210248
  -Hartree energ DENC   =    -47804.65743957
  -exchange      EXHF   =         0.00000000
  -V(xc)+E(xc)   XCENC  =      -231.83943644
  PAW double counting   =      4192.82400780    -3610.99116320
  entropy T*S    EENTRO =        -0.34302580
  eigenvalues    EBANDS =     -1465.24147085
  atomic energy  EATOM  =      6761.44252427
  Solvation  Ediel_sol  =         0.00000000
  ---------------------------------------------------
  free energy    TOTEN  =      -186.89822513 eV

  energy without entropy =     -186.55519933  energy(sigma->0) =     -186.72671223


--------------------------------------------------------------------------------------------------------




----------------------------------------- Iteration    1(  16)  ---------------------------------------


    POTLOK:  cpu time    0.0307: real time    0.0311
    SETDIJ:  cpu time    0.0025: real time    0.0025
     EDDAV:  cpu time   31.8618: real time   31.9386
       DOS:  cpu time    0.0002: real time    0.0011
    CHARGE:  cpu time    0.4991: real time    0.5003
    MIXING:  cpu time    0.0016: real time    0.0016
    --------------------------------------------
      LOOP:  cpu time   32.3980: real time   32.4843

 eigenvalue-minimisations  : 12840
 total energy-change (2. order) : 0.6399612E-02  (-0.1666431E-02)
 number of electron     159.0000090 magnetization 
 augmentation part       -4.1278497 magnetization 

 Broyden mixing:
  rms(total) = 0.48950E-01    rms(broyden)= 0.48910E-01
  rms(prec ) = 0.55146E-01
  weight for this iteration     100.00

 eigenvalues of (default mixing * dielectric matrix)
  average eigenvalue GAMMA=   0.7658
  2.3672  1.9363  1.4974  0.6934  0.6291  0.3082  0.2688  0.2242  0.2412  0.1386
  0.1187

 Free energy of the ion-electron system (eV)
  ---------------------------------------------------
  alpha Z        PSCENC =        81.65567618
  Ewald energy   TEWEN  =     41890.25210248
  -Hartree energ DENC   =    -47806.18272891
  -exchange      EXHF   =         0.00000000
  -V(xc)+E(xc)   XCENC  =      -231.82016175
  PAW double counting   =      4193.08709452    -3611.23724463
  entropy T*S    EENTRO =        -0.34337466
  eigenvalues    EBANDS =     -1463.74571302
  atomic energy  EATOM  =      6761.44252427
  Solvation  Ediel_sol  =         0.00000000
  ---------------------------------------------------
  free energy    TOTEN  =      -186.89182552 eV

  energy without entropy =     -186.54845086  energy(sigma->0) =     -186.72013819


--------------------------------------------------------------------------------------------------------




----------------------------------------- Iteration    1(  17)  ---------------------------------------


    POTLOK:  cpu time    0.0310: real time    0.0324
    SETDIJ:  cpu time    0.0025: real time    0.0025
     EDDAV:  cpu time   31.3194: real time   31.3942
       DOS:  cpu time    0.0002: real time    0.0011
    CHARGE:  cpu time    0.4972: real time    0.4984
    MIXING:  cpu time    0.0018: real time    0.0018
    --------------------------------------------
      LOOP:  cpu time   31.8552: real time   31.9393

 eigenvalue-minimisations  : 12640
 total energy-change (2. order) : 0.2708454E-02  (-0.7452691E-03)
 number of electron     159.0000090 magnetization 
 augmentation part       -4.1958682 magnetization 

 Broyden mixing:
  rms(total) = 0.17772E-01    rms(broyden)= 0.17707E-01
  rms(prec ) = 0.21643E-01
  weight for this iteration     100.00

 eigenvalues of (default mixing * dielectric matrix)
  average eigenvalue GAMMA=   0.7803
  2.3377  2.3377  1.4391  0.8600  0.6043  0.4938  0.3085  0.2237  0.2445  0.2573
  0.1385  0.1185

 Free energy of the ion-electron system (eV)
  ---------------------------------------------------
  alpha Z        PSCENC =        81.65567618
  Ewald energy   TEWEN  =     41890.25210248
  -Hartree energ DENC   =    -47811.84935484
  -exchange      EXHF   =         0.00000000
  -V(xc)+E(xc)   XCENC  =      -231.74693267
  PAW double counting   =      4194.70542536    -3612.79504015
  entropy T*S    EENTRO =        -0.34130775
  eigenvalues    EBANDS =     -1458.21220994
  atomic energy  EATOM  =      6761.44252427
  Solvation  Ediel_sol  =         0.00000000
  ---------------------------------------------------
  free energy    TOTEN  =      -186.88911707 eV

  energy without entropy =     -186.54780931  energy(sigma->0) =     -186.71846319


--------------------------------------------------------------------------------------------------------




----------------------------------------- Iteration    1(  18)  ---------------------------------------


    POTLOK:  cpu time    0.0320: real time    0.0321
    SETDIJ:  cpu time    0.0023: real time    0.0023
     EDDAV:  cpu time   28.9210: real time   28.9907
       DOS:  cpu time    0.0011: real time    0.0011
    CHARGE:  cpu time    0.4994: real time    0.5006
    MIXING:  cpu time    0.0019: real time    0.0019
    --------------------------------------------
      LOOP:  cpu time   29.4588: real time   29.5381

 eigenvalue-minimisations  : 11480
 total energy-change (2. order) : 0.5308024E-03  (-0.1884480E-03)
 number of electron     159.0000090 magnetization 
 augmentation part       -4.2061810 magnetization 

 Broyden mixing:
  rms(total) = 0.16456E-01    rms(broyden)= 0.16445E-01
  rms(prec ) = 0.19284E-01
  weight for this iteration     100.00

 eigenvalues of (default mixing * dielectric matrix)
  average eigenvalue GAMMA=   0.7870
  2.3689  2.3689  1.2621  1.2621  0.6651  0.6276  0.3878  0.3062  0.2239  0.2585
  0.2433  0.1385  0.1184

 Free energy of the ion-electron system (eV)
  ---------------------------------------------------
  alpha Z        PSCENC =        81.65567618
  Ewald energy   TEWEN  =     41890.25210248
  -Hartree energ DENC   =    -47815.31707882
  -exchange      EXHF   =         0.00000000
  -V(xc)+E(xc)   XCENC  =      -231.71255808
  PAW double counting   =      4194.95710567    -3613.01389018
  entropy T*S    EENTRO =        -0.34119933
  eigenvalues    EBANDS =     -1454.81126844
  atomic energy  EATOM  =      6761.44252427
  Solvation  Ediel_sol  =         0.00000000
  ---------------------------------------------------
  free energy    TOTEN  =      -186.88858626 eV

  energy without entropy =     -186.54738693  energy(sigma->0) =     -186.71798660


--------------------------------------------------------------------------------------------------------




----------------------------------------- Iteration    1(  19)  ---------------------------------------


    POTLOK:  cpu time    0.0307: real time    0.0308
    SETDIJ:  cpu time    0.0023: real time    0.0023
     EDDAV:  cpu time   27.2949: real time   27.3607
       DOS:  cpu time    0.0010: real time    0.0010
    CHARGE:  cpu time    0.4974: real time    0.4986
    MIXING:  cpu time    0.0018: real time    0.0018
    --------------------------------------------
      LOOP:  cpu time   27.8292: real time   27.9046

 eigenvalue-minimisations  : 10720
 total energy-change (2. order) : 0.2106622E-03  (-0.7599479E-04)
 number of electron     159.0000090 magnetization 
 augmentation part       -4.1830179 magnetization 

 Broyden mixing:
  rms(total) = 0.46110E-02    rms(broyden)= 0.45965E-02
  rms(prec ) = 0.75638E-02
  weight for this iteration     100.00

 eigenvalues of (default mixing * dielectric matrix)
  average eigenvalue GAMMA=   0.8827
  2.6848  2.6848  1.5805  1.4866  0.9986  0.6281  0.6281  0.3770  0.3069  0.2239
  0.2587  0.2433  0.1385  0.1184

 Free energy of the ion-electron system (eV)
  ---------------------------------------------------
  alpha Z        PSCENC =        81.65567618
  Ewald energy   TEWEN  =     41890.25210248
  -Hartree energ DENC   =    -47817.78066761
  -exchange      EXHF   =         0.00000000
  -V(xc)+E(xc)   XCENC  =      -231.69206125
  PAW double counting   =      4194.41725387    -3612.45985008
  entropy T*S    EENTRO =        -0.34164174
  eigenvalues    EBANDS =     -1452.38171172
  atomic energy  EATOM  =      6761.44252427
  Solvation  Ediel_sol  =         0.00000000
  ---------------------------------------------------
  free energy    TOTEN  =      -186.88837560 eV

  energy without entropy =     -186.54673386  energy(sigma->0) =     -186.71755473


--------------------------------------------------------------------------------------------------------




----------------------------------------- Iteration    1(  20)  ---------------------------------------


    POTLOK:  cpu time    0.0315: real time    0.0316
    SETDIJ:  cpu time    0.0025: real time    0.0025
     EDDAV:  cpu time   23.9303: real time   23.9875
       DOS:  cpu time    0.0010: real time    0.0010
    CHARGE:  cpu time    0.4988: real time    0.5000
    MIXING:  cpu time    0.0020: real time    0.0020
    --------------------------------------------
      LOOP:  cpu time   24.4670: real time   24.5324

 eigenvalue-minimisations  :  9120
 total energy-change (2. order) :-0.8855045E-03  (-0.8276838E-04)
 number of electron     159.0000090 magnetization 
 augmentation part       -4.1876137 magnetization 

 Broyden mixing:
  rms(total) = 0.42738E-02    rms(broyden)= 0.42728E-02
  rms(prec ) = 0.57045E-02
  weight for this iteration     100.00

 eigenvalues of (default mixing * dielectric matrix)
  average eigenvalue GAMMA=   0.9273
  3.1650  2.5461  1.9029  1.5133  0.9259  0.9259  0.6320  0.6320  0.3771  0.3069
  0.2239  0.2587  0.2433  0.1385  0.1184

 Free energy of the ion-electron system (eV)
  ---------------------------------------------------
  alpha Z        PSCENC =        81.65567618
  Ewald energy   TEWEN  =     41890.25210248
  -Hartree energ DENC   =    -47824.34165605
  -exchange      EXHF   =         0.00000000
  -V(xc)+E(xc)   XCENC  =      -231.63643804
  PAW double counting   =      4193.10401527    -3611.12522614
  entropy T*S    EENTRO =        -0.34132605
  eigenvalues    EBANDS =     -1445.89893301
  atomic energy  EATOM  =      6761.44252427
  Solvation  Ediel_sol  =         0.00000000
  ---------------------------------------------------
  free energy    TOTEN  =      -186.88926111 eV

  energy without entropy =     -186.54793506  energy(sigma->0) =     -186.71859808


--------------------------------------------------------------------------------------------------------




----------------------------------------- Iteration    1(  21)  ---------------------------------------


    POTLOK:  cpu time    0.0316: real time    0.0319
    SETDIJ:  cpu time    0.0023: real time    0.0023
     EDDAV:  cpu time   22.2076: real time   22.2611
       DOS:  cpu time    0.0010: real time    0.0010
    CHARGE:  cpu time    0.4973: real time    0.4986
    MIXING:  cpu time    0.0019: real time    0.0019
    --------------------------------------------
      LOOP:  cpu time   22.7431: real time   22.8054

 eigenvalue-minimisations  :  8240
 total energy-change (2. order) :-0.9423164E-03  (-0.2363513E-04)
 number of electron     159.0000090 magnetization 
 augmentation part       -4.1802286 magnetization 

 Broyden mixing:
  rms(total) = 0.37426E-02    rms(broyden)= 0.37385E-02
  rms(prec ) = 0.47022E-02
  weight for this iteration     100.00

 eigenvalues of (default mixing * dielectric matrix)
  average eigenvalue GAMMA=   0.9553
  3.6215  2.4269  2.1713  1.5945  1.0531  1.0531  0.6357  0.6357  0.4269  0.3772
  0.3069  0.2239  0.2587  0.2433  0.1385  0.1184

 Free energy of the ion-electron system (eV)
  ---------------------------------------------------
  alpha Z        PSCENC =        81.65567618
  Ewald energy   TEWEN  =     41890.25210248
  -Hartree energ DENC   =    -47827.32538955
  -exchange      EXHF   =         0.00000000
  -V(xc)+E(xc)   XCENC  =      -231.61634974
  PAW double counting   =      4192.71168192    -3610.73300010
  entropy T*S    EENTRO =        -0.34145547
  eigenvalues    EBANDS =     -1442.93599340
  atomic energy  EATOM  =      6761.44252427
  Solvation  Ediel_sol  =         0.00000000
  ---------------------------------------------------
  free energy    TOTEN  =      -186.89020342 eV

  energy without entropy =     -186.54874795  energy(sigma->0) =     -186.71947569


--------------------------------------------------------------------------------------------------------




----------------------------------------- Iteration    1(  22)  ---------------------------------------


    POTLOK:  cpu time    0.0303: real time    0.0306
    SETDIJ:  cpu time    0.0023: real time    0.0023
     EDDAV:  cpu time   18.3334: real time   18.3771
       DOS:  cpu time    0.0011: real time    0.0011
    CHARGE:  cpu time    0.4984: real time    0.4996
    MIXING:  cpu time    0.0020: real time    0.0020
    --------------------------------------------
      LOOP:  cpu time   18.8687: real time   18.9218

 eigenvalue-minimisations  :  6360
 total energy-change (2. order) :-0.7490912E-03  (-0.9472659E-05)
 number of electron     159.0000090 magnetization 
 augmentation part       -4.1798030 magnetization 

 Broyden mixing:
  rms(total) = 0.32895E-02    rms(broyden)= 0.32881E-02
  rms(prec ) = 0.39001E-02
  weight for this iteration     100.00

 eigenvalues of (default mixing * dielectric matrix)
  average eigenvalue GAMMA=   1.0810
  4.8474  2.5240  2.5240  1.7218  1.4826  0.9892  0.9892  0.6267  0.6267  0.2239
  0.2433  0.2587  0.3069  0.3815  0.3738  0.1385  0.1184

 Free energy of the ion-electron system (eV)
  ---------------------------------------------------
  alpha Z        PSCENC =        81.65567618
  Ewald energy   TEWEN  =     41890.25210248
  -Hartree energ DENC   =    -47829.27658242
[...]
    104      -0.6271      0.00000
    105      -0.4966      0.00000
    106      -0.3938      0.00000
    107      -0.3272      0.00000
    108      -0.0624      0.00000
    109      -0.0212      0.00000
    110       0.2412      0.00000
    111       0.4578      0.00000
    112       0.5776      0.00000
    113       0.8811      0.00000
    114       0.9427      0.00000
    115       1.0492      0.00000
    116       1.1983      0.00000
    117       1.5221      0.00000
    118       2.1473      0.00000
    119       2.3076      0.00000
    120       2.4143      0.00000

 k-point    34 :       0.5000    0.5000    0.0000
  band No.  band energies     occupation 
      1     -17.4743      2.00000
      2     -17.3773      2.00000
      3     -16.7952      2.00000
      4     -16.6806      2.00000
      5     -16.6478      2.00000
      6     -16.4924      2.00000
      7     -16.3215      2.00000
      8     -16.1863      2.00000
      9     -16.1502      2.00000
     10     -16.0547      2.00000
     11     -15.8260      2.00000
     12     -15.8225      2.00000
     13     -15.7782      2.00000
     14     -15.6801      2.00000
     15     -15.5796      2.00000
     16     -15.4626      2.00000
     17     -15.3513      2.00000
     18     -15.3246      2.00000
     19      -9.8177      2.00000
     20      -9.3749      2.00000
     21      -9.3149      2.00000
     22      -8.9667      2.00000
     23      -8.9342      2.00000
     24      -8.8147      2.00000
     25      -8.6690      2.00000
     26      -8.5919      2.00000
     27      -8.4310      2.00000
     28      -8.2978      2.00000
     29      -8.2320      2.00000
     30      -8.1504      2.00000
     31      -8.1017      2.00000
     32      -8.0196      2.00000
     33      -7.9166      2.00000
     34      -7.8678      2.00000
     35      -7.8520      2.00000
     36      -7.7346      2.00000
     37      -7.6144      2.00000
     38      -7.5148      2.00000
     39      -7.3974      2.00000
     40      -7.3454      2.00000
     41      -7.1178      2.00000
     42      -7.0397      2.00000
     43      -6.9861      2.00000
     44      -6.8648      2.00000
     45      -6.8170      2.00000
     46      -6.7054      2.00000
     47      -6.6184      2.00000
     48      -6.6020      2.00000
     49      -6.5394      2.00000
     50      -6.5119      2.00000
     51      -6.4328      2.00000
     52      -6.3885      2.00000
     53      -6.2833      2.00000
     54      -6.2589      2.00000
     55      -6.1791      2.00000
     56      -6.0396      2.00000
     57      -5.9994      2.00000
     58      -5.8417      2.00000
     59      -5.8225      2.00000
     60      -5.8001      2.00000
     61      -5.6329      2.00000
     62      -5.5942      2.00000
     63      -5.4868      2.00000
     64      -5.4132      2.00000
     65      -5.2145      2.00000
     66      -5.1186      2.00000
     67      -4.9963      2.00000
     68      -4.9059      2.00000
     69      -4.8298      2.00000
     70      -4.6039      2.00000
     71      -4.5610      2.00000
     72      -4.5281      2.00000
     73      -4.3187      2.00000
     74      -4.2877      2.00000
     75      -4.2121      2.00000
     76      -4.0754      2.00000
     77      -3.7979      1.99995
     78      -3.7442      1.99978
     79      -3.6297      1.99605
     80      -3.1127      0.43911
     81      -3.0037      0.12252
     82      -2.9015      0.02339
     83      -2.6962      0.00020
     84      -2.6249      0.00002
     85      -2.5311      0.00000
     86      -2.3484      0.00000
     87      -2.1925      0.00000
     88      -2.1092      0.00000
     89      -2.0104      0.00000
     90      -1.9178      0.00000
     91      -1.7154      0.00000
     92      -1.5000      0.00000
     93      -1.3321      0.00000
     94      -1.3006      0.00000
     95      -1.2401      0.00000
     96      -1.1808      0.00000
     97      -1.0828      0.00000
     98      -0.9826      0.00000
     99      -0.8963      0.00000
    100      -0.8364      0.00000
    101      -0.7959      0.00000
    102      -0.7432      0.00000
    103      -0.6286      0.00000
    104      -0.6049      0.00000
    105      -0.5780      0.00000
    106      -0.4241      0.00000
    107      -0.3344      0.00000
    108      -0.0925      0.00000
    109      -0.0606      0.00000
    110       0.2645      0.00000
    111       0.4424      0.00000
    112       0.5892      0.00000
    113       0.9287      0.00000
    114       0.9515      0.00000
    115       1.0328      0.00000
    116       1.2227      0.00000
    117       1.5775      0.00000
    118       2.2303      0.00000
    119       2.2699      0.00000
    120       2.3943      0.00000


--------------------------------------------------------------------------------------------------------


 soft charge-density along one line, spin component           1
         0         1         2         3         4         5         6         7         8         9
 total charge-density along one line
 
 pseudopotential strength for first ion, spin component:           1
 -7.225  -0.011   0.030  -0.014  -0.001   0.676   0.002  -0.009
 -0.011  -7.136  -0.007  -0.022   0.014   0.002   0.648   0.002
  0.030  -0.007  -7.093  -0.003   0.001  -0.009   0.002   0.637
 -0.014  -0.022  -0.003  -7.136   0.005   0.004   0.007   0.001
 -0.001   0.014   0.001   0.005  -7.225   0.000  -0.004  -0.000
  0.676   0.002  -0.009   0.004   0.000   0.332  -0.000   0.003
  0.002   0.648   0.002   0.007  -0.004  -0.000   0.341  -0.001
 -0.009   0.002   0.637   0.001  -0.000   0.003  -0.001   0.343
  0.004   0.007   0.001   0.648  -0.001  -0.001  -0.002  -0.000
  0.000  -0.004  -0.000  -0.001   0.675  -0.000   0.001   0.000
  0.009   0.005  -0.020   0.001   0.001  -0.002  -0.002   0.005
  0.003   0.001  -0.007   0.000   0.000  -0.001  -0.000   0.002
  0.004   0.006   0.001  -0.003   0.005   0.000  -0.001   0.001
 -0.003  -0.009   0.004   0.006  -0.002   0.000   0.000  -0.001
 -0.005  -0.003  -0.001   0.002   0.003  -0.001   0.000  -0.000
  0.003   0.003  -0.000  -0.003   0.003  -0.000  -0.001   0.000
 -0.003  -0.007   0.001   0.004  -0.002   0.001   0.001  -0.000
 -0.003  -0.003  -0.000  -0.000   0.002   0.000   0.001  -0.000
 total augmentation occupancy for first ion, spin component:           1
  0.807   0.147   0.058  -0.012  -0.032   0.426   0.222   0.000  -0.013  -0.012  -0.046   0.001  -0.005  -0.069   0.005  -0.002
  0.147   1.076  -0.047   0.011   0.019   0.220   0.635  -0.030   0.005   0.011  -0.020  -0.005   0.061  -0.081  -0.067   0.002
  0.058  -0.047   0.841   0.004  -0.002  -0.002  -0.030   0.338   0.020  -0.004   0.164   0.004  -0.074   0.004   0.037  -0.002
 -0.012   0.011   0.004   1.077  -0.138  -0.013   0.006   0.020   0.644  -0.200   0.014   0.003  -0.075   0.043  -0.016  -0.002
 -0.032   0.019  -0.002  -0.138   0.829  -0.012   0.011  -0.004  -0.202   0.434  -0.026   0.002  -0.016  -0.038  -0.006  -0.003
  0.426   0.220  -0.002  -0.013  -0.012   0.373   0.220  -0.005  -0.011   0.007   0.012   0.001   0.015  -0.073  -0.028  -0.000
  0.222   0.635  -0.030   0.006   0.011   0.220   0.572  -0.021  -0.005   0.011  -0.041  -0.006   0.060  -0.091  -0.069   0.004
  0.000  -0.030   0.338   0.020  -0.004  -0.005  -0.021   0.269   0.014  -0.006   0.042   0.009  -0.018   0.001   0.011  -0.004
 -0.013   0.005   0.020   0.644  -0.202  -0.011  -0.005   0.014   0.567  -0.203   0.033   0.004  -0.068   0.051  -0.022  -0.005
 -0.012   0.011  -0.004  -0.200   0.434   0.007   0.011  -0.006  -0.203   0.360   0.009   0.001   0.029  -0.044   0.016  -0.000
 -0.046  -0.020   0.164   0.014  -0.026   0.012  -0.041   0.042   0.033   0.009   1.385   0.136  -0.046   0.026   0.025  -0.002
  0.001  -0.005   0.004   0.003   0.002   0.001  -0.006   0.009   0.004   0.001   0.136   0.026  -0.009   0.002   0.005  -0.001
 -0.005   0.061  -0.074  -0.075  -0.016   0.015   0.060  -0.018  -0.068   0.029  -0.046  -0.009   0.352  -0.012  -0.009   0.026
 -0.069  -0.081   0.004   0.043  -0.038  -0.073  -0.091   0.001   0.051  -0.044   0.026   0.002  -0.012   0.418   0.009  -0.000
  0.005  -0.067   0.037  -0.016  -0.006  -0.028  -0.069   0.011  -0.022   0.016   0.025   0.005  -0.009   0.009   0.346   0.000
 -0.002   0.002  -0.002  -0.002  -0.003  -0.000   0.004  -0.004  -0.005  -0.000  -0.002  -0.001   0.026  -0.000   0.000   0.003
 -0.003   0.001  -0.000  -0.001  -0.002  -0.005  -0.005  -0.000   0.003  -0.003   0.001   0.000   0.000   0.028   0.000  -0.000
  0.003  -0.002   0.002  -0.001  -0.001   0.000  -0.005   0.002  -0.002  -0.000   0.001   0.000   0.000   0.000   0.027   0.000


------------------------ aborting loop because EDIFF is reached ----------------------------------------


    CHARGE:  cpu time    0.4641: real time    0.4652
    FORLOC:  cpu time    0.0063: real time    0.0063
    FORNL :  cpu time    5.3921: real time    5.4051
    STRESS:  cpu time   32.5238: real time   32.6015
    FORCOR:  cpu time    0.0331: real time    0.0335
    FORHAR:  cpu time    0.0123: real time    0.0124
    MIXING:  cpu time    0.0010: real time    0.0010
    OFIELD:  cpu time    0.0000: real time    0.0000

  FORCE on cell =-STRESS in cart. coord.  units (eV):
  Direction    XX          YY          ZZ          XY          YZ          ZX
  --------------------------------------------------------------------------------------
  Alpha Z    89.12919    89.12919    89.12919
  Ewald   49189.10607 49142.43402-54099.34583    37.60641   -18.63770     8.57147
  Hartree 49894.39104 49865.08305-49521.39829    23.54158   -11.42195     6.29117
  E(xc)    -609.60580  -610.81926  -617.65364     1.01147     0.84844    -0.39342
  Local  ************************101058.47676   -52.53181    38.69371   -19.95156
  n-local  1214.01473  1215.80128  1248.39705    -1.32294     2.37862    -1.98654
  augment  -212.96209  -213.08522  -214.88167    -0.66156    -0.84340     0.09676
  Kinetic  2005.96780  2016.50833  2055.15766    -7.65977   -10.88955     7.28083
  Fock        0.00000     0.00000     0.00000     0.00000     0.00000     0.00000
  -------------------------------------------------------------------------------------
  Total      -0.08026    -0.02166    -2.11877    -0.01661     0.12816    -0.09130
  in kB      -0.05353    -0.01445    -1.41328    -0.01108     0.08549    -0.06090
  external pressure =       -0.49 kB  Pullay stress =        0.00 kB


 VOLUME and BASIS-vectors are now :
 -----------------------------------------------------------------------------
  energy-cutoff  :      280.00
  volume of cell :     2401.97
      direct lattice vectors                 reciprocal lattice vectors
     8.308517283  4.803348033  0.000000000     0.060272526  0.103932647  0.000000000
    -8.321431347  4.825756870  0.000000000    -0.059992645  0.103771354  0.000000000
     0.000000000  0.000000000 30.000000000     0.000000000  0.000000000  0.033333333

  length of vectors
     9.597062663  9.619467191 30.000000000     0.120144798  0.119864971  0.033333333


 FORCES acting on ions
    electron-ion (+dipol)            ewald-force                    non-local-force                 convergence-correction
 -----------------------------------------------------------------------------------------------
   0.112E+02 -.197E+02 0.205E+02   -.119E+02 0.209E+02 -.203E+02   0.738E+00 -.125E+01 -.222E+00   -.335E-01 0.283E-01 -.381E-01
   -.114E+02 0.238E+02 -.106E+02   0.118E+02 -.254E+02 0.104E+02   -.449E+00 0.152E+01 0.195E+00   0.545E-01 -.165E-01 0.132E-01
   -.109E+02 0.190E+02 -.200E+02   0.118E+02 -.201E+02 0.199E+02   -.948E+00 0.107E+01 0.170E+00   0.452E-01 0.331E-01 0.286E-01
   0.144E+02 0.144E+02 -.181E+01   -.144E+02 -.143E+02 0.179E+01   0.213E-02 -.588E-01 0.278E-01   0.234E-01 -.693E-02 -.492E-03
   -.203E+02 -.109E+02 -.102E+01   0.202E+02 0.107E+02 0.108E+01   0.115E+00 0.425E-01 -.496E-01   -.117E-01 0.533E-01 -.119E-01
   -.241E+00 0.873E+01 -.215E+01   0.198E+00 -.840E+01 0.220E+01   0.365E-01 -.227E+00 -.625E-01   0.367E-02 -.796E-01 0.676E-02
   0.133E+02 -.337E+02 0.123E+02   -.136E+02 0.346E+02 -.121E+02   0.214E+00 -.101E+01 -.264E+00   0.410E-01 0.669E-01 -.620E-02
   -.201E+02 0.281E+02 -.112E+02   0.208E+02 -.290E+02 0.111E+02   -.647E+00 0.902E+00 0.151E+00   -.793E-01 -.864E-01 0.352E-02
   0.235E+02 -.287E+02 0.154E+02   -.241E+02 0.293E+02 -.152E+02   0.682E+00 -.547E+00 -.204E+00   -.381E-01 -.240E-01 -.230E-03
   -.558E+01 0.656E+01 0.564E+03   0.674E+01 -.852E+01 -.567E+03   -.114E+01 0.188E+01 0.300E+01   -.115E-01 0.639E-01 -.413E-01
   -.557E+01 0.222E+02 -.589E+03   0.577E+01 -.231E+02 0.592E+03   -.355E+00 0.893E+00 -.339E+01   0.152E+00 0.368E-01 -.498E-01
   0.260E+01 -.248E+02 0.602E+03   -.270E+01 0.256E+02 -.606E+03   0.491E-01 -.887E+00 0.374E+01   0.447E-01 0.882E-01 0.554E-01
   0.352E+01 -.570E+01 -.568E+03   -.443E+01 0.741E+01 0.571E+03   0.931E+00 -.178E+01 -.309E+01   -.390E-01 0.765E-01 -.509E-01
   -.192E+00 0.398E+01 0.484E+03   -.252E+00 -.328E+01 -.489E+03   0.301E+00 -.808E+00 0.474E+01   0.124E+00 0.106E+00 0.425E-01
   0.544E+00 -.115E+02 -.484E+03   -.485E+00 0.115E+02 0.489E+03   -.472E-01 -.127E+00 -.479E+01   0.103E-01 0.118E+00 -.105E+00
   -.658E+01 0.202E+02 0.604E+03   0.670E+01 -.216E+02 -.607E+03   -.190E+00 0.152E+01 0.295E+01   0.713E-01 -.930E-01 0.787E-01
   -.101E+02 0.251E+02 -.603E+03   0.106E+02 -.259E+02 0.606E+03   -.414E+00 0.995E+00 -.334E+01   -.597E-01 -.113E+00 -.905E-01
   0.195E+02 -.147E+02 0.606E+03   -.200E+02 0.151E+02 -.610E+03   0.590E+00 -.377E+00 0.389E+01   -.934E-01 -.139E-01 0.497E-01
   0.129E+02 -.869E+01 -.627E+03   -.139E+02 0.926E+01 0.630E+03   0.961E+00 -.529E+00 -.340E+01   0.114E-01 -.250E-01 0.125E-01
   -.563E+01 0.140E+02 0.494E+03   0.556E+01 -.140E+02 -.499E+03   0.157E+00 0.799E-01 0.479E+01   -.827E-01 -.538E-01 0.116E+00
   0.812E+01 -.456E+01 -.488E+03   -.796E+01 0.407E+01 0.494E+03   -.822E-01 0.541E+00 -.505E+01   -.726E-01 -.636E-01 -.398E-01
   -.131E+02 0.152E+02 0.624E+03   0.141E+02 -.158E+02 -.628E+03   -.981E+00 0.629E+00 0.339E+01   -.212E-01 -.236E-01 -.810E-02
   -.196E+02 0.156E+02 -.603E+03   0.203E+02 -.160E+02 0.606E+03   -.673E+00 0.406E+00 -.376E+01   -.339E-01 -.885E-02 0.384E-01
   0.130E+02 -.217E+02 0.626E+03   -.135E+02 0.223E+02 -.630E+03   0.487E+00 -.608E+00 0.374E+01   0.524E-02 -.837E-02 -.185E-01
   0.228E+01 -.177E+02 -.629E+03   -.230E+01 0.186E+02 0.633E+03   0.176E-01 -.900E+00 -.345E+01   -.180E-03 -.270E-02 0.171E-01
   -.550E+01 0.250E+01 0.491E+03   0.532E+01 -.187E+01 -.495E+03   0.209E+00 -.548E+00 0.497E+01   -.266E-01 -.572E-01 -.352E-01
   0.104E+02 -.178E+02 -.506E+03   -.105E+02 0.180E+02 0.511E+03   0.104E+00 -.251E+00 -.502E+01   0.269E-01 -.722E-02 0.227E-01
 -----------------------------------------------------------------------------------------------
   0.322E+00 -.562E+00 0.364E+00   0.284E-13 -.711E-14 0.796E-12   -.334E+00 0.571E+00 -.346E+00   0.105E-01 -.131E-01 -.110E-01
 
 
 POSITION                                       TOTAL-FORCE (eV/Angst)
 -----------------------------------------------------------------------------------
     -2.61339      4.54089     -0.07475         0.007942     -0.008055     -0.043382
      2.63614      1.83719      0.04504         0.006828     -0.013896      0.013636
     -0.15978      0.28992      0.07272        -0.008005      0.015473      0.043435
      0.13734      3.32916      0.00386        -0.004600     -0.000452     -0.001753
      5.36859      6.31432      0.00283         0.000665     -0.013675     -0.004607
      2.75992      4.85487      0.00765        -0.002533      0.015983     -0.001594
     -5.42329      2.94862     -0.04410        -0.004693      0.005075     -0.007728
      5.36790      3.44917      0.04165        -0.003362     -0.007252      0.001273
      0.17511      6.17013     -0.05246         0.005125      0.008443     -0.007203
     -0.94501      1.64350     28.49746         0.009087     -0.020648      0.012117
      0.94073      1.61760      1.60786        -0.000105      0.012492      0.019569
     -3.67821      3.20328     28.35013        -0.005617     -0.019006     -0.017149
     -1.83584      3.18292      1.51353        -0.012918      0.009164     -0.014059
     -6.49762      4.83793     28.72963        -0.019063      0.005492      0.011613
     -4.59848      4.82829      1.26843         0.021528     -0.012885     -0.006596
      1.87423      3.19194     28.38237         0.004417     -0.008784      0.015743
      3.65776      3.18109      1.64514        -0.006697      0.013005      0.008371
     -0.92470      4.79142     28.33707         0.026228      0.004098     -0.017965
      0.95509      4.80393      1.69162        -0.010889      0.009530     -0.014454
     -3.71470      6.39327     28.69157         0.002948     -0.000850     -0.007121
     -1.87084      6.39318      1.28332        -0.000141     -0.014263     -0.013206
      4.56946      4.81944     28.31581         0.003592     -0.014379      0.012526
      6.45759      4.83630      1.65189        -0.014228     -0.005692      0.014600
      1.85204      6.39491     28.28202         0.004656      0.000234     -0.004668
      3.68010      6.37644      1.69832        -0.002409      0.015538     -0.013754
     -0.91078      8.05540     28.70793         0.000193      0.019041      0.020115
      0.89423      8.05029      1.34347         0.002054      0.006267      0.002240
 -----------------------------------------------------------------------------------
    total drift:                               -0.000961     -0.004269      0.007068


--------------------------------------------------------------------------------------------------------



  FREE ENERGIE OF THE ION-ELECTRON SYSTEM (eV)
  ---------------------------------------------------
  free  energy   TOTEN  =      -192.46334616 eV

  energy  without entropy=     -192.33626546  energy(sigma->0) =     -192.39980581
 
 d Force = 0.7162620E-03[ 0.626E-03, 0.807E-03]  d Energy = 0.7650658E-03-0.488E-04
 d Force = 0.1706221E+01[ 0.171E+01, 0.170E+01]  d Ewald  = 0.1632203E+02-0.146E+02


--------------------------------------------------------------------------------------------------------


    POTLOK:  cpu time    0.0342: real time    0.0343


--------------------------------------------------------------------------------------------------------


 Quasi-Newton relaxation of ions (Broydens 2nd method)
  g(Force)  = 0.657E-03   g(Stress)= 0.133E-04

 retain information from N=  3 steps
 eigenvalues of (default step * inverse Hessian matrix)
  average eigenvalue of G=   2.9967
 eigenvalue spectrum of G is  5.5588  3.1989  0.2324


--------------------------------------------------------------------------------------------------------


  
 reached required accuracy - stopping structural energy minimisation
     LOOP+:  cpu time  113.5415: real time  113.8247
    4ORBIT:  cpu time    0.0000: real time    0.0000

 total amount of memory used by VASP on root node   650782. kBytes
========================================================================

   base      :      30000. kBytes
   nonl-proj :     559647. kBytes
   fftplans  :       2414. kBytes
   grid      :      12150. kBytes
   one-center:        419. kBytes
   wavefun   :      46152. kBytes
 
  
  
 General timing and accounting informations for this job:
 ========================================================
  
                  Total CPU time used (sec):     5833.823
                            User time (sec):     5810.493
                          System time (sec):       23.330
                         Elapsed time (sec):     5850.113
  
                   Maximum memory used (kb):      740000.
                   Average memory used (kb):           0.
  
                          Minor page faults:       928917
                          Major page faults:            6
                 Voluntary context switches:         5729
