<?xml version="1.0" encoding="ISO-8859-1"?>
<modeling>
 <generator>
  <i name="program" type="string">vasp </i>
  <i name="version" type="string">5.4.1  </i>
  <i name="subversion" type="string">05Feb16 (build Jul 05 2020 17:13:04) complex                          parallel </i>
  <i name="platform" type="string">IFC91_ompi </i>
  <i name="date" type="string">2024 04 23 </i>
  <i name="time" type="string">21:59:48 </i>
 </generator>
 <incar>
  <i type="int" name="ISTART">     0</i>
  <i type="string" name="PREC">normal</i>
  <i type="string" name="ALGO"> Normal</i>
  <i type="int" name="ISPIN">     1</i>
  <i type="int" name="ICHARG">     2</i>
  <i type="int" name="IBRION">     1</i>
  <i type="int" name="NSW">   100</i>
  <i type="int" name="ISIF">     3</i>
  <i type="int" name="ISYM">     0</i>
  <i name="SYMPREC">      0.00000001</i>
  <i name="POTIM">      0.50000000</i>
  <i type="logical" name="LREAL"> F  </i>
  <i type="logical" name="LPLANE"> F  </i>
  <i type="int" name="ISMEAR">     0</i>
  <i type="logical" name="LWAVE"> F  </i>
  <i type="logical" name="LCHARG"> F  </i>
  <v type="int" name="KPOINT_BSE">    -1     0     0     0</v>
 </incar>
 <kpoints>
  <generation param="Gamma">
   <v type="int" name="divisions">       8        8        1 </v>
   <v name="usershift">      0.00000000       0.00000000       0.00000000 </v>
   <v name="genvec1">      0.12500000       0.00000000       0.00000000 </v>
   <v name="genvec2">     -0.00000000       0.12500000       0.00000000 </v>
   <v name="genvec3">      0.00000000       0.00000000       1.00000000 </v>
   <v name="shift">      0.00000000       0.00000000       0.00000000 </v>
  </generation>
  <varray name="kpointlist" >
   <v>       0.00000000       0.00000000       0.00000000 </v>
   <v>       0.12500000       0.00000000       0.00000000 </v>
   <v>       0.25000000       0.00000000       0.00000000 </v>
   <v>       0.37500000       0.00000000       0.00000000 </v>
   <v>       0.50000000       0.00000000       0.00000000 </v>
   <v>       0.00000000       0.12500000       0.00000000 </v>
   <v>       0.12500000       0.12500000       0.00000000 </v>
   <v>       0.25000000       0.12500000       0.00000000 </v>
   <v>       0.37500000       0.12500000       0.00000000 </v>
   <v>       0.50000000       0.12500000       0.00000000 </v>
   <v>      -0.37500000       0.12500000       0.00000000 </v>
   <v>      -0.25000000       0.12500000       0.00000000 </v>
   <v>      -0.12500000       0.12500000       0.00000000 </v>
   <v>       0.00000000       0.25000000       0.00000000 </v>
   <v>       0.12500000       0.25000000       0.00000000 </v>
   <v>       0.25000000       0.25000000       0.00000000 </v>
   <v>       0.37500000       0.25000000       0.00000000 </v>
   <v>       0.50000000       0.25000000       0.00000000 </v>
   <v>      -0.37500000       0.25000000       0.00000000 </v>
   <v>      -0.25000000       0.25000000       0.00000000 </v>
   <v>      -0.12500000       0.25000000       0.00000000 </v>
   <v>      -0.00000000       0.37500000       0.00000000 </v>
   <v>       0.12500000       0.37500000       0.00000000 </v>
   <v>       0.25000000       0.37500000       0.00000000 </v>
   <v>       0.37500000       0.37500000       0.00000000 </v>
   <v>       0.50000000       0.37500000       0.00000000 </v>
   <v>      -0.37500000       0.37500000       0.00000000 </v>
   <v>      -0.25000000       0.37500000       0.00000000 </v>
   <v>      -0.12500000       0.37500000       0.00000000 </v>
   <v>       0.00000000       0.50000000       0.00000000 </v>
   <v>       0.12500000       0.50000000       0.00000000 </v>
   <v>       0.25000000       0.50000000       0.00000000 </v>
   <v>       0.37500000       0.50000000       0.00000000 </v>
   <v>       0.50000000       0.50000000       0.00000000 </v>
  </varray>
  <varray name="weights" >
   <v>       0.01562500 </v>
   <v>       0.03125000 </v>
   <v>       0.03125000 </v>
   <v>       0.03125000 </v>
   <v>       0.01562500 </v>
   <v>       0.03125000 </v>
   <v>       0.03125000 </v>
   <v>       0.03125000 </v>
   <v>       0.03125000 </v>
   <v>       0.03125000 </v>
   <v>       0.03125000 </v>
   <v>       0.03125000 </v>
   <v>       0.03125000 </v>
   <v>       0.03125000 </v>
   <v>       0.03125000 </v>
   <v>       0.03125000 </v>
   <v>       0.03125000 </v>
   <v>       0.03125000 </v>
   <v>       0.03125000 </v>
   <v>       0.03125000 </v>
   <v>       0.03125000 </v>
   <v>       0.03125000 </v>
   <v>       0.03125000 </v>
   <v>       0.03125000 </v>
   <v>       0.03125000 </v>
   <v>       0.03125000 </v>
   <v>       0.03125000 </v>
   <v>       0.03125000 </v>
   <v>       0.03125000 </v>
   <v>       0.01562500 </v>
   <v>       0.03125000 </v>
   <v>       0.03125000 </v>
   <v>       0.03125000 </v>
   <v>       0.01562500 </v>
  </varray>
 </kpoints>
 <parameters>
  <separator name="general" >
   <i type="string" name="SYSTEM">unknown system</i>
   <i type="logical" name="LCOMPAT"> F  </i>
  </separator>
  <separator name="electronic" >
   <i type="string" name="PREC">normal</i>
   <i name="ENMAX">    280.00000000</i>
   <i name="ENAUG">    373.43800000</i>
   <i name="EDIFF">      0.00010000</i>
   <i type="int" name="IALGO">    38</i>
   <i type="int" name="IWAVPR">    11</i>
   <i type="int" name="NBANDS">   120</i>
   <i name="NELECT">    159.00000000</i>
   <i type="int" name="TURBO">     0</i>
   <i type="int" name="IRESTART">     0</i>
   <i type="int" name="NREBOOT">     0</i>
   <i type="int" name="NMIN">     0</i>
   <i name="EREF">      0.00000000</i>
   <separator name="electronic smearing" >
    <i type="int" name="ISMEAR">     0</i>
    <i name="SIGMA">      0.20000000</i>
    <i name="KSPACING">      0.50000000</i>
    <i type="logical" name="KGAMMA"> T  </i>
   </separator>
   <separator name="electronic projectors" >
    <i type="logical" name="LREAL"> F  </i>
    <v name="ROPT">      0.00000000      0.00000000      0.00000000      0.00000000</v>
    <i type="int" name="LMAXPAW">  -100</i>
    <i type="int" name="LMAXMIX">     2</i>
    <i type="logical" name="NLSPLINE"> F  </i>
   </separator>
   <separator name="electronic startup" >
    <i type="int" name="ISTART">     0</i>
    <i type="int" name="ICHARG">     2</i>
    <i type="int" name="INIWAV">     1</i>
   </separator>
   <separator name="electronic spin" >
    <i type="int" name="ISPIN">     1</i>
    <i type="logical" name="LNONCOLLINEAR"> F  </i>
    <v name="MAGMOM">      1.00000000      1.00000000      1.00000000      1.00000000      1.00000000      1.00000000      1.00000000      1.00000000      1.00000000      1.00000000      1.00000000      1.00000000      1.00000000      1.00000000      1.00000000      1.00000000      1.00000000      1.00000000      1.00000000      1.00000000
      1.00000000      1.00000000      1.00000000      1.00000000      1.00000000      1.00000000      1.00000000</v>
    <i name="NUPDOWN">     -1.00000000</i>
    <i type="logical" name="LSORBIT"> F  </i>
    <v name="SAXIS">      0.00000000      0.00000000      1.00000000</v>
    <i type="logical" name="LSPIRAL"> F  </i>
    <v name="QSPIRAL">      0.00000000      0.00000000      0.00000000</v>
    <i type="logical" name="LZEROZ"> F  </i>
   </separator>
   <separator name="electronic exchange-correlation" >
    <i type="logical" name="LASPH"> F  </i>
    <i type="logical" name="LMETAGGA"> F  </i>
   </separator>
   <separator name="electronic convergence" >
    <i type="int" name="NELM">    60</i>
    <i type="int" name="NELMDL">    -5</i>
    <i type="int" name="NELMIN">     2</i>
    <i name="ENINI">    280.00000000</i>
    <separator name="electronic convergence detail" >
     <i type="logical" name="LDIAG"> T  </i>
     <i type="logical" name="LSUBROT"> F  </i>
     <i name="WEIMIN">      0.00100000</i>
     <i name="EBREAK">      0.00000021</i>
     <i name="DEPER">      0.30000000</i>
     <i type="int" name="NRMM">     4</i>
     <i name="TIME">      0.40000000</i>
    </separator>
   </separator>
   <separator name="electronic mixer" >
    <i name="AMIX">      0.40000000</i>
    <i name="BMIX">      1.00000000</i>
    <i name="AMIN">      0.10000000</i>
    <i name="AMIX_MAG">      1.60000000</i>
    <i name="BMIX_MAG">      1.00000000</i>
    <separator name="electronic mixer details" >
     <i type="int" name="IMIX">     4</i>
     <i type="logical" name="MIXFIRST"> F  </i>
     <i type="int" name="MAXMIX">   -45</i>
     <i name="WC">    100.00000000</i>
     <i type="int" name="INIMIX">     1</i>
     <i type="int" name="MIXPRE">     1</i>
     <i type="int" name="MREMOVE">     5</i>
    </separator>
   </separator>
   <separator name="electronic dipolcorrection" >
    <i type="logical" name="LDIPOL"> F  </i>
    <i type="logical" name="LMONO"> F  </i>
    <i type="int" name="IDIPOL">     0</i>
    <i name="EPSILON">      1.00000000</i>
    <v name="DIPOL">   -100.00000000   -100.00000000   -100.00000000</v>
    <i name="EFIELD">      0.00000000</i>
   </separator>
  </separator>
  <separator name="grids" >
   <i type="int" name="NGX">    42</i>
   <i type="int" name="NGY">    42</i>
   <i type="int" name="NGZ">   126</i>
   <i type="int" name="NGXF">    84</i>
   <i type="int" name="NGYF">    84</i>
   <i type="int" name="NGZF">   252</i>
   <i type="logical" name="ADDGRID"> F  </i>
  </separator>
  <separator name="ionic" >
   <i type="int" name="NSW">   100</i>
   <i type="int" name="IBRION">     1</i>
   <i type="int" name="ISIF">     3</i>
   <i name="PSTRESS">      0.00000000</i>
   <i name="EDIFFG">      0.00100000</i>
   <i type="int" name="NFREE">     0</i>
   <i name="POTIM">      0.50000000</i>
   <i name="SMASS">     -3.00000000</i>
   <i name="SCALEE">      1.00000000</i>
  </separator>
  <separator name="ionic md" >
   <i name="TEBEG">      0.00010000</i>
   <i name="TEEND">      0.00010000</i>
   <i type="int" name="NBLOCK">     1</i>
   <i type="int" name="KBLOCK">   100</i>
   <i type="int" name="NPACO">   256</i>
   <i name="APACO">     16.00000000</i>
  </separator>
  <separator name="symmetry" >
   <i type="int" name="ISYM">     0</i>
   <i name="SYMPREC">      0.00000001</i>
  </separator>
  <separator name="dos" >
   <i type="logical" name="LORBIT"> F  </i>
   <v name="RWIGS">     -1.00000000     -1.00000000     -1.00000000     -1.00000000</v>
   <i type="int" name="NEDOS">   301</i>
   <i name="EMIN">     10.00000000</i>
   <i name="EMAX">    -10.00000000</i>
   <i name="EFERMI">      0.00000000</i>
  </separator>
  <separator name="writing" >
   <i type="int" name="NWRITE">     2</i>
   <i type="logical" name="LWAVE"> F  </i>
   <i type="logical" name="LCHARG"> F  </i>
   <i type="logical" name="LPARD"> F  </i>
   <i type="logical" name="LVTOT"> F  </i>
   <i type="logical" name="LVHAR"> F  </i>
   <i type="logical" name="LELF"> F  </i>
   <i type="logical" name="LOPTICS"> F  </i>
   <v name="STM">      0.00000000      0.00000000      0.00000000      0.00000000      0.00000000      0.00000000      0.00000000</v>
  </separator>
  <separator name="performance" >
   <i type="int" name="NPAR">    40</i>
   <i type="int" name="NSIM">     4</i>
   <i type="int" name="NBLK">    -1</i>
   <i type="logical" name="LPLANE"> F  </i>
   <i type="logical" name="LSCALAPACK"> T  </i>
   <i type="logical" name="LSCAAWARE"> F  </i>
   <i type="logical" name="LSCALU"> F  </i>
   <i type="logical" name="LASYNC"> F  </i>
   <i type="logical" name="LORBITALREAL"> F  </i>
  </separator>
  <separator name="miscellaneous" >
   <i type="int" name="IDIOT">     3</i>
   <i type="logical" name="LMUSIC"> F  </i>
   <v name="POMASS">     50.94100000     95.94000000    183.85000000     32.06600000</v>
   <v name="DARWINR">      0.00000000      0.00000000      0.00000000      0.00000000</v>
   <v name="DARWINV">      1.00000000      1.00000000      1.00000000      1.00000000</v>
   <i type="logical" name="LCORR"> T  </i>
  </separator>
  <i type="logical" name="GGA_COMPAT"> T  </i>
  <i type="logical" name="LBERRY"> F  </i>
  <i type="int" name="ICORELEVEL">     0</i>
  <i type="logical" name="LDAU"> F  </i>
  <i type="int" name="I_CONSTRAINED_M">     0</i>
  <separator name="electronic exchange-correlation" >
   <i type="string" name="GGA">--</i>
   <i type="int" name="VOSKOWN">     0</i>
   <i type="logical" name="LHFCALC"> F  </i>
   <i type="string" name="PRECFOCK"></i>
   <i type="logical" name="LSYMGRAD"> F  </i>
   <i type="logical" name="LHFONE"> F  </i>
   <i type="logical" name="LRHFCALC"> F  </i>
   <i type="logical" name="LTHOMAS"> F  </i>
   <i type="logical" name="LMODELHF"> F  </i>
   <i name="ENCUT4O">     -1.00000000</i>
   <i type="int" name="EXXOEP">     0</i>
   <i type="int" name="FOURORBIT">     0</i>
   <i name="AEXX">      0.00000000</i>
   <i name="HFALPHA">      0.00000000</i>
   <i name="MCALPHA">      0.00000000</i>
   <i name="ALDAX">      1.00000000</i>
   <i name="AGGAX">      1.00000000</i>
   <i name="ALDAC">      1.00000000</i>
   <i name="AGGAC">      1.00000000</i>
   <i type="int" name="NKREDX">     1</i>
   <i type="int" name="NKREDY">     1</i>
   <i type="int" name="NKREDZ">     1</i>
   <i type="logical" name="SHIFTRED"> F  </i>
   <i type="logical" name="ODDONLY"> F  </i>
   <i type="logical" name="EVENONLY"> F  </i>
   <i type="int" name="LMAXFOCK">     0</i>
   <i type="int" name="NMAXFOCKAE">     0</i>
   <i type="logical" name="LFOCKAEDFT"> F  </i>
   <i name="HFSCREEN">      0.00000000</i>
   <i name="HFSCREENC">      0.00000000</i>
   <i type="int" name="NBANDSGWLOW">     0</i>
  </separator>
  <separator name="vdW DFT" >
   <i type="logical" name="LUSE_VDW"> F  </i>
   <i name="Zab_VDW">     -0.84910000</i>
   <i name="PARAM1">      0.12340000</i>
   <i name="PARAM2">      1.00000000</i>
   <i name="PARAM3">      0.00000000</i>
  </separator>
  <separator name="model GW" >
   <i type="int" name="MODEL_GW">     0</i>
   <i name="MODEL_EPS0">     58.26239943</i>
   <i name="MODEL_ALPHA">      1.00000000</i>
  </separator>
  <separator name="linear response parameters" >
   <i type="logical" name="LEPSILON"> F  </i>
   <i type="logical" name="LRPA"> F  </i>
   <i type="logical" name="LNABLA"> F  </i>
   <i type="logical" name="LVEL"> F  </i>
   <i type="int" name="KINTER">     0</i>
   <i name="CSHIFT">      0.10000000</i>
   <i name="OMEGAMAX">     -1.00000000</i>
   <i name="DEG_THRESHOLD">      0.00200000</i>
  </separator>
  <separator name="orbital magnetization" >
   <i type="logical" name="NUCIND"> F  </i>
   <v name="MAGPOS">      0.00000000      0.00000000      0.00000000</v>
   <i type="logical" name="LNICSALL"> T  </i>
   <i type="logical" name="ORBITALMAG"> F  </i>
   <i type="logical" name="LMAGBLOCH"> F  </i>
   <i type="logical" name="LCHIMAG"> F  </i>
   <i type="logical" name="LGAUGE"> T  </i>
   <i type="int" name="MAGATOM">     0</i>
   <v name="MAGDIPOL">      0.00000000      0.00000000      0.00000000</v>
   <v name="AVECCONST">      0.00000000      0.00000000      0.00000000</v>
  </separator>
  <separator name="response functions" >
   <i type="logical" name="LADDER"> F  </i>
   <i type="logical" name="LFXC"> F  </i>
   <i type="logical" name="LHARTREE"> T  </i>
   <i type="int" name="IBSE">     0</i>
   <v type="int" name="KPOINT">    -1     0     0     0</v>
   <i type="logical" name="LTCTE"> F  </i>
   <i type="logical" name="LTETE"> F  </i>
   <i type="logical" name="LTRIPLET"> F  </i>
   <i type="logical" name="LFXCEPS"> F  </i>
   <i type="logical" name="LFXHEG"> F  </i>
   <i type="int" name="NATURALO">     0</i>
   <i type="logical" name="L2ORDER"> F  </i>
   <i type="logical" name="LUSEW"> F  </i>
   <i name="ENCUTGW">     -2.00000000</i>
   <i name="ENCUTGWSOFT">     -2.00000000</i>
   <i name="ENCUTLF">     -1.00000000</i>
   <i type="int" name="LMAXMP2">    -1</i>
   <i name="SCISSOR">      0.00000000</i>
   <i type="int" name="NOMEGA">     0</i>
   <i type="int" name="NOMEGAR">     0</i>
   <i type="int" name="NBANDSGW">    -1</i>
   <i type="int" name="NBANDSO">    -1</i>
   <i type="int" name="NBANDSV">    -1</i>
   <i type="int" name="NELM">     1</i>
   <i type="int" name="NELMHF">     1</i>
   <i type="int" name="DIM">     3</i>
   <i type="int" name="ANTIRES">     0</i>
   <i name="OMEGAMAX">    -30.00000000</i>
   <i name="OMEGAMIN">    -30.00000000</i>
   <i name="OMEGATL">   -200.00000000</i>
   <i type="int" name="OMEGAGRID">     0</i>
   <i name="CSHIFT">     -0.10000000</i>
   <i type="logical" name="SELFENERGY"> F  </i>
   <i type="logical" name="LSPECTRAL"> F  </i>
   <i type="logical" name="LSPECTRALGW"> F  </i>
   <i type="logical" name="LSINGLES"> F  </i>
   <i type="logical" name="LFERMIGW"> F  </i>
   <i type="logical" name="ODDONLYGW"> F  </i>
   <i type="logical" name="EVENONLYGW"> F  </i>
   <i type="int" name="NKREDLFX">     1</i>
   <i type="int" name="NKREDLFY">     1</i>
   <i type="int" name="NKREDLFZ">     1</i>
   <i type="int" name="MAXMEM">  1800</i>
   <i type="int" name="TELESCOPE">     0</i>
   <i type="int" name="TAUPAR">     1</i>
   <i type="int" name="OMEGAPAR">    -1</i>
   <i name="LAMBDA">      1.00000000</i>
  </separator>
  <separator name="External order field" >
   <i name="OFIELD_KAPPA">      0.00000000</i>
   <v name="OFIELD_K">      0.00000000      0.00000000      0.00000000</v>
   <i name="OFIELD_Q6_NEAR">      0.00000000</i>
   <i name="OFIELD_Q6_FAR">      0.00000000</i>
   <i name="OFIELD_A">      0.00000000</i>
  </separator>
 </parameters>
 <atominfo>
  <atoms>      27 </atoms>
  <types>       4 </types>
  <array name="atoms" >
   <dimension dim="1">ion</dimension>
   <field type="string">element</field>
   <field type="int">atomtype</field>
   <set>
    <rc><c>V </c><c>   1</c></rc>
    <rc><c>V </c><c>   1</c></rc>
    <rc><c>V </c><c>   1</c></rc>
    <rc><c>Mo</c><c>   2</c></rc>
    <rc><c>Mo</c><c>   2</c></rc>
    <rc><c>Mo</c><c>   2</c></rc>
    <rc><c>W </c><c>   3</c></rc>
    <rc><c>W </c><c>   3</c></rc>
    <rc><c>W </c><c>   3</c></rc>
    <rc><c>S </c><c>   4</c></rc>
    <rc><c>S </c><c>   4</c></rc>
    <rc><c>S </c><c>   4</c></rc>
    <rc><c>S </c><c>   4</c></rc>
    <rc><c>S </c><c>   4</c></rc>
    <rc><c>S </c><c>   4</c></rc>
    <rc><c>S </c><c>   4</c></rc>
    <rc><c>S </c><c>   4</c></rc>
    <rc><c>S </c><c>   4</c></rc>
    <rc><c>S </c><c>   4</c></rc>
    <rc><c>S </c><c>   4</c></rc>
    <rc><c>S </c><c>   4</c></rc>
    <rc><c>S </c><c>   4</c></rc>
    <rc><c>S </c><c>   4</c></rc>
    <rc><c>S </c><c>   4</c></rc>
    <rc><c>S </c><c>   4</c></rc>
    <rc><c>S </c><c>   4</c></rc>
    <rc><c>S </c><c>   4</c></rc>
   </set>
  </array>
  <array name="atomtypes" >
   <dimension dim="1">type</dimension>
   <field type="int">atomspertype</field>
   <field type="string">element</field>
   <field>mass</field>
   <field>valence</field>
   <field type="string">pseudopotential</field>
   <set>
    <rc><c>   3</c><c>V </c><c>     50.94100000</c><c>      5.00000000</c><c> PAW_PBE V 08Apr2002                    </c></rc>
    <rc><c>   3</c><c>Mo</c><c>     95.94000000</c><c>      6.00000000</c><c> PAW_PBE Mo 08Apr2002                   </c></rc>
    <rc><c>   3</c><c>W </c><c>    183.85000000</c><c>      6.00000000</c><c> PAW_PBE W 08Apr2002                    </c></rc>
    <rc><c>  18</c><c>S </c><c>     32.06600000</c><c>      6.00000000</c><c>  PAW_PBE S 17Jan2003                   </c></rc>
   </set>
  </array>
 </atominfo>
 <structure name="initialpos" >
  <crystal>
   <varray name="basis" >
    <v>       8.66999996       5.03999989       0.00000000 </v>
    <v>      -8.66999982       5.04000013       0.00000000 </v>
    <v>       0.00000000       0.00000000      30.00000000 </v>
   </varray>
   <i name="volume">   2621.80797419 </i>
   <varray name="rec_basis" >
    <v>       0.05767013       0.09920635       0.00000000 </v>
    <v>      -0.05767013       0.09920635       0.00000000 </v>
    <v>       0.00000000       0.00000000       0.03333333 </v>
   </varray>
  </crystal>
  <varray name="positions" >
   <v>       0.33333334       0.66666669       0.00000000 </v>
   <v>       0.33333334       0.00000000       0.00000000 </v>
   <v>       0.00000000       0.00000000       0.00000000 </v>
   <v>       0.33333334       0.33333334       0.00000000 </v>
   <v>       1.00000000       0.33333334       0.00000000 </v>
   <v>       0.66666669       0.33333334       0.00000000 </v>
   <v>       0.00000000       0.66666669       0.00000000 </v>
   <v>       0.66666669       0.00000000       0.00000000 </v>
   <v>       0.66666669       0.66666669       0.00000000 </v>
   <v>       0.11068511       0.22244981       0.95539999 </v>
   <v>       0.22244981       0.11068511       0.04460000 </v>
   <v>       0.11068511       0.55578315       0.95539999 </v>
   <v>       0.22244981       0.44401845       0.04460000 </v>
   <v>       0.11068511       0.88911647       0.95539999 </v>
   <v>       0.22244981       0.77735180       0.04460000 </v>
   <v>       0.44401845       0.22244981       0.95539999 </v>
   <v>       0.55578315       0.11068511       0.04460000 </v>
   <v>       0.44401845       0.55578315       0.95539999 </v>
   <v>       0.55578315       0.44401845       0.04460000 </v>
   <v>       0.44401845       0.88911647       0.95539999 </v>
   <v>       0.55578315       0.77735180       0.04460000 </v>
   <v>       0.77735180       0.22244981       0.95539999 </v>
   <v>       0.88911647       0.11068511       0.04460000 </v>
   <v>       0.77735180       0.55578315       0.95539999 </v>
   <v>       0.88911647       0.44401845       0.04460000 </v>
   <v>       0.77735180       0.88911647       0.95539999 </v>
   <v>       0.88911647       0.77735180       0.04460000 </v>
  </varray>
 </structure>
 <calculation>
  <scstep>
   <time name="dav">   22.01   22.06</time>
   <time name="total">   22.05   22.11</time>
   <energy>
    <i name="alphaZ">     81.65567618 </i>
    <i name="ewald">  41890.25210248 </i>
    <i name="hartreedc"> -47722.88004849 </i>
    <i name="XCdc">   -242.92955954 </i>
    <i name="pawpsdc">   3467.42045192 </i>
    <i name="pawaedc">  -2871.19716117 </i>
    <i name="eentropy">     -0.52800169 </i>
    <i name="bandstr">   -236.74916516 </i>
    <i name="atom">   6761.44252427 </i>
    <i name="e_fr_energy">   1126.48681879 </i>
    <i name="e_wo_entrp">   1127.01482048 </i>
    <i name="e_0_energy">   1126.75081964 </i>
   </energy>
  </scstep>
  <scstep>
   <time name="dav">   27.97   28.04</time>
   <time name="total">   27.97   28.04</time>
   <energy>
    <i name="e_fr_energy">      2.00015244 </i>
    <i name="e_wo_entrp">      2.17269347 </i>
    <i name="e_0_energy">      2.08642296 </i>
   </energy>
  </scstep>
  <scstep>
   <time name="dav">   27.81   27.88</time>
   <time name="total">   27.81   27.89</time>
   <energy>
    <i name="e_fr_energy">   -199.32730983 </i>
    <i name="e_wo_entrp">   -199.06472797 </i>
    <i name="e_0_energy">   -199.19601890 </i>
   </energy>
  </scstep>
  <scstep>
   <time name="dav">   30.23   30.30</time>
   <time name="total">   30.23   30.31</time>
   <energy>
    <i name="e_fr_energy">   -208.92967937 </i>
    <i name="e_wo_entrp">   -208.63048732 </i>
    <i name="e_0_energy">   -208.78008334 </i>
   </energy>
  </scstep>
  <scstep>
   <time name="dav">   28.79   28.86</time>
   <time name="total">   29.26   29.34</time>
   <energy>
    <i name="e_fr_energy">   -209.27433652 </i>
    <i name="e_wo_entrp">   -208.97824093 </i>
    <i name="e_0_energy">   -209.12628873 </i>
   </energy>
  </scstep>
  <scstep>
   <time name="dav">   31.36   31.43</time>
   <time name="total">   31.86   31.94</time>
   <energy>
    <i name="e_fr_energy">   -237.12712595 </i>
    <i name="e_wo_entrp">   -236.85832720 </i>
    <i name="e_0_energy">   -236.99272658 </i>
   </energy>
  </scstep>
  <scstep>
   <time name="dav">   32.33   32.41</time>
   <time name="total">   32.84   32.93</time>
   <energy>
    <i name="e_fr_energy">   -196.66314086 </i>
    <i name="e_wo_entrp">   -196.32767533 </i>
    <i name="e_0_energy">   -196.49540810 </i>
   </energy>
  </scstep>
  <scstep>
   <time name="dav">   29.91   29.98</time>
   <time name="total">   30.42   30.50</time>
   <energy>
    <i name="e_fr_energy">   -190.08266786 </i>
    <i name="e_wo_entrp">   -189.81387326 </i>
    <i name="e_0_energy">   -189.94827056 </i>
   </energy>
  </scstep>
  <scstep>
   <time name="dav">   30.53   30.60</time>
   <time name="total">   31.05   31.13</time>
   <energy>
    <i name="e_fr_energy">   -188.31783716 </i>
    <i name="e_wo_entrp">   -187.98852323 </i>
    <i name="e_0_energy">   -188.15318019 </i>
   </energy>
  </scstep>
  <scstep>
   <time name="dav">   32.85   32.93</time>
   <time name="total">   33.38   33.47</time>
   <energy>
    <i name="e_fr_energy">   -187.12716179 </i>
    <i name="e_wo_entrp">   -186.78485546 </i>
    <i name="e_0_energy">   -186.95600862 </i>
   </energy>
  </scstep>
  <scstep>
   <time name="dav">   31.12   31.19</time>
   <time name="total">   31.65   31.74</time>
   <energy>
    <i name="e_fr_energy">   -187.01224626 </i>
    <i name="e_wo_entrp">   -186.66355783 </i>
    <i name="e_0_energy">   -186.83790204 </i>
   </energy>
  </scstep>
  <scstep>
   <time name="dav">   32.00   32.08</time>
   <time name="total">   32.54   32.62</time>
   <energy>
    <i name="e_fr_energy">   -187.03039767 </i>
    <i name="e_wo_entrp">   -186.69680897 </i>
    <i name="e_0_energy">   -186.86360332 </i>
   </energy>
  </scstep>
  <scstep>
   <time name="dav">   32.72   32.80</time>
   <time name="total">   33.26   33.34</time>
   <energy>
    <i name="e_fr_energy">   -186.93380410 </i>
    <i name="e_wo_entrp">   -186.59771751 </i>
    <i name="e_0_energy">   -186.76576081 </i>
   </energy>
  </scstep>
  <scstep>
   <time name="dav">   31.65   31.73</time>
   <time name="total">   32.20   32.29</time>
   <energy>
    <i name="e_fr_energy">   -186.90375966 </i>
    <i name="e_wo_entrp">   -186.56270893 </i>
    <i name="e_0_energy">   -186.73323430 </i>
   </energy>
  </scstep>
  <scstep>
   <time name="dav">   31.12   31.19</time>
   <time name="total">   31.65   31.73</time>
   <energy>
    <i name="e_fr_energy">   -186.89822513 </i>
    <i name="e_wo_entrp">   -186.55519933 </i>
    <i name="e_0_energy">   -186.72671223 </i>
   </energy>
  </scstep>
  <scstep>
   <time name="dav">   31.86   31.94</time>
   <time name="total">   32.40   32.48</time>
   <energy>
    <i name="e_fr_energy">   -186.89182552 </i>
    <i name="e_wo_entrp">   -186.54845086 </i>
    <i name="e_0_energy">   -186.72013819 </i>
   </energy>
  </scstep>
  <scstep>
   <time name="dav">   31.32   31.39</time>
   <time name="total">   31.86   31.94</time>
   <energy>
    <i name="e_fr_energy">   -186.88911707 </i>
    <i name="e_wo_entrp">   -186.54780931 </i>
    <i name="e_0_energy">   -186.71846319 </i>
   </energy>
  </scstep>
  <scstep>
   <time name="dav">   28.92   28.99</time>
   <time name="total">   29.46   29.54</time>
   <energy>
    <i name="e_fr_energy">   -186.88858626 </i>
    <i name="e_wo_entrp">   -186.54738693 </i>
    <i name="e_0_energy">   -186.71798660 </i>
   </energy>
  </scstep>
  <scstep>
   <time name="dav">   27.29   27.36</time>
   <time name="total">   27.83   27.90</time>
   <energy>
    <i name="e_fr_energy">   -186.88837560 </i>
    <i name="e_wo_entrp">   -186.54673386 </i>
    <i name="e_0_energy">   -186.71755473 </i>
   </energy>
  </scstep>
  <scstep>
   <time name="dav">   23.93   23.99</time>
   <time name="total">   24.47   24.53</time>
   <energy>
    <i name="e_fr_energy">   -186.88926111 </i>
    <i name="e_wo_entrp">   -186.54793506 </i>
    <i name="e_0_energy">   -186.71859808 </i>
   </energy>
  </scstep>
  <scstep>
   <time name="dav">   22.21   22.26</time>
   <time name="total">   22.74   22.81</time>
   <energy>
    <i name="e_fr_energy">   -186.89020342 </i>
    <i name="e_wo_entrp">   -186.54874795 </i>
    <i name="e_0_energy">   -186.71947569 </i>
   </energy>
  </scstep>
  <scstep>
   <time name="dav">   18.33   18.38</time>
   <time name="total">   18.87   18.92</time>
   <energy>
    <i name="e_fr_energy">   -186.89095251 </i>
    <i name="e_wo_entrp">   -186.54954207 </i>
    <i name="e_0_energy">   -186.72024729 </i>
   </energy>
  </scstep>
  <scstep>
   <time name="dav">   20.55   20.60</time>
   <time name="total">   21.09   21.14</time>
   <energy>
    <i name="e_fr_energy">   -186.89209193 </i>
    <i name="e_wo_entrp">   -186.55079304 </i>
    <i name="e_0_energy">   -186.72144248 </i>
   </energy>
  </scstep>
  <scstep>
   <time name="dav">   19.15   19.20</time>
   <time name="total">   19.69   19.75</time>
   <energy>
    <i name="e_fr_energy">   -186.89267348 </i>
    <i name="e_wo_entrp">   -186.55131267 </i>
    <i name="e_0_energy">   -186.72199308 </i>
   </energy>
  </scstep>
  <scstep>
   <time name="dav">   16.60   16.64</time>
   <time name="total">   17.13   17.18</time>
   <energy>
    <i name="e_fr_energy">   -186.89304050 </i>
    <i name="e_wo_entrp">   -186.55165402 </i>
    <i name="e_0_energy">   -186.72234726 </i>
   </energy>
  </scstep>
  <scstep>
   <time name="dav">   19.20   19.25</time>
   <time name="total">   19.74   19.79</time>
   <energy>
    <i name="e_fr_energy">   -186.89328725 </i>
    <i name="e_wo_entrp">   -186.55192343 </i>
    <i name="e_0_energy">   -186.72260534 </i>
   </energy>
  </scstep>
  <scstep>
   <time name="dav">   20.28   20.32</time>
   <time name="total">   20.31   20.37</time>
   <energy>
    <i name="alphaZ">     81.65567618 </i>
    <i name="ewald">  41890.25210248 </i>
    <i name="hartreedc"> -47833.18059069 </i>
    <i name="XCdc">   -231.59805708 </i>
    <i name="pawpsdc">   4192.17133820 </i>
    <i name="pawaedc">  -3610.19597420 </i>
    <i name="eentropy">     -0.34136705 </i>
    <i name="bandstr">  -1437.09903199 </i>
    <i name="atom">   6761.44252427 </i>
    <i name="e_fr_energy">   -186.89337988 </i>
    <i name="e_wo_entrp">   -186.55201283 </i>
    <i name="e_0_energy">   -186.72269635 </i>
   </energy>
  </scstep>
  <structure>
   <crystal>
    <varray name="basis" >
     <v>       8.66999996       5.03999989       0.00000000 </v>
     <v>      -8.66999982       5.04000013       0.00000000 </v>
     <v>       0.00000000       0.00000000      30.00000000 </v>
    </varray>
    <i name="volume">   2621.80797419 </i>
    <varray name="rec_basis" >
     <v>       0.05767013       0.09920635       0.00000000 </v>
     <v>      -0.05767013       0.09920635       0.00000000 </v>
     <v>       0.00000000       0.00000000       0.03333333 </v>
    </varray>
   </crystal>
   <varray name="positions" >
    <v>       0.33333334       0.66666669       0.00000000 </v>
    <v>       0.33333334       0.00000000       0.00000000 </v>
    <v>       0.00000000       0.00000000       0.00000000 </v>
    <v>       0.33333334       0.33333334       0.00000000 </v>
    <v>       1.00000000       0.33333334       0.00000000 </v>
    <v>       0.66666669       0.33333334       0.00000000 </v>
    <v>       0.00000000       0.66666669       0.00000000 </v>
    <v>       0.66666669       0.00000000       0.00000000 </v>
    <v>       0.66666669       0.66666669       0.00000000 </v>
    <v>       0.11068511       0.22244981       0.95539999 </v>
    <v>       0.22244981       0.11068511       0.04460000 </v>
    <v>       0.11068511       0.55578315       0.95539999 </v>
    <v>       0.22244981       0.44401845       0.04460000 </v>
    <v>       0.11068511       0.88911647       0.95539999 </v>
    <v>       0.22244981       0.77735180       0.04460000 </v>
    <v>       0.44401845       0.22244981       0.95539999 </v>
    <v>       0.55578315       0.11068511       0.04460000 </v>
    <v>       0.44401845       0.55578315       0.95539999 </v>
    <v>       0.55578315       0.44401845       0.04460000 </v>
    <v>       0.44401845       0.88911647       0.95539999 </v>
    <v>       0.55578315       0.77735180       0.04460000 </v>
    <v>       0.77735180       0.22244981       0.95539999 </v>
    <v>       0.88911647       0.11068511       0.04460000 </v>
    <v>       0.77735180       0.55578315       0.95539999 </v>
    <v>       0.88911647       0.44401845       0.04460000 </v>
    <v>       0.77735180       0.88911647       0.95539999 </v>
    <v>       0.88911647       0.77735180       0.04460000 </v>
   </varray>
  </structure>
  <varray name="forces" >
   <v>       0.14529986      -0.31852755      -0.08000250 </v>
   <v>      -0.20396565       0.27399646      -0.00840284 </v>
   <v>      -0.14948234       0.39298940       0.08827773 </v>
   <v>       0.01315166      -0.03712271       0.01479017 </v>
   <v>       0.01633598      -0.00974545       0.11169152 </v>
   <v>      -0.01701473       0.01582212      -0.02392690 </v>
   <v>       0.28244786      -0.30127789       0.00405911 </v>
   <v>      -0.32131650       0.38301838      -0.03412604 </v>
   <v>       0.26571530      -0.47668145      -0.11556104 </v>
   <v>       0.53137061      -0.68313332      -2.14267456 </v>
   <v>       0.31402658      -0.68735673       1.44227077 </v>
   <v>       0.36873105       0.73550319      -2.18002061 </v>
   <v>      -0.52574609       0.67710834       2.14577789 </v>
   <v>      -0.24240062       0.52680591      -1.38726734 </v>
   <v>       0.23320209       0.51956696       1.39673911 </v>
   <v>       0.52661067      -0.68546381      -2.14099840 </v>
   <v>      -0.36815473      -0.68950222       2.17489166 </v>
   <v>      -0.69212761       0.17798991      -2.15326873 </v>
   <v>      -0.18868980       0.14222962       2.90385851 </v>
   <v>      -0.22051937      -0.53135388      -1.40935944 </v>
   <v>      -0.47511253      -0.56172658       2.11453156 </v>
   <v>       0.19153642      -0.15706786      -2.88302050 </v>
   <v>       0.68763453      -0.13511598       2.16009338 </v>
   <v>       0.03251532       0.12293703      -2.94149652 </v>
   <v>      -0.19126996       0.14285852       2.90531033 </v>
   <v>       0.46884717       0.55579351      -2.11916567 </v>
   <v>      -0.48162516       0.60745608       2.15699936 </v>
  </varray>
  <varray name="stress" >
   <v>       7.27673457      -0.12088209      -1.59975441 </v>
   <v>      -0.12088204       4.48884555      -0.03811790 </v>
   <v>      -1.59975443      -0.03811779      30.27878453 </v>
  </varray>
  <energy>
   <i name="e_fr_energy">   -186.89337988 </i>
   <i name="e_wo_entrp">   -186.72269635 </i>
   <i name="e_0_energy">     -0.34136705 </i>
  </energy>
  <time name="totalsc">  785.92  788.02</time>
 </calculation>
 <calculation>
  <scstep>
   <time name="dav">   21.96   22.01</time>
   <time name="total">   22.50   22.56</time>
   <energy>
    <i name="alphaZ">     78.91876387 </i>
    <i name="ewald">  39379.22976107 </i>
    <i name="hartreedc"> -45336.81597533 </i>
    <i name="XCdc">   -239.05311130 </i>
    <i name="pawpsdc">   4192.14985339 </i>
    <i name="pawaedc">  -3610.17472014 </i>
    <i name="eentropy">     -0.27870805 </i>
    <i name="bandstr">  -1412.95070513 </i>
    <i name="atom">   6761.44252427 </i>
    <i name="e_fr_energy">   -187.53231735 </i>
    <i name="e_wo_entrp">   -187.25360931 </i>
    <i name="e_0_energy">   -187.39296333 </i>
   </energy>
  </scstep>
  <scstep>
   <time name="dav">   30.69   30.76</time>
   <time name="total">   31.23   31.31</time>
   <energy>
    <i name="e_fr_energy">   -189.48965339 </i>
    <i name="e_wo_entrp">   -189.15956722 </i>
    <i name="e_0_energy">   -189.32461031 </i>
   </energy>
  </scstep>
  <scstep>
   <time name="dav">   30.85   30.93</time>
   <time name="total">   31.40   31.49</time>
   <energy>
    <i name="e_fr_energy">   -189.37298429 </i>
    <i name="e_wo_entrp">   -189.10199980 </i>
    <i name="e_0_energy">   -189.23749205 </i>
   </energy>
  </scstep>
  <scstep>
   <time name="dav">   31.00   31.07</time>
   <time name="total">   31.54   31.63</time>
   <energy>
    <i name="e_fr_energy">   -188.78751689 </i>
    <i name="e_wo_entrp">   -188.50857888 </i>
    <i name="e_0_energy">   -188.64804788 </i>
   </energy>
  </scstep>
  <scstep>
   <time name="dav">   30.71   30.79</time>
   <time name="total">   31.26   31.34</time>
   <energy>
    <i name="e_fr_energy">   -188.92815495 </i>
    <i name="e_wo_entrp">   -188.63656643 </i>
    <i name="e_0_energy">   -188.78236069 </i>
   </energy>
  </scstep>
  <scstep>
   <time name="dav">   31.55   31.62</time>
   <time name="total">   32.09   32.18</time>
   <energy>
    <i name="e_fr_energy">   -188.75147684 </i>
    <i name="e_wo_entrp">   -188.47584005 </i>
    <i name="e_0_energy">   -188.61365845 </i>
   </energy>
  </scstep>
  <scstep>
   <time name="dav">   29.55   29.62</time>
   <time name="total">   30.10   30.18</time>
   <energy>
    <i name="e_fr_energy">   -188.71989779 </i>
    <i name="e_wo_entrp">   -188.44008152 </i>
    <i name="e_0_energy">   -188.57998965 </i>
   </energy>
  </scstep>
  <scstep>
   <time name="dav">   32.08   32.16</time>
   <time name="total">   32.64   32.72</time>
   <energy>
    <i name="e_fr_energy">   -188.71157745 </i>
    <i name="e_wo_entrp">   -188.43408017 </i>
    <i name="e_0_energy">   -188.57282881 </i>
   </energy>
  </scstep>
  <scstep>
   <time name="dav">   29.86   29.93</time>
   <time name="total">   30.40   30.48</time>
   <energy>
    <i name="e_fr_energy">   -188.70004595 </i>
    <i name="e_wo_entrp">   -188.42297369 </i>
    <i name="e_0_energy">   -188.56150982 </i>
   </energy>
  </scstep>
  <scstep>
   <time name="dav">   31.86   31.93</time>
   <time name="total">   32.40   32.49</time>
   <energy>
    <i name="e_fr_energy">   -188.69953627 </i>
    <i name="e_wo_entrp">   -188.42272192 </i>
    <i name="e_0_energy">   -188.56112909 </i>
   </energy>
  </scstep>
  <scstep>
   <time name="dav">   29.34   29.41</time>
   <time name="total">   29.89   29.97</time>
   <energy>
    <i name="e_fr_energy">   -188.69912960 </i>
    <i name="e_wo_entrp">   -188.42261043 </i>
    <i name="e_0_energy">   -188.56087001 </i>
   </energy>
  </scstep>
  <scstep>
   <time name="dav">   30.06   30.14</time>
   <time name="total">   30.10   30.18</time>
   <energy>
    <i name="alphaZ">     78.91876387 </i>
    <i name="ewald">  39379.22976107 </i>
    <i name="hartreedc"> -45347.68039479 </i>
    <i name="XCdc">   -237.96446528 </i>
    <i name="pawpsdc">   3952.20656706 </i>
    <i name="pawaedc">  -3366.74422384 </i>
    <i name="eentropy">     -0.27655457 </i>
    <i name="bandstr">  -1407.83119310 </i>
    <i name="atom">   6761.44252427 </i>
    <i name="e_fr_energy">   -188.69921530 </i>
    <i name="e_wo_entrp">   -188.42266073 </i>
    <i name="e_0_energy">   -188.56093802 </i>
   </energy>
  </scstep>
  <structure>
   <crystal>
    <varray name="basis" >
     <v>       8.85268334       5.10308449       0.00000000 </v>
     <v>      -8.85624591       5.10921343       0.00000000 </v>
     <v>       0.00000000       0.00000000      30.00000000 </v>
    </varray>
    <i name="volume">   2712.73259291 </i>
    <varray name="rec_basis" >
     <v>       0.05650258       0.09794087       0.00000000 </v>
     <v>      -0.05643480       0.09790147       0.00000000 </v>
     <v>       0.00000000       0.00000000       0.03333333 </v>
    </varray>
   </crystal>
   <varray name="positions" >
    <v>       0.33221313       0.66473797      -0.00012865 </v>
    <v>       0.33407722       0.00187881      -0.00001351 </v>
    <v>       0.00146495       0.00229672       0.00014196 </v>
    <v>       0.33319226       0.33311908       0.00002378 </v>
    <v>       0.99999881       0.33324125       0.00017961 </v>
    <v>       0.66669507       0.33345641      -0.00003848 </v>
    <v>      -0.00065609       0.66443896       0.00000653 </v>
    <v>       0.66760585       0.00272707      -0.00005488 </v>
    <v>       0.66512456       0.66364604      -0.00018583 </v>
    <v>       0.10889401       0.21770199       0.95195438 </v>
    <v>       0.22003381       0.10652176       0.04691930 </v>
    <v>       0.11523108       0.55827739       0.95189432 </v>
    <v>       0.22422772       0.44872179       0.04805060 </v>
    <v>       0.11253199       0.89231214       0.95316914 </v>
    <v>       0.22558525       0.77918963       0.04684608 </v>
    <v>       0.44220295       0.21770408       0.95195708 </v>
    <v>       0.55145895       0.10840943       0.04809742 </v>
    <v>       0.44294470       0.55856062       0.95193734 </v>
    <v>       0.55593890       0.44522413       0.04926966 </v>
    <v>       0.44086189       0.88718694       0.95313362 </v>
    <v>       0.55177290       0.77598522       0.04800035 </v>
    <v>       0.77713296       0.22116520       0.95076384 </v>
    <v>       0.89038291       0.10812534       0.04807362 </v>
    <v>       0.77803063       0.55628106       0.95066980 </v>
    <v>       0.88926804       0.44523431       0.04927199 </v>
    <v>       0.78131622       0.89047207       0.95199218 </v>
    <v>       0.89068378       0.78159903       0.04806864 </v>
   </varray>
  </structure>
  <varray name="forces" >
   <v>       0.15129817      -0.29424324       0.07235986 </v>
   <v>      -0.14210302       0.27495940      -0.08520726 </v>
   <v>      -0.19586597       0.34954321      -0.05446666 </v>
   <v>      -0.00165437       0.15159299      -0.00491109 </v>
   <v>      -0.11303533      -0.11856647       0.03994477 </v>
   <v>      -0.03087603       0.21362514      -0.01309143 </v>
   <v>       0.18793363      -0.52606912       0.09702135 </v>
   <v>      -0.29293501       0.48495238      -0.08043817 </v>
   <v>       0.39683300      -0.48872003       0.06323972 </v>
   <v>       0.02961515      -0.06447729      -0.02696617 </v>
   <v>       0.01247041      -0.04212187       0.03646869 </v>
   <v>      -0.09510610       0.05841647      -0.05673055 </v>
   <v>      -0.03206621       0.06713209       0.05886813 </v>
   <v>       0.07252833      -0.07869573       0.24645615 </v>
   <v>      -0.06327712      -0.07510612      -0.22938799 </v>
   <v>       0.02902395      -0.08528247      -0.05346558 </v>
   <v>       0.10044591      -0.05025390       0.04843209 </v>
   <v>       0.01020561       0.09793330      -0.11958411 </v>
   <v>      -0.05099660       0.11159556       0.13772593 </v>
   <v>       0.05126607       0.07970091       0.19306904 </v>
   <v>       0.04868182       0.06918141      -0.29155680 </v>
   <v>       0.05521344      -0.10239207      -0.13863092 </v>
   <v>      -0.01819900      -0.09240216       0.11481991 </v>
   <v>      -0.06529121       0.08321717      -0.14912359 </v>
   <v>      -0.05284548       0.11084240       0.17075776 </v>
   <v>      -0.05133582      -0.06857801       0.25824485 </v>
   <v>       0.06007180      -0.06578395      -0.23384794 </v>
  </varray>
  <varray name="stress" >
   <v>     -19.96661017       0.02715894      -0.02846012 </v>
   <v>       0.02715895     -19.55996261       0.10806642 </v>
   <v>      -0.02846029       0.10806652      -1.78988921 </v>
  </varray>
  <energy>
   <i name="e_fr_energy">   -188.69921530 </i>
   <i name="e_wo_entrp">   -188.56093802 </i>
   <i name="e_0_energy">     -0.27655457 </i>
  </energy>
  <time name="totalsc">  407.66  408.73</time>
 </calculation>
 <calculation>
  <scstep>
   <time name="dav">   23.90   23.96</time>
   <time name="total">   24.44   24.50</time>
   <energy>
    <i name="alphaZ">     82.33585443 </i>
    <i name="ewald">  41298.32551052 </i>
    <i name="hartreedc"> -47297.25537907 </i>
    <i name="XCdc">   -233.85359694 </i>
    <i name="pawpsdc">   3950.62978429 </i>
    <i name="pawaedc">  -3365.14923291 </i>
    <i name="eentropy">     -0.23220366 </i>
    <i name="bandstr">  -1386.86367614 </i>
    <i name="atom">   6761.44252427 </i>
    <i name="e_fr_energy">   -190.62041521 </i>
    <i name="e_wo_entrp">   -190.38821154 </i>
    <i name="e_0_energy">   -190.50431338 </i>
   </energy>
  </scstep>
  <scstep>
   <time name="dav">   28.07   28.13</time>
   <time name="total">   28.59   28.67</time>
   <energy>
    <i name="e_fr_energy">   -190.57029758 </i>
    <i name="e_wo_entrp">   -190.34172184 </i>
    <i name="e_0_energy">   -190.45600971 </i>
   </energy>
  </scstep>
  <scstep>
   <time name="dav">   30.67   30.74</time>
   <time name="total">   31.20   31.28</time>
   <energy>
    <i name="e_fr_energy">   -190.10805852 </i>
    <i name="e_wo_entrp">   -189.85905286 </i>
    <i name="e_0_energy">   -189.98355569 </i>
   </energy>
  </scstep>
  <scstep>
   <time name="dav">   31.08   31.16</time>
   <time name="total">   31.62   31.70</time>
   <energy>
    <i name="e_fr_energy">   -189.89512136 </i>
    <i name="e_wo_entrp">   -189.66665107 </i>
    <i name="e_0_energy">   -189.78088621 </i>
   </energy>
  </scstep>
  <scstep>
   <time name="dav">   30.58   30.66</time>
   <time name="total">   31.11   31.20</time>
   <energy>
    <i name="e_fr_energy">   -189.84865457 </i>
    <i name="e_wo_entrp">   -189.61381294 </i>
    <i name="e_0_energy">   -189.73123375 </i>
   </energy>
  </scstep>
  <scstep>
   <time name="dav">   31.44   31.51</time>
   <time name="total">   31.97   32.06</time>
   <energy>
    <i name="e_fr_energy">   -189.79805845 </i>
    <i name="e_wo_entrp">   -189.56390161 </i>
    <i name="e_0_energy">   -189.68098003 </i>
   </energy>
  </scstep>
  <scstep>
   <time name="dav">   29.10   29.18</time>
   <time name="total">   29.64   29.72</time>
   <energy>
    <i name="e_fr_energy">   -189.79147672 </i>
    <i name="e_wo_entrp">   -189.55865987 </i>
    <i name="e_0_energy">   -189.67506829 </i>
   </energy>
  </scstep>
  <scstep>
   <time name="dav">   30.65   30.72</time>
   <time name="total">   31.18   31.27</time>
   <energy>
    <i name="e_fr_energy">   -189.79207302 </i>
    <i name="e_wo_entrp">   -189.55910032 </i>
    <i name="e_0_energy">   -189.67558667 </i>
   </energy>
  </scstep>
  <scstep>
   <time name="dav">   27.32   27.39</time>
   <time name="total">   27.85   27.93</time>
   <energy>
    <i name="e_fr_energy">   -189.79152776 </i>
    <i name="e_wo_entrp">   -189.55847347 </i>
    <i name="e_0_energy">   -189.67500061 </i>
   </energy>
  </scstep>
  <scstep>
   <time name="dav">   25.18   25.24</time>
   <time name="total">   25.71   25.78</time>
   <energy>
    <i name="e_fr_energy">   -189.79181405 </i>
    <i name="e_wo_entrp">   -189.55875685 </i>
    <i name="e_0_energy">   -189.67528545 </i>
   </energy>
  </scstep>
  <scstep>
   <time name="dav">   23.47   23.53</time>
   <time name="total">   24.01   24.07</time>
   <energy>
    <i name="e_fr_energy">   -189.79154090 </i>
    <i name="e_wo_entrp">   -189.55836832 </i>
    <i name="e_0_energy">   -189.67495461 </i>
   </energy>
  </scstep>
  <scstep>
   <time name="dav">   18.72   18.77</time>
   <time name="total">   18.76   18.81</time>
   <energy>
    <i name="alphaZ">     82.33585443 </i>
    <i name="ewald">  41298.32551052 </i>
    <i name="hartreedc"> -47270.59719241 </i>
    <i name="XCdc">   -235.24512562 </i>
    <i name="pawpsdc">   4038.66246213 </i>
    <i name="pawaedc">  -3454.37111892 </i>
    <i name="eentropy">     -0.23314697 </i>
    <i name="bandstr">  -1410.11133161 </i>
    <i name="atom">   6761.44252427 </i>
    <i name="e_fr_energy">   -189.79156418 </i>
    <i name="e_wo_entrp">   -189.55841721 </i>
    <i name="e_0_energy">   -189.67499070 </i>
   </energy>
  </scstep>
  <structure>
   <crystal>
    <varray name="basis" >
     <v>       8.66527270       4.99742487       0.00000000 </v>
     <v>      -8.66846549       5.00291627       0.00000000 </v>
     <v>       0.00000000       0.00000000      30.00000000 </v>
    </varray>
    <i name="volume">   2600.14916232 </i>
    <varray name="rec_basis" >
     <v>       0.05772265       0.10001502       0.00000000 </v>
     <v>      -0.05765929       0.09997818       0.00000000 </v>
     <v>       0.00000000       0.00000000       0.03333333 </v>
    </varray>
   </crystal>
   <varray name="positions" >
    <v>       0.33187014       0.66410606      -0.00008784 </v>
    <v>       0.33439703       0.00247000      -0.00006157 </v>
    <v>       0.00185697       0.00306281       0.00011124 </v>
    <v>       0.33344191       0.33337179       0.00002101 </v>
    <v>       0.99969424       0.33315278       0.00020214 </v>
    <v>       0.66701958       0.33383978      -0.00004586 </v>
    <v>      -0.00134824       0.66338802       0.00006125 </v>
    <v>       0.66812947       0.00381016      -0.00010025 </v>
    <v>       0.66469403       0.66245749      -0.00015016 </v>
    <v>       0.10881547       0.21756690       0.95193917 </v>
    <v>       0.21997592       0.10644008       0.04693987 </v>
    <v>       0.11523696       0.55846498       0.95186233 </v>
    <v>       0.22430832       0.44886362       0.04808380 </v>
    <v>       0.11247092       0.89211252       0.95330815 </v>
    <v>       0.22540028       0.77912563       0.04671670 </v>
    <v>       0.44208937       0.21753509       0.95192692 </v>
    <v>       0.55147170       0.10823027       0.04812473 </v>
    <v>       0.44311676       0.55871311       0.95186989 </v>
    <v>       0.55607508       0.44545769       0.04934734 </v>
    <v>       0.44104298       0.88727001       0.95324251 </v>
    <v>       0.55193410       0.77605334       0.04783591 </v>
    <v>       0.77701606       0.22094286       0.95068565 </v>
    <v>       0.89021238       0.10798965       0.04813838 </v>
    <v>       0.77810612       0.55648127       0.95058569 </v>
    <v>       0.88940121       0.44546840       0.04936831 </v>
    <v>       0.78115349       0.89040749       0.95213784 </v>
    <v>       0.89063219       0.78143269       0.04793675 </v>
   </varray>
  </structure>
  <varray name="forces" >
   <v>       0.18518342      -0.29550887       0.08735248 </v>
   <v>      -0.12357785       0.28338422      -0.08528313 </v>
   <v>      -0.23884006       0.33064031      -0.07663985 </v>
   <v>      -0.01308896       0.21807245      -0.01205748 </v>
   <v>      -0.13637250      -0.16260746       0.01171900 </v>
   <v>      -0.04293016       0.27226706      -0.00644986 </v>
   <v>       0.14649897      -0.58878755       0.08551226 </v>
   <v>      -0.26683024       0.50698510      -0.06587055 </v>
   <v>       0.43337100      -0.50186411       0.08360441 </v>
   <v>       0.06481651      -0.11178223      -0.50256430 </v>
   <v>       0.04355770      -0.09233580       0.48903204 </v>
   <v>       0.02857467       0.10888361      -0.56057987 </v>
   <v>      -0.06033981       0.12457992       0.54303713 </v>
   <v>       0.00508016       0.03376100      -0.18508636 </v>
   <v>       0.00866926       0.05962224       0.21061435 </v>
   <v>       0.05700535      -0.13917067      -0.53848388 </v>
   <v>      -0.02289640      -0.10414805       0.55555646 </v>
   <v>      -0.09892936       0.01526665      -0.63730438 </v>
   <v>      -0.00653482       0.02138366       0.70172019 </v>
   <v>      -0.01970724      -0.05330365      -0.24747677 </v>
   <v>      -0.02605096      -0.03012733       0.17099181 </v>
   <v>       0.00841757      -0.01557357      -0.70255029 </v>
   <v>       0.09186780      -0.02362318       0.63346661 </v>
   <v>      -0.01843941       0.02056198      -0.73764112 </v>
   <v>      -0.00641000       0.02778103       0.74255193 </v>
   <v>       0.02551023       0.03957046      -0.20670540 </v>
   <v>      -0.01760487       0.05607278       0.24953456 </v>
  </varray>
  <varray name="stress" >
   <v>     -10.18018735       0.03557150      -0.04758673 </v>
   <v>       0.03557139      -9.86034569       0.12773489 </v>
   <v>      -0.04758673       0.12773498       6.47564466 </v>
  </varray>
  <energy>
   <i name="e_fr_energy">   -189.79156418 </i>
   <i name="e_wo_entrp">   -189.67499070 </i>
   <i name="e_0_energy">     -0.23314697 </i>
  </energy>
  <time name="totalsc">  378.21  379.22</time>
 </calculation>
 <calculation>
  <scstep>
   <time name="dav">   21.91   21.96</time>
   <time name="total">   22.43   22.49</time>
   <energy>
    <i name="alphaZ">     85.80325697 </i>
    <i name="ewald">  42825.18870919 </i>
    <i name="hartreedc"> -48841.80603136 </i>
    <i name="XCdc">   -232.96516457 </i>
    <i name="pawpsdc">   4038.77810857 </i>
    <i name="pawaedc">  -3454.48473483 </i>
    <i name="eentropy">     -0.19156570 </i>
    <i name="bandstr">  -1373.13268751 </i>
    <i name="atom">   6761.44252427 </i>
    <i name="e_fr_energy">   -191.36758496 </i>
    <i name="e_wo_entrp">   -191.17601926 </i>
    <i name="e_0_energy">   -191.27180211 </i>
   </energy>
  </scstep>
  <scstep>
   <time name="dav">   32.87   32.95</time>
   <time name="total">   33.39   33.47</time>
   <energy>
    <i name="e_fr_energy">   -191.18398957 </i>
    <i name="e_wo_entrp">   -190.99412077 </i>
    <i name="e_0_energy">   -191.08905517 </i>
   </energy>
  </scstep>
  <scstep>
   <time name="dav">   30.32   30.39</time>
   <time name="total">   30.83   30.92</time>
   <energy>
    <i name="e_fr_energy">   -191.33875697 </i>
    <i name="e_wo_entrp">   -191.11462503 </i>
    <i name="e_0_energy">   -191.22669100 </i>
   </energy>
  </scstep>
  <scstep>
   <time name="dav">   30.79   30.87</time>
   <time name="total">   31.32   31.62</time>
   <energy>
    <i name="e_fr_energy">   -190.93947329 </i>
    <i name="e_wo_entrp">   -190.74793705 </i>
    <i name="e_0_energy">   -190.84370517 </i>
   </energy>
  </scstep>
  <scstep>
   <time name="dav">   30.52   30.59</time>
   <time name="total">   31.04   31.12</time>
   <energy>
    <i name="e_fr_energy">   -190.90017034 </i>
    <i name="e_wo_entrp">   -190.70553728 </i>
    <i name="e_0_energy">   -190.80285381 </i>
   </energy>
  </scstep>
  <scstep>
   <time name="dav">   30.56   30.63</time>
   <time name="total">   31.08   31.16</time>
   <energy>
    <i name="e_fr_energy">   -190.80865023 </i>
    <i name="e_wo_entrp">   -190.61007198 </i>
    <i name="e_0_energy">   -190.70936110 </i>
   </energy>
  </scstep>
  <scstep>
   <time name="dav">   31.07   31.14</time>
   <time name="total">   31.59   31.67</time>
   <energy>
    <i name="e_fr_energy">   -190.79735655 </i>
    <i name="e_wo_entrp">   -190.60283835 </i>
    <i name="e_0_energy">   -190.70009745 </i>
   </energy>
  </scstep>
  <scstep>
   <time name="dav">   26.40   26.46</time>
   <time name="total">   26.92   26.99</time>
   <energy>
    <i name="e_fr_energy">   -190.79419762 </i>
    <i name="e_wo_entrp">   -190.59839144 </i>
    <i name="e_0_energy">   -190.69629453 </i>
   </energy>
  </scstep>
  <scstep>
   <time name="dav">   29.12   29.19</time>
   <time name="total">   29.64   29.72</time>
   <energy>
    <i name="e_fr_energy">   -190.79429815 </i>
    <i name="e_wo_entrp">   -190.59854501 </i>
    <i name="e_0_energy">   -190.69642158 </i>
   </energy>
  </scstep>
  <scstep>
   <time name="dav">   28.40   28.47</time>
   <time name="total">   28.92   29.00</time>
   <energy>
    <i name="e_fr_energy">   -190.79419929 </i>
    <i name="e_wo_entrp">   -190.59815100 </i>
    <i name="e_0_energy">   -190.69617515 </i>
   </energy>
  </scstep>
  <scstep>
   <time name="dav">   24.58   24.64</time>
   <time name="total">   25.10   25.16</time>
   <energy>
    <i name="e_fr_energy">   -190.79409431 </i>
    <i name="e_wo_entrp">   -190.59817137 </i>
    <i name="e_0_energy">   -190.69613284 </i>
   </energy>
  </scstep>
  <scstep>
   <time name="dav">   19.75   19.80</time>
   <time name="total">   19.79   19.84</time>
   <energy>
    <i name="alphaZ">     85.80325697 </i>
    <i name="ewald">  42825.18870919 </i>
    <i name="hartreedc"> -48813.22773142 </i>
    <i name="XCdc">   -234.29387020 </i>
    <i name="pawpsdc">   4063.81867534 </i>
    <i name="pawaedc">  -3479.69932573 </i>
    <i name="eentropy">     -0.19596960 </i>
    <i name="bandstr">  -1399.63035665 </i>
    <i name="atom">   6761.44252427 </i>
    <i name="e_fr_energy">   -190.79408781 </i>
    <i name="e_wo_entrp">   -190.59811821 </i>
    <i name="e_0_energy">   -190.69610301 </i>
   </energy>
  </scstep>
  <structure>
   <crystal>
    <varray name="basis" >
     <v>       8.48473990       4.89914743       0.00000000 </v>
     <v>      -8.48644697       4.90207002       0.00000000 </v>
     <v>       0.00000000       0.00000000      30.00000000 </v>
    </varray>
    <i name="volume">   2495.07431871 </i>
    <varray name="rec_basis" >
     <v>       0.05894097       0.10203841       0.00000000 </v>
     <v>      -0.05890583       0.10201788       0.00000000 </v>
     <v>       0.00000000       0.00000000       0.03333333 </v>
    </varray>
   </crystal>
   <varray name="positions" >
    <v>       0.33073545       0.66153695       0.00010559 </v>
    <v>       0.33577198       0.00468326      -0.00023802 </v>
    <v>       0.00295410       0.00600800      -0.00006615 </v>
    <v>       0.33490929       0.33496613      -0.00001001 </v>
    <v>       0.99804000       0.33255108       0.00020234 </v>
    <v>       0.66869783       0.33586216      -0.00005354 </v>
    <v>      -0.00472070       0.65907857       0.00022830 </v>
    <v>       0.67043131       0.00796242      -0.00022407 </v>
    <v>       0.66313858       0.65766816       0.00004009 </v>
    <v>       0.10828248       0.21646456       0.95049471 </v>
    <v>       0.21947462       0.10553477       0.04833672 </v>
    <v>       0.11632649       0.55899096       0.95027382 </v>
    <v>       0.22497296       0.45004525       0.04961927 </v>
    <v>       0.11288461       0.89268397       0.95255782 </v>
    <v>       0.22624577       0.77970063       0.04752703 </v>
    <v>       0.44132985       0.21628353       0.95040014 </v>
    <v>       0.55042423       0.10770435       0.04970565 </v>
    <v>       0.44249048       0.55911622       0.95011089 </v>
    <v>       0.55602374       0.44532528       0.05127898 </v>
    <v>       0.44020289       0.88677729       0.95235547 </v>
    <v>       0.55129503       0.77581821       0.04858350 </v>
    <v>       0.77709870       0.22109969       0.94875235 </v>
    <v>       0.89072744       0.10752366       0.04989024 </v>
    <v>       0.77807904       0.55645217       0.94855887 </v>
    <v>       0.88941110       0.44539060       0.05139104 </v>
    <v>       0.78187488       0.89072271       0.95131434 </v>
    <v>       0.89111232       0.78226385       0.04886453 </v>
   </varray>
  </structure>
  <varray name="forces" >
   <v>       0.19156340      -0.31185583       0.07867473 </v>
   <v>      -0.09727929       0.26718200      -0.04913782 </v>
   <v>      -0.30242034       0.37385408      -0.07225886 </v>
   <v>      -0.02053126       0.25737946      -0.01361029 </v>
   <v>      -0.16179856      -0.20844296      -0.02663538 </v>
   <v>      -0.04375988       0.33682502       0.01286211 </v>
   <v>       0.13647117      -0.60966577       0.02034612 </v>
   <v>      -0.31113156       0.56599439      -0.00343447 </v>
   <v>       0.51461493      -0.55378277       0.03821715 </v>
   <v>       0.00342027       0.02110198      -0.35962013 </v>
   <v>      -0.00474872       0.01620590       0.38027541 </v>
   <v>       0.02084635      -0.01053872      -0.37325131 </v>
   <v>      -0.00986554      -0.01018887       0.39141000 </v>
   <v>       0.03928769      -0.04161930      -0.06211988 </v>
   <v>      -0.02187961      -0.02153392       0.08706856 </v>
   <v>       0.00907433      -0.00358814      -0.38740710 </v>
   <v>      -0.04636515       0.01531438       0.37921998 </v>
   <v>      -0.00953864      -0.01356537      -0.47969692 </v>
   <v>       0.05388811      -0.07790686       0.56346555 </v>
   <v>       0.00453590       0.00311154      -0.14717476 </v>
   <v>       0.00449401       0.04073444      -0.01622404 </v>
   <v>      -0.04957408       0.05711920      -0.53919637 </v>
   <v>       0.01352607       0.03718819       0.49130927 </v>
   <v>       0.02340784      -0.03427378      -0.59174427 </v>
   <v>       0.03974987      -0.05267854       0.59501024 </v>
   <v>       0.02011021      -0.03852802      -0.02707863 </v>
   <v>       0.00390248      -0.00384172       0.11073111 </v>
  </varray>
  <varray name="stress" >
   <v>      -5.86775131      -0.10307985      -0.01534087 </v>
   <v>      -0.10307986      -5.74630895      -0.01310476 </v>
   <v>      -0.01534081      -0.01310484       4.52003602 </v>
  </varray>
  <energy>
   <i name="e_fr_energy">   -190.79408781 </i>
   <i name="e_wo_entrp">   -190.69610301 </i>
   <i name="e_0_energy">     -0.19596960 </i>
  </energy>
  <time name="totalsc">  384.30  385.54</time>
 </calculation>
 <calculation>
  <scstep>
   <time name="dav">   21.88   21.94</time>
   <time name="total">   22.39   22.45</time>
   <energy>
    <i name="alphaZ">     90.21756001 </i>
    <i name="ewald">  44683.61173825 </i>
    <i name="hartreedc"> -50727.61722944 </i>
    <i name="XCdc">   -231.80639570 </i>
    <i name="pawpsdc">   4063.76878358 </i>
    <i name="pawaedc">  -3479.64534717 </i>
    <i name="eentropy">     -0.16451877 </i>
    <i name="bandstr">  -1352.06498129 </i>
    <i name="atom">   6761.44252427 </i>
    <i name="e_fr_energy">   -192.25786627 </i>
    <i name="e_wo_entrp">   -192.09334750 </i>
    <i name="e_0_energy">   -192.17560688 </i>
   </energy>
  </scstep>
  <scstep>
   <time name="dav">   27.80   27.87</time>
   <time name="total">   28.31   28.39</time>
   <energy>
    <i name="e_fr_energy">   -191.99313663 </i>
    <i name="e_wo_entrp">   -191.81644224 </i>
    <i name="e_0_energy">   -191.90478943 </i>
   </energy>
  </scstep>
  <scstep>
   <time name="dav">   30.39   30.46</time>
   <time name="total">   30.90   30.98</time>
   <energy>
    <i name="e_fr_energy">   -192.06670535 </i>
    <i name="e_wo_entrp">   -191.88562516 </i>
    <i name="e_0_energy">   -191.97616526 </i>
   </energy>
  </scstep>
  <scstep>
   <time name="dav">   29.99   30.06</time>
   <time name="total">   30.50   30.58</time>
   <energy>
    <i name="e_fr_energy">   -191.86574100 </i>
    <i name="e_wo_entrp">   -191.68720093 </i>
    <i name="e_0_energy">   -191.77647097 </i>
   </energy>
  </scstep>
  <scstep>
   <time name="dav">   30.79   30.87</time>
   <time name="total">   31.30   31.39</time>
   <energy>
    <i name="e_fr_energy">   -191.60236005 </i>
    <i name="e_wo_entrp">   -191.43235171 </i>
    <i name="e_0_energy">   -191.51735588 </i>
   </energy>
  </scstep>
  <scstep>
   <time name="dav">   31.33   31.41</time>
   <time name="total">   31.84   31.92</time>
   <energy>
    <i name="e_fr_energy">   -191.59168137 </i>
    <i name="e_wo_entrp">   -191.40923524 </i>
    <i name="e_0_energy">   -191.50045830 </i>
   </energy>
  </scstep>
  <scstep>
   <time name="dav">   30.73   30.80</time>
   <time name="total">   31.24   31.32</time>
   <energy>
    <i name="e_fr_energy">   -191.57343250 </i>
    <i name="e_wo_entrp">   -191.40674350 </i>
    <i name="e_0_energy">   -191.49008800 </i>
   </energy>
  </scstep>
  <scstep>
   <time name="dav">   29.36   29.43</time>
   <time name="total">   29.86   29.94</time>
   <energy>
    <i name="e_fr_energy">   -191.56600008 </i>
    <i name="e_wo_entrp">   -191.39432762 </i>
    <i name="e_0_energy">   -191.48016385 </i>
   </energy>
  </scstep>
  <scstep>
   <time name="dav">   30.00   30.07</time>
   <time name="total">   30.52   30.60</time>
   <energy>
    <i name="e_fr_energy">   -191.56515815 </i>
    <i name="e_wo_entrp">   -191.39308964 </i>
    <i name="e_0_energy">   -191.47912390 </i>
   </energy>
  </scstep>
  <scstep>
   <time name="dav">   28.90   28.97</time>
   <time name="total">   29.41   29.49</time>
   <energy>
    <i name="e_fr_energy">   -191.56513405 </i>
    <i name="e_wo_entrp">   -191.39292852 </i>
    <i name="e_0_energy">   -191.47903128 </i>
   </energy>
  </scstep>
  <scstep>
   <time name="dav">   27.53   27.60</time>
   <time name="total">   27.57   27.65</time>
   <energy>
    <i name="alphaZ">     90.21756001 </i>
    <i name="ewald">  44683.61173825 </i>
    <i name="hartreedc"> -50692.73229173 </i>
    <i name="XCdc">   -233.34824020 </i>
    <i name="pawpsdc">   4086.55370924 </i>
    <i name="pawaedc">  -3502.51563767 </i>
    <i name="eentropy">     -0.17242514 </i>
    <i name="bandstr">  -1384.62201077 </i>
    <i name="atom">   6761.44252427 </i>
    <i name="e_fr_energy">   -191.56507374 </i>
    <i name="e_wo_entrp">   -191.39264860 </i>
    <i name="e_0_energy">   -191.47886117 </i>
   </energy>
  </scstep>
  <structure>
   <crystal>
    <varray name="basis" >
     <v>       8.26826460       4.77487863       0.00000000 </v>
     <v>      -8.27560025       4.78754995       0.00000000 </v>
     <v>       0.00000000       0.00000000      30.00000000 </v>
    </varray>
    <i name="volume">   2372.99149873 </i>
    <varray name="rec_basis" >
     <v>       0.06052550       0.10462238       0.00000000 </v>
     <v>      -0.06036531       0.10452964       0.00000000 </v>
     <v>       0.00000000       0.00000000       0.03333333 </v>
    </varray>
   </crystal>
   <varray name="positions" >
    <v>       0.32831853       0.65627845       0.00044283 </v>
    <v>       0.33844301       0.00873331      -0.00045596 </v>
    <v>       0.00528154       0.01268215      -0.00038235 </v>
    <v>       0.33806712       0.33844116      -0.00007125 </v>
    <v>       0.99423380       0.33108939       0.00008732 </v>
    <v>       0.67260042       0.34042895      -0.00000542 </v>
    <v>      -0.01150482       0.65046504       0.00033412 </v>
    <v>       0.67526815       0.01707345      -0.00025710 </v>
    <v>       0.65999314       0.64719756       0.00023923 </v>
    <v>       0.10832500       0.21621967       0.94849038 </v>
    <v>       0.21941079       0.10533975       0.05038292 </v>
    <v>       0.11691152       0.55884369       0.94816224 </v>
    <v>       0.22507482       0.45048198       0.05176517 </v>
    <v>       0.11295991       0.89249224       0.95180913 </v>
    <v>       0.22650662       0.77997118       0.04838519 </v>
    <v>       0.44105783       0.21569391       0.94826985 </v>
    <v>       0.54973655       0.10805221       0.05183865 </v>
    <v>       0.44178800       0.55909374       0.94757185 </v>
    <v>       0.55536305       0.44386086       0.05419195 </v>
    <v>       0.43964428       0.88644154       0.95126673 </v>
    <v>       0.55126428       0.77603578       0.04908167 </v>
    <v>       0.77756127       0.22231697       0.94592386 </v>
    <v>       0.89164723       0.10772469       0.05246873 </v>
    <v>       0.77776896       0.55572999       0.94550311 </v>
    <v>       0.88896825       0.44431178       0.05444415 </v>
    <v>       0.78212626       0.89041555       0.95064308 </v>
    <v>       0.89139896       0.78279946       0.04986981 </v>
   </varray>
  </structure>
  <varray name="forces" >
   <v>       0.18615435      -0.40834094      -0.00897443 </v>
   <v>      -0.11763964       0.32952248      -0.02121317 </v>
   <v>      -0.34746970       0.50371487       0.04932312 </v>
   <v>       0.05152579       0.11407573       0.05251365 </v>
   <v>      -0.11352471      -0.12369728       0.01335611 </v>
   <v>       0.03068387       0.08732545       0.07901419 </v>
   <v>       0.14598684      -0.44077660      -0.04603232 </v>
   <v>      -0.31985877       0.49522946       0.07011762 </v>
   <v>       0.34945902      -0.39526145      -0.11750471 </v>
   <v>      -0.09130067       0.18857966      -0.11832779 </v>
   <v>      -0.05414894       0.08747001       0.05424392 </v>
   <v>      -0.01967592      -0.10768984      -0.09687829 </v>
   <v>       0.04446349      -0.15493921       0.07288807 </v>
   <v>       0.04446888      -0.15091697       0.23270265 </v>
   <v>      -0.05482746      -0.16234284      -0.17176380 </v>
   <v>      -0.04967563       0.14828561      -0.08479856 </v>
   <v>      -0.04181834       0.13716346       0.10956496 </v>
   <v>       0.08190825       0.00293139      -0.14366941 </v>
   <v>       0.14847177      -0.17040113       0.28469927 </v>
   <v>       0.07213152       0.10614435       0.15131167 </v>
   <v>       0.11120730       0.17991328      -0.35739440 </v>
   <v>      -0.14191401       0.11663595      -0.26953762 </v>
   <v>      -0.06237121       0.07681818       0.16914970 </v>
   <v>       0.03649380      -0.06170811      -0.29679067 </v>
   <v>       0.08528563      -0.09189739       0.25980341 </v>
   <v>      -0.00688399      -0.18583059       0.34412485 </v>
   <v>       0.03286849      -0.12000755      -0.20992804 </v>
  </varray>
  <varray name="stress" >
   <v>      -0.24966011      -0.18157018       0.33038429 </v>
   <v>      -0.18157005       0.18144383      -0.33552978 </v>
   <v>       0.33038432      -0.33552977      -0.50980332 </v>
  </varray>
  <energy>
   <i name="e_fr_energy">   -191.56507374 </i>
   <i name="e_wo_entrp">   -191.47886117 </i>
   <i name="e_0_energy">     -0.17242514 </i>
  </energy>
  <time name="totalsc">  365.92  366.90</time>
 </calculation>
 <calculation>
  <scstep>
   <time name="dav">   21.90   21.96</time>
   <time name="total">   22.41   22.46</time>
   <energy>
    <i name="alphaZ">     90.25091421 </i>
    <i name="ewald">  44682.06916168 </i>
    <i name="hartreedc"> -50692.16767495 </i>
    <i name="XCdc">   -233.40102281 </i>
    <i name="pawpsdc">   4086.90535331 </i>
    <i name="pawaedc">  -3502.86355531 </i>
    <i name="eentropy">     -0.16566668 </i>
    <i name="bandstr">  -1383.75884657 </i>
    <i name="atom">   6761.44252427 </i>
    <i name="e_fr_energy">   -191.68881284 </i>
    <i name="e_wo_entrp">   -191.52314616 </i>
    <i name="e_0_energy">   -191.60597950 </i>
   </energy>
  </scstep>
  <scstep>
   <time name="dav">   31.34   31.42</time>
   <time name="total">   31.85   31.94</time>
   <energy>
    <i name="e_fr_energy">   -191.75306257 </i>
    <i name="e_wo_entrp">   -191.56784560 </i>
    <i name="e_0_energy">   -191.66045408 </i>
   </energy>
  </scstep>
  <scstep>
   <time name="dav">   31.09   31.17</time>
   <time name="total">   31.60   31.68</time>
   <energy>
    <i name="e_fr_energy">   -191.70956596 </i>
    <i name="e_wo_entrp">   -191.54377995 </i>
    <i name="e_0_energy">   -191.62667296 </i>
   </energy>
  </scstep>
  <scstep>
   <time name="dav">   29.17   29.24</time>
   <time name="total">   29.68   29.76</time>
   <energy>
    <i name="e_fr_energy">   -191.70876251 </i>
    <i name="e_wo_entrp">   -191.53991107 </i>
    <i name="e_0_energy">   -191.62433679 </i>
   </energy>
  </scstep>
  <scstep>
   <time name="dav">   29.31   29.38</time>
   <time name="total">   29.82   29.90</time>
   <energy>
    <i name="e_fr_energy">   -191.70555131 </i>
    <i name="e_wo_entrp">   -191.53676843 </i>
    <i name="e_0_energy">   -191.62115987 </i>
   </energy>
  </scstep>
  <scstep>
   <time name="dav">   28.68   28.74</time>
   <time name="total">   29.19   29.26</time>
   <energy>
    <i name="e_fr_energy">   -191.70526878 </i>
    <i name="e_wo_entrp">   -191.53581985 </i>
    <i name="e_0_energy">   -191.62054431 </i>
   </energy>
  </scstep>
  <scstep>
   <time name="dav">   29.13   29.20</time>
   <time name="total">   29.63   29.71</time>
   <energy>
    <i name="e_fr_energy">   -191.70471305 </i>
    <i name="e_wo_entrp">   -191.53594062 </i>
    <i name="e_0_energy">   -191.62032684 </i>
   </energy>
  </scstep>
  <scstep>
   <time name="dav">   24.22   24.28</time>
   <time name="total">   24.73   24.80</time>
   <energy>
    <i name="e_fr_energy">   -191.70449555 </i>
    <i name="e_wo_entrp">   -191.53541029 </i>
    <i name="e_0_energy">   -191.61995292 </i>
   </energy>
  </scstep>
  <scstep>
   <time name="dav">   17.87   17.91</time>
   <time name="total">   17.90   17.96</time>
   <energy>
    <i name="alphaZ">     90.25091421 </i>
    <i name="ewald">  44682.06916168 </i>
    <i name="hartreedc"> -50693.00256515 </i>
    <i name="XCdc">   -233.38506863 </i>
    <i name="pawpsdc">   4086.18632999 </i>
    <i name="pawaedc">  -3502.11693194 </i>
    <i name="eentropy">     -0.16880779 </i>
    <i name="bandstr">  -1382.98004625 </i>
    <i name="atom">   6761.44252427 </i>
    <i name="e_fr_energy">   -191.70448961 </i>
    <i name="e_wo_entrp">   -191.53568182 </i>
    <i name="e_0_energy">   -191.62008571 </i>
   </energy>
  </scstep>
  <structure>
   <crystal>
    <varray name="basis" >
     <v>       8.25961698       4.77272117       0.00000000 </v>
     <v>      -8.27162111       4.79348407       0.00000000 </v>
     <v>       0.00000000       0.00000000      30.00000000 </v>
    </varray>
    <i name="volume">   2372.11450764 </i>
    <varray name="rec_basis" >
     <v>       0.06062293       0.10461073       0.00000000 </v>
     <v>      -0.06036034       0.10445892       0.00000000 </v>
     <v>       0.00000000       0.00000000       0.03333333 </v>
    </varray>
   </crystal>
   <varray name="positions" >
    <v>       0.32676998       0.65361610       0.00043047 </v>
    <v>       0.33979388       0.01078476      -0.00049190 </v>
    <v>       0.00683971       0.01631368      -0.00030431 </v>
    <v>       0.33882160       0.33889357       0.00001367 </v>
    <v>       0.99324338       0.33078366       0.00010827 </v>
    <v>       0.67316140       0.34081309       0.00012327 </v>
    <v>      -0.01336633       0.64773399       0.00026009 </v>
    <v>       0.67688129       0.02059598      -0.00014344 </v>
    <v>       0.65898836       0.64408848       0.00004973 </v>
    <v>       0.10901671       0.21744579       0.94828302 </v>
    <v>       0.21969579       0.10594182       0.05048623 </v>
    <v>       0.11631028       0.55835242       0.94798884 </v>
    <v>       0.22441764       0.44956639       0.05189964 </v>
    <v>       0.11232314       0.89159361       0.95218044 </v>
    <v>       0.22552132       0.77930854       0.04811364 </v>
    <v>       0.44166463       0.21659001       0.94811612 </v>
    <v>       0.55030610       0.10887575       0.05203279 </v>
    <v>       0.44203822       0.55886781       0.94731971 </v>
    <v>       0.55492747       0.44254574       0.05467581 </v>
    <v>       0.44039232       0.88676661       0.95150362 </v>
    <v>       0.55250751       0.77662566       0.04850642 </v>
    <v>       0.77774083       0.22333740       0.94546512 </v>
    <v>       0.89186238       0.10830032       0.05276250 </v>
    <v>       0.77755970       0.55530298       0.94499858 </v>
    <v>       0.88874805       0.44358501       0.05488849 </v>
    <v>       0.78116216       0.88948817       0.95119568 </v>
    <v>       0.89088695       0.78209714       0.04953740 </v>
   </varray>
  </structure>
  <varray name="forces" >
   <v>       0.17708292      -0.44424034       0.00168477 </v>
   <v>      -0.13734323       0.37832385      -0.06399227 </v>
   <v>      -0.32405037       0.50477911       0.00806428 </v>
   <v>       0.08260736       0.10595968       0.03463156 </v>
   <v>      -0.13755750      -0.08911500      -0.02959178 </v>
   <v>       0.03100853       0.04746047       0.03099957 </v>
   <v>       0.18157841      -0.43672841      -0.01739472 </v>
   <v>      -0.30932102       0.48806656       0.00166112 </v>
   <v>       0.33556183      -0.42988557      -0.02692990 </v>
   <v>      -0.07608761       0.14539509      -0.08076635 </v>
   <v>      -0.03293326       0.04742780       0.07715902 </v>
   <v>       0.00706870      -0.06458626      -0.11613914 </v>
   <v>       0.03529955      -0.10998622       0.06951817 </v>
   <v>       0.01458922      -0.10870169       0.29475348 </v>
   <v>      -0.03144995      -0.11817968      -0.23026436 </v>
   <v>      -0.03796352       0.09631272      -0.06718207 </v>
   <v>      -0.03885230       0.06959821       0.16085118 </v>
   <v>       0.05692872      -0.02997228      -0.13370174 </v>
   <v>       0.09165292      -0.10640272       0.18711922 </v>
   <v>       0.06439060       0.08665707       0.22380948 </v>
   <v>       0.06496238       0.13847957      -0.39662864 </v>
   <v>      -0.09595174       0.09805719      -0.19610990 </v>
   <v>      -0.05038013       0.07216625       0.18395195 </v>
   <v>       0.05632259      -0.06870010      -0.24012982 </v>
   <v>       0.06680031      -0.06973792       0.20960687 </v>
   <v>      -0.00063285      -0.11935737       0.37899822 </v>
   <v>       0.00666945      -0.08308999      -0.26397819 </v>
  </varray>
  <varray name="stress" >
   <v>       0.09059359      -0.08465692       0.15076715 </v>
   <v>      -0.08465686       0.16656746      -0.24023356 </v>
   <v>       0.15076717      -0.24023367      -1.11607883 </v>
  </varray>
  <energy>
   <i name="e_fr_energy">   -191.70448961 </i>
   <i name="e_wo_entrp">   -191.62008571 </i>
   <i name="e_0_energy">     -0.16880779 </i>
  </energy>
  <time name="totalsc">  289.47  290.24</time>
 </calculation>
 <calculation>
  <scstep>
   <time name="dav">   21.88   21.93</time>
   <time name="total">   22.39   22.45</time>
   <energy>
    <i name="alphaZ">     90.12804882 </i>
    <i name="ewald">  44629.10210903 </i>
    <i name="hartreedc"> -50638.41620052 </i>
    <i name="XCdc">   -233.47114415 </i>
    <i name="pawpsdc">   4086.20949499 </i>
    <i name="pawaedc">  -3502.14033854 </i>
    <i name="eentropy">     -0.16268410 </i>
    <i name="bandstr">  -1384.52299135 </i>
    <i name="atom">   6761.44252427 </i>
    <i name="e_fr_energy">   -191.83118154 </i>
    <i name="e_wo_entrp">   -191.66849743 </i>
    <i name="e_0_energy">   -191.74983949 </i>
   </energy>
  </scstep>
  <scstep>
   <time name="dav">   31.52   31.59</time>
   <time name="total">   32.02   32.11</time>
   <energy>
    <i name="e_fr_energy">   -191.87709416 </i>
    <i name="e_wo_entrp">   -191.70224675 </i>
    <i name="e_0_energy">   -191.78967045 </i>
   </energy>
  </scstep>
  <scstep>
   <time name="dav">   31.14   31.22</time>
   <time name="total">   31.65   31.73</time>
   <energy>
    <i name="e_fr_energy">   -191.85212099 </i>
    <i name="e_wo_entrp">   -191.69079561 </i>
    <i name="e_0_energy">   -191.77145830 </i>
   </energy>
  </scstep>
  <scstep>
   <time name="dav">   29.24   29.31</time>
   <time name="total">   29.74   29.82</time>
   <energy>
    <i name="e_fr_energy">   -191.84850143 </i>
    <i name="e_wo_entrp">   -191.68404217 </i>
    <i name="e_0_energy">   -191.76627180 </i>
   </energy>
  </scstep>
  <scstep>
   <time name="dav">   30.27   30.34</time>
   <time name="total">   30.77   30.86</time>
   <energy>
    <i name="e_fr_energy">   -191.84800597 </i>
    <i name="e_wo_entrp">   -191.68382217 </i>
    <i name="e_0_energy">   -191.76591407 </i>
   </energy>
  </scstep>
  <scstep>
   <time name="dav">   29.85   29.92</time>
   <time name="total">   30.35   30.44</time>
   <energy>
    <i name="e_fr_energy">   -191.84702354 </i>
    <i name="e_wo_entrp">   -191.68289169 </i>
    <i name="e_0_energy">   -191.76495762 </i>
   </energy>
  </scstep>
  <scstep>
   <time name="dav">   26.40   26.46</time>
   <time name="total">   26.91   26.98</time>
   <energy>
    <i name="e_fr_energy">   -191.84609028 </i>
    <i name="e_wo_entrp">   -191.68195360 </i>
    <i name="e_0_energy">   -191.76402194 </i>
   </energy>
  </scstep>
  <scstep>
   <time name="dav">   20.55   20.60</time>
   <time name="total">   20.59   20.64</time>
   <energy>
    <i name="alphaZ">     90.12804882 </i>
    <i name="ewald">  44629.10210903 </i>
    <i name="hartreedc"> -50640.01014116 </i>
    <i name="XCdc">   -233.40747195 </i>
    <i name="pawpsdc">   4088.51740811 </i>
    <i name="pawaedc">  -3504.46952910 </i>
    <i name="eentropy">     -0.16397011 </i>
    <i name="bandstr">  -1382.98509115 </i>
    <i name="atom">   6761.44252427 </i>
    <i name="e_fr_energy">   -191.84611322 </i>
    <i name="e_wo_entrp">   -191.68214311 </i>
[...]
      <set comment="kpoint 31">
       <r>  -17.5257    1.0000 </r>
       <r>  -17.3025    1.0000 </r>
       <r>  -16.9089    1.0000 </r>
       <r>  -16.7053    1.0000 </r>
       <r>  -16.4953    1.0000 </r>
       <r>  -16.4359    1.0000 </r>
       <r>  -16.3340    1.0000 </r>
       <r>  -16.2461    1.0000 </r>
       <r>  -16.0655    1.0000 </r>
       <r>  -15.9979    1.0000 </r>
       <r>  -15.9590    1.0000 </r>
       <r>  -15.8641    1.0000 </r>
       <r>  -15.7749    1.0000 </r>
       <r>  -15.6773    1.0000 </r>
       <r>  -15.6045    1.0000 </r>
       <r>  -15.5569    1.0000 </r>
       <r>  -15.3166    1.0000 </r>
       <r>  -15.2389    1.0000 </r>
       <r>   -9.8025    1.0000 </r>
       <r>   -9.5090    1.0000 </r>
       <r>   -9.2793    1.0000 </r>
       <r>   -9.0118    1.0000 </r>
       <r>   -8.9109    1.0000 </r>
       <r>   -8.6821    1.0000 </r>
       <r>   -8.5403    1.0000 </r>
       <r>   -8.4586    1.0000 </r>
       <r>   -8.4044    1.0000 </r>
       <r>   -8.3209    1.0000 </r>
       <r>   -8.2913    1.0000 </r>
       <r>   -8.2154    1.0000 </r>
       <r>   -8.1554    1.0000 </r>
       <r>   -8.1055    1.0000 </r>
       <r>   -8.0354    1.0000 </r>
       <r>   -7.8810    1.0000 </r>
       <r>   -7.7666    1.0000 </r>
       <r>   -7.7090    1.0000 </r>
       <r>   -7.6281    1.0000 </r>
       <r>   -7.3963    1.0000 </r>
       <r>   -7.3599    1.0000 </r>
       <r>   -7.2213    1.0000 </r>
       <r>   -7.1688    1.0000 </r>
       <r>   -7.1155    1.0000 </r>
       <r>   -7.0695    1.0000 </r>
       <r>   -6.8615    1.0000 </r>
       <r>   -6.8457    1.0000 </r>
       <r>   -6.7778    1.0000 </r>
       <r>   -6.6293    1.0000 </r>
       <r>   -6.5998    1.0000 </r>
       <r>   -6.5355    1.0000 </r>
       <r>   -6.4883    1.0000 </r>
       <r>   -6.4112    1.0000 </r>
       <r>   -6.3795    1.0000 </r>
       <r>   -6.2576    1.0000 </r>
       <r>   -6.2081    1.0000 </r>
       <r>   -6.1232    1.0000 </r>
       <r>   -6.0583    1.0000 </r>
       <r>   -6.0128    1.0000 </r>
       <r>   -5.9307    1.0000 </r>
       <r>   -5.8772    1.0000 </r>
       <r>   -5.7680    1.0000 </r>
       <r>   -5.6571    1.0000 </r>
       <r>   -5.5771    1.0000 </r>
       <r>   -5.4961    1.0000 </r>
       <r>   -5.4242    1.0000 </r>
       <r>   -5.3025    1.0000 </r>
       <r>   -5.2059    1.0000 </r>
       <r>   -5.0787    1.0000 </r>
       <r>   -4.8363    1.0000 </r>
       <r>   -4.8157    1.0000 </r>
       <r>   -4.5885    1.0000 </r>
       <r>   -4.5601    1.0000 </r>
       <r>   -4.4641    1.0000 </r>
       <r>   -4.3527    1.0000 </r>
       <r>   -4.2493    1.0000 </r>
       <r>   -4.1531    1.0000 </r>
       <r>   -4.0934    1.0000 </r>
       <r>   -4.0101    1.0000 </r>
       <r>   -3.6847    0.9995 </r>
       <r>   -3.5365    0.9869 </r>
       <r>   -3.1032    0.2003 </r>
       <r>   -2.9662    0.0352 </r>
       <r>   -2.7972    0.0013 </r>
       <r>   -2.6747    0.0001 </r>
       <r>   -2.5536    0.0000 </r>
       <r>   -2.4613    0.0000 </r>
       <r>   -2.3682    0.0000 </r>
       <r>   -2.0719    0.0000 </r>
       <r>   -2.0315    0.0000 </r>
       <r>   -1.9963    0.0000 </r>
       <r>   -1.8723    0.0000 </r>
       <r>   -1.6968    0.0000 </r>
       <r>   -1.5820    0.0000 </r>
       <r>   -1.5049    0.0000 </r>
       <r>   -1.4318    0.0000 </r>
       <r>   -1.3206    0.0000 </r>
       <r>   -1.1953    0.0000 </r>
       <r>   -1.0717    0.0000 </r>
       <r>   -1.0457    0.0000 </r>
       <r>   -0.9704    0.0000 </r>
       <r>   -0.8931    0.0000 </r>
       <r>   -0.8408    0.0000 </r>
       <r>   -0.7039    0.0000 </r>
       <r>   -0.6516    0.0000 </r>
       <r>   -0.6227    0.0000 </r>
       <r>   -0.4423    0.0000 </r>
       <r>   -0.2941    0.0000 </r>
       <r>   -0.1639    0.0000 </r>
       <r>   -0.0164    0.0000 </r>
       <r>    0.0463    0.0000 </r>
       <r>    0.1175    0.0000 </r>
       <r>    0.4486    0.0000 </r>
       <r>    0.7106    0.0000 </r>
       <r>    0.8006    0.0000 </r>
       <r>    0.8992    0.0000 </r>
       <r>    1.0612    0.0000 </r>
       <r>    1.2102    0.0000 </r>
       <r>    1.2820    0.0000 </r>
       <r>    2.1309    0.0000 </r>
       <r>    2.3167    0.0000 </r>
       <r>    2.3802    0.0000 </r>
      </set>
      <set comment="kpoint 32">
       <r>  -17.5362    1.0000 </r>
       <r>  -17.2270    1.0000 </r>
       <r>  -17.0315    1.0000 </r>
       <r>  -16.6986    1.0000 </r>
       <r>  -16.4599    1.0000 </r>
       <r>  -16.3722    1.0000 </r>
       <r>  -16.3287    1.0000 </r>
       <r>  -16.2489    1.0000 </r>
       <r>  -16.1230    1.0000 </r>
       <r>  -16.0441    1.0000 </r>
       <r>  -15.9431    1.0000 </r>
       <r>  -15.8567    1.0000 </r>
       <r>  -15.7760    1.0000 </r>
       <r>  -15.6781    1.0000 </r>
       <r>  -15.5724    1.0000 </r>
       <r>  -15.5176    1.0000 </r>
       <r>  -15.3502    1.0000 </r>
       <r>  -15.2429    1.0000 </r>
       <r>   -9.7470    1.0000 </r>
       <r>   -9.5763    1.0000 </r>
       <r>   -9.3962    1.0000 </r>
       <r>   -8.9727    1.0000 </r>
       <r>   -8.7385    1.0000 </r>
       <r>   -8.6279    1.0000 </r>
       <r>   -8.5317    1.0000 </r>
       <r>   -8.4606    1.0000 </r>
       <r>   -8.4098    1.0000 </r>
       <r>   -8.3781    1.0000 </r>
       <r>   -8.3031    1.0000 </r>
       <r>   -8.2451    1.0000 </r>
       <r>   -8.1327    1.0000 </r>
       <r>   -8.1018    1.0000 </r>
       <r>   -8.0477    1.0000 </r>
       <r>   -7.9169    1.0000 </r>
       <r>   -7.7986    1.0000 </r>
       <r>   -7.7756    1.0000 </r>
       <r>   -7.6261    1.0000 </r>
       <r>   -7.4362    1.0000 </r>
       <r>   -7.3497    1.0000 </r>
       <r>   -7.2437    1.0000 </r>
       <r>   -7.1987    1.0000 </r>
       <r>   -7.1414    1.0000 </r>
       <r>   -7.0237    1.0000 </r>
       <r>   -6.8828    1.0000 </r>
       <r>   -6.8416    1.0000 </r>
       <r>   -6.7182    1.0000 </r>
       <r>   -6.6568    1.0000 </r>
       <r>   -6.5975    1.0000 </r>
       <r>   -6.5157    1.0000 </r>
       <r>   -6.4563    1.0000 </r>
       <r>   -6.4011    1.0000 </r>
       <r>   -6.3597    1.0000 </r>
       <r>   -6.2655    1.0000 </r>
       <r>   -6.2247    1.0000 </r>
       <r>   -6.1295    1.0000 </r>
       <r>   -6.0231    1.0000 </r>
       <r>   -5.9671    1.0000 </r>
       <r>   -5.8846    1.0000 </r>
       <r>   -5.8449    1.0000 </r>
       <r>   -5.7038    1.0000 </r>
       <r>   -5.6189    1.0000 </r>
       <r>   -5.5800    1.0000 </r>
       <r>   -5.4993    1.0000 </r>
       <r>   -5.4145    1.0000 </r>
       <r>   -5.3710    1.0000 </r>
       <r>   -5.1951    1.0000 </r>
       <r>   -5.1447    1.0000 </r>
       <r>   -4.8633    1.0000 </r>
       <r>   -4.7579    1.0000 </r>
       <r>   -4.6594    1.0000 </r>
       <r>   -4.5092    1.0000 </r>
       <r>   -4.4723    1.0000 </r>
       <r>   -4.4029    1.0000 </r>
       <r>   -4.2661    1.0000 </r>
       <r>   -4.1937    1.0000 </r>
       <r>   -4.0937    1.0000 </r>
       <r>   -3.9343    1.0000 </r>
       <r>   -3.6698    0.9992 </r>
       <r>   -3.5305    0.9854 </r>
       <r>   -3.1569    0.3225 </r>
       <r>   -2.9072    0.0130 </r>
       <r>   -2.8299    0.0028 </r>
       <r>   -2.7216    0.0002 </r>
       <r>   -2.5653    0.0000 </r>
       <r>   -2.5047    0.0000 </r>
       <r>   -2.3644    0.0000 </r>
       <r>   -2.1141    0.0000 </r>
       <r>   -2.0617    0.0000 </r>
       <r>   -2.0119    0.0000 </r>
       <r>   -1.9391    0.0000 </r>
       <r>   -1.6969    0.0000 </r>
       <r>   -1.5315    0.0000 </r>
       <r>   -1.4288    0.0000 </r>
       <r>   -1.4017    0.0000 </r>
       <r>   -1.2828    0.0000 </r>
       <r>   -1.1826    0.0000 </r>
       <r>   -1.0775    0.0000 </r>
       <r>   -0.9854    0.0000 </r>
       <r>   -0.9545    0.0000 </r>
       <r>   -0.8642    0.0000 </r>
       <r>   -0.7981    0.0000 </r>
       <r>   -0.7370    0.0000 </r>
       <r>   -0.6526    0.0000 </r>
       <r>   -0.6344    0.0000 </r>
       <r>   -0.4919    0.0000 </r>
       <r>   -0.3408    0.0000 </r>
       <r>   -0.2241    0.0000 </r>
       <r>   -0.0330    0.0000 </r>
       <r>    0.0371    0.0000 </r>
       <r>    0.1809    0.0000 </r>
       <r>    0.4815    0.0000 </r>
       <r>    0.5931    0.0000 </r>
       <r>    0.8222    0.0000 </r>
       <r>    0.9132    0.0000 </r>
       <r>    1.0601    0.0000 </r>
       <r>    1.1834    0.0000 </r>
       <r>    1.3963    0.0000 </r>
       <r>    2.1089    0.0000 </r>
       <r>    2.2796    0.0000 </r>
       <r>    2.5786    0.0000 </r>
      </set>
      <set comment="kpoint 33">
       <r>  -17.5110    1.0000 </r>
       <r>  -17.3053    1.0000 </r>
       <r>  -16.9296    1.0000 </r>
       <r>  -16.6893    1.0000 </r>
       <r>  -16.5012    1.0000 </r>
       <r>  -16.4756    1.0000 </r>
       <r>  -16.3362    1.0000 </r>
       <r>  -16.1883    1.0000 </r>
       <r>  -16.1454    1.0000 </r>
       <r>  -16.0632    1.0000 </r>
       <r>  -15.8758    1.0000 </r>
       <r>  -15.8265    1.0000 </r>
       <r>  -15.7804    1.0000 </r>
       <r>  -15.6789    1.0000 </r>
       <r>  -15.5753    1.0000 </r>
       <r>  -15.4768    1.0000 </r>
       <r>  -15.3637    1.0000 </r>
       <r>  -15.2829    1.0000 </r>
       <r>   -9.7878    1.0000 </r>
       <r>   -9.4677    1.0000 </r>
       <r>   -9.3830    1.0000 </r>
       <r>   -8.9405    1.0000 </r>
       <r>   -8.8194    1.0000 </r>
       <r>   -8.7358    1.0000 </r>
       <r>   -8.6191    1.0000 </r>
       <r>   -8.5664    1.0000 </r>
       <r>   -8.4310    1.0000 </r>
       <r>   -8.3204    1.0000 </r>
       <r>   -8.2579    1.0000 </r>
       <r>   -8.1722    1.0000 </r>
       <r>   -8.1143    1.0000 </r>
       <r>   -8.0568    1.0000 </r>
       <r>   -7.9634    1.0000 </r>
       <r>   -7.8987    1.0000 </r>
       <r>   -7.8356    1.0000 </r>
       <r>   -7.7800    1.0000 </r>
       <r>   -7.6213    1.0000 </r>
       <r>   -7.4649    1.0000 </r>
       <r>   -7.3752    1.0000 </r>
       <r>   -7.3164    1.0000 </r>
       <r>   -7.1424    1.0000 </r>
       <r>   -7.0714    1.0000 </r>
       <r>   -6.9652    1.0000 </r>
       <r>   -6.8812    1.0000 </r>
       <r>   -6.8364    1.0000 </r>
       <r>   -6.7678    1.0000 </r>
       <r>   -6.6962    1.0000 </r>
       <r>   -6.5672    1.0000 </r>
       <r>   -6.5160    1.0000 </r>
       <r>   -6.5027    1.0000 </r>
       <r>   -6.4150    1.0000 </r>
       <r>   -6.3368    1.0000 </r>
       <r>   -6.2658    1.0000 </r>
       <r>   -6.2262    1.0000 </r>
       <r>   -6.0758    1.0000 </r>
       <r>   -6.0161    1.0000 </r>
       <r>   -5.9890    1.0000 </r>
       <r>   -5.9581    1.0000 </r>
       <r>   -5.8690    1.0000 </r>
       <r>   -5.6947    1.0000 </r>
       <r>   -5.6439    1.0000 </r>
       <r>   -5.5626    1.0000 </r>
       <r>   -5.5167    1.0000 </r>
       <r>   -5.4016    1.0000 </r>
       <r>   -5.2799    1.0000 </r>
       <r>   -5.2166    1.0000 </r>
       <r>   -4.9574    1.0000 </r>
       <r>   -4.8771    1.0000 </r>
       <r>   -4.8028    1.0000 </r>
       <r>   -4.7148    1.0000 </r>
       <r>   -4.5486    1.0000 </r>
       <r>   -4.4705    1.0000 </r>
       <r>   -4.3839    1.0000 </r>
       <r>   -4.2783    1.0000 </r>
       <r>   -4.1487    1.0000 </r>
       <r>   -4.1101    1.0000 </r>
       <r>   -3.8429    1.0000 </r>
       <r>   -3.7205    0.9998 </r>
       <r>   -3.5782    0.9941 </r>
       <r>   -3.1495    0.3039 </r>
       <r>   -2.9661    0.0351 </r>
       <r>   -2.8537    0.0046 </r>
       <r>   -2.7203    0.0002 </r>
       <r>   -2.6019    0.0000 </r>
       <r>   -2.5277    0.0000 </r>
       <r>   -2.3530    0.0000 </r>
       <r>   -2.1666    0.0000 </r>
       <r>   -2.0945    0.0000 </r>
       <r>   -2.0207    0.0000 </r>
       <r>   -1.9291    0.0000 </r>
       <r>   -1.7085    0.0000 </r>
       <r>   -1.5080    0.0000 </r>
       <r>   -1.3591    0.0000 </r>
       <r>   -1.3345    0.0000 </r>
       <r>   -1.2539    0.0000 </r>
       <r>   -1.1839    0.0000 </r>
       <r>   -1.0780    0.0000 </r>
       <r>   -0.9736    0.0000 </r>
       <r>   -0.8925    0.0000 </r>
       <r>   -0.8575    0.0000 </r>
       <r>   -0.7820    0.0000 </r>
       <r>   -0.7541    0.0000 </r>
       <r>   -0.6778    0.0000 </r>
       <r>   -0.6271    0.0000 </r>
       <r>   -0.4966    0.0000 </r>
       <r>   -0.3938    0.0000 </r>
       <r>   -0.3272    0.0000 </r>
       <r>   -0.0624    0.0000 </r>
       <r>   -0.0212    0.0000 </r>
       <r>    0.2412    0.0000 </r>
       <r>    0.4578    0.0000 </r>
       <r>    0.5776    0.0000 </r>
       <r>    0.8811    0.0000 </r>
       <r>    0.9427    0.0000 </r>
       <r>    1.0492    0.0000 </r>
       <r>    1.1983    0.0000 </r>
       <r>    1.5221    0.0000 </r>
       <r>    2.1473    0.0000 </r>
       <r>    2.3076    0.0000 </r>
       <r>    2.4143    0.0000 </r>
      </set>
      <set comment="kpoint 34">
       <r>  -17.4743    1.0000 </r>
       <r>  -17.3773    1.0000 </r>
       <r>  -16.7952    1.0000 </r>
       <r>  -16.6806    1.0000 </r>
       <r>  -16.6478    1.0000 </r>
       <r>  -16.4924    1.0000 </r>
       <r>  -16.3215    1.0000 </r>
       <r>  -16.1863    1.0000 </r>
       <r>  -16.1502    1.0000 </r>
       <r>  -16.0547    1.0000 </r>
       <r>  -15.8260    1.0000 </r>
       <r>  -15.8225    1.0000 </r>
       <r>  -15.7782    1.0000 </r>
       <r>  -15.6801    1.0000 </r>
       <r>  -15.5796    1.0000 </r>
       <r>  -15.4626    1.0000 </r>
       <r>  -15.3513    1.0000 </r>
       <r>  -15.3246    1.0000 </r>
       <r>   -9.8177    1.0000 </r>
       <r>   -9.3749    1.0000 </r>
       <r>   -9.3149    1.0000 </r>
       <r>   -8.9667    1.0000 </r>
       <r>   -8.9342    1.0000 </r>
       <r>   -8.8147    1.0000 </r>
       <r>   -8.6690    1.0000 </r>
       <r>   -8.5919    1.0000 </r>
       <r>   -8.4310    1.0000 </r>
       <r>   -8.2978    1.0000 </r>
       <r>   -8.2320    1.0000 </r>
       <r>   -8.1504    1.0000 </r>
       <r>   -8.1017    1.0000 </r>
       <r>   -8.0196    1.0000 </r>
       <r>   -7.9166    1.0000 </r>
       <r>   -7.8678    1.0000 </r>
       <r>   -7.8520    1.0000 </r>
       <r>   -7.7346    1.0000 </r>
       <r>   -7.6144    1.0000 </r>
       <r>   -7.5148    1.0000 </r>
       <r>   -7.3974    1.0000 </r>
       <r>   -7.3454    1.0000 </r>
       <r>   -7.1178    1.0000 </r>
       <r>   -7.0397    1.0000 </r>
       <r>   -6.9861    1.0000 </r>
       <r>   -6.8648    1.0000 </r>
       <r>   -6.8170    1.0000 </r>
       <r>   -6.7054    1.0000 </r>
       <r>   -6.6184    1.0000 </r>
       <r>   -6.6020    1.0000 </r>
       <r>   -6.5394    1.0000 </r>
       <r>   -6.5119    1.0000 </r>
       <r>   -6.4328    1.0000 </r>
       <r>   -6.3885    1.0000 </r>
       <r>   -6.2833    1.0000 </r>
       <r>   -6.2589    1.0000 </r>
       <r>   -6.1791    1.0000 </r>
       <r>   -6.0396    1.0000 </r>
       <r>   -5.9994    1.0000 </r>
       <r>   -5.8417    1.0000 </r>
       <r>   -5.8225    1.0000 </r>
       <r>   -5.8001    1.0000 </r>
       <r>   -5.6329    1.0000 </r>
       <r>   -5.5942    1.0000 </r>
       <r>   -5.4868    1.0000 </r>
       <r>   -5.4132    1.0000 </r>
       <r>   -5.2145    1.0000 </r>
       <r>   -5.1186    1.0000 </r>
       <r>   -4.9963    1.0000 </r>
       <r>   -4.9059    1.0000 </r>
       <r>   -4.8298    1.0000 </r>
       <r>   -4.6039    1.0000 </r>
       <r>   -4.5610    1.0000 </r>
       <r>   -4.5281    1.0000 </r>
       <r>   -4.3187    1.0000 </r>
       <r>   -4.2877    1.0000 </r>
       <r>   -4.2121    1.0000 </r>
       <r>   -4.0754    1.0000 </r>
       <r>   -3.7979    1.0000 </r>
       <r>   -3.7442    0.9999 </r>
       <r>   -3.6297    0.9980 </r>
       <r>   -3.1127    0.2196 </r>
       <r>   -3.0037    0.0613 </r>
       <r>   -2.9015    0.0117 </r>
       <r>   -2.6962    0.0001 </r>
       <r>   -2.6249    0.0000 </r>
       <r>   -2.5311    0.0000 </r>
       <r>   -2.3484    0.0000 </r>
       <r>   -2.1925    0.0000 </r>
       <r>   -2.1092    0.0000 </r>
       <r>   -2.0104    0.0000 </r>
       <r>   -1.9178    0.0000 </r>
       <r>   -1.7154    0.0000 </r>
       <r>   -1.5000    0.0000 </r>
       <r>   -1.3321    0.0000 </r>
       <r>   -1.3006    0.0000 </r>
       <r>   -1.2401    0.0000 </r>
       <r>   -1.1808    0.0000 </r>
       <r>   -1.0828    0.0000 </r>
       <r>   -0.9826    0.0000 </r>
       <r>   -0.8963    0.0000 </r>
       <r>   -0.8364    0.0000 </r>
       <r>   -0.7959    0.0000 </r>
       <r>   -0.7432    0.0000 </r>
       <r>   -0.6286    0.0000 </r>
       <r>   -0.6049    0.0000 </r>
       <r>   -0.5780    0.0000 </r>
       <r>   -0.4241    0.0000 </r>
       <r>   -0.3344    0.0000 </r>
       <r>   -0.0925    0.0000 </r>
       <r>   -0.0606    0.0000 </r>
       <r>    0.2645    0.0000 </r>
       <r>    0.4424    0.0000 </r>
       <r>    0.5892    0.0000 </r>
       <r>    0.9287    0.0000 </r>
       <r>    0.9515    0.0000 </r>
       <r>    1.0328    0.0000 </r>
       <r>    1.2227    0.0000 </r>
       <r>    1.5775    0.0000 </r>
       <r>    2.2303    0.0000 </r>
       <r>    2.2699    0.0000 </r>
       <r>    2.3943    0.0000 </r>
      </set>
     </set>
    </set>
   </array>
  </eigenvalues>
  <separator name="orbital magnetization" >
   <v name="MAGDIPOLOUT">      0.00000000      0.00000000      0.00000000</v>
  </separator>
 </calculation>
 <structure name="finalpos" >
  <crystal>
   <varray name="basis" >
    <v>       8.30851728       4.80334803       0.00000000 </v>
    <v>      -8.32143135       4.82575687       0.00000000 </v>
    <v>       0.00000000       0.00000000      30.00000000 </v>
   </varray>
   <i name="volume">   2401.96845749 </i>
   <varray name="rec_basis" >
    <v>       0.06027253       0.10393265       0.00000000 </v>
    <v>      -0.05999265       0.10377135       0.00000000 </v>
    <v>       0.00000000       0.00000000       0.03333333 </v>
   </varray>
  </crystal>
  <varray name="positions" >
   <v>       0.31443145       0.62799883      -0.00249152 </v>
   <v>       0.34983045       0.03249850       0.00150125 </v>
   <v>       0.02050194       0.03967061       0.00242405 </v>
   <v>       0.35428603       0.33723219       0.00012865 </v>
   <v>       0.97984237       0.33317004       0.00009421 </v>
   <v>       0.67092714       0.33822226       0.00025499 </v>
   <v>      -0.02041816       0.63133957      -0.00147013 </v>
   <v>       0.68201867       0.03589087       0.00138835 </v>
   <v>       0.65183179       0.62977744      -0.00174880 </v>
   <v>       0.11385540       0.22724181       0.94991542 </v>
   <v>       0.22482178       0.11142327       0.05359528 </v>
   <v>       0.11122958       0.55307405       0.94500428 </v>
   <v>       0.22015829       0.44043273       0.05045110 </v>
   <v>       0.11119120       0.89184787       0.95765447 </v>
   <v>       0.22465545       0.77691347       0.04228107 </v>
   <v>       0.44471113       0.21879143       0.94607898 </v>
   <v>       0.55108213       0.11066767       0.05483794 </v>
   <v>       0.44225137       0.55268789       0.94456894 </v>
   <v>       0.55685073       0.44121220       0.05638737 </v>
   <v>       0.44057538       0.88629347       0.95638559 </v>
   <v>       0.55169919       0.77566546       0.04277742 </v>
   <v>       0.77630969       0.22598564       0.94386046 </v>
   <v>       0.89186438       0.11446162       0.05506300 </v>
   <v>       0.77626748       0.55249998       0.94273391 </v>
   <v>       0.88452968       0.44091286       0.05661054 </v>
   <v>       0.78232410       0.89056006       0.95693086 </v>
   <v>       0.89058582       0.78174267       0.04478221 </v>
  </varray>
 </structure>
</modeling>
