unknown system                          
           1
     8.852683    5.103084    0.000000
    -8.856246    5.109213    0.000000
     0.000000    0.000000   30.000000
   V    Mo   W    S 
   3   3   3  18
Direct configuration=     1
   0.33333334  0.66666669  0.00000000
   0.33333334  0.00000000  0.00000000
   0.00000000  0.00000000  0.00000000
   0.33333334  0.33333334  0.00000000
   1.00000000  0.33333334  0.00000000
   0.66666669  0.33333334  0.00000000
   0.00000000  0.66666669  0.00000000
   0.66666669  0.00000000  0.00000000
   0.66666669  0.66666669  0.00000000
   0.11068511  0.22244981  0.95539999
   0.22244981  0.11068511  0.04460000
   0.11068511  0.55578315  0.95539999
   0.22244981  0.44401845  0.04460000
   0.11068511  0.88911647  0.95539999
   0.22244981  0.77735180  0.04460000
   0.44401845  0.22244981  0.95539999
   0.55578315  0.11068511  0.04460000
   0.44401845  0.55578315  0.95539999
   0.55578315  0.44401845  0.04460000
   0.44401845  0.88911647  0.95539999
   0.55578315  0.77735180  0.04460000
   0.77735180  0.22244981  0.95539999
   0.88911647  0.11068511  0.04460000
   0.77735180  0.55578315  0.95539999
   0.88911647  0.44401845  0.04460000
   0.77735180  0.88911647  0.95539999
   0.88911647  0.77735180  0.04460000
unknown system                          
           1
     8.665273    4.997425    0.000000
    -8.668465    5.002916    0.000000
     0.000000    0.000000   30.000000
   V    Mo   W    S 
   3   3   3  18
Direct configuration=     2
   0.33221313  0.66473797 -0.00012865
   0.33407722  0.00187881 -0.00001351
   0.00146495  0.00229672  0.00014196
   0.33319226  0.33311908  0.00002378
   0.99999881  0.33324125  0.00017961
   0.66669507  0.33345641 -0.00003848
  -0.00065609  0.66443896  0.00000653
   0.66760585  0.00272707 -0.00005488
   0.66512456  0.66364604 -0.00018583
   0.10889401  0.21770199  0.95195438
   0.22003381  0.10652176  0.04691930
   0.11523108  0.55827739  0.95189432
   0.22422772  0.44872179  0.04805060
   0.11253199  0.89231214  0.95316914
   0.22558525  0.77918963  0.04684608
   0.44220295  0.21770408  0.95195708
   0.55145895  0.10840943  0.04809742
   0.44294470  0.55856062  0.95193734
   0.55593890  0.44522413  0.04926966
   0.44086189  0.88718694  0.95313362
   0.55177290  0.77598522  0.04800035
   0.77713296  0.22116520  0.95076384
   0.89038291  0.10812534  0.04807362
   0.77803063  0.55628106  0.95066980
   0.88926804  0.44523431  0.04927199
   0.78131622  0.89047207  0.95199218
   0.89068378  0.78159903  0.04806864
unknown system                          
           1
     8.484740    4.899147    0.000000
    -8.486447    4.902070    0.000000
     0.000000    0.000000   30.000000
   V    Mo   W    S 
   3   3   3  18
Direct configuration=     3
   0.33187014  0.66410606 -0.00008784
   0.33439703  0.00247000 -0.00006157
   0.00185697  0.00306281  0.00011124
   0.33344191  0.33337179  0.00002101
   0.99969424  0.33315278  0.00020214
   0.66701958  0.33383978 -0.00004586
  -0.00134824  0.66338802  0.00006125
   0.66812947  0.00381016 -0.00010025
   0.66469403  0.66245749 -0.00015016
   0.10881547  0.21756690  0.95193917
   0.21997592  0.10644008  0.04693987
   0.11523696  0.55846498  0.95186233
   0.22430832  0.44886362  0.04808380
   0.11247092  0.89211252  0.95330815
   0.22540028  0.77912563  0.04671670
   0.44208937  0.21753509  0.95192692
   0.55147170  0.10823027  0.04812473
   0.44311676  0.55871311  0.95186989
   0.55607508  0.44545769  0.04934734
   0.44104298  0.88727001  0.95324251
   0.55193410  0.77605334  0.04783591
   0.77701606  0.22094286  0.95068565
   0.89021238  0.10798965  0.04813838
   0.77810612  0.55648127  0.95058569
   0.88940121  0.44546840  0.04936831
   0.78115349  0.89040749  0.95213784
   0.89063219  0.78143269  0.04793675
unknown system                          
           1
     8.268265    4.774879    0.000000
    -8.275600    4.787550    0.000000
     0.000000    0.000000   30.000000
   V    Mo   W    S 
   3   3   3  18
Direct configuration=     4
   0.33073545  0.66153695  0.00010559
   0.33577198  0.00468326 -0.00023802
   0.00295410  0.00600800 -0.00006615
   0.33490929  0.33496613 -0.00001001
   0.99804000  0.33255108  0.00020234
   0.66869783  0.33586216 -0.00005354
  -0.00472070  0.65907857  0.00022830
   0.67043131  0.00796242 -0.00022407
   0.66313858  0.65766816  0.00004009
   0.10828248  0.21646456  0.95049471
   0.21947462  0.10553477  0.04833672
   0.11632649  0.55899096  0.95027382
   0.22497296  0.45004525  0.04961927
   0.11288461  0.89268397  0.95255782
   0.22624577  0.77970063  0.04752703
   0.44132985  0.21628353  0.95040014
   0.55042423  0.10770435  0.04970565
   0.44249048  0.55911622  0.95011089
   0.55602374  0.44532528  0.05127898
   0.44020289  0.88677729  0.95235547
   0.55129503  0.77581821  0.04858350
   0.77709870  0.22109969  0.94875235
   0.89072744  0.10752366  0.04989024
   0.77807904  0.55645217  0.94855887
   0.88941110  0.44539060  0.05139104
   0.78187488  0.89072271  0.95131434
   0.89111232  0.78226385  0.04886453
unknown system                          
           1
     8.259617    4.772721    0.000000
    -8.271621    4.793484    0.000000
     0.000000    0.000000   30.000000
   V    Mo   W    S 
   3   3   3  18
Direct configuration=     5
   0.32831853  0.65627845  0.00044283
   0.33844301  0.00873331 -0.00045596
   0.00528154  0.01268215 -0.00038235
   0.33806712  0.33844116 -0.00007125
   0.99423380  0.33108939  0.00008732
   0.67260042  0.34042895 -0.00000542
  -0.01150482  0.65046504  0.00033412
   0.67526815  0.01707345 -0.00025710
   0.65999314  0.64719756  0.00023923
   0.10832500  0.21621967  0.94849038
   0.21941079  0.10533975  0.05038292
   0.11691152  0.55884369  0.94816224
   0.22507482  0.45048198  0.05176517
   0.11295991  0.89249224  0.95180913
   0.22650662  0.77997118  0.04838519
   0.44105783  0.21569391  0.94826985
   0.54973655  0.10805221  0.05183865
   0.44178800  0.55909374  0.94757185
   0.55536305  0.44386086  0.05419195
   0.43964428  0.88644154  0.95126673
   0.55126428  0.77603578  0.04908167
   0.77756127  0.22231697  0.94592386
   0.89164723  0.10772469  0.05246873
   0.77776896  0.55572999  0.94550311
   0.88896825  0.44431178  0.05444415
   0.78212626  0.89041555  0.95064308
   0.89139896  0.78279946  0.04986981
unknown system                          
           1
     8.263364    4.774455    0.000000
    -8.277637    4.799144    0.000000
     0.000000    0.000000   30.000000
   V    Mo   W    S 
   3   3   3  18
Direct configuration=     6
   0.32676998  0.65361610  0.00043047
   0.33979388  0.01078476 -0.00049190
   0.00683971  0.01631368 -0.00030431
   0.33882160  0.33889357  0.00001367
   0.99324338  0.33078366  0.00010827
   0.67316140  0.34081309  0.00012327
  -0.01336633  0.64773399  0.00026009
   0.67688129  0.02059598 -0.00014344
   0.65898836  0.64408848  0.00004973
   0.10901671  0.21744579  0.94828302
   0.21969579  0.10594182  0.05048623
   0.11631028  0.55835242  0.94798884
   0.22441764  0.44956639  0.05189964
   0.11232314  0.89159361  0.95218044
   0.22552132  0.77930854  0.04811364
   0.44166463  0.21659001  0.94811612
   0.55030610  0.10887575  0.05203279
   0.44203822  0.55886781  0.94731971
   0.55492747  0.44254574  0.05467581
   0.44039232  0.88676661  0.95150362
   0.55250751  0.77662566  0.04850642
   0.77774083  0.22333740  0.94546512
   0.89186238  0.10830032  0.05276250
   0.77755970  0.55530298  0.94499858
   0.88874805  0.44358501  0.05488849
   0.78116216  0.88948817  0.95119568
   0.89088695  0.78209714  0.04953740
unknown system                          
           1
     8.259781    4.773641    0.000000
    -8.284003    4.815554    0.000000
     0.000000    0.000000   30.000000
   V    Mo   W    S 
   3   3   3  18
Direct configuration=     7
   0.32484959  0.65058237  0.00042739
   0.34146116  0.01333717 -0.00060661
   0.00861708  0.02014819 -0.00028532
   0.33964339  0.33915440  0.00007729
   0.99235227  0.33076481  0.00005429
   0.67345488  0.34088721  0.00017659
  -0.01513077  0.64479578  0.00022744
   0.67855870  0.02423924 -0.00014303
   0.65769131  0.64071195  0.00000077
   0.10959441  0.21853265  0.94818274
   0.21985801  0.10632318  0.05058274
   0.11595440  0.55796475  0.94782372
   0.22390483  0.44881319  0.05197824
   0.11174687  0.89092841  0.95274291
   0.22473464  0.77873076  0.04766700
   0.44209246  0.21727514  0.94804222
   0.55058563  0.10938729  0.05228088
   0.44206730  0.55850427  0.94713214
   0.55464056  0.44167819  0.05494889
   0.44111815  0.88705814  0.95194344
   0.55351442  0.77720040  0.04776291
   0.77797531  0.22418390  0.94517292
   0.89208695  0.10887664  0.05304250
   0.77736023  0.55473572  0.94462963
   0.88858140  0.44299235  0.05520225
   0.78047458  0.88881875  0.95191004
   0.89042671  0.78158959  0.04902590
unknown system                          
           1
     8.255494    4.773127    0.000000
    -8.288289    4.829892    0.000000
     0.000000    0.000000   30.000000
   V    Mo   W    S 
   3   3   3  18
Direct configuration=     8
   0.32165490  0.64564760  0.00037030
   0.34430417  0.01777338 -0.00064910
   0.01126684  0.02583359 -0.00014153
   0.34093634  0.33933742  0.00018997
   0.99099533  0.33103045  0.00004507
   0.67366955  0.34060227  0.00031244
  -0.01757130  0.64024326  0.00007660
   0.68105176  0.02934409  0.00008254
   0.65572459  0.63611296 -0.00027048
   0.11051528  0.22028623  0.94793103
   0.22006635  0.10668812  0.05080802
   0.11564022  0.55760976  0.94744180
   0.22321164  0.44765596  0.05217510
   0.11097385  0.89012673  0.95364256
   0.22378429  0.77798128  0.04692777
   0.44263175  0.21825287  0.94774150
   0.55076676  0.10983312  0.05269818
   0.44202612  0.55793140  0.94680855
   0.55407223  0.44013333  0.05550156
   0.44206975  0.88740999  0.95263187
   0.55469998  0.77798027  0.04659814
   0.77851874  0.22574805  0.94454579
   0.89241213  0.10976460  0.05346323
   0.77704905  0.55394102  0.94408016
   0.88812821  0.44186249  0.05575335
   0.77970597  0.88801231  0.95300769
   0.88990995  0.78107191  0.04822779
unknown system                          
           1
     8.269411    4.783487    0.000000
    -8.297420    4.832000    0.000000
     0.000000    0.000000   30.000000
   V    Mo   W    S 
   3   3   3  18
Direct configuration=     9
   0.31682131  0.63816958  0.00004989
   0.34861713  0.02514658 -0.00058751
   0.01516288  0.03380805  0.00021931
   0.34360982  0.33907095  0.00036553
   0.98827367  0.33179442 -0.00009029
   0.67366300  0.33969715  0.00041319
  -0.02044059  0.63373467 -0.00026983
   0.68453084  0.03587363  0.00034403
   0.65269696  0.63011390 -0.00065815
   0.11199512  0.22324814  0.94768782
   0.22045147  0.10724349  0.05123131
   0.11524748  0.55705367  0.94675061
   0.22206659  0.44548100  0.05251462
   0.10983055  0.88905071  0.95529584
   0.22262291  0.77704265  0.04555302
   0.44343169  0.21985924  0.94718712
   0.55070761  0.11024904  0.05344045
   0.44154357  0.55669426  0.94629507
   0.55327871  0.43811165  0.05613916
   0.44341395  0.88794692  0.95397782
   0.55601687  0.77913195  0.04464364
   0.77942338  0.22800216  0.94386157
   0.89318464  0.11150956  0.05414086
   0.77653033  0.55248619  0.94336268
   0.88715496  0.43998764  0.05653740
   0.77901202  0.88717643  0.95486109
   0.88936759  0.78053081  0.04673365
unknown system                          
           1
     8.271972    4.786362    0.000000
    -8.297783    4.831096    0.000000
     0.000000    0.000000   30.000000
   V    Mo   W    S 
   3   3   3  18
Direct configuration=    10
   0.31684865  0.63760238 -0.00012345
   0.34855086  0.02567620 -0.00031098
   0.01514241  0.03343970  0.00040491
   0.34458424  0.33897133  0.00036446
   0.98777061  0.33218892  0.00001157
   0.67332218  0.33937246  0.00044174
  -0.02003037  0.63389972 -0.00042692
   0.68415659  0.03499756  0.00057667
   0.65264820  0.63075419 -0.00082739
   0.11219940  0.22378468  0.94777281
   0.22070449  0.10733917  0.05139268
   0.11516618  0.55691848  0.94655496
   0.22185939  0.44507249  0.05242875
   0.10987042  0.88910284  0.95554360
   0.22291730  0.77726425  0.04528610
   0.44360160  0.22014118  0.94697662
   0.55059661  0.11004915  0.05348411
   0.44130114  0.55640150  0.94621509
   0.55335559  0.43810767  0.05614893
   0.44314347  0.88780625  0.95420824
   0.55556601  0.77898532  0.04447179
   0.77945092  0.22815114  0.94379915
   0.89327543  0.11194654  0.05417980
   0.77644669  0.55241403  0.94338842
   0.88682999  0.43971915  0.05652980
   0.77935066  0.88737937  0.95499175
   0.88958580  0.78072876  0.04651670
unknown system                          
           1
     8.280219    4.791010    0.000000
    -8.302940    4.830400    0.000000
     0.000000    0.000000   30.000000
   V    Mo   W    S 
   3   3   3  18
Direct configuration=    11
   0.31482089  0.63371839 -0.00047230
   0.35024329  0.02943428 -0.00004463
   0.01703271  0.03674731  0.00068766
   0.34711066  0.33872558  0.00038771
   0.98574460  0.33280648 -0.00003644
   0.67291305  0.33873488  0.00042776
  -0.02091324  0.63109963 -0.00069155
   0.68539521  0.03746957  0.00074166
   0.65116670  0.62842071 -0.00108576
   0.11288804  0.22531458  0.94796038
   0.22117902  0.10779473  0.05176477
   0.11481815  0.55644698  0.94612074
   0.22122429  0.44376738  0.05237215
   0.10954394  0.88881937  0.95648431
   0.22276786  0.77710719  0.04439247
   0.44407086  0.22093127  0.94664440
   0.55050688  0.11003007  0.05386425
   0.44092059  0.55556831  0.94590316
   0.55334003  0.43765419  0.05634122
   0.44335212  0.88788556  0.95505324
   0.55553646  0.77912383  0.04353327
   0.77964121  0.22878230  0.94367255
   0.89364357  0.11307230  0.05451201
   0.77614722  0.55181213  0.94315171
   0.88611600  0.43895273  0.05678368
   0.77946586  0.88734682  0.95587816
   0.88953846  0.78064789  0.04565333
unknown system                          
           1
     8.286189    4.794124    0.000000
    -8.307676    4.831379    0.000000
     0.000000    0.000000   30.000000
   V    Mo   W    S 
   3   3   3  18
Direct configuration=    12
   0.31510346  0.63358045 -0.00060906
   0.34989125  0.02939953  0.00012852
   0.01705643  0.03642882  0.00078851
   0.34789827  0.33855021  0.00035395
   0.98534975  0.33291919  0.00000666
   0.67256031  0.33859435  0.00040639
  -0.02061908  0.63151273 -0.00075442
   0.68493413  0.03684193  0.00081674
   0.65132794  0.62898387 -0.00113074
   0.11293029  0.22546533  0.94815776
   0.22143668  0.10802818  0.05192514
   0.11462167  0.55621905  0.94601576
   0.22111886  0.44347929  0.05219886
   0.10976344  0.88907207  0.95656411
   0.22307159  0.77728615  0.04422414
   0.44417149  0.22091136  0.94655651
   0.55052898  0.10993978  0.05392548
   0.44086997  0.55537785  0.94579059
   0.55365261  0.43798494  0.05633782
   0.44300593  0.88773232  0.95517085
   0.55506337  0.77875997  0.04353670
   0.77942623  0.22852615  0.94370725
   0.89358986  0.11324941  0.05452883
   0.77613367  0.55190470  0.94315497
   0.88590019  0.43905996  0.05674493
   0.77977822  0.88766852  0.95587279
   0.88964896  0.78073834  0.04558084
unknown system                          
           1
     8.285234    4.793251    0.000000
    -8.305371    4.828170    0.000000
     0.000000    0.000000   30.000000
   V    Mo   W    S 
   3   3   3  18
Direct configuration=    13
   0.31505543  0.63317749 -0.00072385
   0.34987987  0.02975491  0.00023613
   0.01729473  0.03664239  0.00087370
   0.34847785  0.33836230  0.00033607
   0.98492778  0.33297165  0.00001249
   0.67234108  0.33846676  0.00038997
  -0.02056101  0.63143592 -0.00081035
   0.68480340  0.03680949  0.00085239
   0.65127067  0.62901672 -0.00118366
   0.11297351  0.22558092  0.94829617
   0.22159581  0.10818196  0.05201600
   0.11447434  0.55606700  0.94595965
   0.22104822  0.44327101  0.05208540
   0.10988061  0.88923287  0.95666136
   0.22322397  0.77736735  0.04407541
   0.44421149  0.22083976  0.94651871
   0.55051614  0.10989693  0.05397170
   0.44088295  0.55524467  0.94572484
   0.55385423  0.43818575  0.05634025
   0.44282780  0.88766001  0.95528741
   0.55482257  0.77856487  0.04348775
   0.77928653  0.22837761  0.94374075
   0.89357050  0.11336074  0.05454546
   0.77612167  0.55195047  0.94314991
   0.88576933  0.43913700  0.05672767
   0.77995988  0.88785091  0.95593275
   0.88970508  0.78080699  0.04549581
unknown system                          
           1
     8.289670    4.795350    0.000000
    -8.307566    4.826393    0.000000
     0.000000    0.000000   30.000000
   V    Mo   W    S 
   3   3   3  18
Direct configuration=    14
   0.31495869  0.63248202 -0.00089528
   0.34985714  0.03025802  0.00039961
   0.01764788  0.03697456  0.00101608
   0.34954363  0.33822534  0.00031097
   0.98415272  0.33308108  0.00003280
   0.67207459  0.33839277  0.00037139
  -0.02055442  0.63126813 -0.00088971
   0.68461348  0.03678529  0.00091784
   0.65118625  0.62898701 -0.00125714
   0.11309476  0.22583885  0.94851251
   0.22188513  0.10848754  0.05218611
   0.11418465  0.55579009  0.94586154
   0.22093200  0.44289182  0.05188872
   0.11003624  0.88945357  0.95682625
   0.22340355  0.77742162  0.04381714
   0.44431508  0.22076990  0.94643979
   0.55056387  0.10986464  0.05405556
   0.44092975  0.55497854  0.94561412
   0.55418280  0.43850232  0.05633768
   0.44259762  0.88756446  0.95548361
   0.55446843  0.77825343  0.04337887
   0.77904069  0.22815112  0.94378221
   0.89348607  0.11355062  0.05457758
   0.77609561  0.55200394  0.94313932
   0.88554360  0.43924468  0.05669619
   0.78021049  0.88813928  0.95605672
   0.88976418  0.78085382  0.04533940
unknown system                          
           1
     8.298775    4.799795    0.000000
    -8.316394    4.830353    0.000000
     0.000000    0.000000   30.000000
   V    Mo   W    S 
   3   3   3  18
Direct configuration=    15
   0.31490545  0.63161523 -0.00115716
   0.34982487  0.03091020  0.00063846
   0.01813390  0.03741553  0.00123390
   0.35088533  0.33796358  0.00027117
   0.98312176  0.33316417  0.00005295
   0.67172074  0.33828005  0.00034478
  -0.02056823  0.63116014 -0.00101500
   0.68425355  0.03666140  0.00101687
   0.65119835  0.62909203 -0.00136899
   0.11329696  0.22624237  0.94876858
   0.22234453  0.10896545  0.05246159
   0.11371739  0.55534278  0.94568244
   0.22073019  0.44228732  0.05165861
   0.11024663  0.88976323  0.95699267
   0.22364350  0.77750422  0.04352107
   0.44444829  0.22060933  0.94629654
   0.55061034  0.10987219  0.05421818
   0.44103940  0.55458355  0.94540816
   0.55464089  0.43890665  0.05640514
   0.44226435  0.88740942  0.95568435
   0.55403338  0.77785555  0.04327897
   0.77866213  0.22787120  0.94376892
   0.89334723  0.11379931  0.05467519
   0.77608237  0.55208455  0.94305142
   0.88523506  0.43939019  0.05672539
   0.78053223  0.88849739  0.95619087
   0.88986384  0.78096743  0.04519484
unknown system                          
           1
     8.303653    4.801288    0.000000
    -8.319543    4.828847    0.000000
     0.000000    0.000000   30.000000
   V    Mo   W    S 
   3   3   3  18
Direct configuration=    16
   0.31470836  0.63046204 -0.00144841
   0.34982650  0.03159655  0.00088374
   0.01880339  0.03809244  0.00148488
   0.35218804  0.33766442  0.00023230
   0.98208339  0.33325710  0.00007453
   0.67128758  0.33813334  0.00032499
  -0.02050658  0.63108655 -0.00113227
   0.68373077  0.03650313  0.00110951
   0.65122206  0.62920069 -0.00146672
   0.11349150  0.22661129  0.94912701
   0.22290133  0.10956011  0.05278407
   0.11316022  0.55480001  0.94550629
   0.22057515  0.44171258  0.05129807
   0.11051998  0.89024510  0.95719086
   0.22394634  0.77750657  0.04314108
   0.44458055  0.22022500  0.94615821
   0.55068456  0.10993265  0.05439985
   0.44123077  0.55411346  0.94518040
   0.55528176  0.43951042  0.05644551
   0.44181575  0.88715746  0.95592886
   0.55344925  0.77731644  0.04314924
   0.77809083  0.22742114  0.94378158
   0.89310632  0.11401079  0.05477437
   0.77610498  0.55221660  0.94294815
   0.88492538  0.43970017  0.05671423
   0.78098126  0.88901185  0.95637193
   0.89002503  0.78116656  0.04503763
unknown system                          
           1
     8.305649    4.801789    0.000000
    -8.320141    4.826928    0.000000
     0.000000    0.000000   30.000000
   V    Mo   W    S 
   3   3   3  18
Direct configuration=    17
   0.31451503  0.62895286 -0.00191798
   0.34981507  0.03252496  0.00123776
   0.01974227  0.03898573  0.00189175
   0.35403995  0.33725193  0.00016691
   0.98050982  0.33333015  0.00010205
   0.67078398  0.33800859  0.00027952
  -0.02048737  0.63100510 -0.00131390
   0.68296101  0.03626654  0.00124844
   0.65132688  0.62936655 -0.00162467
   0.11379783  0.22717210  0.94962309
   0.22374906  0.11046241  0.05321539
   0.11229364  0.55397730  0.94527318
   0.22031741  0.44082600  0.05080285
   0.11090323  0.89094520  0.95748678
   0.22435264  0.77746028  0.04259551
   0.44475592  0.21966506  0.94601053
   0.55082458  0.11007543  0.05463077
   0.44156049  0.55340303  0.94488812
   0.55618177  0.44038484  0.05647092
   0.44119577  0.88681070  0.95628243
   0.55261717  0.77652889  0.04294476
   0.77725366  0.22676240  0.94383142
   0.89269897  0.11431780  0.05488697
   0.77613685  0.55239757  0.94285405
   0.88451046  0.44017216  0.05667354
   0.78161470  0.88974999  0.95665962
   0.89024369  0.78141089  0.04480012
unknown system                          
           1
     8.308393    4.802885    0.000000
    -8.320530    4.823948    0.000000
     0.000000    0.000000   30.000000
   V    Mo   W    S 
   3   3   3  18
Direct configuration=    18
   0.31449824  0.62861100 -0.00211800
   0.34982146  0.03254014  0.00133607
   0.01999763  0.03915509  0.00208250
   0.35416571  0.33726794  0.00015119
   0.98024357  0.33332971  0.00010299
   0.67083029  0.33808548  0.00026693
  -0.02047389  0.63114012 -0.00136702
   0.68257047  0.03609276  0.00129824
   0.65151914  0.62952690 -0.00166590
   0.11391637  0.22733835  0.94973080
   0.22414930  0.11083688  0.05335583
   0.11193216  0.55363771  0.94518957
   0.22025272  0.44058050  0.05066086
   0.11103119  0.89124879  0.95755579
   0.22448142  0.77732451  0.04245393
   0.44479228  0.21934878  0.94600604
   0.55090364  0.11025206  0.05470222
   0.44176081  0.55311215  0.94479111
   0.55647150  0.44069033  0.05645221
   0.44095822  0.88663258  0.95635251
   0.55228748  0.77622211  0.04287745
   0.77688545  0.22648737  0.94383811
   0.89241861  0.11438132  0.05493827
   0.77616913  0.55243487  0.94282088
   0.88444354  0.44041215  0.05665658
   0.78184187  0.89001405  0.95676081
   0.89034614  0.78151081  0.04476994
unknown system                          
           1
     8.308517    4.803348    0.000000
    -8.321431    4.825757    0.000000
     0.000000    0.000000   30.000000
   V    Mo   W    S 
   3   3   3  18
Direct configuration=    19
   0.31444306  0.62802446 -0.00242666
   0.34982669  0.03256512  0.00148170
   0.02042968  0.03957267  0.00235042
   0.35443086  0.33727834  0.00011999
   0.97979422  0.33323266  0.00009322
   0.67087387  0.33817058  0.00025007
  -0.02042912  0.63128209 -0.00145668
   0.68211013  0.03595671  0.00136649
   0.65173414  0.62969728 -0.00173238
   0.11395154  0.22738612  0.94991968
   0.22474931  0.11138394  0.05358113
   0.11134221  0.55313758  0.94503965
   0.22016270  0.44033373  0.05045610
   0.11119788  0.89174043  0.95765043
   0.22465033  0.77704163  0.04227274
   0.44476829  0.21889493  0.94603476
   0.55105787  0.11056236  0.05482867
   0.44212442  0.55270220  0.94461168
   0.55684901  0.44116283  0.05640955
   0.44061367  0.88634482  0.95641872
   0.55178253  0.77574998  0.04278604
   0.77636744  0.22603703  0.94386461
   0.89195368  0.11447566  0.05503779
   0.77623473  0.55249771  0.94274540
   0.88443360  0.44081153  0.05662960
   0.78222913  0.89047624  0.95691033
   0.89053257  0.78169580  0.04475685
unknown system                          
           1
     8.308517    4.803348    0.000000
    -8.321431    4.825757    0.000000
     0.000000    0.000000   30.000000
   V    Mo   W    S 
   3   3   3  18
Direct configuration=    20
   0.31443145  0.62799883 -0.00249152
   0.34983045  0.03249850  0.00150125
   0.02050194  0.03967061  0.00242405
   0.35428603  0.33723219  0.00012865
   0.97984237  0.33317004  0.00009421
   0.67092714  0.33822226  0.00025499
  -0.02041816  0.63133957 -0.00147013
   0.68201867  0.03589087  0.00138835
   0.65183179  0.62977744 -0.00174880
   0.11385540  0.22724181  0.94991542
   0.22482178  0.11142327  0.05359528
   0.11122958  0.55307405  0.94500428
   0.22015829  0.44043273  0.05045110
   0.11119120  0.89184787  0.95765447
   0.22465545  0.77691347  0.04228107
   0.44471113  0.21879143  0.94607898
   0.55108213  0.11066767  0.05483794
   0.44225137  0.55268789  0.94456894
   0.55685073  0.44121220  0.05638737
   0.44057538  0.88629347  0.95638559
   0.55169919  0.77566546  0.04277742
   0.77630969  0.22598564  0.94386046
   0.89186438  0.11446162  0.05506300
   0.77626748  0.55249998  0.94273391
   0.88452968  0.44091286  0.05661054
   0.78232410  0.89056006  0.95693086
   0.89058582  0.78174267  0.04478221
