   27   27  100    1
  0.9710400E+02  0.1002848E-08  0.1002848E-08  0.3000000E-08  0.5000000E-15
  1.000000000000000E-004
  CAR 
 unknown system                          
    159     34    120
 
  0.0000000E+00  0.0000000E+00  0.0000000E+00  0.1562500E-01
    1      -17.798719   1.000000
    2      -16.710488   1.000000
    3      -16.628496   1.000000
    4      -16.579128   1.000000
    5      -16.535087   1.000000
    6      -16.497561   1.000000
    7      -16.422705   1.000000
    8      -16.269432   1.000000
    9      -16.164392   1.000000
   10      -16.089745   1.000000
   11      -16.031692   1.000000
   12      -15.992813   1.000000
   13      -15.860401   1.000000
   14      -15.708961   1.000000
   15      -15.614771   1.000000
   16      -15.485916   1.000000
   17      -15.434769   1.000000
   18      -15.267596   1.000000
   19       -9.267050   1.000000
   20       -8.986597   1.000000
   21       -8.944971   1.000000
   22       -8.851292   1.000000
   23       -8.772677   1.000000
   24       -8.693807   1.000000
   25       -8.595549   1.000000
   26       -8.567731   1.000000
   27       -8.511507   1.000000
   28       -8.506671   1.000000
   29       -8.415605   1.000000
   30       -8.328192   1.000000
   31       -8.298412   1.000000
   32       -8.136717   1.000000
   33       -8.025062   1.000000
   34       -7.898135   1.000000
   35       -7.872509   1.000000
   36       -7.792328   1.000000
   37       -7.759408   1.000000
   38       -7.521889   1.000000
   39       -7.492311   1.000000
   40       -7.398879   1.000000
   41       -7.390923   1.000000
   42       -7.355138   1.000000
   43       -7.046587   1.000000
   44       -6.918343   1.000000
   45       -6.816516   1.000000
   46       -6.802347   1.000000
   47       -6.732365   1.000000
   48       -6.592236   1.000000
   49       -6.544930   1.000000
   50       -6.471407   1.000000
   51       -6.421810   1.000000
   52       -6.396052   1.000000
   53       -6.339569   1.000000
   54       -6.300728   1.000000
   55       -6.252856   1.000000
   56       -6.157936   1.000000
   57       -5.973788   1.000000
   58       -5.894426   1.000000
   59       -5.725310   1.000000
   60       -5.624846   1.000000
   61       -5.522653   1.000000
   62       -5.443258   1.000000
   63       -5.225595   1.000000
   64       -5.166566   1.000000
   65       -5.079765   1.000000
   66       -4.987982   1.000000
   67       -4.958371   1.000000
   68       -4.820441   1.000000
   69       -4.805357   1.000000
   70       -4.722781   1.000000
   71       -4.665244   1.000000
   72       -4.609476   1.000000
   73       -4.570115   1.000000
   74       -4.229896   1.000000
   75       -3.958795   0.999991
   76       -3.935583   0.999981
   77       -3.806346   0.999326
   78       -3.707714   0.993934
   79       -3.564210   0.932354
   80       -3.422728   0.689038
   81       -3.304917   0.366954
   82       -2.833750   0.000121
   83       -2.671768   0.000001
   84       -2.572742   0.000000
   85       -2.459929   0.000000
   86       -2.403891   0.000000
   87       -2.267675   0.000000
   88       -2.204964   0.000000
   89       -2.135641   0.000000
   90       -2.084683   0.000000
   91       -1.803926   0.000000
   92       -1.658224   0.000000
   93       -1.458825   0.000000
   94       -1.396010   0.000000
   95       -1.205334   0.000000
   96       -1.027470   0.000000
   97       -0.938215   0.000000
   98       -0.853013   0.000000
   99       -0.776552   0.000000
  100       -0.633986   0.000000
  101       -0.554120   0.000000
  102       -0.509674   0.000000
  103       -0.495243   0.000000
  104       -0.418976   0.000000
  105       -0.329995   0.000000
  106       -0.154300   0.000000
  107       -0.092494   0.000000
  108        0.042390   0.000000
  109        0.130211   0.000000
  110        0.183002   0.000000
  111        0.338164   0.000000
  112        0.439549   0.000000
  113        0.672770   0.000000
  114        0.912434   0.000000
  115        0.985193   0.000000
  116        1.048801   0.000000
  117        1.169045   0.000000
  118        1.643183   0.000000
  119        1.831910   0.000000
  120        2.140046   0.000000
 
  0.1250000E+00  0.2775558E-16  0.0000000E+00  0.3125000E-01
    1      -17.774755   1.000000
    2      -16.752822   1.000000
    3      -16.693973   1.000000
    4      -16.646853   1.000000
    5      -16.550620   1.000000
    6      -16.446649   1.000000
    7      -16.380324   1.000000
    8      -16.259934   1.000000
    9      -16.156042   1.000000
   10      -16.045785   1.000000
   11      -16.016280   1.000000
   12      -15.973646   1.000000
   13      -15.847535   1.000000
   14      -15.706648   1.000000
   15      -15.624239   1.000000
   16      -15.495427   1.000000
   17      -15.433106   1.000000
   18      -15.277105   1.000000
   19       -9.278235   1.000000
   20       -9.088549   1.000000
   21       -9.028090   1.000000
   22       -8.944105   1.000000
   23       -8.823713   1.000000
   24       -8.693923   1.000000
   25       -8.652745   1.000000
   26       -8.581149   1.000000
   27       -8.519162   1.000000
   28       -8.500991   1.000000
   29       -8.388698   1.000000
   30       -8.213232   1.000000
   31       -8.154556   1.000000
   32       -8.056096   1.000000
   33       -7.982202   1.000000
   34       -7.881392   1.000000
   35       -7.797443   1.000000
   36       -7.756343   1.000000
   37       -7.671120   1.000000
   38       -7.573131   1.000000
   39       -7.517372   1.000000
   40       -7.447535   1.000000
   41       -7.352885   1.000000
   42       -7.269210   1.000000
   43       -7.098894   1.000000
   44       -6.965559   1.000000
   45       -6.839392   1.000000
   46       -6.827085   1.000000
   47       -6.713586   1.000000
   48       -6.672320   1.000000
   49       -6.534751   1.000000
   50       -6.487056   1.000000
   51       -6.435885   1.000000
   52       -6.342919   1.000000
   53       -6.313220   1.000000
   54       -6.291278   1.000000
   55       -6.234197   1.000000
   56       -6.140920   1.000000
   57       -5.980481   1.000000
   58       -5.882744   1.000000
   59       -5.692170   1.000000
   60       -5.606923   1.000000
   61       -5.525343   1.000000
   62       -5.467371   1.000000
   63       -5.338586   1.000000
   64       -5.224488   1.000000
   65       -5.108945   1.000000
   66       -5.059634   1.000000
   67       -4.964776   1.000000
   68       -4.919100   1.000000
   69       -4.766913   1.000000
   70       -4.671229   1.000000
   71       -4.640599   1.000000
   72       -4.553839   1.000000
   73       -4.484313   1.000000
   74       -4.181288   1.000000
   75       -3.991693   0.999997
   76       -3.926233   0.999975
   77       -3.795491   0.999123
   78       -3.731511   0.996281
   79       -3.619043   0.970033
   80       -3.515934   0.875379
   81       -3.151862   0.077485
   82       -2.833010   0.000118
   83       -2.672259   0.000001
   84       -2.555475   0.000000
   85       -2.466024   0.000000
   86       -2.402918   0.000000
   87       -2.288484   0.000000
   88       -2.194187   0.000000
   89       -2.124867   0.000000
   90       -2.051013   0.000000
   91       -1.805951   0.000000
   92       -1.662224   0.000000
   93       -1.451693   0.000000
   94       -1.391200   0.000000
   95       -1.202401   0.000000
   96       -1.024118   0.000000
   97       -0.954654   0.000000
   98       -0.855128   0.000000
   99       -0.800376   0.000000
  100       -0.664640   0.000000
  101       -0.619370   0.000000
  102       -0.595352   0.000000
  103       -0.552588   0.000000
  104       -0.441962   0.000000
  105       -0.332904   0.000000
  106       -0.249768   0.000000
  107       -0.160723   0.000000
  108        0.078423   0.000000
  109        0.179122   0.000000
  110        0.219898   0.000000
  111        0.330446   0.000000
  112        0.437950   0.000000
  113        0.632961   0.000000
  114        0.908043   0.000000
  115        1.038881   0.000000
  116        1.106241   0.000000
  117        1.200714   0.000000
  118        1.687904   0.000000
  119        1.870861   0.000000
  120        2.175127   0.000000
 
  0.2500000E+00  0.5551115E-16  0.0000000E+00  0.3125000E-01
    1      -17.705072   1.000000
    2      -16.950212   1.000000
    3      -16.735577   1.000000
    4      -16.673781   1.000000
    5      -16.595545   1.000000
    6      -16.401744   1.000000
    7      -16.356807   1.000000
    8      -16.199663   1.000000
    9      -16.119294   1.000000
   10      -16.029979   1.000000
   11      -15.965669   1.000000
   12      -15.923237   1.000000
   13      -15.812817   1.000000
   14      -15.697430   1.000000
   15      -15.638233   1.000000
   16      -15.527181   1.000000
   17      -15.423132   1.000000
   18      -15.299719   1.000000
   19       -9.456380   1.000000
   20       -9.203816   1.000000
   21       -9.123649   1.000000
   22       -9.031566   1.000000
   23       -8.926635   1.000000
   24       -8.796441   1.000000
   25       -8.639313   1.000000
   26       -8.514751   1.000000
   27       -8.485411   1.000000
   28       -8.407739   1.000000
   29       -8.316859   1.000000
   30       -8.141239   1.000000
   31       -8.109831   1.000000
   32       -8.074563   1.000000
   33       -7.862961   1.000000
   34       -7.786470   1.000000
   35       -7.757738   1.000000
   36       -7.670855   1.000000
   37       -7.599772   1.000000
   38       -7.512590   1.000000
   39       -7.455309   1.000000
   40       -7.375659   1.000000
   41       -7.260984   1.000000
   42       -7.231835   1.000000
   43       -7.163699   1.000000
   44       -7.010960   1.000000
   45       -6.862449   1.000000
   46       -6.824373   1.000000
   47       -6.760459   1.000000
   48       -6.656727   1.000000
   49       -6.594897   1.000000
   50       -6.541683   1.000000
   51       -6.445715   1.000000
   52       -6.345846   1.000000
   53       -6.278589   1.000000
   54       -6.202081   1.000000
   55       -6.144585   1.000000
   56       -6.091300   1.000000
   57       -5.973054   1.000000
   58       -5.853533   1.000000
   59       -5.708032   1.000000
   60       -5.673899   1.000000
   61       -5.650349   1.000000
   62       -5.570639   1.000000
   63       -5.496374   1.000000
   64       -5.325552   1.000000
   65       -5.185189   1.000000
   66       -5.112021   1.000000
   67       -5.006871   1.000000
   68       -4.869185   1.000000
   69       -4.767134   1.000000
   70       -4.639727   1.000000
   71       -4.522323   1.000000
   72       -4.429074   1.000000
   73       -4.361618   1.000000
   74       -4.271731   1.000000
   75       -4.092344   1.000000
   76       -3.986591   0.999996
   77       -3.870803   0.999875
   78       -3.695565   0.992290
   79       -3.540702   0.907799
   80       -3.472457   0.800878
   81       -3.021120   0.009471
   82       -2.840207   0.000144
   83       -2.683242   0.000001
   84       -2.547447   0.000000
   85       -2.445111   0.000000
   86       -2.425308   0.000000
   87       -2.313963   0.000000
   88       -2.169457   0.000000
   89       -2.065144   0.000000
   90       -2.001538   0.000000
   91       -1.804340   0.000000
   92       -1.670444   0.000000
   93       -1.446196   0.000000
   94       -1.363724   0.000000
   95       -1.189602   0.000000
   96       -1.054935   0.000000
   97       -1.002808   0.000000
   98       -0.920246   0.000000
   99       -0.855201   0.000000
  100       -0.777743   0.000000
  101       -0.741837   0.000000
  102       -0.700751   0.000000
  103       -0.608365   0.000000
  104       -0.497131   0.000000
  105       -0.406796   0.000000
  106       -0.370649   0.000000
  107       -0.225854   0.000000
  108        0.047711   0.000000
  109        0.106106   0.000000
  110        0.259863   0.000000
  111        0.309620   0.000000
  112        0.475411   0.000000
  113        0.663549   0.000000
  114        0.900868   0.000000
  115        1.141946   0.000000
  116        1.226563   0.000000
  117        1.287539   0.000000
  118        1.811288   0.000000
  119        1.982252   0.000000
  120        2.278975   0.000000
 
  0.3750000E+00  0.0000000E+00  0.0000000E+00  0.3125000E-01
    1      -17.600612   1.000000
    2      -17.150542   1.000000
    3      -16.777894   1.000000
    4      -16.671128   1.000000
    5      -16.624206   1.000000
    6      -16.407762   1.000000
    7      -16.343864   1.000000
    8      -16.131712   1.000000
    9      -16.064985   1.000000
   10      -16.002386   1.000000
   11      -15.928309   1.000000
   12      -15.905753   1.000000
   13      -15.814880   1.000000
   14      -15.683228   1.000000
   15      -15.631913   1.000000
   16      -15.552393   1.000000
   17      -15.422659   1.000000
   18      -15.313496   1.000000
   19       -9.661756   1.000000
   20       -9.279416   1.000000
   21       -9.195107   1.000000
   22       -9.049068   1.000000
   23       -8.951811   1.000000
   24       -8.884310   1.000000
   25       -8.593833   1.000000
   26       -8.441009   1.000000
   27       -8.400413   1.000000
   28       -8.327284   1.000000
   29       -8.280564   1.000000
   30       -8.174640   1.000000
   31       -8.124012   1.000000
   32       -8.045817   1.000000
   33       -7.928592   1.000000
   34       -7.841454   1.000000
   35       -7.727260   1.000000
   36       -7.672411   1.000000
   37       -7.563849   1.000000
   38       -7.437257   1.000000
   39       -7.381457   1.000000
   40       -7.256129   1.000000
   41       -7.174405   1.000000
   42       -7.155466   1.000000
   43       -7.049705   1.000000
   44       -6.944571   1.000000
   45       -6.879946   1.000000
   46       -6.836317   1.000000
   47       -6.705677   1.000000
   48       -6.661421   1.000000
   49       -6.579411   1.000000
   50       -6.530739   1.000000
   51       -6.446084   1.000000
   52       -6.302237   1.000000
   53       -6.251114   1.000000
   54       -6.165123   1.000000
   55       -6.107005   1.000000
   56       -6.067612   1.000000
   57       -5.965607   1.000000
   58       -5.925368   1.000000
   59       -5.852737   1.000000
   60       -5.792187   1.000000
   61       -5.777434   1.000000
   62       -5.673684   1.000000
   63       -5.601473   1.000000
   64       -5.349607   1.000000
   65       -5.213465   1.000000
   66       -5.102648   1.000000
   67       -4.981534   1.000000
   68       -4.873898   1.000000
   69       -4.806427   1.000000
   70       -4.670934   1.000000
   71       -4.469567   1.000000
   72       -4.419329   1.000000
   73       -4.363258   1.000000
   74       -4.269017   1.000000
   75       -4.192907   1.000000
   76       -3.909279   0.999958
   77       -3.853494   0.999799
   78       -3.703742   0.993434
   79       -3.542218   0.909559
   80       -3.266086   0.269441
   81       -2.948285   0.002107
   82       -2.870172   0.000320
   83       -2.703144   0.000002
   84       -2.577671   0.000000
   85       -2.474825   0.000000
   86       -2.394013   0.000000
   87       -2.293912   0.000000
   88       -2.158078   0.000000
   89       -2.001777   0.000000
   90       -1.961913   0.000000
   91       -1.773464   0.000000
   92       -1.677078   0.000000
   93       -1.447281   0.000000
   94       -1.322689   0.000000
   95       -1.203324   0.000000
   96       -1.116573   0.000000
   97       -1.090055   0.000000
   98       -1.011771   0.000000
   99       -0.954684   0.000000
  100       -0.881146   0.000000
  101       -0.793526   0.000000
  102       -0.720534   0.000000
  103       -0.645093   0.000000
  104       -0.568544   0.000000
  105       -0.518588   0.000000
  106       -0.387678   0.000000
  107       -0.272835   0.000000
  108       -0.060701   0.000000
  109        0.010646   0.000000
  110        0.227713   0.000000
  111        0.305139   0.000000
  112        0.540459   0.000000
  113        0.711865   0.000000
  114        0.928414   0.000000
  115        1.221571   0.000000
  116        1.324402   0.000000
  117        1.389007   0.000000
  118        1.993161   0.000000
  119        2.154570   0.000000
  120        2.445188   0.000000
 
  0.5000000E+00  0.1110223E-15  0.0000000E+00  0.1562500E-01
    1      -17.524352   1.000000
    2      -17.260721   1.000000
    3      -16.793267   1.000000
    4      -16.671608   1.000000
    5      -16.630663   1.000000
    6      -16.416501   1.000000
    7      -16.338153   1.000000
    8      -16.119231   1.000000
    9      -16.001833   1.000000
   10      -15.993902   1.000000
   11      -15.930368   1.000000
   12      -15.898832   1.000000
   13      -15.828694   1.000000
   14      -15.685112   1.000000
   15      -15.635938   1.000000
   16      -15.538763   1.000000
   17      -15.436838   1.000000
   18      -15.311422   1.000000
   19       -9.738172   1.000000
   20       -9.311113   1.000000
   21       -9.224921   1.000000
   22       -9.064506   1.000000
   23       -8.947633   1.000000
   24       -8.888790   1.000000
   25       -8.569996   1.000000
   26       -8.410464   1.000000
   27       -8.397088   1.000000
   28       -8.312609   1.000000
   29       -8.239293   1.000000
   30       -8.190018   1.000000
   31       -8.098193   1.000000
   32       -8.025516   1.000000
   33       -7.956768   1.000000
   34       -7.864242   1.000000
   35       -7.813614   1.000000
   36       -7.703322   1.000000
   37       -7.543852   1.000000
   38       -7.419236   1.000000
   39       -7.392100   1.000000
   40       -7.211056   1.000000
   41       -7.142115   1.000000
   42       -7.052266   1.000000
   43       -6.957409   1.000000
   44       -6.922570   1.000000
   45       -6.849108   1.000000
   46       -6.760694   1.000000
   47       -6.696431   1.000000
   48       -6.661082   1.000000
   49       -6.522019   1.000000
   50       -6.503724   1.000000
   51       -6.457490   1.000000
   52       -6.367832   1.000000
   53       -6.316519   1.000000
   54       -6.237214   1.000000
   55       -6.139840   1.000000
   56       -6.043248   1.000000
   57       -5.979314   1.000000
   58       -5.901132   1.000000
   59       -5.829139   1.000000
   60       -5.802236   1.000000
   61       -5.754579   1.000000
   62       -5.724091   1.000000
   63       -5.564233   1.000000
   64       -5.410083   1.000000
   65       -5.345764   1.000000
   66       -5.081596   1.000000
   67       -5.065405   1.000000
   68       -4.934886   1.000000
   69       -4.801772   1.000000
   70       -4.609832   1.000000
   71       -4.444524   1.000000
   72       -4.399600   1.000000
   73       -4.379176   1.000000
   74       -4.289972   1.000000
   75       -4.190044   1.000000
   76       -3.866861   0.999860
   77       -3.835284   0.999676
   78       -3.701448   0.993130
   79       -3.555728   0.924153
   80       -3.155192   0.080960
   81       -2.926522   0.001282
   82       -2.904391   0.000757
   83       -2.714489   0.000003
   84       -2.593494   0.000000
   85       -2.495336   0.000000
   86       -2.378460   0.000000
   87       -2.271205   0.000000
   88       -2.156071   0.000000
   89       -1.997307   0.000000
   90       -1.930621   0.000000
   91       -1.741053   0.000000
   92       -1.681654   0.000000
   93       -1.450405   0.000000
   94       -1.290228   0.000000
   95       -1.249411   0.000000
   96       -1.160230   0.000000
   97       -1.113446   0.000000
   98       -1.062109   0.000000
   99       -0.984892   0.000000
  100       -0.894025   0.000000
  101       -0.833246   0.000000
  102       -0.723563   0.000000
  103       -0.653021   0.000000
  104       -0.599030   0.000000
  105       -0.558923   0.000000
  106       -0.379125   0.000000
  107       -0.302774   0.000000
  108       -0.115773   0.000000
  109       -0.023768   0.000000
  110        0.203471   0.000000
  111        0.318292   0.000000
  112        0.554816   0.000000
  113        0.732245   0.000000
  114        0.944108   0.000000
  115        1.252189   0.000000
  116        1.358687   0.000000
  117        1.433640   0.000000
  118        2.203702   0.000000
  119        2.239914   0.000000
  120        2.365938   0.000000
 
  0.0000000E+00  0.1250000E+00  0.0000000E+00  0.3125000E-01
    1      -17.773695   1.000000
    2      -16.778680   1.000000
    3      -16.695810   1.000000
    4      -16.615910   1.000000
    5      -16.550717   1.000000
    6      -16.426616   1.000000
    7      -16.385989   1.000000
    8      -16.277472   1.000000
    9      -16.159659   1.000000
   10      -16.080274   1.000000
   11      -16.009598   1.000000
   12      -15.939393   1.000000
   13      -15.850230   1.000000
   14      -15.704341   1.000000
   15      -15.630910   1.000000
   16      -15.487954   1.000000
   17      -15.434328   1.000000
   18      -15.279501   1.000000
   19       -9.261096   1.000000
   20       -9.177044   1.000000
   21       -9.030540   1.000000
   22       -8.925918   1.000000
   23       -8.783982   1.000000
   24       -8.683479   1.000000
   25       -8.641890   1.000000
   26       -8.581514   1.000000
   27       -8.516254   1.000000
   28       -8.433141   1.000000
   29       -8.371129   1.000000
   30       -8.296433   1.000000
   31       -8.172393   1.000000
   32       -8.029849   1.000000
   33       -7.990369   1.000000
   34       -7.908783   1.000000
   35       -7.827064   1.000000
   36       -7.724806   1.000000
   37       -7.696142   1.000000
   38       -7.552117   1.000000
   39       -7.507196   1.000000
   40       -7.438855   1.000000
   41       -7.347200   1.000000
   42       -7.287465   1.000000
   43       -7.053302   1.000000
   44       -6.937701   1.000000
   45       -6.904083   1.000000
   46       -6.846286   1.000000
   47       -6.719314   1.000000
   48       -6.658126   1.000000
   49       -6.525475   1.000000
   50       -6.469083   1.000000
   51       -6.431010   1.000000
   52       -6.367831   1.000000
   53       -6.297898   1.000000
   54       -6.282436   1.000000
   55       -6.203548   1.000000
   56       -6.147816   1.000000
   57       -6.011239   1.000000
   58       -5.883371   1.000000
   59       -5.715761   1.000000
   60       -5.593919   1.000000
   61       -5.560143   1.000000
   62       -5.487614   1.000000
   63       -5.357287   1.000000
   64       -5.163638   1.000000
   65       -5.108735   1.000000
   66       -5.011082   1.000000
   67       -4.923194   1.000000
   68       -4.887590   1.000000
   69       -4.797014   1.000000
   70       -4.684551   1.000000
   71       -4.657495   1.000000
   72       -4.581638   1.000000
   73       -4.495755   1.000000
   74       -4.217794   1.000000
   75       -3.982023   0.999996
   76       -3.923768   0.999973
   77       -3.807004   0.999337
   78       -3.723140   0.995569
   79       -3.636245   0.977407
   80       -3.498859   0.848835
   81       -3.166700   0.093875
   82       -2.831546   0.000113
   83       -2.671667   0.000001
   84       -2.547281   0.000000
   85       -2.467995   0.000000
   86       -2.384580   0.000000
   87       -2.281381   0.000000
   88       -2.189576   0.000000
   89       -2.124287   0.000000
   90       -2.047151   0.000000
   91       -1.806091   0.000000
   92       -1.673767   0.000000
   93       -1.460165   0.000000
   94       -1.381705   0.000000
   95       -1.204660   0.000000
   96       -1.034705   0.000000
   97       -0.946827   0.000000
   98       -0.848213   0.000000
   99       -0.788517   0.000000
  100       -0.744958   0.000000
  101       -0.605741   0.000000
  102       -0.574509   0.000000
  103       -0.506754   0.000000
  104       -0.400099   0.000000
  105       -0.335688   0.000000
  106       -0.231243   0.000000
  107       -0.181380   0.000000
  108        0.046855   0.000000
  109        0.146259   0.000000
  110        0.263234   0.000000
  111        0.358968   0.000000
  112        0.445259   0.000000
  113        0.664831   0.000000
  114        0.941620   0.000000
  115        0.984407   0.000000
  116        1.059917   0.000000
  117        1.168182   0.000000
  118        1.687148   0.000000
  119        1.870266   0.000000
  120        2.175176   0.000000
 
  0.1250000E+00  0.1250000E+00  0.0000000E+00  0.3125000E-01
    1      -17.726306   1.000000
    2      -16.876947   1.000000
    3      -16.782624   1.000000
    4      -16.676743   1.000000
    5      -16.501469   1.000000
    6      -16.415749   1.000000
    7      -16.366998   1.000000
    8      -16.249155   1.000000
    9      -16.121842   1.000000
   10      -16.060820   1.000000
   11      -16.009682   1.000000
   12      -15.884841   1.000000
   13      -15.817600   1.000000
   14      -15.694017   1.000000
   15      -15.643322   1.000000
   16      -15.505149   1.000000
   17      -15.427649   1.000000
   18      -15.300736   1.000000
   19       -9.362459   1.000000
   20       -9.274227   1.000000
   21       -9.132060   1.000000
   22       -9.019680   1.000000
   23       -8.825838   1.000000
   24       -8.746962   1.000000
   25       -8.623825   1.000000
   26       -8.522602   1.000000
   27       -8.480738   1.000000
   28       -8.448318   1.000000
   29       -8.340032   1.000000
   30       -8.232148   1.000000
   31       -8.085845   1.000000
   32       -8.050305   1.000000
   33       -7.918081   1.000000
   34       -7.822211   1.000000
   35       -7.740804   1.000000
   36       -7.693731   1.000000
   37       -7.578357   1.000000
   38       -7.547361   1.000000
   39       -7.444403   1.000000
   40       -7.413355   1.000000
   41       -7.305164   1.000000
   42       -7.227061   1.000000
   43       -7.140441   1.000000
   44       -6.991255   1.000000
   45       -6.907880   1.000000
   46       -6.842954   1.000000
   47       -6.779422   1.000000
   48       -6.675863   1.000000
   49       -6.541859   1.000000
   50       -6.499820   1.000000
   51       -6.448311   1.000000
   52       -6.342319   1.000000
   53       -6.288386   1.000000
   54       -6.198846   1.000000
   55       -6.185995   1.000000
   56       -6.101010   1.000000
   57       -5.991673   1.000000
   58       -5.864669   1.000000
   59       -5.697757   1.000000
   60       -5.667479   1.000000
   61       -5.579943   1.000000
   62       -5.504267   1.000000
   63       -5.451815   1.000000
   64       -5.316438   1.000000
   65       -5.200332   1.000000
   66       -5.092981   1.000000
   67       -4.972366   1.000000
   68       -4.847776   1.000000
   69       -4.769717   1.000000
   70       -4.654298   1.000000
   71       -4.591177   1.000000
   72       -4.497747   1.000000
   73       -4.386832   1.000000
   74       -4.190765   1.000000
   75       -4.102305   1.000000
   76       -4.019826   0.999999
   77       -3.849174   0.999775
   78       -3.697916   0.992636
   79       -3.540106   0.907100
   80       -3.507971   0.863435
   81       -3.027511   0.010682
   82       -2.854397   0.000211
   83       -2.692402   0.000001
   84       -2.546833   0.000000
   85       -2.457466   0.000000
   86       -2.390098   0.000000
   87       -2.311029   0.000000
   88       -2.186742   0.000000
   89       -2.070107   0.000000
   90       -2.010988   0.000000
   91       -1.804120   0.000000
   92       -1.697630   0.000000
   93       -1.453750   0.000000
   94       -1.363287   0.000000
   95       -1.193947   0.000000
   96       -1.034081   0.000000
   97       -0.987602   0.000000
   98       -0.894040   0.000000
   99       -0.833311   0.000000
  100       -0.770005   0.000000
  101       -0.699932   0.000000
  102       -0.658937   0.000000
  103       -0.545620   0.000000
  104       -0.487212   0.000000
  105       -0.376222   0.000000
  106       -0.309818   0.000000
  107       -0.219076   0.000000
  108        0.042748   0.000000
  109        0.116253   0.000000
  110        0.246679   0.000000
  111        0.379353   0.000000
  112        0.480953   0.000000
  113        0.654425   0.000000
  114        0.925994   0.000000
  115        1.068723   0.000000
  116        1.124069   0.000000
  117        1.240445   0.000000
  118        1.772504   0.000000
  119        1.944221   0.000000
  120        2.244981   0.000000
 
  0.2500000E+00  0.1250000E+00  0.0000000E+00  0.3125000E-01
    1      -17.637121   1.000000
    2      -17.045436   1.000000
    3      -16.895827   1.000000
    4      -16.658114   1.000000
    5      -16.506860   1.000000
    6      -16.394982   1.000000
    7      -16.345038   1.000000
    8      -16.193577   1.000000
    9      -16.086403   1.000000
   10      -16.044196   1.000000
   11      -15.970587   1.000000
   12      -15.876336   1.000000
   13      -15.782900   1.000000
   14      -15.698124   1.000000
   15      -15.625303   1.000000
   16      -15.529353   1.000000
   17      -15.428783   1.000000
   18      -15.315400   1.000000
   19       -9.559730   1.000000
   20       -9.405827   1.000000
   21       -9.213108   1.000000
   22       -9.030552   1.000000
   23       -8.845815   1.000000
   24       -8.783608   1.000000
   25       -8.586081   1.000000
   26       -8.458320   1.000000
   27       -8.430924   1.000000
   28       -8.356065   1.000000
   29       -8.303320   1.000000
   30       -8.196304   1.000000
   31       -8.121424   1.000000
   32       -8.060460   1.000000
   33       -7.965592   1.000000
   34       -7.838986   1.000000
   35       -7.753628   1.000000
   36       -7.625874   1.000000
   37       -7.548221   1.000000
   38       -7.421226   1.000000
   39       -7.357900   1.000000
   40       -7.302512   1.000000
   41       -7.218801   1.000000
   42       -7.198162   1.000000
   43       -7.123173   1.000000
   44       -6.946911   1.000000
   45       -6.898829   1.000000
   46       -6.824213   1.000000
   47       -6.725111   1.000000