       N       E                     dE             d eps       ncg     rms          rms(c)
DAV:   1     0.112595518925E+04    0.11260E+04   -0.35977E+04  8160   0.577E+02
DAV:   2    -0.573222859153E+01   -0.11317E+04   -0.10918E+04 11400   0.173E+02
DAV:   3    -0.199955683783E+03   -0.19422E+03   -0.18701E+03 10880   0.818E+01
DAV:   4    -0.208993712216E+03   -0.90380E+01   -0.87548E+01 12360   0.260E+01
DAV:   5    -0.209289097427E+03   -0.29539E+00   -0.29449E+00 11400   0.333E+00    0.275E+01
DAV:   6    -0.236792871588E+03   -0.27504E+02   -0.11084E+02 12680   0.604E+01    0.594E+01
DAV:   7    -0.196672367990E+03    0.40121E+02   -0.17923E+02 13200   0.152E+02    0.203E+01
DAV:   8    -0.190028697872E+03    0.66437E+01   -0.20778E+01 11640   0.134E+01    0.136E+01
DAV:   9    -0.188241226312E+03    0.17875E+01   -0.30918E+00 12040   0.626E+00    0.919E+00
DAV:  10    -0.187056331757E+03    0.11849E+01   -0.18287E+00 13320   0.773E+00    0.299E+00
DAV:  11    -0.186996081758E+03    0.60250E-01   -0.62124E-01 12520   0.238E+00    0.248E+00
DAV:  12    -0.187073204173E+03   -0.77122E-01   -0.59388E-01 12600   0.413E+00    0.453E+00
DAV:  13    -0.186905939996E+03    0.16726E+00   -0.42475E-01 13000   0.363E+00    0.185E+00
DAV:  14    -0.186893883053E+03    0.12057E-01   -0.11937E-01 12880   0.209E+00    0.177E+00
DAV:  15    -0.186870073271E+03    0.23810E-01   -0.58093E-02 12880   0.147E+00    0.735E-01
DAV:  16    -0.186865575672E+03    0.44976E-02   -0.88479E-03 12520   0.372E-01    0.414E-01
DAV:  17    -0.186863623293E+03    0.19524E-02   -0.74551E-03 12800   0.367E-01    0.222E-01
DAV:  18    -0.186862981145E+03    0.64215E-03   -0.17493E-03 11720   0.126E-01    0.132E-01
DAV:  19    -0.186862857520E+03    0.12362E-03   -0.59522E-04 10000   0.100E-01    0.449E-02
DAV:  20    -0.186863704832E+03   -0.84731E-03   -0.76637E-04  9000   0.508E-02    0.375E-02
DAV:  21    -0.186864384070E+03   -0.67924E-03   -0.19177E-04  8240   0.394E-02    0.339E-02
DAV:  22    -0.186865417865E+03   -0.10338E-02   -0.16172E-04  7520   0.461E-02    0.404E-02
DAV:  23    -0.186866565886E+03   -0.11480E-02   -0.13681E-04  7480   0.487E-02    0.162E-02
DAV:  24    -0.186867141505E+03   -0.57562E-03   -0.28931E-05  6720   0.170E-02    0.453E-03
DAV:  25    -0.186867505745E+03   -0.36424E-03   -0.16864E-05  5560   0.963E-03    0.438E-03
DAV:  26    -0.186867749345E+03   -0.24360E-03   -0.93670E-06  6760   0.723E-03    0.158E-03
DAV:  27    -0.186867840114E+03   -0.90768E-04   -0.32727E-06  7240   0.416E-03
   1 F= -.18686784E+03 E0= -.18669574E+03  d E =-.186868E+03
       N       E                     dE             d eps       ncg     rms          rms(c)
DAV:   1    -0.187506845287E+03   -0.63910E+00   -0.27185E+02  8160   0.350E+01    0.467E+00
DAV:   2    -0.189513994328E+03   -0.20071E+01   -0.20435E+01 12240   0.156E+01    0.986E+00
DAV:   3    -0.189363198761E+03    0.15080E+00   -0.50267E+00 12440   0.126E+01    0.648E+00
DAV:   4    -0.188791552899E+03    0.57165E+00   -0.60331E-01 12440   0.458E+00    0.230E+00
DAV:   5    -0.188886418530E+03   -0.94866E-01   -0.45010E-01 11240   0.375E+00    0.524E+00
DAV:   6    -0.188758648464E+03    0.12777E+00   -0.73498E-01 12640   0.410E+00    0.223E+00
DAV:   7    -0.188704694427E+03    0.53954E-01   -0.19648E-01 10520   0.140E+00    0.136E+00
DAV:   8    -0.188696140316E+03    0.85541E-02   -0.91315E-02 12960   0.147E+00    0.150E+00
DAV:   9    -0.188681089185E+03    0.15051E-01   -0.32711E-02 11880   0.106E+00    0.624E-01
DAV:  10    -0.188677442353E+03    0.36468E-02   -0.71346E-03 12480   0.380E-01    0.330E-01
DAV:  11    -0.188676741117E+03    0.70124E-03   -0.37504E-03 12840   0.280E-01    0.128E-01
DAV:  12    -0.188676838503E+03   -0.97386E-04   -0.95320E-04 12000   0.988E-02
   2 F= -.18867684E+03 E0= -.18853551E+03  d E =-.180900E+01
       N       E                     dE             d eps       ncg     rms          rms(c)
DAV:   1    -0.190607399155E+03   -0.19307E+01   -0.31416E+01  9120   0.143E+01    0.446E+00
DAV:   2    -0.190566998771E+03    0.40400E-01   -0.28186E+00 11120   0.953E+00    0.734E+00
DAV:   3    -0.190088002696E+03    0.47900E+00   -0.14096E+00 12320   0.862E+00    0.425E+00
DAV:   4    -0.189880734594E+03    0.20727E+00   -0.76867E-01 12640   0.423E+00    0.265E+00
DAV:   5    -0.189920108290E+03   -0.39374E-01   -0.47534E-01 12240   0.405E+00    0.375E+00
DAV:   6    -0.189775656849E+03    0.14445E+00   -0.21616E-01 12280   0.316E+00    0.655E-01
DAV:   7    -0.189769471662E+03    0.61852E-02   -0.16163E-02 12520   0.511E-01    0.266E-01
DAV:   8    -0.189770499362E+03   -0.10277E-02   -0.51863E-03 11640   0.419E-01    0.412E-01
DAV:   9    -0.189769283975E+03    0.12154E-02   -0.27010E-03 11120   0.331E-01    0.133E-01
DAV:  10    -0.189769571396E+03   -0.28742E-03   -0.90005E-04 10200   0.115E-01    0.129E-01
DAV:  11    -0.189769355498E+03    0.21590E-03   -0.46671E-04  8880   0.742E-02    0.198E-02
DAV:  12    -0.189769377795E+03   -0.22297E-04   -0.68099E-05  7000   0.269E-02
   3 F= -.18976938E+03 E0= -.18964926E+03  d E =-.109254E+01
       N       E                     dE             d eps       ncg     rms          rms(c)
DAV:   1    -0.191314318748E+03   -0.15450E+01   -0.75287E+01  8160   0.198E+01    0.456E+00
DAV:   2    -0.191164833561E+03    0.14949E+00   -0.53461E+00 13160   0.782E+00    0.478E+00
DAV:   3    -0.191269147367E+03   -0.10431E+00   -0.15782E+00 12240   0.905E+00    0.643E+00
DAV:   4    -0.190873257680E+03    0.39589E+00   -0.12258E+00 12960   0.722E+00    0.263E+00
DAV:   5    -0.190789653713E+03    0.83604E-01   -0.31511E-01 12280   0.272E+00    0.182E+00
DAV:   6    -0.190772170314E+03    0.17483E-01   -0.15923E-01 12640   0.258E+00    0.166E+00
DAV:   7    -0.190751091023E+03    0.21079E-01   -0.64250E-02 11800   0.154E+00    0.494E-01
DAV:   8    -0.190748000779E+03    0.30902E-02   -0.89861E-03 11600   0.474E-01    0.320E-01
DAV:   9    -0.190747402996E+03    0.59778E-03   -0.28298E-03 11440   0.364E-01    0.211E-01
DAV:  10    -0.190747517888E+03   -0.11489E-03   -0.14941E-03 11200   0.206E-01    0.138E-01
DAV:  11    -0.190747304001E+03    0.21389E-03   -0.92643E-04 10040   0.111E-01    0.463E-02
DAV:  12    -0.190747299319E+03    0.46822E-05   -0.14093E-04  7320   0.441E-02
   4 F= -.19074730E+03 E0= -.19064226E+03  d E =-.977922E+00
       N       E                     dE             d eps       ncg     rms          rms(c)
DAV:   1    -0.192157217451E+03   -0.14099E+01   -0.16448E+02  8160   0.287E+01    0.576E+00
DAV:   2    -0.191865812631E+03    0.29140E+00   -0.95593E+00 11320   0.819E+00    0.388E+00
DAV:   3    -0.192011204488E+03   -0.14539E+00   -0.20522E+00 12080   0.868E+00    0.742E+00
DAV:   4    -0.191753035075E+03    0.25817E+00   -0.25204E+00 11480   0.108E+01    0.452E+00
DAV:   5    -0.191587094020E+03    0.16594E+00   -0.77202E-01 12280   0.583E+00    0.347E+00
DAV:   6    -0.191436110058E+03    0.15098E+00   -0.28089E-01 12240   0.382E+00    0.122E+00
DAV:   7    -0.191427879292E+03    0.82308E-02   -0.72394E-02 12320   0.143E+00    0.833E-01
DAV:   8    -0.191426053706E+03    0.18256E-02   -0.34070E-02 12040   0.122E+00    0.775E-01
DAV:   9    -0.191419490587E+03    0.65631E-02   -0.10699E-02 12440   0.701E-01    0.186E-01
DAV:  10    -0.191419781414E+03   -0.29083E-03   -0.23750E-03 11240   0.183E-01    0.109E-01
DAV:  11    -0.191419636202E+03    0.14521E-03   -0.64252E-04 11200   0.971E-02    0.554E-02
DAV:  12    -0.191419617737E+03    0.18465E-04   -0.10718E-04  7040   0.461E-02
   5 F= -.19141962E+03 E0= -.19131715E+03  d E =-.672318E+00
       N       E                     dE             d eps       ncg     rms          rms(c)
DAV:   1    -0.191483865664E+03   -0.64229E-01   -0.46198E+00  8160   0.456E+00    0.674E-01
DAV:   2    -0.191546677075E+03   -0.62811E-01   -0.28234E-01 12960   0.300E+00    0.231E+00
DAV:   3    -0.191493421619E+03    0.53255E-01   -0.10860E-01 12400   0.232E+00    0.455E-01
DAV:   4    -0.191495948887E+03   -0.25273E-02   -0.18474E-02 11160   0.880E-01    0.737E-01
DAV:   5    -0.191490738204E+03    0.52107E-02   -0.12123E-02 11280   0.734E-01    0.255E-01
DAV:   6    -0.191490448434E+03    0.28977E-03   -0.35479E-03 10960   0.283E-01    0.209E-01
DAV:   7    -0.191490828278E+03   -0.37984E-03   -0.37327E-03 11480   0.403E-01    0.317E-01
DAV:   8    -0.191489851215E+03    0.97706E-03   -0.18898E-03  9640   0.284E-01    0.474E-02
DAV:   9    -0.191489839581E+03    0.11634E-04   -0.10582E-04  5760   0.444E-02
   6 F= -.19148984E+03 E0= -.19138499E+03  d E =-.702218E-01
       N       E                     dE             d eps       ncg     rms          rms(c)
DAV:   1    -0.191535837951E+03   -0.45987E-01   -0.22490E+00  8160   0.316E+00    0.366E-01
DAV:   2    -0.191549588028E+03   -0.13750E-01   -0.72923E-02 13400   0.118E+00    0.103E+00
DAV:   3    -0.191538957799E+03    0.10630E-01   -0.28782E-02 12160   0.116E+00    0.346E-01
DAV:   4    -0.191539280877E+03   -0.32308E-03   -0.63587E-03 11080   0.492E-01    0.400E-01
DAV:   5    -0.191537747208E+03    0.15337E-02   -0.38345E-03 11040   0.417E-01    0.139E-01
DAV:   6    -0.191537656503E+03    0.90705E-04   -0.91108E-04  9960   0.137E-01
   7 F= -.19153766E+03 E0= -.19143193E+03  d E =-.478169E-01
       N       E                     dE             d eps       ncg     rms          rms(c)
DAV:   1    -0.191594402097E+03   -0.56655E-01   -0.33644E+00  8160   0.386E+00    0.447E-01
DAV:   2    -0.191620779577E+03   -0.26377E-01   -0.11839E-01 13600   0.164E+00    0.151E+00
DAV:   3    -0.191598994149E+03    0.21785E-01   -0.56665E-02 12200   0.154E+00    0.404E-01
DAV:   4    -0.191599681250E+03   -0.68710E-03   -0.10369E-02 11360   0.640E-01    0.478E-01
DAV:   5    -0.191597340027E+03    0.23412E-02   -0.49660E-03 11240   0.476E-01    0.145E-01
DAV:   6    -0.191597379924E+03   -0.39897E-04   -0.13671E-03 10400   0.178E-01    0.149E-01
DAV:   7    -0.191597625212E+03   -0.24529E-03   -0.17464E-03 10240   0.283E-01    0.235E-01
DAV:   8    -0.191597083183E+03    0.54203E-03   -0.88630E-04  8320   0.198E-01    0.274E-02
DAV:   9    -0.191597102261E+03   -0.19078E-04   -0.60329E-05  5640   0.308E-02
   8 F= -.19159710E+03 E0= -.19149088E+03  d E =-.594458E-01
       N       E                     dE             d eps       ncg     rms          rms(c)
DAV:   1    -0.191625542515E+03   -0.28459E-01   -0.77074E-01  8160   0.185E+00    0.218E-01
DAV:   2    -0.191631757648E+03   -0.62151E-02   -0.29242E-02 13480   0.898E-01    0.709E-01
DAV:   3    -0.191626648616E+03    0.51090E-02   -0.11519E-02 11320   0.728E-01    0.178E-01
DAV:   4    -0.191626948510E+03   -0.29989E-03   -0.23154E-03  9760   0.304E-01    0.246E-01
DAV:   5    -0.191626344885E+03    0.60362E-03   -0.12730E-03  9400   0.238E-01    0.634E-02
DAV:   6    -0.191626362540E+03   -0.17654E-04   -0.23326E-04  6680   0.640E-02
   9 F= -.19162636E+03 E0= -.19152014E+03  d E =-.292603E-01
       N       E                     dE             d eps       ncg     rms          rms(c)
DAV:   1    -0.191606470116E+03    0.19875E-01   -0.33303E-01  8160   0.122E+00    0.140E-01
DAV:   2    -0.191609194851E+03   -0.27247E-02   -0.12596E-02 12760   0.564E-01    0.466E-01
DAV:   3    -0.191606892378E+03    0.23025E-02   -0.47792E-03 11400   0.467E-01    0.109E-01
DAV:   4    -0.191607024893E+03   -0.13252E-03   -0.90579E-04  8720   0.190E-01    0.151E-01
DAV:   5    -0.191606782185E+03    0.24271E-03   -0.48666E-04  8560   0.152E-01    0.386E-02
DAV:   6    -0.191606790200E+03   -0.80150E-05   -0.10191E-04  6200   0.488E-02
  10 F= -.19160679E+03 E0= -.19150048E+03  d E =0.195723E-01
       N       E                     dE             d eps       ncg     rms          rms(c)
DAV:   1    -0.191568080105E+03    0.38702E-01   -0.17651E+00  8160   0.287E+00    0.406E-01
DAV:   2    -0.191581298674E+03   -0.13219E-01   -0.81723E-02 11400   0.135E+00    0.105E+00
DAV:   3    -0.191570392298E+03    0.10906E-01   -0.28251E-02 11920   0.113E+00    0.376E-01
DAV:   4    -0.191570561924E+03   -0.16963E-03   -0.80011E-03 11280   0.546E-01    0.407E-01
DAV:   5    -0.191569065383E+03    0.14965E-02   -0.52496E-03 10760   0.491E-01    0.208E-01
DAV:   6    -0.191568669219E+03    0.39616E-03   -0.18000E-03 11640   0.237E-01    0.896E-02
DAV:   7    -0.191568546629E+03    0.12259E-03   -0.60118E-04 11360   0.940E-02    0.448E-02
DAV:   8    -0.191568553928E+03   -0.72994E-05   -0.14672E-04  6520   0.812E-02
  11 F= -.19156855E+03 E0= -.19146226E+03  d E =0.382363E-01
       N       E                     dE             d eps       ncg     rms          rms(c)
DAV:   1    -0.191350384932E+03    0.21816E+00   -0.44039E+01  8160   0.142E+01    0.157E+00
DAV:   2    -0.191578795715E+03   -0.22841E+00   -0.14243E+00 12560   0.528E+00    0.361E+00
DAV:   3    -0.191413847884E+03    0.16495E+00   -0.28213E-01 11760   0.413E+00    0.115E+00
DAV:   4    -0.191414389144E+03   -0.54126E-03   -0.70963E-02 12400   0.165E+00    0.136E+00
DAV:   5    -0.191399080395E+03    0.15309E-01   -0.53094E-02 11560   0.160E+00    0.636E-01
DAV:   6    -0.191396832670E+03    0.22477E-02   -0.15912E-02 11480   0.670E-01    0.369E-01
DAV:   7    -0.191396429296E+03    0.40337E-03   -0.10898E-02 12120   0.661E-01    0.510E-01
DAV:   8    -0.191393993708E+03    0.24356E-02   -0.48983E-03 11320   0.468E-01    0.957E-02
DAV:   9    -0.191393960951E+03    0.32757E-04   -0.50426E-04  9960   0.977E-02
  12 F= -.19139396E+03 E0= -.19129299E+03  d E =0.174593E+00
       N       E                     dE             d eps       ncg     rms          rms(c)
DAV:   1    -0.191432631815E+03   -0.38638E-01   -0.24554E+00  8160   0.333E+00    0.441E-01
DAV:   2    -0.191454799750E+03   -0.22168E-01   -0.13596E-01 13400   0.175E+00    0.119E+00
DAV:   3    -0.191439912096E+03    0.14888E-01   -0.35535E-02 12320   0.135E+00    0.336E-01
DAV:   4    -0.191440142148E+03   -0.23005E-03   -0.67160E-03 11440   0.519E-01    0.421E-01
DAV:   5    -0.191438612613E+03    0.15295E-02   -0.48007E-03 11480   0.481E-01    0.200E-01
DAV:   6    -0.191438268613E+03    0.34400E-03   -0.15481E-03 11320   0.201E-01    0.887E-02
DAV:   7    -0.191438300510E+03   -0.31897E-04   -0.85495E-04 10840   0.151E-01
  13 F= -.19143830E+03 E0= -.19133566E+03  d E =-.443396E-01
       N       E                     dE             d eps       ncg     rms          rms(c)
DAV:   1    -0.191437294430E+03    0.97418E-03   -0.88354E+00  8160   0.643E+00    0.695E-01
DAV:   2    -0.191465106898E+03   -0.27812E-01   -0.22048E-01 13440   0.192E+00    0.151E+00
DAV:   3    -0.191448554153E+03    0.16553E-01   -0.69308E-02 11960   0.181E+00    0.736E-01
DAV:   4    -0.191444053086E+03    0.45011E-02   -0.13215E-02 12360   0.728E-01    0.389E-01
DAV:   5    -0.191443383913E+03    0.66917E-03   -0.84971E-03 11160   0.656E-01    0.440E-01
DAV:   6    -0.191442500416E+03    0.88350E-03   -0.75996E-03 10480   0.584E-01    0.300E-01
DAV:   7    -0.191441996529E+03    0.50389E-03   -0.35488E-03 11280   0.398E-01    0.249E-01
DAV:   8    -0.191441333889E+03    0.66264E-03   -0.12273E-03  9760   0.251E-01    0.482E-02
DAV:   9    -0.191441322989E+03    0.10900E-04   -0.96417E-05  6480   0.491E-02
  14 F= -.19144132E+03 E0= -.19133951E+03  d E =-.302248E-02
       N       E                     dE             d eps       ncg     rms          rms(c)
DAV:   1    -0.191499053807E+03   -0.57720E-01   -0.58264E+00  8160   0.510E+00    0.614E-01
DAV:   2    -0.191546044574E+03   -0.46991E-01   -0.21951E-01 13600   0.253E+00    0.199E+00
DAV:   3    -0.191508383459E+03    0.37661E-01   -0.89010E-02 12160   0.210E+00    0.535E-01
DAV:   4    -0.191508878636E+03   -0.49518E-03   -0.15635E-02 11440   0.850E-01    0.609E-01
DAV:   5    -0.191505171138E+03    0.37075E-02   -0.86654E-03 11560   0.659E-01    0.236E-01
DAV:   6    -0.191504581909E+03    0.58923E-03   -0.23548E-03 10640   0.222E-01    0.118E-01
DAV:   7    -0.191504675182E+03   -0.93273E-04   -0.13284E-03 11800   0.199E-01    0.169E-01
DAV:   8    -0.191504393472E+03    0.28171E-03   -0.67310E-04  8800   0.184E-01    0.575E-02
DAV:   9    -0.191504365330E+03    0.28142E-04   -0.95307E-05  5960   0.565E-02
  15 F= -.19150437E+03 E0= -.19140143E+03  d E =-.630423E-01
       N       E                     dE             d eps       ncg     rms          rms(c)
DAV:   1    -0.191446592580E+03    0.57801E-01   -0.42632E+00  8160   0.437E+00    0.500E-01
DAV:   2    -0.191470756837E+03   -0.24164E-01   -0.13843E-01 13600   0.186E+00    0.129E+00
DAV:   3    -0.191452091388E+03    0.18665E-01   -0.38410E-02 11840   0.146E+00    0.412E-01
DAV:   4    -0.191452461462E+03   -0.37007E-03   -0.97741E-03 11240   0.620E-01    0.476E-01
DAV:   5    -0.191450521613E+03    0.19398E-02   -0.64549E-03 11280   0.573E-01    0.251E-01
DAV:   6    -0.191449869178E+03    0.65243E-03   -0.20252E-03 10960   0.249E-01    0.101E-01
DAV:   7    -0.191449768155E+03    0.10102E-03   -0.57352E-04 10760   0.977E-02    0.557E-02
DAV:   8    -0.191449757431E+03    0.10724E-04   -0.16356E-04  6760   0.904E-02
  16 F= -.19144976E+03 E0= -.19134715E+03  d E =0.546079E-01
       N       E                     dE             d eps       ncg     rms          rms(c)
DAV:   1    -0.191385579153E+03    0.64189E-01   -0.68769E+00  8160   0.553E+00    0.598E-01
DAV:   2    -0.191421057676E+03   -0.35479E-01   -0.19887E-01 12800   0.205E+00    0.155E+00
DAV:   3    -0.191394997401E+03    0.26060E-01   -0.57520E-02 11840   0.176E+00    0.557E-01
DAV:   4    -0.191394569896E+03    0.42750E-03   -0.13262E-02 11240   0.729E-01    0.516E-01
DAV:   5    -0.191392203066E+03    0.23668E-02   -0.76821E-03 10960   0.640E-01    0.286E-01
DAV:   6    -0.191391444709E+03    0.75836E-03   -0.27081E-03 11920   0.306E-01    0.137E-01
DAV:   7    -0.191391539619E+03   -0.94910E-04   -0.13375E-03 11240   0.220E-01    0.185E-01
DAV:   8    -0.191391203580E+03    0.33604E-03   -0.72172E-04  8600   0.191E-01    0.482E-02
DAV:   9    -0.191391195309E+03    0.82716E-05   -0.64074E-05  6080   0.459E-02
  17 F= -.19139120E+03 E0= -.19128990E+03  d E =0.585621E-01
       N       E                     dE             d eps       ncg     rms          rms(c)
DAV:   1    -0.191389005416E+03    0.21982E-02   -0.11294E+00  8160   0.225E+00    0.255E-01
DAV:   2    -0.191392805531E+03   -0.38001E-02   -0.35135E-02 12760   0.720E-01    0.496E-01
DAV:   3    -0.191391252403E+03    0.15531E-02   -0.10452E-02 12280   0.693E-01    0.363E-01
DAV:   4    -0.191390026829E+03    0.12256E-02   -0.27821E-03 11320   0.331E-01    0.117E-01
DAV:   5    -0.191389871029E+03    0.15580E-03   -0.81020E-04 10040   0.134E-01    0.919E-02
DAV:   6    -0.191390006065E+03   -0.13504E-03   -0.72715E-04 10000   0.203E-01    0.138E-01
DAV:   7    -0.191389800031E+03    0.20603E-03   -0.40397E-04  8400   0.150E-01    0.410E-02
DAV:   8    -0.191389804409E+03   -0.43785E-05   -0.10885E-04  5800   0.680E-02
  18 F= -.19138980E+03 E0= -.19128870E+03  d E =0.139090E-02
       N       E                     dE             d eps       ncg     rms          rms(c)
DAV:   1    -0.191430251822E+03   -0.40452E-01   -0.39987E+00  8160   0.424E+00    0.520E-01
DAV:   2    -0.191457072906E+03   -0.26821E-01   -0.13882E-01 13600   0.195E+00    0.152E+00
DAV:   3    -0.191435263274E+03    0.21810E-01   -0.53553E-02 12200   0.164E+00    0.461E-01
DAV:   4    -0.191435493303E+03   -0.23003E-03   -0.11351E-02 11440   0.705E-01    0.511E-01
DAV:   5    -0.191433099503E+03    0.23938E-02   -0.71414E-03 11040   0.605E-01    0.261E-01
DAV:   6    -0.191432347657E+03    0.75185E-03   -0.23587E-03 11000   0.255E-01    0.108E-01
DAV:   7    -0.191432541322E+03   -0.19366E-03   -0.12781E-03 10840   0.221E-01    0.191E-01
DAV:   8    -0.191432173214E+03    0.36811E-03   -0.71659E-04  8880   0.190E-01    0.407E-02
DAV:   9    -0.191432165990E+03    0.72233E-05   -0.60762E-05  6040   0.405E-02
  19 F= -.19143217E+03 E0= -.19132951E+03  d E =-.423616E-01
       N       E                     dE             d eps       ncg     rms          rms(c)
DAV:   1    -0.191462072226E+03   -0.29899E-01   -0.17109E+00  8160   0.278E+00    0.348E-01
DAV:   2    -0.191475595860E+03   -0.13524E-01   -0.67068E-02 13600   0.140E+00    0.105E+00
DAV:   3    -0.191464471145E+03    0.11125E-01   -0.24565E-02 12240   0.112E+00    0.274E-01
DAV:   4    -0.191464994489E+03   -0.52334E-03   -0.49982E-03 11400   0.474E-01    0.374E-01
DAV:   5    -0.191463655630E+03    0.13389E-02   -0.31946E-03 11160   0.398E-01    0.139E-01
DAV:   6    -0.191463473347E+03    0.18228E-03   -0.82248E-04  9800   0.131E-01    0.660E-02
DAV:   7    -0.191463413800E+03    0.59547E-04   -0.27929E-04  8120   0.596E-02
  20 F= -.19146341E+03 E0= -.19136000E+03  d E =-.312478E-01
       N       E                     dE             d eps       ncg     rms          rms(c)
DAV:   1    -0.191425754240E+03    0.37719E-01   -0.21944E+00  8160   0.314E+00    0.370E-01
DAV:   2    -0.191440194825E+03   -0.14441E-01   -0.79478E-02 13600   0.144E+00    0.101E+00
DAV:   3    -0.191428850801E+03    0.11344E-01   -0.22159E-02 12080   0.111E+00    0.275E-01
DAV:   4    -0.191429297110E+03   -0.44631E-03   -0.50259E-03 10880   0.453E-01    0.372E-01
DAV:   5    -0.191428022805E+03    0.12743E-02   -0.34203E-03 10960   0.413E-01    0.157E-01
DAV:   6    -0.191427816884E+03    0.20592E-03   -0.97662E-04 10200   0.156E-01    0.762E-02
DAV:   7    -0.191427749928E+03    0.66955E-04   -0.34163E-04  9080   0.797E-02
  21 F= -.19142775E+03 E0= -.19132501E+03  d E =0.356639E-01
       N       E                     dE             d eps       ncg     rms          rms(c)
DAV:   1    -0.191368900489E+03    0.58916E-01   -0.60172E+00  8160   0.519E+00    0.572E-01
DAV:   2    -0.191399061067E+03   -0.30161E-01   -0.18977E-01 13320   0.196E+00    0.137E+00
DAV:   3    -0.191378189190E+03    0.20872E-01   -0.47958E-02 11840   0.161E+00    0.500E-01
DAV:   4    -0.191378227880E+03   -0.38690E-04   -0.12320E-02 11560   0.692E-01    0.531E-01
DAV:   5    -0.191375727055E+03    0.25008E-02   -0.73301E-03 11400   0.613E-01    0.261E-01
DAV:   6    -0.191375148198E+03    0.57886E-03   -0.24298E-03 11440   0.279E-01    0.127E-01
DAV:   7    -0.191374977111E+03    0.17109E-03   -0.87421E-04 10960   0.122E-01    0.598E-02
DAV:   8    -0.191374956835E+03    0.20276E-04   -0.21602E-04  7200   0.101E-01
  22 F= -.19137496E+03 E0= -.19127295E+03  d E =0.527931E-01
       N       E                     dE             d eps       ncg     rms          rms(c)
DAV:   1    -0.191355256657E+03    0.19720E-01   -0.24514E+00  8160   0.330E+00    0.361E-01
DAV:   2    -0.191365595775E+03   -0.10339E-01   -0.71529E-02 13240   0.118E+00    0.813E-01
DAV:   3    -0.191358869370E+03    0.67264E-02   -0.19817E-02 11400   0.994E-01    0.377E-01
DAV:   4    -0.191358199075E+03    0.67030E-03   -0.53620E-03 11320   0.468E-01    0.298E-01
DAV:   5    -0.191357608653E+03    0.59042E-03   -0.29495E-03 10840   0.392E-01    0.208E-01
DAV:   6    -0.191357164883E+03    0.44377E-03   -0.11795E-03 10760   0.223E-01    0.709E-02
DAV:   7    -0.191357165235E+03   -0.35171E-06   -0.40209E-04  9280   0.790E-02
  23 F= -.19135717E+03 E0= -.19125479E+03  d E =0.177916E-01
       N       E                     dE             d eps       ncg     rms          rms(c)
DAV:   1    -0.191395181220E+03   -0.38016E-01   -0.43823E+00  8160   0.445E+00    0.546E-01
DAV:   2    -0.191426364013E+03   -0.31183E-01   -0.16167E-01 13600   0.211E+00    0.158E+00
DAV:   3    -0.191401270977E+03    0.25093E-01   -0.58769E-02 12200   0.173E+00    0.443E-01
DAV:   4    -0.191401954766E+03   -0.68379E-03   -0.11864E-02 11480   0.716E-01    0.564E-01
DAV:   5    -0.191399051690E+03    0.29031E-02   -0.78270E-03 11240   0.623E-01    0.247E-01
DAV:   6    -0.191398359125E+03    0.69256E-03   -0.22880E-03 11200   0.245E-01    0.105E-01
DAV:   7    -0.191398515740E+03   -0.15661E-03   -0.12357E-03 11080   0.201E-01    0.175E-01
DAV:   8    -0.191398213909E+03    0.30183E-03   -0.66320E-04  8840   0.184E-01    0.534E-02
DAV:   9    -0.191398189517E+03    0.24392E-04   -0.79038E-05  5960   0.524E-02
  24 F= -.19139819E+03 E0= -.19129437E+03  d E =-.410243E-01
       N       E                     dE             d eps       ncg     rms          rms(c)
DAV:   1    -0.191410990260E+03   -0.12776E-01   -0.50284E-01  8160   0.150E+00    0.176E-01
DAV:   2    -0.191414025304E+03   -0.30350E-02   -0.17049E-02 13600   0.680E-01    0.472E-01
DAV:   3    -0.191411663238E+03    0.23621E-02   -0.54315E-03 11680   0.540E-01    0.141E-01
DAV:   4    -0.191411718700E+03   -0.55463E-04   -0.11435E-03  9720   0.211E-01    0.170E-01
DAV:   5    -0.191411491649E+03    0.22705E-03   -0.77407E-04  8520   0.198E-01    0.914E-02
DAV:   6    -0.191411409298E+03    0.82351E-04   -0.22270E-04  5880   0.891E-02
  25 F= -.19141141E+03 E0= -.19130685E+03  d E =-.132198E-01
       N       E                     dE             d eps       ncg     rms          rms(c)
DAV:   1    -0.191399547184E+03    0.11944E-01   -0.16411E+00  8160   0.276E+00    0.395E-01
DAV:   2    -0.191406107928E+03   -0.65607E-02   -0.57127E-02 12640   0.121E+00    0.794E-01
DAV:   3    -0.191399682071E+03    0.64259E-02   -0.17469E-02 12120   0.101E+00    0.321E-01
DAV:   4    -0.191399149591E+03    0.53248E-03   -0.52197E-03 11080   0.435E-01    0.316E-01
DAV:   5    -0.191398933305E+03    0.21629E-03   -0.47642E-03 11360   0.487E-01    0.315E-01
DAV:   6    -0.191397888440E+03    0.10449E-02   -0.23689E-03 10920   0.308E-01    0.775E-02
DAV:   7    -0.191397858224E+03    0.30217E-04   -0.41995E-04  8440   0.814E-02
  26 F= -.19139786E+03 E0= -.19129511E+03  d E =0.135511E-01
       N       E                     dE             d eps       ncg     rms          rms(c)
DAV:   1    -0.191449813187E+03   -0.51925E-01   -0.77086E+00  8160   0.591E+00    0.740E-01
DAV:   2    -0.191493402771E+03   -0.43590E-01   -0.26336E-01 13600   0.266E+00    0.189E+00
DAV:   3    -0.191457525516E+03    0.35877E-01   -0.88893E-02 12240   0.219E+00    0.571E-01
DAV:   4    -0.191458383109E+03   -0.85759E-03   -0.20116E-02 12320   0.894E-01    0.745E-01
DAV:   5    -0.191454163359E+03    0.42197E-02   -0.16136E-02 10920   0.894E-01    0.448E-01
DAV:   6    -0.191452078152E+03    0.20852E-02   -0.59293E-03 11280   0.433E-01    0.162E-01
DAV:   7    -0.191452065389E+03    0.12763E-04   -0.21261E-03 11840   0.239E-01    0.183E-01
DAV:   8    -0.191451784068E+03    0.28132E-03   -0.11409E-03  9320   0.233E-01    0.104E-01
DAV:   9    -0.191451667311E+03    0.11676E-03   -0.24195E-04  6800   0.958E-02    0.252E-02
DAV:  10    -0.191451664364E+03    0.29463E-05   -0.63494E-05  6720   0.289E-02
  27 F= -.19145166E+03 E0= -.19134629E+03  d E =-.538061E-01
       N       E                     dE             d eps       ncg     rms          rms(c)
DAV:   1    -0.191481859710E+03   -0.30192E-01   -0.18133E+00  8160   0.285E+00    0.335E-01
DAV:   2    -0.191493233059E+03   -0.11373E-01   -0.60552E-02 13600   0.127E+00    0.961E-01
DAV:   3    -0.191484302938E+03    0.89301E-02   -0.22158E-02 11960   0.104E+00    0.305E-01
DAV:   4    -0.191484407194E+03   -0.10426E-03   -0.47224E-03 11120   0.455E-01    0.337E-01
DAV:   5    -0.191483396344E+03    0.10108E-02   -0.29322E-03 10840   0.386E-01    0.160E-01
DAV:   6    -0.191483114787E+03    0.28156E-03   -0.87504E-04 10400   0.154E-01    0.617E-02
DAV:   7    -0.191483074923E+03    0.39865E-04   -0.25090E-04  7360   0.561E-02
  28 F= -.19148307E+03 E0= -.19137777E+03  d E =-.314106E-01
       N       E                     dE             d eps       ncg     rms          rms(c)
DAV:   1    -0.191450175935E+03    0.32939E-01   -0.22022E+00  8160   0.312E+00    0.319E-01
DAV:   2    -0.191458647438E+03   -0.84715E-02   -0.58066E-02 12320   0.960E-01    0.745E-01
DAV:   3    -0.191453645428E+03    0.50020E-02   -0.17033E-02 12120   0.906E-01    0.377E-01
DAV:   4    -0.191452798833E+03    0.84660E-03   -0.41558E-03 11000   0.398E-01    0.237E-01
DAV:   5    -0.191452371928E+03    0.42690E-03   -0.19921E-03 10320   0.326E-01    0.173E-01
DAV:   6    -0.191452111582E+03    0.26035E-03   -0.98593E-04 10160   0.207E-01    0.833E-02
DAV:   7    -0.191452083584E+03    0.27998E-04   -0.35399E-04  8360   0.100E-01
  29 F= -.19145208E+03 E0= -.19134635E+03  d E =0.309913E-01
       N       E                     dE             d eps       ncg     rms          rms(c)
DAV:   1    -0.191436083049E+03    0.16029E-01   -0.34569E+00  8160   0.390E+00    0.405E-01
DAV:   2    -0.191447888238E+03   -0.11805E-01   -0.95726E-02 12560   0.129E+00    0.859E-01
DAV:   3    -0.191441682280E+03    0.62060E-02   -0.23134E-02 11960   0.106E+00    0.463E-01
DAV:   4    -0.191440435541E+03    0.12467E-02   -0.67088E-03 11280   0.530E-01    0.315E-01
DAV:   5    -0.191439897281E+03    0.53826E-03   -0.38762E-03 10360   0.457E-01    0.257E-01
DAV:   6    -0.191439336432E+03    0.56085E-03   -0.19684E-03 12680   0.286E-01    0.991E-02
DAV:   7    -0.191439270941E+03    0.65491E-04   -0.62281E-04 10080   0.128E-01
  30 F= -.19143927E+03 E0= -.19133349E+03  d E =0.128126E-01
       N       E                     dE             d eps       ncg     rms          rms(c)
DAV:   1    -0.191485953295E+03   -0.46617E-01   -0.60690E+00  8160   0.521E+00    0.599E-01
DAV:   2    -0.191521378452E+03   -0.35425E-01   -0.19819E-01 13520   0.219E+00    0.170E+00
DAV:   3    -0.191495266731E+03    0.26112E-01   -0.68320E-02 12240   0.187E+00    0.577E-01
DAV:   4    -0.191494826478E+03    0.44025E-03   -0.14035E-02 11400   0.794E-01    0.567E-01
DAV:   5    -0.191491843572E+03    0.29829E-02   -0.86345E-03 10800   0.676E-01    0.294E-01
DAV:   6    -0.191490996700E+03    0.84687E-03   -0.31827E-03 11520   0.305E-01    0.140E-01
DAV:   7    -0.191491435385E+03   -0.43869E-03   -0.23027E-03 12080   0.306E-01    0.266E-01
DAV:   8    -0.191490730327E+03    0.70506E-03   -0.13204E-03  9440   0.257E-01    0.518E-02
DAV:   9    -0.191490710218E+03    0.20109E-04   -0.94517E-05  5800   0.507E-02
  31 F= -.19149071E+03 E0= -.19138508E+03  d E =-.514393E-01
       N       E                     dE             d eps       ncg     rms          rms(c)
DAV:   1    -0.191515491066E+03   -0.24761E-01   -0.13036E+00  8160   0.243E+00    0.276E-01
DAV:   2    -0.191520973384E+03   -0.54823E-02   -0.37218E-02 13600   0.943E-01    0.639E-01
DAV:   3    -0.191516728825E+03    0.42446E-02   -0.10515E-02 12120   0.762E-01    0.211E-01
DAV:   4    -0.191516800288E+03   -0.71463E-04   -0.25041E-03 11280   0.303E-01    0.257E-01
DAV:   5    -0.191516383283E+03    0.41701E-03   -0.23032E-03 10160   0.334E-01    0.182E-01
DAV:   6    -0.191516074585E+03    0.30870E-03   -0.90942E-04  9680   0.182E-01    0.638E-02
DAV:   7    -0.191516043298E+03    0.31287E-04   -0.18124E-04  6480   0.737E-02
  32 F= -.19151604E+03 E0= -.19141061E+03  d E =-.253331E-01
       N       E                     dE             d eps       ncg     rms          rms(c)
DAV:   1    -0.191507027473E+03    0.90471E-02   -0.14224E+00  8160   0.253E+00    0.251E-01
DAV:   2    -0.191509927454E+03   -0.29000E-02   -0.31981E-02 13520   0.696E-01    0.420E-01
DAV:   3    -0.191508892244E+03    0.10352E-02   -0.76007E-03 12120   0.613E-01    0.309E-01
DAV:   4    -0.191508307208E+03    0.58504E-03   -0.30230E-03 10080   0.363E-01    0.217E-01
DAV:   5    -0.191508045706E+03    0.26150E-03   -0.18258E-03  9840   0.309E-01    0.162E-01
DAV:   6    -0.191507811215E+03    0.23449E-03   -0.80085E-04 10320   0.164E-01    0.638E-02
DAV:   7    -0.191507853225E+03   -0.42010E-04   -0.33426E-04  7680   0.119E-01
  33 F= -.19150785E+03 E0= -.19140238E+03  d E =0.819007E-02
       N       E                     dE             d eps       ncg     rms          rms(c)
DAV:   1    -0.191492237270E+03    0.15574E-01   -0.29973E+00  8160   0.363E+00    0.363E-01
DAV:   2    -0.191503824484E+03   -0.11587E-01   -0.73420E-02 12160   0.113E+00    0.933E-01
DAV:   3    -0.191496311743E+03    0.75127E-02   -0.21116E-02 12440   0.104E+00    0.369E-01
DAV:   4    -0.191495592211E+03    0.71953E-03   -0.39501E-03 11040   0.399E-01    0.262E-01
DAV:   5    -0.191495071857E+03    0.52035E-03   -0.24563E-03 12080   0.378E-01    0.189E-01
DAV:   6    -0.191494834897E+03    0.23696E-03   -0.12445E-03 10520   0.226E-01    0.965E-02
DAV:   7    -0.191494906806E+03   -0.71909E-04   -0.75590E-04  9920   0.181E-01
  34 F= -.19149491E+03 E0= -.19138964E+03  d E =0.129464E-01
       N       E                     dE             d eps       ncg     rms          rms(c)
DAV:   1    -0.191548931078E+03   -0.54096E-01   -0.59836E+00  8160   0.517E+00    0.578E-01
DAV:   2    -0.191580132750E+03   -0.31202E-01   -0.18551E-01 13560   0.208E+00    0.157E+00
DAV:   3    -0.191558061328E+03    0.22071E-01   -0.61666E-02 12160   0.176E+00    0.573E-01
DAV:   4    -0.191557671518E+03    0.38981E-03   -0.13765E-02 11480   0.799E-01    0.571E-01
DAV:   5    -0.191554635490E+03    0.30360E-02   -0.84512E-03 11200   0.672E-01    0.279E-01
DAV:   6    -0.191553828892E+03    0.80660E-03   -0.28890E-03 11480   0.285E-01    0.122E-01
DAV:   7    -0.191553817385E+03    0.11507E-04   -0.12053E-03 12000   0.177E-01    0.140E-01
DAV:   8    -0.191553638044E+03    0.17934E-03   -0.56832E-04  8720   0.172E-01    0.711E-02
DAV:   9    -0.191553585427E+03    0.52617E-04   -0.11180E-04  5960   0.695E-02
  35 F= -.19155359E+03 E0= -.19144926E+03  d E =-.586786E-01
       N       E                     dE             d eps       ncg     rms          rms(c)
DAV:   1    -0.191545237539E+03    0.84005E-02   -0.22046E-01  8160   0.999E-01    0.976E-02
DAV:   2    -0.191545743471E+03   -0.50593E-03   -0.49753E-03 13280   0.262E-01    0.174E-01
DAV:   3    -0.191545513574E+03    0.22990E-03   -0.10841E-03 10320   0.236E-01    0.113E-01
DAV:   4    -0.191545466837E+03    0.46737E-04   -0.38853E-04  8240   0.137E-01
  36 F= -.19154547E+03 E0= -.19144084E+03  d E =0.811859E-02
       N       E                     dE             d eps       ncg     rms          rms(c)
DAV:   1    -0.191480900155E+03    0.64613E-01   -0.13038E+01  8160   0.766E+00    0.734E-01
DAV:   2    -0.191501560077E+03   -0.20660E-01   -0.26828E-01 12320   0.152E+00    0.890E-01
DAV:   3    -0.191502865098E+03   -0.13050E-02   -0.60055E-02 12360   0.161E+00    0.112E+00
DAV:   4    -0.191494012006E+03    0.88531E-02   -0.32143E-02 12240   0.119E+00    0.543E-01
DAV:   5    -0.191491336120E+03    0.26759E-02   -0.11091E-02 11120   0.717E-01    0.421E-01
DAV:   6    -0.191490837240E+03    0.49888E-03   -0.74348E-03 11760   0.626E-01    0.330E-01
DAV:   7    -0.191489606896E+03    0.12303E-02   -0.25043E-03 11280   0.307E-01    0.122E-01
DAV:   8    -0.191489563083E+03    0.43813E-04   -0.69075E-04  9200   0.175E-01
  37 F= -.19148956E+03 E0= -.19138368E+03  d E =0.559038E-01
       N       E                     dE             d eps       ncg     rms          rms(c)
DAV:   1    -0.191553933494E+03   -0.64327E-01   -0.89413E+00  8160   0.632E+00    0.632E-01
DAV:   2    -0.191581555828E+03   -0.27622E-01   -0.21614E-01 13120   0.171E+00    0.137E+00
DAV:   3    -0.191568431856E+03    0.13124E-01   -0.71646E-02 11880   0.178E+00    0.812E-01
DAV:   4    -0.191564235757E+03    0.41961E-02   -0.17964E-02 12120   0.854E-01    0.517E-01
DAV:   5    -0.191562000904E+03    0.22349E-02   -0.87470E-03 11160   0.697E-01    0.352E-01
DAV:   6    -0.191560979224E+03    0.10217E-02   -0.42049E-03 12080   0.402E-01    0.192E-01
DAV:   7    -0.191560712120E+03    0.26710E-03   -0.17366E-03 12680   0.223E-01    0.150E-01
DAV:   8    -0.191560555652E+03    0.15647E-03   -0.75004E-04  8760   0.193E-01    0.865E-02
DAV:   9    -0.191560480499E+03    0.75152E-04   -0.13897E-04  5960   0.790E-02
  38 F= -.19156048E+03 E0= -.19145594E+03  d E =-.709174E-01
       N       E                     dE             d eps       ncg     rms          rms(c)
DAV:   1    -0.191561458910E+03   -0.90326E-03   -0.69791E-01  8160   0.178E+00    0.172E-01
DAV:   2    -0.191562996469E+03   -0.15376E-02   -0.15626E-02 13240   0.442E-01    0.303E-01
DAV:   3    -0.191562535515E+03    0.46095E-03   -0.34430E-03 12360   0.417E-01    0.223E-01
DAV:   4    -0.191562185859E+03    0.34966E-03   -0.10927E-03  9640   0.220E-01    0.124E-01
DAV:   5    -0.191562111703E+03    0.74157E-04   -0.58896E-04  8480   0.181E-01
  39 F= -.19156211E+03 E0= -.19145733E+03  d E =-.163120E-02
       N       E                     dE             d eps       ncg     rms          rms(c)
DAV:   1    -0.191562278010E+03   -0.92151E-04   -0.21503E-03  8880   0.162E-01    0.617E-02
DAV:   2    -0.191562972513E+03   -0.69450E-03   -0.16245E-03 11280   0.275E-01    0.261E-01
DAV:   3    -0.191562248777E+03    0.72374E-03   -0.12968E-03  9120   0.256E-01    0.592E-02
DAV:   4    -0.191562223257E+03    0.25520E-04   -0.85657E-05  5520   0.569E-02
  40 F= -.19156222E+03 E0= -.19145753E+03  d E =-.111555E-03
       N       E                     dE             d eps       ncg     rms          rms(c)
DAV:   1    -0.191620476569E+03   -0.58228E-01   -0.58818E+00  8160   0.511E+00    0.552E-01
DAV:   2    -0.191650245258E+03   -0.29769E-01   -0.17742E-01 13280   0.193E+00    0.154E+00
DAV:   3    -0.191630093878E+03    0.20151E-01   -0.64711E-02 12000   0.171E+00    0.582E-01
DAV:   4    -0.191629379274E+03    0.71460E-03   -0.13772E-02 11280   0.776E-01    0.538E-01
DAV:   5    -0.191626598104E+03    0.27812E-02   -0.74895E-03 10560   0.633E-01    0.250E-01
DAV:   6    -0.191625983576E+03    0.61453E-03   -0.23602E-03 11520   0.252E-01    0.116E-01
DAV:   7    -0.191625885085E+03    0.98492E-04   -0.89217E-04 11000   0.126E-01
  41 F= -.19162589E+03 E0= -.19152205E+03  d E =-.636618E-01
       N       E                     dE             d eps       ncg     rms          rms(c)
DAV:   1    -0.191441120831E+03    0.18486E+00   -0.36225E+01  8160   0.127E+01    0.135E+00
DAV:   2    -0.191610508673E+03   -0.16939E+00   -0.11106E+00 12040   0.426E+00    0.315E+00
DAV:   3    -0.191506737997E+03    0.10377E+00   -0.26335E-01 12240   0.377E+00    0.141E+00
DAV:   4    -0.191500810445E+03    0.59276E-02   -0.69918E-02 12360   0.172E+00    0.127E+00
DAV:   5    -0.191487033317E+03    0.13777E-01   -0.41454E-02 11240   0.148E+00    0.609E-01
DAV:   6    -0.191484204155E+03    0.28292E-02   -0.14488E-02 12120   0.698E-01    0.374E-01
DAV:   7    -0.191486105302E+03   -0.19011E-02   -0.13322E-02 11280   0.758E-01    0.641E-01
DAV:   8    -0.191482195374E+03    0.39099E-02   -0.80213E-03 11040   0.622E-01    0.125E-01
DAV:   9    -0.191482016028E+03    0.17935E-03   -0.59905E-04 10080   0.109E-01    0.429E-02
DAV:  10    -0.191481974394E+03    0.41634E-04   -0.19243E-04  8680   0.445E-02
  42 F= -.19148197E+03 E0= -.19137628E+03  d E =0.143911E+00
       N       E                     dE             d eps       ncg     rms          rms(c)
DAV:   1    -0.191476015082E+03    0.60009E-02   -0.29634E+00  8160   0.365E+00    0.394E-01
DAV:   2    -0.191487661445E+03   -0.11646E-01   -0.73993E-02 13360   0.124E+00    0.967E-01
DAV:   3    -0.191479148101E+03    0.85133E-02   -0.21730E-02 12560   0.108E+00    0.378E-01
DAV:   4    -0.191479123329E+03    0.24772E-04   -0.52209E-03 10960   0.507E-01    0.382E-01
DAV:   5    -0.191477767531E+03    0.13558E-02   -0.38129E-03 10600   0.472E-01    0.190E-01
DAV:   6    -0.191477523816E+03    0.24371E-03   -0.14982E-03 12360   0.223E-01    0.858E-02
DAV:   7    -0.191477423554E+03    0.10026E-03   -0.51562E-04  9720   0.109E-01    0.689E-02
DAV:   8    -0.191477390315E+03    0.33239E-04   -0.18410E-04  6720   0.988E-02
  43 F= -.19147739E+03 E0= -.19137270E+03  d E =0.458408E-02
       N       E                     dE             d eps       ncg     rms          rms(c)
DAV:   1    -0.191525474290E+03   -0.48051E-01   -0.61194E+00  8160   0.523E+00    0.600E-01
DAV:   2    -0.191562738559E+03   -0.37264E-01   -0.20515E-01 13480   0.222E+00    0.174E+00
DAV:   3    -0.191535448834E+03    0.27290E-01   -0.70160E-02 12160   0.189E+00    0.569E-01
DAV:   4    -0.191535507071E+03   -0.58237E-04   -0.14270E-02 11480   0.824E-01    0.596E-01
DAV:   5    -0.191532012712E+03    0.34944E-02   -0.86873E-03 11160   0.684E-01    0.267E-01
DAV:   6    -0.191531361822E+03    0.65089E-03   -0.28464E-03 11400   0.277E-01    0.131E-01
DAV:   7    -0.191531507845E+03   -0.14602E-03   -0.16346E-03 12080   0.238E-01    0.202E-01
DAV:   8    -0.191531105566E+03    0.40228E-03   -0.84192E-04  8880   0.211E-01    0.574E-02
DAV:   9    -0.191531076904E+03    0.28662E-04   -0.98546E-05  6000   0.580E-02
  44 F= -.19153108E+03 E0= -.19142655E+03  d E =-.536866E-01
       N       E                     dE             d eps       ncg     rms          rms(c)
DAV:   1    -0.191552238828E+03   -0.21133E-01   -0.12211E+00  8160   0.238E+00    0.266E-01
DAV:   2    -0.191556011968E+03   -0.37731E-02   -0.32348E-02 13600   0.780E-01    0.535E-01
DAV:   3    -0.191553508251E+03    0.25037E-02   -0.84125E-03 11720   0.676E-01    0.264E-01
DAV:   4    -0.191553404240E+03    0.10401E-03   -0.28269E-03 10680   0.368E-01    0.260E-01
DAV:   5    -0.191552907474E+03    0.49677E-03   -0.19557E-03 10160   0.341E-01    0.177E-01
DAV:   6    -0.191552605713E+03    0.30176E-03   -0.89437E-04  9680   0.184E-01    0.691E-02
DAV:   7    -0.191552628865E+03   -0.23152E-04   -0.34514E-04  8800   0.115E-01
  45 F= -.19155263E+03 E0= -.19144892E+03  d E =-.215520E-01
       N       E                     dE             d eps       ncg     rms          rms(c)
DAV:   1    -0.191580569297E+03   -0.27964E-01   -0.25099E+00  8160   0.333E+00    0.365E-01
DAV:   2    -0.191594147489E+03   -0.13578E-01   -0.72304E-02 12560   0.120E+00    0.108E+00
DAV:   3    -0.191584097652E+03    0.10050E-01   -0.26667E-02 12280   0.115E+00    0.356E-01
DAV:   4    -0.191583589706E+03    0.50795E-03   -0.41258E-03 11080   0.401E-01    0.282E-01
DAV:   5    -0.191582834175E+03    0.75553E-03   -0.22898E-03 10680   0.368E-01    0.161E-01
DAV:   6    -0.191582728833E+03    0.10534E-03   -0.11579E-03 11160   0.206E-01    0.113E-01
DAV:   7    -0.191582820854E+03   -0.92020E-04   -0.89469E-04 10000   0.205E-01
  46 F= -.19158282E+03 E0= -.19147973E+03  d E =-.301920E-01
       N       E                     dE             d eps       ncg     rms          rms(c)
DAV:   1    -0.191591245536E+03   -0.85167E-02   -0.40696E+00  8160   0.433E+00    0.460E-01
DAV:   2    -0.191609006050E+03   -0.17761E-01   -0.10677E-01 13600   0.143E+00    0.120E+00
DAV:   3    -0.191596141056E+03    0.12865E-01   -0.30875E-02 12280   0.129E+00    0.421E-01
DAV:   4    -0.191595322921E+03    0.81814E-03   -0.53046E-03 11080   0.459E-01    0.327E-01
DAV:   5    -0.191594586827E+03    0.73609E-03   -0.38089E-03 12120   0.478E-01    0.267E-01
DAV:   6    -0.191594246414E+03    0.34041E-03   -0.25846E-03 11320   0.357E-01    0.184E-01
DAV:   7    -0.191594253735E+03   -0.73209E-05   -0.17164E-03  9880   0.297E-01    0.199E-01
DAV:   8    -0.191593812615E+03    0.44112E-03   -0.67650E-04  8840   0.194E-01    0.272E-02
DAV:   9    -0.191593813771E+03   -0.11565E-05   -0.46818E-05  5880   0.295E-02
  47 F= -.19159381E+03 E0= -.19149224E+03  d E =-.109929E-01
       N       E                     dE             d eps       ncg     rms          rms(c)
DAV:   1    -0.191640314527E+03   -0.46502E-01   -0.90626E+00  8160   0.633E+00    0.731E-01
DAV:   2    -0.191707573361E+03   -0.67259E-01   -0.29273E-01 12040   0.272E+00    0.258E+00
DAV:   3    -0.191652973314E+03    0.54600E-01   -0.14236E-01 12040   0.252E+00    0.630E-01
DAV:   4    -0.191653347602E+03   -0.37429E-03   -0.17955E-02 11520   0.943E-01    0.675E-01
DAV:   5    -0.191648379366E+03    0.49682E-02   -0.10260E-02 11200   0.795E-01    0.273E-01
DAV:   6    -0.191647912881E+03    0.46648E-03   -0.37302E-03 11400   0.311E-01    0.162E-01
DAV:   7    -0.191647893666E+03    0.19215E-04   -0.18703E-03 12280   0.258E-01    0.207E-01
DAV:   8    -0.191647488645E+03    0.40502E-03   -0.85648E-04  9120   0.223E-01    0.695E-02
DAV:   9    -0.191647436636E+03    0.52009E-04   -0.12255E-04  6000   0.688E-02
  48 F= -.19164744E+03 E0= -.19154601E+03  d E =-.536229E-01
       N       E                     dE             d eps       ncg     rms          rms(c)
DAV:   1    -0.191708686792E+03   -0.61198E-01   -0.50299E+00  8160   0.477E+00    0.504E-01
DAV:   2    -0.191727455804E+03   -0.18769E-01   -0.14402E-01 13600   0.166E+00    0.110E+00
DAV:   3    -0.191716397923E+03    0.11058E-01   -0.35720E-02 12200   0.140E+00    0.512E-01
DAV:   4    -0.191715523936E+03    0.87399E-03   -0.10142E-02 12280   0.677E-01    0.471E-01
DAV:   5    -0.191713953607E+03    0.15703E-02   -0.70756E-03 11360   0.625E-01    0.319E-01
DAV:   6    -0.191712929411E+03    0.10242E-02   -0.26888E-03 11040   0.326E-01    0.125E-01
DAV:   7    -0.191713289159E+03   -0.35975E-03   -0.14272E-03 10880   0.265E-01    0.236E-01
DAV:   8    -0.191712727579E+03    0.56158E-03   -0.83195E-04  9400   0.225E-01    0.394E-02
DAV:   9    -0.191712722289E+03    0.52908E-05   -0.58636E-05  5920   0.383E-02
  49 F= -.19171272E+03 E0= -.19161311E+03  d E =-.652857E-01
       N       E                     dE             d eps       ncg     rms          rms(c)
DAV:   1    -0.191775088166E+03   -0.62361E-01   -0.56174E+00  8160   0.502E+00    0.504E-01
DAV:   2    -0.191792636031E+03   -0.17548E-01   -0.15317E-01 12560   0.155E+00    0.983E-01
DAV:   3    -0.191785013223E+03    0.76228E-02   -0.34434E-02 11920   0.136E+00    0.584E-01
DAV:   4    -0.191783018312E+03    0.19949E-02   -0.10273E-02 12280   0.694E-01    0.424E-01
DAV:   5    -0.191781785550E+03    0.12328E-02   -0.61987E-03 11200   0.598E-01    0.317E-01
DAV:   6    -0.191780890644E+03    0.89491E-03   -0.27044E-03 10840   0.344E-01    0.144E-01
DAV:   7    -0.191781267728E+03   -0.37708E-03   -0.15889E-03 11560   0.290E-01    0.251E-01
DAV:   8    -0.191780634234E+03    0.63349E-03   -0.92922E-04  9920   0.242E-01    0.433E-02
DAV:   9    -0.191780623605E+03    0.10630E-04   -0.66857E-05  5760   0.409E-02
  50 F= -.19178062E+03 E0= -.19168266E+03  d E =-.679013E-01
       N       E                     dE             d eps       ncg     rms          rms(c)
DAV:   1    -0.191856373403E+03   -0.75739E-01   -0.10587E+01  8160   0.693E+00    0.731E-01
DAV:   2    -0.191891134647E+03   -0.34761E-01   -0.32441E-01 12920   0.227E+00    0.138E+00
DAV:   3    -0.191876254815E+03    0.14880E-01   -0.65668E-02 12080   0.193E+00    0.786E-01
DAV:   4    -0.191872689627E+03    0.35652E-02   -0.20804E-02 12040   0.101E+00    0.633E-01
DAV:   5    -0.191869938176E+03    0.27515E-02   -0.14233E-02 12120   0.899E-01    0.481E-01
DAV:   6    -0.191867855818E+03    0.20824E-02   -0.63423E-03 11440   0.524E-01    0.215E-01
DAV:   7    -0.191868614202E+03   -0.75838E-03   -0.34268E-03 12600   0.439E-01    0.374E-01
DAV:   8    -0.191867213297E+03    0.14009E-02   -0.19362E-03 10440   0.353E-01    0.585E-02
DAV:   9    -0.191867182195E+03    0.31102E-04   -0.13095E-04  5880   0.560E-02
  51 F= -.19186718E+03 E0= -.19177035E+03  d E =-.865586E-01
       N       E                     dE             d eps       ncg     rms          rms(c)
DAV:   1    -0.191927568649E+03   -0.60355E-01   -0.13259E+01  8160   0.772E+00    0.739E-01
DAV:   2    -0.191957617091E+03   -0.30048E-01   -0.38680E-01 12200   0.189E+00    0.818E-01
DAV:   3    -0.191961066788E+03   -0.34497E-02   -0.55047E-02 12240   0.170E+00    0.107E+00
DAV:   4    -0.191950144344E+03    0.10922E-01   -0.23699E-02 12080   0.118E+00    0.455E-01
DAV:   5    -0.191948667609E+03    0.14767E-02   -0.90307E-03 11040   0.690E-01    0.406E-01
DAV:   6    -0.191948177020E+03    0.49059E-03   -0.68699E-03 12760   0.617E-01    0.306E-01
DAV:   7    -0.191947126449E+03    0.10506E-02   -0.28456E-03 11360   0.322E-01    0.169E-01
DAV:   8    -0.191946950367E+03    0.17608E-03   -0.85326E-04  9760   0.231E-01    0.116E-01
DAV:   9    -0.191946808477E+03    0.14189E-03   -0.24541E-04  7400   0.109E-01    0.290E-02
DAV:  10    -0.191946796624E+03    0.11852E-04   -0.95338E-05  6240   0.337E-02
  52 F= -.19194680E+03 E0= -.19185061E+03  d E =-.796144E-01
       N       E                     dE             d eps       ncg     rms          rms(c)
DAV:   1    -0.191951721208E+03   -0.49127E-02   -0.33149E-01  8160   0.128E+00    0.223E-01
DAV:   2    -0.191951687350E+03    0.33858E-04   -0.13828E-02 11640   0.453E-01    0.252E-01
DAV:   3    -0.191951536389E+03    0.15096E-03   -0.33014E-03 11440   0.465E-01    0.240E-01
DAV:   4    -0.191950857296E+03    0.67909E-03   -0.17268E-03 11720   0.321E-01    0.143E-01
DAV:   5    -0.191950964241E+03   -0.10695E-03   -0.11746E-03 10120   0.249E-01    0.200E-01
DAV:   6    -0.191950559201E+03    0.40504E-03   -0.67067E-04  9040   0.212E-01    0.495E-02
DAV:   7    -0.191950545583E+03    0.13617E-04   -0.98729E-05  5920   0.591E-02
  53 F= -.19195055E+03 E0= -.19185411E+03  d E =-.374896E-02
       N       E                     dE             d eps       ncg     rms          rms(c)
DAV:   1    -0.191973967401E+03   -0.23408E-01   -0.17661E+00  8160   0.282E+00    0.280E-01
DAV:   2    -0.191977965576E+03   -0.39982E-02   -0.54996E-02 12120   0.660E-01    0.273E-01
DAV:   3    -0.191979223436E+03   -0.12579E-02   -0.80916E-03 11600   0.630E-01    0.470E-01
DAV:   4    -0.191977042613E+03    0.21808E-02   -0.40418E-03 10680   0.480E-01    0.133E-01
DAV:   5    -0.191976945926E+03    0.96687E-04   -0.90679E-04 10040   0.168E-01
  54 F= -.19197695E+03 E0= -.19188093E+03  d E =-.264003E-01
       N       E                     dE             d eps       ncg     rms          rms(c)
DAV:   1    -0.192001828300E+03   -0.24786E-01   -0.23662E+00  8160   0.333E+00    0.404E-01
DAV:   2    -0.192009590762E+03   -0.77625E-02   -0.82964E-02 11440   0.969E-01    0.649E-01
DAV:   3    -0.192007365983E+03    0.22248E-02   -0.15132E-02 12440   0.995E-01    0.507E-01
DAV:   4    -0.192005757006E+03    0.16090E-02   -0.59944E-03 11960   0.571E-01    0.365E-01
DAV:   5    -0.192004402405E+03    0.13546E-02   -0.28695E-03 10560   0.430E-01    0.134E-01
DAV:   6    -0.192004373504E+03    0.28902E-04   -0.11313E-03 11640   0.179E-01    0.121E-01
DAV:   7    -0.192004291071E+03    0.82433E-04   -0.63944E-04  8840   0.191E-01
  55 F= -.19200429E+03 E0= -.19190755E+03  d E =-.273451E-01
       N       E                     dE             d eps       ncg     rms          rms(c)
DAV:   1    -0.192030342981E+03   -0.25969E-01   -0.48398E+00  8160   0.469E+00    0.516E-01
DAV:   2    -0.192043651535E+03   -0.13309E-01   -0.15953E-01 11320   0.122E+00    0.670E-01
DAV:   3    -0.192043180752E+03    0.47078E-03   -0.23837E-02 11840   0.120E+00    0.696E-01
DAV:   4    -0.192039207647E+03    0.39731E-02   -0.11852E-02 11920   0.788E-01    0.404E-01
DAV:   5    -0.192037847357E+03    0.13603E-02   -0.48463E-03 11320   0.530E-01    0.220E-01
DAV:   6    -0.192037678860E+03    0.16850E-03   -0.22330E-03 12080   0.285E-01    0.152E-01
DAV:   7    -0.192037478865E+03    0.20000E-03   -0.11272E-03 11200   0.230E-01    0.147E-01
DAV:   8    -0.192037271367E+03    0.20750E-03   -0.38451E-04  8480   0.155E-01    0.388E-02
DAV:   9    -0.192037259080E+03    0.12287E-04   -0.58161E-05  5920   0.410E-02
  56 F= -.19203726E+03 E0= -.19194048E+03  d E =-.329680E-01
       N       E                     dE             d eps       ncg     rms          rms(c)
DAV:   1    -0.192044003814E+03   -0.67324E-02   -0.34148E-01  8160   0.127E+00    0.173E-01
DAV:   2    -0.192044780645E+03   -0.77683E-03   -0.13349E-02 11640   0.383E-01    0.229E-01
DAV:   3    -0.192044896691E+03   -0.11605E-03   -0.35112E-03 12200   0.426E-01    0.265E-01
DAV:   4    -0.192044110176E+03    0.78652E-03   -0.12612E-03  9520   0.258E-01    0.609E-02
DAV:   5    -0.192044138882E+03   -0.28706E-04   -0.37852E-04  8280   0.114E-01
  57 F= -.19204414E+03 E0= -.19194715E+03  d E =-.687980E-02
       N       E                     dE             d eps       ncg     rms          rms(c)
DAV:   1    -0.192067572472E+03   -0.23462E-01   -0.69248E+00  8160   0.565E+00    0.649E-01
DAV:   2    -0.192084419029E+03   -0.16847E-01   -0.22053E-01 10840   0.140E+00    0.777E-01
DAV:   3    -0.192083635827E+03    0.78320E-03   -0.34923E-02 12440   0.148E+00    0.808E-01
DAV:   4    -0.192076987136E+03    0.66487E-02   -0.13111E-02 12000   0.897E-01    0.411E-01
DAV:   5    -0.192076434841E+03    0.55230E-03   -0.75540E-03 12360   0.660E-01    0.374E-01
DAV:   6    -0.192075395176E+03    0.10397E-02   -0.40189E-03 12000   0.408E-01    0.157E-01
DAV:   7    -0.192074907357E+03    0.48782E-03   -0.10210E-03 10520   0.148E-01    0.464E-02
DAV:   8    -0.192074894458E+03    0.12899E-04   -0.13955E-04  7640   0.726E-02
  58 F= -.19207489E+03 E0= -.19197729E+03  d E =-.307556E-01
       N       E                     dE             d eps       ncg     rms          rms(c)
DAV:   1    -0.192082081776E+03   -0.71744E-02   -0.45306E-01  8160   0.144E+00    0.199E-01
DAV:   2    -0.192084829182E+03   -0.27474E-02   -0.17594E-02 11360   0.690E-01    0.436E-01
DAV:   3    -0.192082569891E+03    0.22593E-02   -0.45136E-03 12320   0.558E-01    0.129E-01
DAV:   4    -0.192082506866E+03    0.63025E-04   -0.72481E-04  9720   0.167E-01
  59 F= -.19208251E+03 E0= -.19198564E+03  d E =-.761241E-02
       N       E                     dE             d eps       ncg     rms          rms(c)
DAV:   1    -0.192081898998E+03    0.67089E-03   -0.35746E-03  9200   0.230E-01    0.131E-01
DAV:   2    -0.192086474403E+03   -0.45754E-02   -0.83606E-03 10920   0.709E-01    0.669E-01
DAV:   3    -0.192081714458E+03    0.47599E-02   -0.59614E-03 10120   0.603E-01    0.379E-02
DAV:   4    -0.192081752378E+03   -0.37920E-04   -0.81307E-05  6000   0.673E-02
  60 F= -.19208175E+03 E0= -.19198481E+03  d E =0.754488E-03
       N       E                     dE             d eps       ncg     rms          rms(c)
DAV:   1    -0.192081720047E+03   -0.55888E-05   -0.17127E-01  8160   0.924E-01    0.166E-01
DAV:   2    -0.192083424568E+03   -0.17045E-02   -0.10279E-02 11440   0.543E-01    0.427E-01
DAV:   3    -0.192081590956E+03    0.18336E-02   -0.40753E-03 11560   0.466E-01    0.127E-01
DAV:   4    -0.192081611137E+03   -0.20181E-04   -0.78927E-04 10000   0.224E-01
  61 F= -.19208161E+03 E0= -.19198420E+03  d E =0.141241E-03
       N       E                     dE             d eps       ncg     rms          rms(c)
DAV:   1    -0.192089058246E+03   -0.74673E-02   -0.52837E-01  8160   0.158E+00    0.229E-01
DAV:   2    -0.192094430959E+03   -0.53727E-02   -0.21773E-02 12000   0.855E-01    0.653E-01
DAV:   3    -0.192089225453E+03    0.52055E-02   -0.95317E-03 12080   0.748E-01    0.149E-01
DAV:   4    -0.192089561705E+03   -0.33625E-03   -0.17529E-03  9840   0.297E-01    0.231E-01
DAV:   5    -0.192088995915E+03    0.56579E-03   -0.10077E-03 10320   0.252E-01    0.622E-02
DAV:   6    -0.192088964937E+03    0.30978E-04   -0.17266E-04  6320   0.659E-02
  62 F= -.19208896E+03 E0= -.19199174E+03  d E =-.735380E-02
       N       E                     dE             d eps       ncg     rms          rms(c)
DAV:   1    -0.192089506640E+03   -0.51073E-03   -0.24631E-03  8560   0.118E-01    0.349E-02
DAV:   2    -0.192089738684E+03   -0.23204E-03   -0.41853E-04  9920   0.164E-01    0.152E-01
DAV:   3    -0.192089486395E+03    0.25229E-03   -0.29466E-04  8320   0.147E-01    0.189E-02
DAV:   4    -0.192089495193E+03   -0.87983E-05   -0.23030E-05  5760   0.244E-02
  63 F= -.19208950E+03 E0= -.19199238E+03  d E =-.530256E-03
       N       E                     dE             d eps       ncg     rms          rms(c)
DAV:   1    -0.192092852707E+03   -0.33663E-02   -0.12831E-01  8160   0.766E-01    0.929E-02
DAV:   2    -0.192093143881E+03   -0.29117E-03   -0.26767E-03 11120   0.231E-01    0.159E-01
DAV:   3    -0.192092859909E+03    0.28397E-03   -0.11193E-03 10960   0.230E-01    0.949E-02
DAV:   4    -0.192092816935E+03    0.42974E-04   -0.28555E-04  8680   0.118E-01
  64 F= -.19209282E+03 E0= -.19199599E+03  d E =-.332174E-02
       N       E                     dE             d eps       ncg     rms          rms(c)
DAV:   1    -0.192087420012E+03    0.54399E-02   -0.29497E-01  8160   0.117E+00    0.157E-01
DAV:   2    -0.192089959574E+03   -0.25396E-02   -0.88333E-03 11880   0.586E-01    0.463E-01
DAV:   3    -0.192087476071E+03    0.24835E-02   -0.34909E-03 11360   0.525E-01    0.109E-01
DAV:   4    -0.192087610683E+03   -0.13461E-03   -0.88966E-04  9640   0.199E-01    0.150E-01
DAV:   5    -0.192087390492E+03    0.22019E-03   -0.47746E-04  8720   0.162E-01    0.526E-02
DAV:   6    -0.192087360214E+03    0.30278E-04   -0.97936E-05  6280   0.587E-02
  65 F= -.19208736E+03 E0= -.19199000E+03  d E =0.545672E-02
       N       E                     dE             d eps       ncg     rms          rms(c)
DAV:   1    -0.192068274867E+03    0.19116E-01   -0.57273E+00  8160   0.515E+00    0.644E-01
DAV:   2    -0.192080271293E+03   -0.11996E-01   -0.13445E-01 12280   0.139E+00    0.955E-01
DAV:   3    -0.192072619275E+03    0.76520E-02   -0.49333E-02 12320   0.158E+00    0.737E-01
DAV:   4    -0.192069019936E+03    0.35993E-02   -0.14652E-02 12280   0.856E-01    0.477E-01
DAV:   5    -0.192068508815E+03    0.51112E-03   -0.91516E-03 11880   0.796E-01    0.507E-01
DAV:   6    -0.192065954833E+03    0.25540E-02   -0.47999E-03 12080   0.532E-01    0.146E-01
DAV:   7    -0.192065824026E+03    0.13081E-03   -0.10704E-03 10800   0.178E-01    0.963E-02
DAV:   8    -0.192065820819E+03    0.32067E-05   -0.54523E-04  9960   0.174E-01
  66 F= -.19206582E+03 E0= -.19196684E+03  d E =0.215394E-01
       N       E                     dE             d eps       ncg     rms          rms(c)
DAV:   1    -0.192064014500E+03    0.18095E-02   -0.70176E-02  8160   0.582E-01    0.813E-02
DAV:   2    -0.192064329617E+03   -0.31512E-03   -0.23534E-03 11920   0.227E-01    0.168E-01
DAV:   3    -0.192064066727E+03    0.26289E-03   -0.91038E-04 10040   0.222E-01    0.840E-02
DAV:   4    -0.192064047204E+03    0.19524E-04   -0.24801E-04  7560   0.116E-01
  67 F= -.19206405E+03 E0= -.19196489E+03  d E =0.177362E-02
       N       E                     dE             d eps       ncg     rms          rms(c)
DAV:   1    -0.192063497721E+03    0.56901E-03   -0.34512E-01  8160   0.128E+00    0.197E-01
DAV:   2    -0.192066939420E+03   -0.34417E-02   -0.16334E-02 12600   0.672E-01    0.566E-01
DAV:   3    -0.192063747321E+03    0.31921E-02   -0.65426E-03 12320   0.607E-01    0.145E-01
DAV:   4    -0.192063631580E+03    0.11574E-03   -0.86321E-04  9880   0.168E-01    0.109E-01
DAV:   5    -0.192063563632E+03    0.67948E-04   -0.50917E-04 10120   0.176E-01
  68 F= -.19206356E+03 E0= -.19196365E+03  d E =0.483572E-03
       N       E                     dE             d eps       ncg     rms          rms(c)
DAV:   1    -0.192064357830E+03   -0.72625E-03   -0.18396E-01  8160   0.933E-01    0.134E-01
DAV:   2    -0.192066135598E+03   -0.17778E-02   -0.91783E-03 11720   0.467E-01    0.367E-01
DAV:   3    -0.192064701207E+03    0.14344E-02   -0.29623E-03 11720   0.416E-01    0.106E-01
DAV:   4    -0.192064757593E+03   -0.56387E-04   -0.65536E-04  8200   0.182E-01
  69 F= -.19206476E+03 E0= -.19196400E+03  d E =-.119396E-02
       N       E                     dE             d eps       ncg     rms          rms(c)
DAV:   1    -0.192066602546E+03   -0.19013E-02   -0.10957E-01  8160   0.714E-01    0.114E-01
DAV:   2    -0.192067015872E+03   -0.41333E-03   -0.43556E-03 11480   0.269E-01    0.198E-01
DAV:   3    -0.192066759651E+03    0.25622E-03   -0.12979E-03 10880   0.279E-01    0.142E-01
DAV:   4    -0.192066579725E+03    0.17993E-03   -0.57314E-04  8200   0.161E-01    0.683E-02
DAV:   5    -0.192066523037E+03    0.56689E-04   -0.20727E-04  7960   0.811E-02
  70 F= -.19206652E+03 E0= -.19196552E+03  d E =-.176544E-02
       N       E                     dE             d eps       ncg     rms          rms(c)
DAV:   1    -0.192069637971E+03   -0.30582E-02   -0.23746E-01  8160   0.105E+00    0.156E-01
DAV:   2    -0.192072418375E+03   -0.27804E-02   -0.99566E-03 11800   0.595E-01    0.499E-01
DAV:   3    -0.192069677745E+03    0.27406E-02   -0.51016E-03 11720   0.530E-01    0.113E-01
DAV:   4    -0.192069803418E+03   -0.12567E-03   -0.73793E-04  9280   0.211E-01    0.148E-01
DAV:   5    -0.192069568136E+03    0.23528E-03   -0.42491E-04  9320   0.172E-01    0.477E-02
DAV:   6    -0.192069552562E+03    0.15574E-04   -0.91846E-05  6560   0.551E-02
  71 F= -.19206955E+03 E0= -.19196865E+03  d E =-.302953E-02
       N       E                     dE             d eps       ncg     rms          rms(c)
DAV:   1    -0.192070881177E+03   -0.13130E-02   -0.63236E-02  8160   0.559E-01    0.103E-01
DAV:   2    -0.192071792478E+03   -0.91130E-03   -0.39850E-03 12520   0.348E-01    0.299E-01
DAV:   3    -0.192070837742E+03    0.95474E-03   -0.20543E-03 10280   0.335E-01    0.843E-02
DAV:   4    -0.192070830757E+03    0.69855E-05   -0.27075E-04  8040   0.109E-01
  72 F= -.19207083E+03 E0= -.19196935E+03  d E =-.127819E-02
       N       E                     dE             d eps       ncg     rms          rms(c)
DAV:   1    -0.192071741502E+03   -0.90376E-03   -0.20450E-01  8160   0.102E+00    0.151E-01
DAV:   2    -0.192072176416E+03   -0.43491E-03   -0.74915E-03 11840   0.308E-01    0.225E-01
DAV:   3    -0.192072012706E+03    0.16371E-03   -0.22681E-03 11760   0.368E-01    0.206E-01
DAV:   4    -0.192071646120E+03    0.36659E-03   -0.92846E-04  9520   0.213E-01    0.955E-02
DAV:   5    -0.192071594331E+03    0.51789E-04   -0.41119E-04  8360   0.157E-01
  73 F= -.19207159E+03 E0= -.19197114E+03  d E =-.763574E-03
       N       E                     dE             d eps       ncg     rms          rms(c)
DAV:   1    -0.192074710466E+03   -0.30643E-02   -0.12344E+00  8160   0.246E+00    0.409E-01
DAV:   2    -0.192076195452E+03   -0.14850E-02   -0.51422E-02 12200   0.798E-01    0.549E-01
DAV:   3    -0.192076310243E+03   -0.11479E-03   -0.18907E-02 12200   0.984E-01    0.616E-01
DAV:   4    -0.192072342977E+03    0.39673E-02   -0.84243E-03 11360   0.621E-01    0.170E-01
DAV:   5    -0.192071828056E+03    0.51492E-03   -0.20746E-03  9880   0.175E-01    0.947E-02
DAV:   6    -0.192071871900E+03   -0.43844E-04   -0.88368E-04 10880   0.196E-01
  74 F= -.19207187E+03 E0= -.19196901E+03  d E =-.277569E-03
       N       E                     dE             d eps       ncg     rms          rms(c)
DAV:   1    -0.192073338746E+03   -0.15107E-02   -0.36937E-02  8160   0.479E-01    0.951E-02
DAV:   2    -0.192073815006E+03   -0.47626E-03   -0.23737E-03 11120   0.308E-01    0.240E-01
DAV:   3    -0.192073211051E+03    0.60395E-03   -0.11753E-03 10000   0.275E-01    0.788E-02
DAV:   4    -0.192073210792E+03    0.25856E-06   -0.29349E-04  8240   0.129E-01
  75 F= -.19207321E+03 E0= -.19197055E+03  d E =-.133889E-02
       N       E                     dE             d eps       ncg     rms          rms(c)
DAV:   1    -0.192079928668E+03   -0.67176E-02   -0.50675E-01  8160   0.162E+00    0.315E-01
DAV:   2    -0.192081190933E+03   -0.12623E-02   -0.23577E-02 11440   0.771E-01    0.530E-01
DAV:   3    -0.192078640936E+03    0.25500E-02   -0.98744E-03 12160   0.740E-01    0.286E-01
DAV:   4    -0.192078419611E+03    0.22132E-03   -0.39103E-03 11360   0.440E-01    0.304E-01
DAV:   5    -0.192077868056E+03    0.55156E-03   -0.27492E-03 11040   0.444E-01    0.218E-01
DAV:   6    -0.192077291516E+03    0.57654E-03   -0.10639E-03  9960   0.219E-01    0.484E-02
DAV:   7    -0.192077301483E+03   -0.99676E-05   -0.18551E-04  6840   0.871E-02
  76 F= -.19207730E+03 E0= -.19197561E+03  d E =-.409069E-02
       N       E                     dE             d eps       ncg     rms          rms(c)
DAV:   1    -0.192079340468E+03   -0.20490E-02   -0.49846E-02  8160   0.543E-01    0.143E-01
DAV:   2    -0.192079245972E+03    0.94496E-04   -0.31435E-03 10480   0.298E-01    0.214E-01
DAV:   3    -0.192078969902E+03    0.27607E-03   -0.15612E-03 10320   0.338E-01    0.162E-01
DAV:   4    -0.192078742455E+03    0.22745E-03   -0.78494E-04  8640   0.215E-01    0.115E-01
DAV:   5    -0.192078717084E+03    0.25372E-04   -0.64301E-04  9720   0.187E-01
  77 F= -.19207872E+03 E0= -.19197648E+03  d E =-.141560E-02
       N       E                     dE             d eps       ncg     rms          rms(c)
DAV:   1    -0.192083393665E+03   -0.46512E-02   -0.43342E-01  8160   0.143E+00    0.223E-01
DAV:   2    -0.192084192378E+03   -0.79871E-03   -0.13868E-02 11720   0.435E-01    0.341E-01
DAV:   3    -0.192083620993E+03    0.57139E-03   -0.61872E-03 11120   0.547E-01    0.306E-01
DAV:   4    -0.192082775284E+03    0.84571E-03   -0.18438E-03 11360   0.307E-01    0.136E-01
DAV:   5    -0.192082729490E+03    0.45794E-04   -0.95127E-04 10120   0.258E-01
  78 F= -.19208273E+03 E0= -.19198080E+03  d E =-.401241E-02
       N       E                     dE             d eps       ncg     rms          rms(c)
DAV:   1    -0.192084225202E+03   -0.14499E-02   -0.42925E-02  8160   0.462E-01    0.101E-01
DAV:   2    -0.192084399677E+03   -0.17448E-03   -0.22708E-03 11600   0.274E-01    0.178E-01
DAV:   3    -0.192084053196E+03    0.34648E-03   -0.84619E-04 10160   0.240E-01    0.726E-02
DAV:   4    -0.192084014195E+03    0.39002E-04   -0.34766E-04  6960   0.996E-02
  79 F= -.19208401E+03 E0= -.19198213E+03  d E =-.128471E-02
       N       E                     dE             d eps       ncg     rms          rms(c)
DAV:   1    -0.192091603482E+03   -0.75503E-02   -0.55890E-01  8160   0.168E+00    0.355E-01
DAV:   2    -0.192096290609E+03   -0.46871E-02   -0.34417E-02 11480   0.108E+00    0.770E-01
DAV:   3    -0.192089746981E+03    0.65436E-02   -0.15572E-02 12160   0.921E-01    0.270E-01
DAV:   4    -0.192090017042E+03   -0.27006E-03   -0.42700E-03 11440   0.489E-01    0.357E-01
DAV:   5    -0.192089059853E+03    0.95719E-03   -0.33892E-03 11160   0.494E-01    0.216E-01
DAV:   6    -0.192088468454E+03    0.59140E-03   -0.12475E-03 10120   0.219E-01    0.584E-02
DAV:   7    -0.192088494337E+03   -0.25883E-04   -0.32660E-04  9760   0.120E-01
  80 F= -.19208849E+03 E0= -.19198815E+03  d E =-.448014E-02
       N       E                     dE             d eps       ncg     rms          rms(c)
DAV:   1    -0.192091463977E+03   -0.29955E-02   -0.60971E-02  8160   0.593E-01    0.153E-01
DAV:   2    -0.192091636884E+03   -0.17291E-03   -0.40399E-03 10880   0.369E-01    0.269E-01
DAV:   3    -0.192091031186E+03    0.60570E-03   -0.19246E-03 11240   0.379E-01    0.154E-01
DAV:   4    -0.192090865021E+03    0.16616E-03   -0.84326E-04  9200   0.219E-01    0.126E-01
DAV:   5    -0.192090797906E+03    0.67115E-04   -0.72920E-04  9920   0.196E-01
  81 F= -.19209080E+03 E0= -.19199005E+03  d E =-.230357E-02
       N       E                     dE             d eps       ncg     rms          rms(c)
DAV:   1    -0.192100297640E+03   -0.94326E-02   -0.86495E-01  8160   0.206E+00    0.348E-01
DAV:   2    -0.192100952431E+03   -0.65479E-03   -0.29075E-02 12280   0.645E-01    0.492E-01
DAV:   3    -0.192100372602E+03    0.57983E-03   -0.14177E-02 11600   0.837E-01    0.497E-01
DAV:   4    -0.192097833057E+03    0.25395E-02   -0.48250E-03 11960   0.495E-01    0.151E-01
DAV:   5    -0.192097725635E+03    0.10742E-03   -0.20411E-03 11520   0.277E-01    0.174E-01
DAV:   6    -0.192097396415E+03    0.32922E-03   -0.97946E-04 10240   0.250E-01    0.839E-02
DAV:   7    -0.192097313076E+03    0.83339E-04   -0.21914E-04  7680   0.102E-01
  82 F= -.19209731E+03 E0= -.19199690E+03  d E =-.651517E-02
       N       E                     dE             d eps       ncg     rms          rms(c)
DAV:   1    -0.192100392913E+03   -0.29965E-02   -0.81683E-02  8160   0.675E-01    0.160E-01
DAV:   2    -0.192099939508E+03    0.45341E-03   -0.42158E-03 11280   0.250E-01    0.156E-01
DAV:   3    -0.192100055776E+03   -0.11627E-03   -0.16258E-03 10520   0.334E-01    0.211E-01
DAV:   4    -0.192099669210E+03    0.38657E-03   -0.12033E-03  9920   0.279E-01    0.125E-01
DAV:   5    -0.192099627340E+03    0.41870E-04   -0.74214E-04  9160   0.193E-01
  83 F= -.19209963E+03 E0= -.19199990E+03  d E =-.231426E-02
       N       E                     dE             d eps       ncg     rms          rms(c)
DAV:   1    -0.192106912776E+03   -0.72436E-02   -0.59372E-01  8160   0.168E+00    0.259E-01
DAV:   2    -0.192108240764E+03   -0.13280E-02   -0.23025E-02 11800   0.653E-01    0.378E-01
DAV:   3    -0.192107082931E+03    0.11578E-02   -0.66695E-03 12400   0.592E-01    0.244E-01
DAV:   4    -0.192106680778E+03    0.40215E-03   -0.24363E-03 10880   0.324E-01    0.200E-01
DAV:   5    -0.192106533887E+03    0.14689E-03   -0.14685E-03 10240   0.321E-01    0.183E-01
DAV:   6    -0.192106192987E+03    0.34090E-03   -0.70246E-04  9360   0.201E-01    0.505E-02
DAV:   7    -0.192106175682E+03    0.17304E-04   -0.12875E-04  6800   0.589E-02
  84 F= -.19210618E+03 E0= -.19200821E+03  d E =-.654834E-02
       N       E                     dE             d eps       ncg     rms          rms(c)
DAV:   1    -0.192109104943E+03   -0.29120E-02   -0.10015E-01  8160   0.697E-01    0.111E-01
DAV:   2    -0.192109434493E+03   -0.32955E-03   -0.39078E-03 12680   0.258E-01    0.198E-01
DAV:   3    -0.192109113219E+03    0.32127E-03   -0.17231E-03 10760   0.284E-01    0.131E-01
DAV:   4    -0.192108961243E+03    0.15198E-03   -0.40758E-04  8280   0.142E-01    0.643E-02
DAV:   5    -0.192108944746E+03    0.16497E-04   -0.24836E-04  8840   0.125E-01
  85 F= -.19210894E+03 E0= -.19201112E+03  d E =-.276906E-02
       N       E                     dE             d eps       ncg     rms          rms(c)
DAV:   1    -0.192116774719E+03   -0.78135E-02   -0.58169E-01  8160   0.166E+00    0.204E-01
DAV:   2    -0.192117985477E+03   -0.12108E-02   -0.15712E-02 11240   0.428E-01    0.297E-01
DAV:   3    -0.192117513447E+03    0.47203E-03   -0.50794E-03 11440   0.489E-01    0.258E-01
DAV:   4    -0.192117002143E+03    0.51130E-03   -0.15234E-03 11120   0.286E-01    0.141E-01
DAV:   5    -0.192116880284E+03    0.12186E-03   -0.74494E-04 10000   0.231E-01    0.117E-01
DAV:   6    -0.192116754579E+03    0.12571E-03   -0.35495E-04  8960   0.148E-01    0.498E-02
DAV:   7    -0.192116731090E+03    0.23488E-04   -0.10303E-04  6280   0.622E-02
  86 F= -.19211673E+03 E0= -.19201990E+03  d E =-.778634E-02
       N       E                     dE             d eps       ncg     rms          rms(c)
DAV:   1    -0.192119698236E+03   -0.29437E-02   -0.87042E-02  8160   0.637E-01    0.809E-02
DAV:   2    -0.192120083352E+03   -0.38512E-03   -0.30362E-03 11840   0.239E-01    0.169E-01
DAV:   3    -0.192119780380E+03    0.30297E-03   -0.11040E-03 10160   0.224E-01    0.781E-02
DAV:   4    -0.192119757344E+03    0.23036E-04   -0.21312E-04  7040   0.106E-01
  87 F= -.19211976E+03 E0= -.19202342E+03  d E =-.302625E-02
       N       E                     dE             d eps       ncg     rms          rms(c)
DAV:   1    -0.192125125161E+03   -0.53448E-02   -0.26288E-01  8160   0.111E+00    0.144E-01
DAV:   2    -0.192125762891E+03   -0.63773E-03   -0.75959E-03 10960   0.337E-01    0.218E-01
DAV:   3    -0.192125436963E+03    0.32593E-03   -0.25919E-03 11520   0.340E-01    0.179E-01
DAV:   4    -0.192125195680E+03    0.24128E-03   -0.81076E-04  9840   0.209E-01    0.891E-02
DAV:   5    -0.192125138091E+03    0.57590E-04   -0.30404E-04  8640   0.127E-01
  88 F= -.19212514E+03 E0= -.19202990E+03  d E =-.538075E-02
       N       E                     dE             d eps       ncg     rms          rms(c)
DAV:   1    -0.192130258772E+03   -0.50631E-02   -0.24692E-01  8160   0.107E+00    0.140E-01
DAV:   2    -0.192131075093E+03   -0.81632E-03   -0.81708E-03 11920   0.367E-01    0.237E-01
DAV:   3    -0.192130550376E+03    0.52472E-03   -0.23619E-03 11680   0.344E-01    0.129E-01
DAV:   4    -0.192130501221E+03    0.49155E-04   -0.67137E-04  8680   0.179E-01
  89 F= -.19213050E+03 E0= -.19203605E+03  d E =-.536313E-02
       N       E                     dE             d eps       ncg     rms          rms(c)
DAV:   1    -0.192131419511E+03   -0.86913E-03   -0.21377E-02  8160   0.343E-01    0.728E-02
DAV:   2    -0.192131911918E+03   -0.49241E-03   -0.12945E-03 12760   0.250E-01    0.216E-01
DAV:   3    -0.192131382499E+03    0.52942E-03   -0.77277E-04  9200   0.240E-01    0.561E-02
DAV:   4    -0.192131380287E+03    0.22119E-05   -0.11830E-04  5520   0.759E-02
  90 F= -.19213138E+03 E0= -.19203714E+03  d E =-.879066E-03
       N       E                     dE             d eps       ncg     rms          rms(c)
DAV:   1    -0.192136149653E+03   -0.47672E-02   -0.21551E-01  8160   0.101E+00    0.130E-01
DAV:   2    -0.192136846171E+03   -0.69652E-03   -0.68690E-03 12280   0.311E-01    0.218E-01
DAV:   3    -0.192136408250E+03    0.43792E-03   -0.24259E-03 11120   0.329E-01    0.146E-01
DAV:   4    -0.192136270887E+03    0.13736E-03   -0.58636E-04  8640   0.174E-01    0.920E-02
DAV:   5    -0.192136228826E+03    0.42061E-04   -0.29413E-04  8880   0.153E-01
  91 F= -.19213623E+03 E0= -.19204279E+03  d E =-.484854E-02
       N       E                     dE             d eps       ncg     rms          rms(c)
DAV:   1    -0.192142302062E+03   -0.60312E-02   -0.36783E-01  8160   0.131E+00    0.157E-01
DAV:   2    -0.192143196532E+03   -0.89447E-03   -0.10130E-02 12320   0.368E-01    0.229E-01
DAV:   3    -0.192142729439E+03    0.46709E-03   -0.24407E-03 12400   0.374E-01    0.148E-01
DAV:   4    -0.192142554545E+03    0.17489E-03   -0.61415E-04  9240   0.178E-01    0.938E-02
DAV:   5    -0.192142554477E+03    0.67972E-07   -0.48208E-04  9640   0.170E-01
  92 F= -.19214255E+03 E0= -.19205001E+03  d E =-.632565E-02
       N       E                     dE             d eps       ncg     rms          rms(c)
DAV:   1    -0.192150342208E+03   -0.77877E-02   -0.72879E-01  8160   0.184E+00    0.210E-01
DAV:   2    -0.192151969431E+03   -0.16272E-02   -0.20040E-02 12200   0.539E-01    0.288E-01
DAV:   3    -0.192151448139E+03    0.52129E-03   -0.39207E-03 12000   0.483E-01    0.217E-01
DAV:   4    -0.192151136507E+03    0.31163E-03   -0.14610E-03 10480   0.286E-01    0.159E-01
DAV:   5    -0.192150979129E+03    0.15738E-03   -0.96237E-04 10240   0.240E-01    0.116E-01
DAV:   6    -0.192150874361E+03    0.10477E-03   -0.42523E-04  9320   0.148E-01    0.514E-02
DAV:   7    -0.192150840200E+03    0.34161E-04   -0.93348E-05  6000   0.552E-02
  93 F= -.19215084E+03 E0= -.19205958E+03  d E =-.828572E-02
       N       E                     dE             d eps       ncg     rms          rms(c)
DAV:   1    -0.192165933709E+03   -0.15059E-01   -0.74666E+00  8160   0.590E+00    0.629E-01
DAV:   2    -0.192179378541E+03   -0.13445E-01   -0.20237E-01 11600   0.131E+00    0.616E-01
DAV:   3    -0.192181872044E+03   -0.24935E-02   -0.34013E-02 12440   0.136E+00    0.857E-01
DAV:   4    -0.192174975136E+03    0.68969E-02   -0.16883E-02 12240   0.104E+00    0.361E-01
DAV:   5    -0.192173509879E+03    0.14653E-02   -0.56187E-03 12000   0.490E-01    0.245E-01
DAV:   6    -0.192173731482E+03   -0.22160E-03   -0.41043E-03 12080   0.498E-01    0.261E-01
DAV:   7    -0.192172817876E+03    0.91361E-03   -0.15150E-03 11560   0.289E-01    0.490E-02
DAV:   8    -0.192172778245E+03    0.39631E-04   -0.14937E-04  6960   0.566E-02
  94 F= -.19217278E+03 E0= -.19208505E+03  d E =-.219380E-01
       N       E                     dE             d eps       ncg     rms          rms(c)
DAV:   1    -0.192175650570E+03   -0.28327E-02   -0.54332E+00  8160   0.501E+00    0.534E-01
DAV:   2    -0.192186680857E+03   -0.11030E-01   -0.16167E-01 11600   0.120E+00    0.508E-01
DAV:   3    -0.192188708731E+03   -0.20279E-02   -0.24216E-02 12400   0.115E+00    0.712E-01
DAV:   4    -0.192183689617E+03    0.50191E-02   -0.11601E-02 12280   0.864E-01    0.298E-01
DAV:   5    -0.192182943248E+03    0.74637E-03   -0.34875E-03 11480   0.438E-01    0.232E-01
DAV:   6    -0.192182914473E+03    0.28775E-04   -0.26628E-03 12040   0.429E-01    0.205E-01
DAV:   7    -0.192182340061E+03    0.57441E-03   -0.92105E-04 10120   0.217E-01    0.511E-02
DAV:   8    -0.192182337719E+03    0.23423E-05   -0.19555E-04  7840   0.980E-02
  95 F= -.19218234E+03 E0= -.19209736E+03  d E =-.955947E-02
       N       E                     dE             d eps       ncg     rms          rms(c)
DAV:   1    -0.192181091938E+03    0.12481E-02   -0.82862E-01  8160   0.195E+00    0.213E-01
DAV:   2    -0.192183175628E+03   -0.20837E-02   -0.18986E-02 12120   0.634E-01    0.363E-01
DAV:   3    -0.192181635899E+03    0.15397E-02   -0.43829E-03 12240   0.542E-01    0.161E-01
DAV:   4    -0.192181450435E+03    0.18546E-03   -0.93226E-04 10280   0.205E-01    0.118E-01
DAV:   5    -0.192181410694E+03    0.39741E-04   -0.82012E-04 10080   0.212E-01
  96 F= -.19218141E+03 E0= -.19209544E+03  d E =0.927025E-03
       N       E                     dE             d eps       ncg     rms          rms(c)
DAV:   1    -0.192182991948E+03   -0.15415E-02   -0.34187E-01  8160   0.126E+00    0.138E-01
DAV:   2    -0.192184315450E+03   -0.13235E-02   -0.12653E-02 12760   0.371E-01    0.214E-01
DAV:   3    -0.192183870793E+03    0.44466E-03   -0.23248E-03 12320   0.343E-01    0.148E-01
DAV:   4    -0.192183663617E+03    0.20718E-03   -0.65992E-04  9040   0.182E-01    0.770E-02
DAV:   5    -0.192183635402E+03    0.28215E-04   -0.24047E-04  8640   0.129E-01
  97 F= -.19218364E+03 E0= -.19209810E+03  d E =-.222471E-02
       N       E                     dE             d eps       ncg     rms          rms(c)
DAV:   1    -0.192185056193E+03   -0.13926E-02   -0.31779E-01  8160   0.121E+00    0.144E-01
DAV:   2    -0.192185978230E+03   -0.92204E-03   -0.11108E-02 12400   0.362E-01    0.185E-01
DAV:   3    -0.192185853271E+03    0.12496E-03   -0.20215E-03 11640   0.351E-01    0.166E-01
DAV:   4    -0.192185572120E+03    0.28115E-03   -0.58547E-04  8680   0.197E-01    0.838E-02
DAV:   5    -0.192185554390E+03    0.17730E-04   -0.31590E-04  8760   0.146E-01
  98 F= -.19218555E+03 E0= -.19210064E+03  d E =-.191899E-02
       N       E                     dE             d eps       ncg     rms          rms(c)
DAV:   1    -0.192186529169E+03   -0.95705E-03   -0.91798E-01  8160   0.206E+00    0.231E-01
DAV:   2    -0.192189621030E+03   -0.30919E-02   -0.32547E-02 12440   0.640E-01    0.342E-01
DAV:   3    -0.192188880336E+03    0.74069E-03   -0.57088E-03 12440   0.595E-01    0.254E-01
DAV:   4    -0.192188245768E+03    0.63457E-03   -0.14297E-03 10160   0.294E-01    0.129E-01
DAV:   5    -0.192188162789E+03    0.82979E-04   -0.63010E-04 10040   0.210E-01
  99 F= -.19218816E+03 E0= -.19210428E+03  d E =-.260840E-02
       N       E                     dE             d eps       ncg     rms          rms(c)
DAV:   1    -0.192188616334E+03   -0.37057E-03   -0.31194E-01  8160   0.121E+00    0.157E-01
DAV:   2    -0.192189907578E+03   -0.12912E-02   -0.11936E-02 12480   0.446E-01    0.261E-01
DAV:   3    -0.192189192540E+03    0.71504E-03   -0.28962E-03 11960   0.410E-01    0.136E-01
DAV:   4    -0.192189072332E+03    0.12021E-03   -0.58651E-04  9520   0.182E-01    0.104E-01
DAV:   5    -0.192188999596E+03    0.72736E-04   -0.34125E-04  9440   0.166E-01
 100 F= -.19218900E+03 E0= -.19210573E+03  d E =-.836807E-03
