<?xml version="1.0" encoding="ISO-8859-1"?>
<modeling>
 <generator>
  <i name="program" type="string">vasp </i>
  <i name="version" type="string">5.4.1  </i>
  <i name="subversion" type="string">05Feb16 (build Jul 05 2020 17:13:04) complex                          parallel </i>
  <i name="platform" type="string">IFC91_ompi </i>
  <i name="date" type="string">2024 04 25 </i>
  <i name="time" type="string">06:59:06 </i>
 </generator>
 <incar>
  <i type="int" name="ISTART">     0</i>
  <i type="string" name="PREC">normal</i>
  <i type="string" name="ALGO"> Normal</i>
  <i type="int" name="ISPIN">     1</i>
  <i type="int" name="ICHARG">     2</i>
  <i type="int" name="IBRION">     1</i>
  <i type="int" name="NSW">   100</i>
  <i type="int" name="ISIF">     3</i>
  <i type="int" name="ISYM">     0</i>
  <i name="SYMPREC">      0.00000001</i>
  <i name="POTIM">      0.50000000</i>
  <i type="logical" name="LREAL"> F  </i>
  <i type="logical" name="LPLANE"> F  </i>
  <i type="int" name="ISMEAR">     0</i>
  <i type="logical" name="LWAVE"> F  </i>
  <i type="logical" name="LCHARG"> F  </i>
  <v type="int" name="KPOINT_BSE">    -1     0     0     0</v>
 </incar>
 <kpoints>
  <generation param="Gamma">
   <v type="int" name="divisions">       8        8        1 </v>
   <v name="usershift">      0.00000000       0.00000000       0.00000000 </v>
   <v name="genvec1">      0.12500000       0.00000000       0.00000000 </v>
   <v name="genvec2">     -0.00000000       0.12500000       0.00000000 </v>
   <v name="genvec3">      0.00000000       0.00000000       1.00000000 </v>
   <v name="shift">      0.00000000       0.00000000       0.00000000 </v>
  </generation>
  <varray name="kpointlist" >
   <v>       0.00000000       0.00000000       0.00000000 </v>
   <v>       0.12500000       0.00000000       0.00000000 </v>
   <v>       0.25000000       0.00000000       0.00000000 </v>
   <v>       0.37500000       0.00000000       0.00000000 </v>
   <v>       0.50000000       0.00000000       0.00000000 </v>
   <v>       0.00000000       0.12500000       0.00000000 </v>
   <v>       0.12500000       0.12500000       0.00000000 </v>
   <v>       0.25000000       0.12500000       0.00000000 </v>
   <v>       0.37500000       0.12500000       0.00000000 </v>
   <v>       0.50000000       0.12500000       0.00000000 </v>
   <v>      -0.37500000       0.12500000       0.00000000 </v>
   <v>      -0.25000000       0.12500000       0.00000000 </v>
   <v>      -0.12500000       0.12500000       0.00000000 </v>
   <v>       0.00000000       0.25000000       0.00000000 </v>
   <v>       0.12500000       0.25000000       0.00000000 </v>
   <v>       0.25000000       0.25000000       0.00000000 </v>
   <v>       0.37500000       0.25000000       0.00000000 </v>
   <v>       0.50000000       0.25000000       0.00000000 </v>
   <v>      -0.37500000       0.25000000       0.00000000 </v>
   <v>      -0.25000000       0.25000000       0.00000000 </v>
   <v>      -0.12500000       0.25000000       0.00000000 </v>
   <v>      -0.00000000       0.37500000       0.00000000 </v>
   <v>       0.12500000       0.37500000       0.00000000 </v>
   <v>       0.25000000       0.37500000       0.00000000 </v>
   <v>       0.37500000       0.37500000       0.00000000 </v>
   <v>       0.50000000       0.37500000       0.00000000 </v>
   <v>      -0.37500000       0.37500000       0.00000000 </v>
   <v>      -0.25000000       0.37500000       0.00000000 </v>
   <v>      -0.12500000       0.37500000       0.00000000 </v>
   <v>       0.00000000       0.50000000       0.00000000 </v>
   <v>       0.12500000       0.50000000       0.00000000 </v>
   <v>       0.25000000       0.50000000       0.00000000 </v>
   <v>       0.37500000       0.50000000       0.00000000 </v>
   <v>       0.50000000       0.50000000       0.00000000 </v>
  </varray>
  <varray name="weights" >
   <v>       0.01562500 </v>
   <v>       0.03125000 </v>
   <v>       0.03125000 </v>
   <v>       0.03125000 </v>
   <v>       0.01562500 </v>
   <v>       0.03125000 </v>
   <v>       0.03125000 </v>
   <v>       0.03125000 </v>
   <v>       0.03125000 </v>
   <v>       0.03125000 </v>
   <v>       0.03125000 </v>
   <v>       0.03125000 </v>
   <v>       0.03125000 </v>
   <v>       0.03125000 </v>
   <v>       0.03125000 </v>
   <v>       0.03125000 </v>
   <v>       0.03125000 </v>
   <v>       0.03125000 </v>
   <v>       0.03125000 </v>
   <v>       0.03125000 </v>
   <v>       0.03125000 </v>
   <v>       0.03125000 </v>
   <v>       0.03125000 </v>
   <v>       0.03125000 </v>
   <v>       0.03125000 </v>
   <v>       0.03125000 </v>
   <v>       0.03125000 </v>
   <v>       0.03125000 </v>
   <v>       0.03125000 </v>
   <v>       0.01562500 </v>
   <v>       0.03125000 </v>
   <v>       0.03125000 </v>
   <v>       0.03125000 </v>
   <v>       0.01562500 </v>
  </varray>
 </kpoints>
 <parameters>
  <separator name="general" >
   <i type="string" name="SYSTEM">unknown system</i>
   <i type="logical" name="LCOMPAT"> F  </i>
  </separator>
  <separator name="electronic" >
   <i type="string" name="PREC">normal</i>
   <i name="ENMAX">    280.00000000</i>
   <i name="ENAUG">    373.43800000</i>
   <i name="EDIFF">      0.00010000</i>
   <i type="int" name="IALGO">    38</i>
   <i type="int" name="IWAVPR">    11</i>
   <i type="int" name="NBANDS">   120</i>
   <i name="NELECT">    159.00000000</i>
   <i type="int" name="TURBO">     0</i>
   <i type="int" name="IRESTART">     0</i>
   <i type="int" name="NREBOOT">     0</i>
   <i type="int" name="NMIN">     0</i>
   <i name="EREF">      0.00000000</i>
   <separator name="electronic smearing" >
    <i type="int" name="ISMEAR">     0</i>
    <i name="SIGMA">      0.20000000</i>
    <i name="KSPACING">      0.50000000</i>
    <i type="logical" name="KGAMMA"> T  </i>
   </separator>
   <separator name="electronic projectors" >
    <i type="logical" name="LREAL"> F  </i>
    <v name="ROPT">      0.00000000      0.00000000      0.00000000      0.00000000</v>
    <i type="int" name="LMAXPAW">  -100</i>
    <i type="int" name="LMAXMIX">     2</i>
    <i type="logical" name="NLSPLINE"> F  </i>
   </separator>
   <separator name="electronic startup" >
    <i type="int" name="ISTART">     0</i>
    <i type="int" name="ICHARG">     2</i>
    <i type="int" name="INIWAV">     1</i>
   </separator>
   <separator name="electronic spin" >
    <i type="int" name="ISPIN">     1</i>
    <i type="logical" name="LNONCOLLINEAR"> F  </i>
    <v name="MAGMOM">      1.00000000      1.00000000      1.00000000      1.00000000      1.00000000      1.00000000      1.00000000      1.00000000      1.00000000      1.00000000      1.00000000      1.00000000      1.00000000      1.00000000      1.00000000      1.00000000      1.00000000      1.00000000      1.00000000      1.00000000
      1.00000000      1.00000000      1.00000000      1.00000000      1.00000000      1.00000000      1.00000000</v>
    <i name="NUPDOWN">     -1.00000000</i>
    <i type="logical" name="LSORBIT"> F  </i>
    <v name="SAXIS">      0.00000000      0.00000000      1.00000000</v>
    <i type="logical" name="LSPIRAL"> F  </i>
    <v name="QSPIRAL">      0.00000000      0.00000000      0.00000000</v>
    <i type="logical" name="LZEROZ"> F  </i>
   </separator>
   <separator name="electronic exchange-correlation" >
    <i type="logical" name="LASPH"> F  </i>
    <i type="logical" name="LMETAGGA"> F  </i>
   </separator>
   <separator name="electronic convergence" >
    <i type="int" name="NELM">    60</i>
    <i type="int" name="NELMDL">    -5</i>
    <i type="int" name="NELMIN">     2</i>
    <i name="ENINI">    280.00000000</i>
    <separator name="electronic convergence detail" >
     <i type="logical" name="LDIAG"> T  </i>
     <i type="logical" name="LSUBROT"> F  </i>
     <i name="WEIMIN">      0.00100000</i>
     <i name="EBREAK">      0.00000021</i>
     <i name="DEPER">      0.30000000</i>
     <i type="int" name="NRMM">     4</i>
     <i name="TIME">      0.40000000</i>
    </separator>
   </separator>
   <separator name="electronic mixer" >
    <i name="AMIX">      0.40000000</i>
    <i name="BMIX">      1.00000000</i>
    <i name="AMIN">      0.10000000</i>
    <i name="AMIX_MAG">      1.60000000</i>
    <i name="BMIX_MAG">      1.00000000</i>
    <separator name="electronic mixer details" >
     <i type="int" name="IMIX">     4</i>
     <i type="logical" name="MIXFIRST"> F  </i>
     <i type="int" name="MAXMIX">   -45</i>
     <i name="WC">    100.00000000</i>
     <i type="int" name="INIMIX">     1</i>
     <i type="int" name="MIXPRE">     1</i>
     <i type="int" name="MREMOVE">     5</i>
    </separator>
   </separator>
   <separator name="electronic dipolcorrection" >
    <i type="logical" name="LDIPOL"> F  </i>
    <i type="logical" name="LMONO"> F  </i>
    <i type="int" name="IDIPOL">     0</i>
    <i name="EPSILON">      1.00000000</i>
    <v name="DIPOL">   -100.00000000   -100.00000000   -100.00000000</v>
    <i name="EFIELD">      0.00000000</i>
   </separator>
  </separator>
  <separator name="grids" >
   <i type="int" name="NGX">    42</i>
   <i type="int" name="NGY">    42</i>
   <i type="int" name="NGZ">   126</i>
   <i type="int" name="NGXF">    84</i>
   <i type="int" name="NGYF">    84</i>
   <i type="int" name="NGZF">   252</i>
   <i type="logical" name="ADDGRID"> F  </i>
  </separator>
  <separator name="ionic" >
   <i type="int" name="NSW">   100</i>
   <i type="int" name="IBRION">     1</i>
   <i type="int" name="ISIF">     3</i>
   <i name="PSTRESS">      0.00000000</i>
   <i name="EDIFFG">      0.00100000</i>
   <i type="int" name="NFREE">     0</i>
   <i name="POTIM">      0.50000000</i>
   <i name="SMASS">     -3.00000000</i>
   <i name="SCALEE">      1.00000000</i>
  </separator>
  <separator name="ionic md" >
   <i name="TEBEG">      0.00010000</i>
   <i name="TEEND">      0.00010000</i>
   <i type="int" name="NBLOCK">     1</i>
   <i type="int" name="KBLOCK">   100</i>
   <i type="int" name="NPACO">   256</i>
   <i name="APACO">     16.00000000</i>
  </separator>
  <separator name="symmetry" >
   <i type="int" name="ISYM">     0</i>
   <i name="SYMPREC">      0.00000001</i>
  </separator>
  <separator name="dos" >
   <i type="logical" name="LORBIT"> F  </i>
   <v name="RWIGS">     -1.00000000     -1.00000000     -1.00000000     -1.00000000</v>
   <i type="int" name="NEDOS">   301</i>
   <i name="EMIN">     10.00000000</i>
   <i name="EMAX">    -10.00000000</i>
   <i name="EFERMI">      0.00000000</i>
  </separator>
  <separator name="writing" >
   <i type="int" name="NWRITE">     2</i>
   <i type="logical" name="LWAVE"> F  </i>
   <i type="logical" name="LCHARG"> F  </i>
   <i type="logical" name="LPARD"> F  </i>
   <i type="logical" name="LVTOT"> F  </i>
   <i type="logical" name="LVHAR"> F  </i>
   <i type="logical" name="LELF"> F  </i>
   <i type="logical" name="LOPTICS"> F  </i>
   <v name="STM">      0.00000000      0.00000000      0.00000000      0.00000000      0.00000000      0.00000000      0.00000000</v>
  </separator>
  <separator name="performance" >
   <i type="int" name="NPAR">    40</i>
   <i type="int" name="NSIM">     4</i>
   <i type="int" name="NBLK">    -1</i>
   <i type="logical" name="LPLANE"> F  </i>
   <i type="logical" name="LSCALAPACK"> T  </i>
   <i type="logical" name="LSCAAWARE"> F  </i>
   <i type="logical" name="LSCALU"> F  </i>
   <i type="logical" name="LASYNC"> F  </i>
   <i type="logical" name="LORBITALREAL"> F  </i>
  </separator>
  <separator name="miscellaneous" >
   <i type="int" name="IDIOT">     3</i>
   <i type="logical" name="LMUSIC"> F  </i>
   <v name="POMASS">     50.94100000     95.94000000    183.85000000     32.06600000</v>
   <v name="DARWINR">      0.00000000      0.00000000      0.00000000      0.00000000</v>
   <v name="DARWINV">      1.00000000      1.00000000      1.00000000      1.00000000</v>
   <i type="logical" name="LCORR"> T  </i>
  </separator>
  <i type="logical" name="GGA_COMPAT"> T  </i>
  <i type="logical" name="LBERRY"> F  </i>
  <i type="int" name="ICORELEVEL">     0</i>
  <i type="logical" name="LDAU"> F  </i>
  <i type="int" name="I_CONSTRAINED_M">     0</i>
  <separator name="electronic exchange-correlation" >
   <i type="string" name="GGA">--</i>
   <i type="int" name="VOSKOWN">     0</i>
   <i type="logical" name="LHFCALC"> F  </i>
   <i type="string" name="PRECFOCK"></i>
   <i type="logical" name="LSYMGRAD"> F  </i>
   <i type="logical" name="LHFONE"> F  </i>
   <i type="logical" name="LRHFCALC"> F  </i>
   <i type="logical" name="LTHOMAS"> F  </i>
   <i type="logical" name="LMODELHF"> F  </i>
   <i name="ENCUT4O">     -1.00000000</i>
   <i type="int" name="EXXOEP">     0</i>
   <i type="int" name="FOURORBIT">     0</i>
   <i name="AEXX">      0.00000000</i>
   <i name="HFALPHA">      0.00000000</i>
   <i name="MCALPHA">      0.00000000</i>
   <i name="ALDAX">      1.00000000</i>
   <i name="AGGAX">      1.00000000</i>
   <i name="ALDAC">      1.00000000</i>
   <i name="AGGAC">      1.00000000</i>
   <i type="int" name="NKREDX">     1</i>
   <i type="int" name="NKREDY">     1</i>
   <i type="int" name="NKREDZ">     1</i>
   <i type="logical" name="SHIFTRED"> F  </i>
   <i type="logical" name="ODDONLY"> F  </i>
   <i type="logical" name="EVENONLY"> F  </i>
   <i type="int" name="LMAXFOCK">     0</i>
   <i type="int" name="NMAXFOCKAE">     0</i>
   <i type="logical" name="LFOCKAEDFT"> F  </i>
   <i name="HFSCREEN">      0.00000000</i>
   <i name="HFSCREENC">      0.00000000</i>
   <i type="int" name="NBANDSGWLOW">     0</i>
  </separator>
  <separator name="vdW DFT" >
   <i type="logical" name="LUSE_VDW"> F  </i>
   <i name="Zab_VDW">     -0.84910000</i>
   <i name="PARAM1">      0.12340000</i>
   <i name="PARAM2">      1.00000000</i>
   <i name="PARAM3">      0.00000000</i>
  </separator>
  <separator name="model GW" >
   <i type="int" name="MODEL_GW">     0</i>
   <i name="MODEL_EPS0">     58.26239943</i>
   <i name="MODEL_ALPHA">      1.00000000</i>
  </separator>
  <separator name="linear response parameters" >
   <i type="logical" name="LEPSILON"> F  </i>
   <i type="logical" name="LRPA"> F  </i>
   <i type="logical" name="LNABLA"> F  </i>
   <i type="logical" name="LVEL"> F  </i>
   <i type="int" name="KINTER">     0</i>
   <i name="CSHIFT">      0.10000000</i>
   <i name="OMEGAMAX">     -1.00000000</i>
   <i name="DEG_THRESHOLD">      0.00200000</i>
  </separator>
  <separator name="orbital magnetization" >
   <i type="logical" name="NUCIND"> F  </i>
   <v name="MAGPOS">      0.00000000      0.00000000      0.00000000</v>
   <i type="logical" name="LNICSALL"> T  </i>
   <i type="logical" name="ORBITALMAG"> F  </i>
   <i type="logical" name="LMAGBLOCH"> F  </i>
   <i type="logical" name="LCHIMAG"> F  </i>
   <i type="logical" name="LGAUGE"> T  </i>
   <i type="int" name="MAGATOM">     0</i>
   <v name="MAGDIPOL">      0.00000000      0.00000000      0.00000000</v>
   <v name="AVECCONST">      0.00000000      0.00000000      0.00000000</v>
  </separator>
  <separator name="response functions" >
   <i type="logical" name="LADDER"> F  </i>
   <i type="logical" name="LFXC"> F  </i>
   <i type="logical" name="LHARTREE"> T  </i>
   <i type="int" name="IBSE">     0</i>
   <v type="int" name="KPOINT">    -1     0     0     0</v>
   <i type="logical" name="LTCTE"> F  </i>
   <i type="logical" name="LTETE"> F  </i>
   <i type="logical" name="LTRIPLET"> F  </i>
   <i type="logical" name="LFXCEPS"> F  </i>
   <i type="logical" name="LFXHEG"> F  </i>
   <i type="int" name="NATURALO">     0</i>
   <i type="logical" name="L2ORDER"> F  </i>
   <i type="logical" name="LUSEW"> F  </i>
   <i name="ENCUTGW">     -2.00000000</i>
   <i name="ENCUTGWSOFT">     -2.00000000</i>
   <i name="ENCUTLF">     -1.00000000</i>
   <i type="int" name="LMAXMP2">    -1</i>
   <i name="SCISSOR">      0.00000000</i>
   <i type="int" name="NOMEGA">     0</i>
   <i type="int" name="NOMEGAR">     0</i>
   <i type="int" name="NBANDSGW">    -1</i>
   <i type="int" name="NBANDSO">    -1</i>
   <i type="int" name="NBANDSV">    -1</i>
   <i type="int" name="NELM">     1</i>
   <i type="int" name="NELMHF">     1</i>
   <i type="int" name="DIM">     3</i>
   <i type="int" name="ANTIRES">     0</i>
   <i name="OMEGAMAX">    -30.00000000</i>
   <i name="OMEGAMIN">    -30.00000000</i>
   <i name="OMEGATL">   -200.00000000</i>
   <i type="int" name="OMEGAGRID">     0</i>
   <i name="CSHIFT">     -0.10000000</i>
   <i type="logical" name="SELFENERGY"> F  </i>
   <i type="logical" name="LSPECTRAL"> F  </i>
   <i type="logical" name="LSPECTRALGW"> F  </i>
   <i type="logical" name="LSINGLES"> F  </i>
   <i type="logical" name="LFERMIGW"> F  </i>
   <i type="logical" name="ODDONLYGW"> F  </i>
   <i type="logical" name="EVENONLYGW"> F  </i>
   <i type="int" name="NKREDLFX">     1</i>
   <i type="int" name="NKREDLFY">     1</i>
   <i type="int" name="NKREDLFZ">     1</i>
   <i type="int" name="MAXMEM">  1800</i>
   <i type="int" name="TELESCOPE">     0</i>
   <i type="int" name="TAUPAR">     1</i>
   <i type="int" name="OMEGAPAR">    -1</i>
   <i name="LAMBDA">      1.00000000</i>
  </separator>
  <separator name="External order field" >
   <i name="OFIELD_KAPPA">      0.00000000</i>
   <v name="OFIELD_K">      0.00000000      0.00000000      0.00000000</v>
   <i name="OFIELD_Q6_NEAR">      0.00000000</i>
   <i name="OFIELD_Q6_FAR">      0.00000000</i>
   <i name="OFIELD_A">      0.00000000</i>
  </separator>
 </parameters>
 <atominfo>
  <atoms>      27 </atoms>
  <types>       4 </types>
  <array name="atoms" >
   <dimension dim="1">ion</dimension>
   <field type="string">element</field>
   <field type="int">atomtype</field>
   <set>
    <rc><c>V </c><c>   1</c></rc>
    <rc><c>V </c><c>   1</c></rc>
    <rc><c>V </c><c>   1</c></rc>
    <rc><c>Mo</c><c>   2</c></rc>
    <rc><c>Mo</c><c>   2</c></rc>
    <rc><c>Mo</c><c>   2</c></rc>
    <rc><c>W </c><c>   3</c></rc>
    <rc><c>W </c><c>   3</c></rc>
    <rc><c>W </c><c>   3</c></rc>
    <rc><c>S </c><c>   4</c></rc>
    <rc><c>S </c><c>   4</c></rc>
    <rc><c>S </c><c>   4</c></rc>
    <rc><c>S </c><c>   4</c></rc>
    <rc><c>S </c><c>   4</c></rc>
    <rc><c>S </c><c>   4</c></rc>
    <rc><c>S </c><c>   4</c></rc>
    <rc><c>S </c><c>   4</c></rc>
    <rc><c>S </c><c>   4</c></rc>
    <rc><c>S </c><c>   4</c></rc>
    <rc><c>S </c><c>   4</c></rc>
    <rc><c>S </c><c>   4</c></rc>
    <rc><c>S </c><c>   4</c></rc>
    <rc><c>S </c><c>   4</c></rc>
    <rc><c>S </c><c>   4</c></rc>
    <rc><c>S </c><c>   4</c></rc>
    <rc><c>S </c><c>   4</c></rc>
    <rc><c>S </c><c>   4</c></rc>
   </set>
  </array>
  <array name="atomtypes" >
   <dimension dim="1">type</dimension>
   <field type="int">atomspertype</field>
   <field type="string">element</field>
   <field>mass</field>
   <field>valence</field>
   <field type="string">pseudopotential</field>
   <set>
    <rc><c>   3</c><c>V </c><c>     50.94100000</c><c>      5.00000000</c><c> PAW_PBE V 08Apr2002                    </c></rc>
    <rc><c>   3</c><c>Mo</c><c>     95.94000000</c><c>      6.00000000</c><c> PAW_PBE Mo 08Apr2002                   </c></rc>
    <rc><c>   3</c><c>W </c><c>    183.85000000</c><c>      6.00000000</c><c> PAW_PBE W 08Apr2002                    </c></rc>
    <rc><c>  18</c><c>S </c><c>     32.06600000</c><c>      6.00000000</c><c>  PAW_PBE S 17Jan2003                   </c></rc>
   </set>
  </array>
 </atominfo>
 <structure name="initialpos" >
  <crystal>
   <varray name="basis" >
    <v>       8.66999996       5.03999989       0.00000000 </v>
    <v>      -8.66999982       5.04000013       0.00000000 </v>
    <v>       0.00000000       0.00000000      30.00000000 </v>
   </varray>
   <i name="volume">   2621.80797419 </i>
   <varray name="rec_basis" >
    <v>       0.05767013       0.09920635       0.00000000 </v>
    <v>      -0.05767013       0.09920635       0.00000000 </v>
    <v>       0.00000000       0.00000000       0.03333333 </v>
   </varray>
  </crystal>
  <varray name="positions" >
   <v>       1.00000000       0.33333334       0.00000000 </v>
   <v>       0.00000000       0.00000000       0.00000000 </v>
   <v>       0.66666669       0.66666669       0.00000000 </v>
   <v>       0.66666669       0.00000000       0.00000000 </v>
   <v>       0.00000000       0.66666669       0.00000000 </v>
   <v>       0.33333334       0.00000000       0.00000000 </v>
   <v>       0.33333334       0.33333334       0.00000000 </v>
   <v>       0.33333334       0.66666669       0.00000000 </v>
   <v>       0.66666669       0.33333334       0.00000000 </v>
   <v>       0.11068511       0.22244981       0.95539999 </v>
   <v>       0.22244981       0.11068511       0.04460000 </v>
   <v>       0.11068511       0.55578315       0.95539999 </v>
   <v>       0.22244981       0.44401845       0.04460000 </v>
   <v>       0.11068511       0.88911647       0.95539999 </v>
   <v>       0.22244981       0.77735180       0.04460000 </v>
   <v>       0.44401845       0.22244981       0.95539999 </v>
   <v>       0.55578315       0.11068511       0.04460000 </v>
   <v>       0.44401845       0.55578315       0.95539999 </v>
   <v>       0.55578315       0.44401845       0.04460000 </v>
   <v>       0.44401845       0.88911647       0.95539999 </v>
   <v>       0.55578315       0.77735180       0.04460000 </v>
   <v>       0.77735180       0.22244981       0.95539999 </v>
   <v>       0.88911647       0.11068511       0.04460000 </v>
   <v>       0.77735180       0.55578315       0.95539999 </v>
   <v>       0.88911647       0.44401845       0.04460000 </v>
   <v>       0.77735180       0.88911647       0.95539999 </v>
   <v>       0.88911647       0.77735180       0.04460000 </v>
  </varray>
 </structure>
 <calculation>
  <scstep>
   <time name="dav">   21.92   21.98</time>
   <time name="total">   21.97   22.03</time>
   <energy>
    <i name="alphaZ">     81.65567618 </i>
    <i name="ewald">  41890.23009657 </i>
    <i name="hartreedc"> -47722.86556143 </i>
    <i name="XCdc">   -242.92861172 </i>
    <i name="pawpsdc">   3467.42045192 </i>
    <i name="pawaedc">  -2871.19716117 </i>
    <i name="eentropy">     -0.54330244 </i>
    <i name="bandstr">   -237.25892293 </i>
    <i name="atom">   6761.44252427 </i>
    <i name="e_fr_energy">   1125.95518925 </i>
    <i name="e_wo_entrp">   1126.49849169 </i>
    <i name="e_0_energy">   1126.22684047 </i>
   </energy>
  </scstep>
  <scstep>
   <time name="dav">   28.77   28.84</time>
   <time name="total">   28.77   28.85</time>
   <energy>
    <i name="e_fr_energy">     -5.73222859 </i>
    <i name="e_wo_entrp">     -5.53488881 </i>
    <i name="e_0_energy">     -5.63355870 </i>
   </energy>
  </scstep>
  <scstep>
   <time name="dav">   27.63   27.70</time>
   <time name="total">   27.63   27.71</time>
   <energy>
    <i name="e_fr_energy">   -199.95568378 </i>
    <i name="e_wo_entrp">   -199.68340982 </i>
    <i name="e_0_energy">   -199.81954680 </i>
   </energy>
  </scstep>
  <scstep>
   <time name="dav">   30.70   30.77</time>
   <time name="total">   30.70   30.78</time>
   <energy>
    <i name="e_fr_energy">   -208.99371222 </i>
    <i name="e_wo_entrp">   -208.67724380 </i>
    <i name="e_0_energy">   -208.83547801 </i>
   </energy>
  </scstep>
  <scstep>
   <time name="dav">   28.64   28.71</time>
   <time name="total">   29.10   29.18</time>
   <energy>
    <i name="e_fr_energy">   -209.28909743 </i>
    <i name="e_wo_entrp">   -208.97513140 </i>
    <i name="e_0_energy">   -209.13211441 </i>
   </energy>
  </scstep>
  <scstep>
   <time name="dav">   31.28   31.36</time>
   <time name="total">   31.78   31.87</time>
   <energy>
    <i name="e_fr_energy">   -236.79287159 </i>
    <i name="e_wo_entrp">   -236.50442698 </i>
    <i name="e_0_energy">   -236.64864928 </i>
   </energy>
  </scstep>
  <scstep>
   <time name="dav">   32.37   32.45</time>
   <time name="total">   32.88   32.96</time>
   <energy>
    <i name="e_fr_energy">   -196.67236799 </i>
    <i name="e_wo_entrp">   -196.35035316 </i>
    <i name="e_0_energy">   -196.51136058 </i>
   </energy>
  </scstep>
  <scstep>
   <time name="dav">   29.14   29.21</time>
   <time name="total">   29.65   29.73</time>
   <energy>
    <i name="e_fr_energy">   -190.02869787 </i>
    <i name="e_wo_entrp">   -189.75534945 </i>
    <i name="e_0_energy">   -189.89202366 </i>
   </energy>
  </scstep>
  <scstep>
   <time name="dav">   29.97   30.04</time>
   <time name="total">   30.49   30.57</time>
   <energy>
    <i name="e_fr_energy">   -188.24122631 </i>
    <i name="e_wo_entrp">   -187.90323819 </i>
    <i name="e_0_energy">   -188.07223225 </i>
   </energy>
  </scstep>
  <scstep>
   <time name="dav">   32.68   32.76</time>
   <time name="total">   33.21   33.30</time>
   <energy>
    <i name="e_fr_energy">   -187.05633176 </i>
    <i name="e_wo_entrp">   -186.71285756 </i>
    <i name="e_0_energy">   -186.88459466 </i>
   </energy>
  </scstep>
  <scstep>
   <time name="dav">   30.99   31.06</time>
   <time name="total">   31.52   31.61</time>
   <energy>
    <i name="e_fr_energy">   -186.99608176 </i>
    <i name="e_wo_entrp">   -186.64492702 </i>
    <i name="e_0_energy">   -186.82050439 </i>
   </energy>
  </scstep>
  <scstep>
   <time name="dav">   31.16   31.24</time>
   <time name="total">   31.69   31.78</time>
   <energy>
    <i name="e_fr_energy">   -187.07320417 </i>
    <i name="e_wo_entrp">   -186.73949227 </i>
    <i name="e_0_energy">   -186.90634822 </i>
   </energy>
  </scstep>
  <scstep>
   <time name="dav">   32.04   32.12</time>
   <time name="total">   32.57   32.66</time>
   <energy>
    <i name="e_fr_energy">   -186.90594000 </i>
    <i name="e_wo_entrp">   -186.56799083 </i>
    <i name="e_0_energy">   -186.73696541 </i>
   </energy>
  </scstep>
  <scstep>
   <time name="dav">   31.79   31.87</time>
   <time name="total">   32.32   32.41</time>
   <energy>
    <i name="e_fr_energy">   -186.89388305 </i>
    <i name="e_wo_entrp">   -186.54973844 </i>
    <i name="e_0_energy">   -186.72181075 </i>
   </energy>
  </scstep>
  <scstep>
   <time name="dav">   31.75   31.83</time>
   <time name="total">   32.28   32.37</time>
   <energy>
    <i name="e_fr_energy">   -186.87007327 </i>
    <i name="e_wo_entrp">   -186.52348466 </i>
    <i name="e_0_energy">   -186.69677896 </i>
   </energy>
  </scstep>
  <scstep>
   <time name="dav">   31.00   31.07</time>
   <time name="total">   31.53   31.61</time>
   <energy>
    <i name="e_fr_energy">   -186.86557567 </i>
    <i name="e_wo_entrp">   -186.51988460 </i>
    <i name="e_0_energy">   -186.69273014 </i>
   </energy>
  </scstep>
  <scstep>
   <time name="dav">   31.48   31.56</time>
   <time name="total">   32.02   32.10</time>
   <energy>
    <i name="e_fr_energy">   -186.86362329 </i>
    <i name="e_wo_entrp">   -186.51963404 </i>
    <i name="e_0_energy">   -186.69162866 </i>
   </energy>
  </scstep>
  <scstep>
   <time name="dav">   29.31   29.38</time>
   <time name="total">   29.84   29.92</time>
   <energy>
    <i name="e_fr_energy">   -186.86298114 </i>
    <i name="e_wo_entrp">   -186.51880573 </i>
    <i name="e_0_energy">   -186.69089344 </i>
   </energy>
  </scstep>
  <scstep>
   <time name="dav">   25.72   25.79</time>
   <time name="total">   26.26   26.33</time>
   <energy>
    <i name="e_fr_energy">   -186.86285752 </i>
    <i name="e_wo_entrp">   -186.51844308 </i>
    <i name="e_0_energy">   -186.69065030 </i>
   </energy>
  </scstep>
  <scstep>
   <time name="dav">   23.58   23.63</time>
   <time name="total">   24.11   24.18</time>
   <energy>
    <i name="e_fr_energy">   -186.86370483 </i>
    <i name="e_wo_entrp">   -186.51947752 </i>
    <i name="e_0_energy">   -186.69159118 </i>
   </energy>
  </scstep>
  <scstep>
   <time name="dav">   22.05   22.10</time>
   <time name="total">   22.58   22.64</time>
   <energy>
    <i name="e_fr_energy">   -186.86438407 </i>
    <i name="e_wo_entrp">   -186.52023834 </i>
    <i name="e_0_energy">   -186.69231121 </i>
   </energy>
  </scstep>
  <scstep>
   <time name="dav">   20.57   20.62</time>
   <time name="total">   21.10   21.16</time>
   <energy>
    <i name="e_fr_energy">   -186.86541786 </i>
    <i name="e_wo_entrp">   -186.52112682 </i>
    <i name="e_0_energy">   -186.69327234 </i>
   </energy>
  </scstep>
  <scstep>
   <time name="dav">   20.51   20.56</time>
   <time name="total">   21.04   21.10</time>
   <energy>
    <i name="e_fr_energy">   -186.86656589 </i>
    <i name="e_wo_entrp">   -186.52241489 </i>
    <i name="e_0_energy">   -186.69449039 </i>
   </energy>
  </scstep>
  <scstep>
   <time name="dav">   19.00   19.05</time>
   <time name="total">   19.53   19.59</time>
   <energy>
    <i name="e_fr_energy">   -186.86714150 </i>
    <i name="e_wo_entrp">   -186.52294242 </i>
    <i name="e_0_energy">   -186.69504196 </i>
   </energy>
  </scstep>
  <scstep>
   <time name="dav">   16.62   16.66</time>
   <time name="total">   17.15   17.20</time>
   <energy>
    <i name="e_fr_energy">   -186.86750575 </i>
    <i name="e_wo_entrp">   -186.52328369 </i>
    <i name="e_0_energy">   -186.69539472 </i>
   </energy>
  </scstep>
  <scstep>
   <time name="dav">   19.10   19.15</time>
   <time name="total">   19.64   19.69</time>
   <energy>
    <i name="e_fr_energy">   -186.86774935 </i>
    <i name="e_wo_entrp">   -186.52354505 </i>
    <i name="e_0_energy">   -186.69564720 </i>
   </energy>
  </scstep>
  <scstep>
   <time name="dav">   20.18   20.23</time>
   <time name="total">   20.21   20.27</time>
   <energy>
    <i name="alphaZ">     81.65567618 </i>
    <i name="ewald">  41890.23009657 </i>
    <i name="hartreedc"> -47832.97523726 </i>
    <i name="XCdc">   -231.60457489 </i>
    <i name="pawpsdc">   4192.11562801 </i>
    <i name="pawaedc">  -3610.12946796 </i>
    <i name="eentropy">     -0.34420946 </i>
    <i name="bandstr">  -1437.25827556 </i>
    <i name="atom">   6761.44252427 </i>
    <i name="e_fr_energy">   -186.86784011 </i>
    <i name="e_wo_entrp">   -186.52363065 </i>
    <i name="e_0_energy">   -186.69573538 </i>
   </energy>
  </scstep>
  <structure>
   <crystal>
    <varray name="basis" >
     <v>       8.66999996       5.03999989       0.00000000 </v>
     <v>      -8.66999982       5.04000013       0.00000000 </v>
     <v>       0.00000000       0.00000000      30.00000000 </v>
    </varray>
    <i name="volume">   2621.80797419 </i>
    <varray name="rec_basis" >
     <v>       0.05767013       0.09920635       0.00000000 </v>
     <v>      -0.05767013       0.09920635       0.00000000 </v>
     <v>       0.00000000       0.00000000       0.03333333 </v>
    </varray>
   </crystal>
   <varray name="positions" >
    <v>       1.00000000       0.33333334       0.00000000 </v>
    <v>       0.00000000       0.00000000       0.00000000 </v>
    <v>       0.66666669       0.66666669       0.00000000 </v>
    <v>       0.66666669       0.00000000       0.00000000 </v>
    <v>       0.00000000       0.66666669       0.00000000 </v>
    <v>       0.33333334       0.00000000       0.00000000 </v>
    <v>       0.33333334       0.33333334       0.00000000 </v>
    <v>       0.33333334       0.66666669       0.00000000 </v>
    <v>       0.66666669       0.33333334       0.00000000 </v>
    <v>       0.11068511       0.22244981       0.95539999 </v>
    <v>       0.22244981       0.11068511       0.04460000 </v>
    <v>       0.11068511       0.55578315       0.95539999 </v>
    <v>       0.22244981       0.44401845       0.04460000 </v>
    <v>       0.11068511       0.88911647       0.95539999 </v>
    <v>       0.22244981       0.77735180       0.04460000 </v>
    <v>       0.44401845       0.22244981       0.95539999 </v>
    <v>       0.55578315       0.11068511       0.04460000 </v>
    <v>       0.44401845       0.55578315       0.95539999 </v>
    <v>       0.55578315       0.44401845       0.04460000 </v>
    <v>       0.44401845       0.88911647       0.95539999 </v>
    <v>       0.55578315       0.77735180       0.04460000 </v>
    <v>       0.77735180       0.22244981       0.95539999 </v>
    <v>       0.88911647       0.11068511       0.04460000 </v>
    <v>       0.77735180       0.55578315       0.95539999 </v>
    <v>       0.88911647       0.44401845       0.04460000 </v>
    <v>       0.77735180       0.88911647       0.95539999 </v>
    <v>       0.88911647       0.77735180       0.04460000 </v>
   </varray>
  </structure>
  <varray name="forces" >
   <v>      -0.13170646      -0.16529361      -0.06641856 </v>
   <v>       0.13112459      -0.15831508       0.01947171 </v>
   <v>      -0.00418344       0.31384921       0.07696996 </v>
   <v>      -0.17757361      -0.10621396       0.03557729 </v>
   <v>      -0.03355948       0.29932684      -0.01899525 </v>
   <v>       0.24575113      -0.14359893      -0.01564537 </v>
   <v>       0.24083371      -0.23909396      -0.02128130 </v>
   <v>      -0.55112648       0.30179740      -0.12955221 </v>
   <v>       0.28458757      -0.11056968       0.10237059 </v>
   <v>      -0.25782812      -0.50960339      -1.43453344 </v>
   <v>      -0.61269844      -0.54060297       2.14940224 </v>
   <v>       0.64336345      -0.55851855      -2.16699014 </v>
   <v>      -0.45547818      -0.57198142       2.10852190 </v>
   <v>      -0.74139688       0.00437015      -2.11190556 </v>
   <v>       0.01986839       0.00502798       2.94118724 </v>
   <v>       0.05131897       0.10869077      -2.89359951 </v>
   <v>      -0.22841183       0.16216472       2.89883646 </v>
   <v>       0.45579936       0.56032241      -2.11985096 </v>
   <v>      -0.46934508       0.59483550       2.20090641 </v>
   <v>       0.21394701      -0.17341502      -2.93874628 </v>
   <v>       0.70210390      -0.14052335       2.11755361 </v>
   <v>       0.39051264       0.72165775      -2.19458660 </v>
   <v>       0.31874291       0.66300060       1.39726118 </v>
   <v>      -0.65981579      -0.13837936      -2.06444524 </v>
   <v>       0.63918954      -0.16026363       2.09978880 </v>
   <v>       0.89440716      -0.00131968      -1.46057175 </v>
   <v>      -0.90842651      -0.01735074       1.48927480 </v>
  </varray>
  <varray name="stress" >
   <v>       7.44386943       0.01328117      -1.61977123 </v>
   <v>       0.01328116       4.31452684      -0.01594499 </v>
   <v>      -1.61977128      -0.01594481      30.30394821 </v>
  </varray>
  <energy>
   <i name="e_fr_energy">   -186.86784011 </i>
   <i name="e_wo_entrp">   -186.69573538 </i>
   <i name="e_0_energy">     -0.34420946 </i>
  </energy>
  <time name="totalsc">  784.11  786.21</time>
 </calculation>
 <calculation>
  <scstep>
   <time name="dav">   21.86   21.92</time>
   <time name="total">   22.41   22.46</time>
   <energy>
    <i name="alphaZ">     78.92071355 </i>
    <i name="ewald">  39379.59129974 </i>
    <i name="hartreedc"> -45337.07343263 </i>
    <i name="XCdc">   -239.06177487 </i>
    <i name="pawpsdc">   4192.09687474 </i>
    <i name="pawaedc">  -3610.11084236 </i>
    <i name="eentropy">     -0.28386817 </i>
    <i name="bandstr">  -1413.02833956 </i>
    <i name="atom">   6761.44252427 </i>
    <i name="e_fr_energy">   -187.50684529 </i>
    <i name="e_wo_entrp">   -187.22297712 </i>
    <i name="e_0_energy">   -187.36491120 </i>
   </energy>
  </scstep>
  <scstep>
   <time name="dav">   30.42   30.50</time>
   <time name="total">   30.96   31.04</time>
   <energy>
    <i name="e_fr_energy">   -189.51399433 </i>
    <i name="e_wo_entrp">   -189.17891182 </i>
    <i name="e_0_energy">   -189.34645307 </i>
   </energy>
  </scstep>
  <scstep>
   <time name="dav">   30.70   30.77</time>
   <time name="total">   31.25   31.33</time>
   <energy>
    <i name="e_fr_energy">   -189.36319876 </i>
    <i name="e_wo_entrp">   -189.08450460 </i>
    <i name="e_0_energy">   -189.22385168 </i>
   </energy>
  </scstep>
  <scstep>
   <time name="dav">   30.69   30.77</time>
   <time name="total">   31.24   31.32</time>
   <energy>
    <i name="e_fr_energy">   -188.79155290 </i>
    <i name="e_wo_entrp">   -188.50793406 </i>
    <i name="e_0_energy">   -188.64974348 </i>
   </energy>
  </scstep>
  <scstep>
   <time name="dav">   28.23   28.29</time>
   <time name="total">   28.77   28.84</time>
   <energy>
    <i name="e_fr_energy">   -188.88641853 </i>
    <i name="e_wo_entrp">   -188.59516533 </i>
    <i name="e_0_energy">   -188.74079193 </i>
   </energy>
  </scstep>
  <scstep>
   <time name="dav">   31.12   31.19</time>
   <time name="total">   31.67   31.76</time>
   <energy>
    <i name="e_fr_energy">   -188.75864846 </i>
    <i name="e_wo_entrp">   -188.47079476 </i>
    <i name="e_0_energy">   -188.61472161 </i>
   </energy>
  </scstep>
  <scstep>
   <time name="dav">   26.76   26.82</time>
   <time name="total">   27.31   27.38</time>
   <energy>
    <i name="e_fr_energy">   -188.70469443 </i>
    <i name="e_wo_entrp">   -188.41967126 </i>
    <i name="e_0_energy">   -188.56218284 </i>
   </energy>
  </scstep>
  <scstep>
   <time name="dav">   31.82   31.89</time>
   <time name="total">   32.36   32.45</time>
   <energy>
    <i name="e_fr_energy">   -188.69614032 </i>
    <i name="e_wo_entrp">   -188.41253505 </i>
    <i name="e_0_energy">   -188.55433768 </i>
   </energy>
  </scstep>
  <scstep>
   <time name="dav">   29.65   29.72</time>
   <time name="total">   30.20   30.28</time>
   <energy>
    <i name="e_fr_energy">   -188.68108918 </i>
    <i name="e_wo_entrp">   -188.39727793 </i>
    <i name="e_0_energy">   -188.53918356 </i>
   </energy>
  </scstep>
  <scstep>
   <time name="dav">   30.89   30.97</time>
   <time name="total">   31.44   31.52</time>
   <energy>
    <i name="e_fr_energy">   -188.67744235 </i>
    <i name="e_wo_entrp">   -188.39380392 </i>
    <i name="e_0_energy">   -188.53562314 </i>
   </energy>
  </scstep>
  <scstep>
   <time name="dav">   31.60   31.68</time>
   <time name="total">   32.15   32.24</time>
   <energy>
    <i name="e_fr_energy">   -188.67674112 </i>
    <i name="e_wo_entrp">   -188.39391522 </i>
    <i name="e_0_energy">   -188.53532817 </i>
   </energy>
  </scstep>
  <scstep>
   <time name="dav">   29.95   30.02</time>
   <time name="total">   29.98   30.06</time>
   <energy>
    <i name="alphaZ">     78.92071355 </i>
    <i name="ewald">  39379.59129974 </i>
    <i name="hartreedc"> -45347.99165393 </i>
    <i name="XCdc">   -237.96992462 </i>
    <i name="pawpsdc">   3952.76291252 </i>
    <i name="pawaedc">  -3367.30131236 </i>
    <i name="eentropy">     -0.28264852 </i>
    <i name="bandstr">  -1407.84874915 </i>
    <i name="atom">   6761.44252427 </i>
    <i name="e_fr_energy">   -188.67683850 </i>
    <i name="e_wo_entrp">   -188.39418998 </i>
    <i name="e_0_energy">   -188.53551424 </i>
   </energy>
  </scstep>
  <structure>
   <crystal>
    <varray name="basis" >
     <v>       8.85889727       5.10391670       0.00000000 </v>
     <v>      -8.85850569       5.10324359       0.00000000 </v>
     <v>       0.00000000       0.00000000      30.00000000 </v>
    </varray>
    <i name="volume">   2712.66557674 </i>
    <varray name="rec_basis" >
     <v>       0.05643796       0.09796828       0.00000000 </v>
     <v>      -0.05644540       0.09797261       0.00000000 </v>
     <v>       0.00000000       0.00000000       0.03333333 </v>
    </varray>
   </crystal>
   <varray name="positions" >
    <v>       0.99884248       0.33290868      -0.00010681 </v>
    <v>      -0.00039288      -0.00112250       0.00003131 </v>
    <v>       0.66815712       0.66818040       0.00012377 </v>
    <v>       0.66566431      -0.00001430       0.00005721 </v>
    <v>       0.00133920       0.66819263      -0.00003055 </v>
    <v>       0.33332980      -0.00137098      -0.00002516 </v>
    <v>       0.33285908       0.33151901      -0.00003422 </v>
    <v>       0.33324442       0.66964440      -0.00020833 </v>
    <v>       0.66692927       0.33201239       0.00016462 </v>
    <v>       0.10752884       0.22072818       0.95309313 </v>
    <v>       0.21815787       0.10980242       0.04805643 </v>
    <v>       0.10980199       0.55132016       0.95191528 </v>
    <v>       0.21844511       0.44254818       0.04799069 </v>
    <v>       0.10864334       0.89120007       0.95200386 </v>
    <v>       0.22252915       0.77732058       0.04932969 </v>
    <v>       0.44468142       0.22282722       0.95074683 </v>
    <v>       0.55592379       0.11209671       0.04926158 </v>
    <v>       0.44796825       0.55719674       0.95199108 </v>
    <v>       0.55732423       0.44817112       0.04813925 </v>
    <v>       0.44378373       0.88769127       0.95067423 </v>
    <v>       0.55706398       0.77472589       0.04800521 </v>
    <v>       0.78189210       0.22481718       0.95187090 </v>
    <v>       0.89317637       0.11297142       0.04684692 </v>
    <v>       0.77485380       0.55695659       0.95208018 </v>
    <v>       0.89012778       0.44147311       0.04797664 </v>
    <v>       0.77983386       0.88662177       0.95305126 </v>
    <v>       0.88650604       0.77979614       0.04699488 </v>
   </varray>
  </structure>
  <varray name="forces" >
   <v>      -0.15057911      -0.14216475       0.07258916 </v>
   <v>       0.12761200      -0.11053831       0.00549446 </v>
   <v>       0.03107995       0.21129486      -0.05515598 </v>
   <v>      -0.42537622      -0.23858797       0.08267437 </v>
   <v>       0.13332006       0.38418115      -0.08626971 </v>
   <v>       0.40589742      -0.10121716      -0.01252923 </v>
   <v>       0.33637301      -0.11342744       0.01253755 </v>
   <v>      -0.64402201       0.34259415      -0.02878834 </v>
   <v>       0.18377270      -0.23771557       0.03631313 </v>
   <v>       0.06160107       0.05910029       0.10059828 </v>
   <v>      -0.07440051       0.04755019      -0.02191655 </v>
   <v>       0.08544276       0.05662067      -0.01307296 </v>
   <v>       0.05573118       0.06663396      -0.29060096 </v>
   <v>      -0.07102010      -0.00303247      -0.08453735 </v>
   <v>       0.13436099       0.00951251       0.22413517 </v>
   <v>      -0.05584545       0.08789717      -0.00562386 </v>
   <v>      -0.06914937       0.10312410       0.18092313 </v>
   <v>      -0.05807244      -0.06871993       0.25063217 </v>
   <v>       0.06170849      -0.05379944      -0.10401045 </v>
   <v>       0.04321444      -0.11139761      -0.28444996 </v>
   <v>      -0.02600430      -0.11493212      -0.01002085 </v>
   <v>      -0.09340663       0.06246343      -0.05680559 </v>
   <v>       0.00913778       0.03345575      -0.14872849 </v>
   <v>       0.02662111      -0.10478736       0.15001752 </v>
   <v>      -0.01657217      -0.09920662      -0.03132186 </v>
   <v>       0.02838467       0.01835247       0.10068085 </v>
   <v>      -0.03980931       0.01674605       0.01723635 </v>
  </varray>
  <varray name="stress" >
   <v>     -19.98942127      -0.00554842       0.07029184 </v>
   <v>      -0.00554856     -19.53835826       0.01011908 </v>
   <v>       0.07029172       0.01011886      -1.74865275 </v>
  </varray>
  <energy>
   <i name="e_fr_energy">   -188.67683850 </i>
   <i name="e_wo_entrp">   -188.53551424 </i>
   <i name="e_0_energy">     -0.28264852 </i>
  </energy>
  <time name="totalsc">  402.14  403.20</time>
 </calculation>
 <calculation>
  <scstep>
   <time name="dav">   23.84   23.89</time>
   <time name="total">   24.37   24.43</time>
   <energy>
    <i name="alphaZ">     82.35576270 </i>
    <i name="ewald">  41308.80099469 </i>
    <i name="hartreedc"> -47307.85065054 </i>
    <i name="XCdc">   -233.83878295 </i>
    <i name="pawpsdc">   3950.50136543 </i>
    <i name="pawaedc">  -3365.01353202 </i>
    <i name="eentropy">     -0.23715245 </i>
    <i name="bandstr">  -1386.76792829 </i>
    <i name="atom">   6761.44252427 </i>
    <i name="e_fr_energy">   -190.60739915 </i>
    <i name="e_wo_entrp">   -190.37024671 </i>
    <i name="e_0_energy">   -190.48882293 </i>
   </energy>
  </scstep>
  <scstep>
   <time name="dav">   27.95   28.02</time>
   <time name="total">   28.47   28.55</time>
   <energy>
    <i name="e_fr_energy">   -190.56699877 </i>
    <i name="e_wo_entrp">   -190.32369428 </i>
    <i name="e_0_energy">   -190.44534652 </i>
   </energy>
  </scstep>
  <scstep>
   <time name="dav">   30.45   30.52</time>
   <time name="total">   30.98   31.06</time>
   <energy>
    <i name="e_fr_energy">   -190.08800270 </i>
    <i name="e_wo_entrp">   -189.83704324 </i>
    <i name="e_0_energy">   -189.96252297 </i>
   </energy>
  </scstep>
  <scstep>
   <time name="dav">   31.12   31.20</time>
   <time name="total">   31.66   31.74</time>
   <energy>
    <i name="e_fr_energy">   -189.88073459 </i>
    <i name="e_wo_entrp">   -189.64169815 </i>
    <i name="e_0_energy">   -189.76121637 </i>
   </energy>
  </scstep>
  <scstep>
   <time name="dav">   30.27   30.35</time>
   <time name="total">   30.80   30.88</time>
   <energy>
    <i name="e_fr_energy">   -189.92010829 </i>
    <i name="e_wo_entrp">   -189.67351377 </i>
    <i name="e_0_energy">   -189.79681103 </i>
   </energy>
  </scstep>
  <scstep>
   <time name="dav">   30.33   30.41</time>
   <time name="total">   30.86   30.95</time>
   <energy>
    <i name="e_fr_energy">   -189.77565685 </i>
    <i name="e_wo_entrp">   -189.53548617 </i>
    <i name="e_0_energy">   -189.65557151 </i>
   </energy>
  </scstep>
  <scstep>
   <time name="dav">   30.91   30.98</time>
   <time name="total">   31.44   31.52</time>
   <energy>
    <i name="e_fr_energy">   -189.76947166 </i>
    <i name="e_wo_entrp">   -189.52931701 </i>
    <i name="e_0_energy">   -189.64939434 </i>
   </energy>
  </scstep>
  <scstep>
   <time name="dav">   29.03   29.10</time>
   <time name="total">   29.56   29.64</time>
   <energy>
    <i name="e_fr_energy">   -189.77049936 </i>
    <i name="e_wo_entrp">   -189.53029793 </i>
    <i name="e_0_energy">   -189.65039864 </i>
   </energy>
  </scstep>
  <scstep>
   <time name="dav">   27.94   28.01</time>
   <time name="total">   28.47   28.55</time>
   <energy>
    <i name="e_fr_energy">   -189.76928397 </i>
    <i name="e_wo_entrp">   -189.52914312 </i>
    <i name="e_0_energy">   -189.64921355 </i>
   </energy>
  </scstep>
  <scstep>
   <time name="dav">   26.05   26.11</time>
   <time name="total">   26.58   26.65</time>
   <energy>
    <i name="e_fr_energy">   -189.76957140 </i>
    <i name="e_wo_entrp">   -189.52931395 </i>
    <i name="e_0_energy">   -189.64944267 </i>
   </energy>
  </scstep>
  <scstep>
   <time name="dav">   23.34   23.39</time>
   <time name="total">   23.87   23.93</time>
   <energy>
    <i name="e_fr_energy">   -189.76935550 </i>
    <i name="e_wo_entrp">   -189.52911696 </i>
    <i name="e_0_energy">   -189.64923623 </i>
   </energy>
  </scstep>
  <scstep>
   <time name="dav">   19.57   19.62</time>
   <time name="total">   19.61   19.66</time>
   <energy>
    <i name="alphaZ">     82.35576270 </i>
    <i name="ewald">  41308.80099469 </i>
    <i name="hartreedc"> -47281.09793276 </i>
    <i name="XCdc">   -235.23624707 </i>
    <i name="pawpsdc">   4039.07246886 </i>
    <i name="pawaedc">  -3454.78270667 </i>
    <i name="eentropy">     -0.24022736 </i>
    <i name="bandstr">  -1410.08401445 </i>
    <i name="atom">   6761.44252427 </i>
    <i name="e_fr_energy">   -189.76937779 </i>
    <i name="e_wo_entrp">   -189.52915043 </i>
    <i name="e_0_energy">   -189.64926411 </i>
   </energy>
  </scstep>
  <structure>
   <crystal>
    <varray name="basis" >
     <v>       8.67001709       4.99751644       0.00000000 </v>
     <v>      -8.66969426       4.99696219       0.00000000 </v>
     <v>       0.00000000       0.00000000      30.00000000 </v>
    </varray>
    <i name="volume">   2599.52061543 </i>
    <varray name="rec_basis" >
     <v>       0.05766789       0.10005338       0.00000000 </v>
     <v>      -0.05767429       0.10005711       0.00000000 </v>
     <v>       0.00000000       0.00000000       0.03333333 </v>
    </varray>
   </crystal>
   <varray name="positions" >
    <v>       0.99846109       0.33281636      -0.00006566 </v>
    <v>      -0.00045457      -0.00142918       0.00003443 </v>
    <v>       0.66853899       0.66850262       0.00009251 </v>
    <v>       0.66485852      -0.00000349       0.00010408 </v>
    <v>       0.00210725       0.66870476      -0.00007945 </v>
    <v>       0.33355075      -0.00192926      -0.00003226 </v>
    <v>       0.33299296       0.33100712      -0.00002711 </v>
    <v>       0.33319707       0.67083345      -0.00022465 </v>
    <v>       0.66670960       0.33143991       0.00018521 </v>
    <v>       0.10768643       0.22076752       0.95315016 </v>
    <v>       0.21816568       0.10995307       0.04804400 </v>
    <v>       0.10997834       0.55133248       0.95190787 </v>
    <v>       0.21860962       0.44260570       0.04782595 </v>
    <v>       0.10857012       0.89126319       0.95195594 </v>
    <v>       0.22267396       0.77720745       0.04945675 </v>
    <v>       0.44477427       0.22302728       0.95074364 </v>
    <v>       0.55602924       0.11233491       0.04936415 </v>
    <v>       0.44779802       0.55713798       0.95213316 </v>
    <v>       0.55729382       0.44802224       0.04808029 </v>
    <v>       0.44363961       0.88746418       0.95051298 </v>
    <v>       0.55684753       0.77455936       0.04799953 </v>
    <v>       0.78190652       0.22501092       0.95183870 </v>
    <v>       0.89324088       0.11301839       0.04676261 </v>
    <v>       0.77470477       0.55675644       0.95216522 </v>
    <v>       0.88994658       0.44132372       0.04795889 </v>
    <v>       0.77989169       0.88662510       0.95310834 </v>
    <v>       0.88649573       0.77986226       0.04700466 </v>
   </varray>
  </structure>
  <varray name="forces" >
   <v>      -0.17306827      -0.12733448       0.08571254 </v>
   <v>       0.13314411      -0.07839959       0.00074795 </v>
   <v>       0.04382004       0.14209582      -0.07443742 </v>
   <v>      -0.49692220      -0.28182163       0.06528529 </v>
   <v>       0.18499671       0.38486789      -0.07868922 </v>
   <v>       0.45369313      -0.06776437      -0.00667966 </v>
   <v>       0.36554604      -0.05957568       0.01993063 </v>
   <v>      -0.64951812       0.34600437       0.00511716 </v>
   <v>       0.13721363      -0.28081112       0.00541548 </v>
   <v>      -0.01501416      -0.08344678      -0.35963552 </v>
   <v>      -0.05431722      -0.09617691       0.47961746 </v>
   <v>       0.08902432      -0.07020242      -0.52245069 </v>
   <v>      -0.01970814      -0.02992385       0.17889813 </v>
   <v>      -0.14970338       0.01104757      -0.58065385 </v>
   <v>       0.04951474       0.00988580       0.80042813 </v>
   <v>       0.00080183       0.02349146      -0.56847743 </v>
   <v>      -0.03596547       0.02660774       0.75485008 </v>
   <v>      -0.00049200       0.05325846      -0.22425957 </v>
   <v>      -0.00605017       0.08185940       0.40772690 </v>
   <v>       0.00196858      -0.02518263      -0.87705842 </v>
   <v>       0.07961729      -0.05657113       0.48330035 </v>
   <v>       0.02527238       0.11241814      -0.56128041 </v>
   <v>       0.04681479       0.08384788       0.28798659 </v>
   <v>      -0.07165545      -0.04133194      -0.32017107 </v>
   <v>       0.08443896      -0.01891089       0.45933826 </v>
   <v>       0.08342742       0.02249121      -0.33282282 </v>
   <v>      -0.10687939       0.01957767       0.47226110 </v>
  </varray>
  <varray name="stress" >
   <v>     -10.15759067       0.00290452       0.07215717 </v>
   <v>       0.00290468      -9.76229754       0.00833896 </v>
   <v>       0.07215739       0.00833887       6.51489631 </v>
  </varray>
  <energy>
   <i name="e_fr_energy">   -189.76937779 </i>
   <i name="e_wo_entrp">   -189.64926411 </i>
   <i name="e_0_energy">     -0.24022736 </i>
  </energy>
  <time name="totalsc">  379.01  380.02</time>
 </calculation>
 <calculation>
  <scstep>
   <time name="dav">   21.86   21.91</time>
   <time name="total">   22.38   22.44</time>
   <energy>
    <i name="alphaZ">     85.79577993 </i>
    <i name="ewald">  42819.73474986 </i>
    <i name="hartreedc"> -48836.15642258 </i>
    <i name="XCdc">   -232.99004424 </i>
    <i name="pawpsdc">   4039.15522422 </i>
    <i name="pawaedc">  -3454.86308555 </i>
    <i name="eentropy">     -0.20402940 </i>
    <i name="bandstr">  -1373.22901525 </i>
    <i name="atom">   6761.44252427 </i>
    <i name="e_fr_energy">   -191.31431875 </i>
    <i name="e_wo_entrp">   -191.11028934 </i>
    <i name="e_0_energy">   -191.21230405 </i>
   </energy>
  </scstep>
  <scstep>
   <time name="dav">   32.25   32.32</time>
   <time name="total">   32.76   32.84</time>
   <energy>
    <i name="e_fr_energy">   -191.16483356 </i>
    <i name="e_wo_entrp">   -190.95532490 </i>
    <i name="e_0_energy">   -191.06007923 </i>
   </energy>
  </scstep>
  <scstep>
   <time name="dav">   30.30   30.38</time>
   <time name="total">   30.81   30.89</time>
   <energy>
    <i name="e_fr_energy">   -191.26914737 </i>
    <i name="e_wo_entrp">   -191.04775860 </i>
    <i name="e_0_energy">   -191.15845298 </i>
   </energy>
  </scstep>
  <scstep>
   <time name="dav">   31.87   31.95</time>
   <time name="total">   32.39   32.48</time>
   <energy>
    <i name="e_fr_energy">   -190.87325768 </i>
    <i name="e_wo_entrp">   -190.66585014 </i>
    <i name="e_0_energy">   -190.76955391 </i>
   </energy>
  </scstep>
  <scstep>
   <time name="dav">   30.37   30.44</time>
   <time name="total">   30.88   30.97</time>
   <energy>
    <i name="e_fr_energy">   -190.78965371 </i>
    <i name="e_wo_entrp">   -190.57894783 </i>
    <i name="e_0_energy">   -190.68430077 </i>
   </energy>
  </scstep>
  <scstep>
   <time name="dav">   31.13   31.21</time>
   <time name="total">   31.65   31.73</time>
   <energy>
    <i name="e_fr_energy">   -190.77217031 </i>
    <i name="e_wo_entrp">   -190.56123885 </i>
    <i name="e_0_energy">   -190.66670458 </i>
   </energy>
  </scstep>
  <scstep>
   <time name="dav">   29.36   29.43</time>
   <time name="total">   29.88   29.96</time>
   <energy>
    <i name="e_fr_energy">   -190.75109102 </i>
    <i name="e_wo_entrp">   -190.54098785 </i>
    <i name="e_0_energy">   -190.64603944 </i>
   </energy>
  </scstep>
  <scstep>
   <time name="dav">   28.92   28.99</time>
   <time name="total">   29.44   29.52</time>
   <energy>
    <i name="e_fr_energy">   -190.74800078 </i>
    <i name="e_wo_entrp">   -190.53789973 </i>
    <i name="e_0_energy">   -190.64295025 </i>
   </energy>
  </scstep>
  <scstep>
   <time name="dav">   28.70   28.77</time>
   <time name="total">   29.21   29.29</time>
   <energy>
    <i name="e_fr_energy">   -190.74740300 </i>
    <i name="e_wo_entrp">   -190.53735542 </i>
    <i name="e_0_energy">   -190.64237921 </i>
   </energy>
  </scstep>
  <scstep>
   <time name="dav">   28.12   28.18</time>
   <time name="total">   28.63   28.71</time>
   <energy>
    <i name="e_fr_energy">   -190.74751789 </i>
    <i name="e_wo_entrp">   -190.53719585 </i>
    <i name="e_0_energy">   -190.64235687 </i>
   </energy>
  </scstep>
  <scstep>
   <time name="dav">   25.76   25.82</time>
   <time name="total">   26.27   26.34</time>
   <energy>
    <i name="e_fr_energy">   -190.74730400 </i>
    <i name="e_wo_entrp">   -190.53723946 </i>
    <i name="e_0_energy">   -190.64227173 </i>
   </energy>
  </scstep>
  <scstep>
   <time name="dav">   20.23   20.28</time>
   <time name="total">   20.27   20.32</time>
   <energy>
    <i name="alphaZ">     85.79577993 </i>
    <i name="ewald">  42819.73474986 </i>
    <i name="hartreedc"> -48807.83864051 </i>
    <i name="XCdc">   -234.30458671 </i>
    <i name="pawpsdc">   4063.19304976 </i>
    <i name="pawaedc">  -3479.07346390 </i>
    <i name="eentropy">     -0.21008490 </i>
    <i name="bandstr">  -1399.48662712 </i>
    <i name="atom">   6761.44252427 </i>
    <i name="e_fr_energy">   -190.74729932 </i>
    <i name="e_wo_entrp">   -190.53721442 </i>
    <i name="e_0_energy">   -190.64225687 </i>
   </energy>
  </scstep>
  <structure>
   <crystal>
    <varray name="basis" >
     <v>       8.48879670       4.89983091       0.00000000 </v>
     <v>      -8.48823691       4.89886470       0.00000000 </v>
     <v>       0.00000000       0.00000000      30.00000000 </v>
    </varray>
    <i name="volume">   2495.29176264 </i>
    <varray name="rec_basis" >
     <v>       0.05889730       0.10205104       0.00000000 </v>
     <v>      -0.05890891       0.10205777       0.00000000 </v>
     <v>       0.00000000       0.00000000       0.03333333 </v>
    </varray>
   </crystal>
   <varray name="positions" >
    <v>       0.99704540       0.33271271       0.00012247 </v>
    <v>      -0.00037752      -0.00232802       0.00003198 </v>
    <v>       0.66943273       0.66904410      -0.00007750 </v>
    <v>       0.66109564       0.00002071       0.00022433 </v>
    <v>       0.00525650       0.67037287      -0.00023565 </v>
    <v>       0.33491344      -0.00397435      -0.00004114 </v>
    <v>       0.33411297       0.32940804       0.00002028 </v>
    <v>       0.33301985       0.67535570      -0.00018556 </v>
    <v>       0.66527525       0.32914866       0.00017041 </v>
    <v>       0.10664892       0.22005647       0.95202002 </v>
    <v>       0.21704165       0.10916347       0.04945677 </v>
    <v>       0.10955183       0.55025378       0.95040001 </v>
    <v>       0.21800528       0.44235835       0.04859047 </v>
    <v>       0.10802223       0.89201895       0.95033898 </v>
    <v>       0.22279439       0.77721252       0.05159520 </v>
    <v>       0.44484553       0.22293140       0.94909571 </v>
    <v>       0.55592407       0.11239457       0.05140644 </v>
    <v>       0.44851287       0.55769239       0.95127039 </v>
    <v>       0.55802283       0.44898792       0.04935311 </v>
    <v>       0.44364360       0.88757147       0.94820248 </v>
    <v>       0.55707548       0.77391231       0.04941300 </v>
    <v>       0.78299322       0.22557735       0.95025474 </v>
    <v>       0.89411228       0.11344491       0.04772493 </v>
    <v>       0.77420484       0.55705316       0.95110825 </v>
    <v>       0.89047510       0.44095562       0.04932061 </v>
    <v>       0.78042175       0.88639678       0.95205608 </v>
    <v>       0.88614431       0.78047261       0.04836310 </v>
   </varray>
  </structure>
  <varray name="forces" >
   <v>      -0.19556573      -0.14260885       0.08127889 </v>
   <v>       0.11317900      -0.03538506      -0.00623088 </v>
   <v>       0.07126362       0.07259337      -0.08062333 </v>
   <v>      -0.52954960      -0.28176013       0.00488183 </v>
   <v>       0.20638642       0.39460449      -0.04085948 </v>
   <v>       0.46724941      -0.00979150       0.00601326 </v>
   <v>       0.43398133      -0.05487375       0.03608749 </v>
   <v>      -0.65268596       0.34965561       0.02662050 </v>
   <v>       0.10149920      -0.34134264      -0.02908138 </v>
   <v>       0.01773002      -0.04977583      -0.23456081 </v>
   <v>       0.05388935      -0.06972318       0.31145248 </v>
   <v>       0.04002364       0.01554747      -0.38114263 </v>
   <v>      -0.02082872       0.05826016      -0.00562629 </v>
   <v>      -0.01878248       0.03923383      -0.40145166 </v>
   <v>      -0.03894491       0.02734668       0.61116788 </v>
   <v>       0.08013533      -0.05019623      -0.41443502 </v>
   <v>      -0.03133265      -0.03532878       0.59495253 </v>
   <v>      -0.06105161       0.00777892      -0.06882054 </v>
   <v>       0.02985323       0.06173158       0.31069784 </v>
   <v>      -0.02164244       0.01778073      -0.69719927 </v>
   <v>      -0.03885264      -0.01096348       0.30964627 </v>
   <v>       0.02732505      -0.00731708      -0.37812079 </v>
   <v>      -0.01991956      -0.05517035       0.19271165 </v>
   <v>       0.04973953       0.02022898      -0.15083990 </v>
   <v>      -0.01676915       0.01455015       0.26143983 </v>
   <v>      -0.04897521       0.02805419      -0.21660174 </v>
   <v>       0.00264552       0.03687068       0.35864327 </v>
  </varray>
  <varray name="stress" >
   <v>      -5.70780107      -0.00116472      -0.14277088 </v>
   <v>      -0.00116473      -5.93395951       0.00000081 </v>
   <v>      -0.14277072       0.00000090       4.43533129 </v>
  </varray>
  <energy>
   <i name="e_fr_energy">   -190.74729932 </i>
   <i name="e_wo_entrp">   -190.64225687 </i>
   <i name="e_0_energy">     -0.21008490 </i>
  </energy>
  <time name="totalsc">  386.93  387.95</time>
 </calculation>
 <calculation>
  <scstep>
   <time name="dav">   21.84   21.89</time>
   <time name="total">   22.35   22.40</time>
   <energy>
    <i name="alphaZ">     90.21170703 </i>
    <i name="ewald">  44689.78954460 </i>
    <i name="hartreedc"> -50733.51028380 </i>
    <i name="XCdc">   -231.76816428 </i>
    <i name="pawpsdc">   4063.17316038 </i>
    <i name="pawaedc">  -3479.04837506 </i>
    <i name="eentropy">     -0.19637987 </i>
    <i name="bandstr">  -1352.25095072 </i>
    <i name="atom">   6761.44252427 </i>
    <i name="e_fr_energy">   -192.15721745 </i>
    <i name="e_wo_entrp">   -191.96083758 </i>
    <i name="e_0_energy">   -192.05902752 </i>
   </energy>
  </scstep>
  <scstep>
   <time name="dav">   28.36   28.42</time>
   <time name="total">   28.86   28.94</time>
   <energy>
    <i name="e_fr_energy">   -191.86581263 </i>
    <i name="e_wo_entrp">   -191.66272377 </i>
    <i name="e_0_energy">   -191.76426820 </i>
   </energy>
  </scstep>
  <scstep>
   <time name="dav">   29.93   30.00</time>
   <time name="total">   30.44   30.52</time>
   <energy>
    <i name="e_fr_energy">   -192.01120449 </i>
    <i name="e_wo_entrp">   -191.80771842 </i>
    <i name="e_0_energy">   -191.90946145 </i>
   </energy>
  </scstep>
  <scstep>
   <time name="dav">   28.67   28.74</time>
   <time name="total">   29.17   29.25</time>
   <energy>
    <i name="e_fr_energy">   -191.75303508 </i>
    <i name="e_wo_entrp">   -191.55275003 </i>
    <i name="e_0_energy">   -191.65289255 </i>
   </energy>
  </scstep>
  <scstep>
   <time name="dav">   30.33   30.41</time>
   <time name="total">   30.84   30.92</time>
   <energy>
    <i name="e_fr_energy">   -191.58709402 </i>
    <i name="e_wo_entrp">   -191.38343812 </i>
    <i name="e_0_energy">   -191.48526607 </i>
   </energy>
  </scstep>
  <scstep>
   <time name="dav">   30.23   30.30</time>
   <time name="total">   30.73   30.82</time>
   <energy>
    <i name="e_fr_energy">   -191.43611006 </i>
    <i name="e_wo_entrp">   -191.23044848 </i>
    <i name="e_0_energy">   -191.33327927 </i>
   </energy>
  </scstep>
  <scstep>
   <time name="dav">   30.46   30.53</time>
   <time name="total">   30.96   31.05</time>
   <energy>
    <i name="e_fr_energy">   -191.42787929 </i>
    <i name="e_wo_entrp">   -191.22396273 </i>
    <i name="e_0_energy">   -191.32592101 </i>
   </energy>
  </scstep>
  <scstep>
   <time name="dav">   29.90   29.98</time>
   <time name="total">   30.41   30.49</time>
   <energy>
    <i name="e_fr_energy">   -191.42605371 </i>
    <i name="e_wo_entrp">   -191.22132799 </i>
    <i name="e_0_energy">   -191.32369085 </i>
   </energy>
  </scstep>
  <scstep>
   <time name="dav">   30.67   30.74</time>
   <time name="total">   31.17   31.26</time>
   <energy>
    <i name="e_fr_energy">   -191.41949059 </i>
    <i name="e_wo_entrp">   -191.21476108 </i>
    <i name="e_0_energy">   -191.31712584 </i>
   </energy>
  </scstep>
  <scstep>
   <time name="dav">   28.20   28.27</time>
   <time name="total">   28.71   28.79</time>
   <energy>
    <i name="e_fr_energy">   -191.41978141 </i>
    <i name="e_wo_entrp">   -191.21478369 </i>
    <i name="e_0_energy">   -191.31728255 </i>
   </energy>
  </scstep>
  <scstep>
   <time name="dav">   28.18   28.24</time>
   <time name="total">   28.68   28.76</time>
   <energy>
    <i name="e_fr_energy">   -191.41963620 </i>
    <i name="e_wo_entrp">   -191.21478136 </i>
    <i name="e_0_energy">   -191.31720878 </i>
   </energy>
  </scstep>
  <scstep>
   <time name="dav">   19.57   19.61</time>
   <time name="total">   19.60   19.66</time>
   <energy>
    <i name="alphaZ">     90.21170703 </i>
    <i name="ewald">  44689.78954460 </i>
    <i name="hartreedc"> -50699.20990812 </i>
    <i name="XCdc">   -233.31663701 </i>
    <i name="pawpsdc">   4087.57328710 </i>
    <i name="pawaedc">  -3503.57683487 </i>
    <i name="eentropy">     -0.20493525 </i>
    <i name="bandstr">  -1384.12836548 </i>
    <i name="atom">   6761.44252427 </i>
    <i name="e_fr_energy">   -191.41961774 </i>
    <i name="e_wo_entrp">   -191.21468248 </i>
    <i name="e_0_energy">   -191.31715011 </i>
   </energy>
  </scstep>
  <structure>
   <crystal>
    <varray name="basis" >
     <v>       8.28340173       4.77566130       0.00000000 </v>
     <v>      -8.28274143       4.77452166       0.00000000 </v>
     <v>       0.00000000       0.00000000      30.00000000 </v>
    </varray>
    <i name="volume">   2373.14545966 </i>
    <varray name="rec_basis" >
     <v>       0.06035688       0.10470586       0.00000000 </v>
     <v>      -0.06037128       0.10471421       0.00000000 </v>
     <v>       0.00000000       0.00000000       0.03333333 </v>
    </varray>
   </crystal>
   <varray name="positions" >
    <v>       0.99395754       0.33243072       0.00046316 </v>
    <v>       0.00003953      -0.00357317       0.00000610 </v>
    <v>       0.67074192       0.66935260      -0.00041594 </v>
    <v>       0.65366512       0.00027719       0.00025901 </v>
    <v>       0.01162139       0.67367997      -0.00041200 </v>
    <v>       0.33817337      -0.00747568      -0.00001809 </v>
    <v>       0.33664633       0.32581850       0.00016345 </v>
    <v>       0.33268556       0.68429389      -0.00005728 </v>
    <v>       0.66173353       0.32425228       0.00004211 </v>
    <v>       0.10554039       0.21901211       0.95056497 </v>
    <v>       0.21604069       0.10753824       0.05128298 </v>
    <v>       0.10957380       0.54960244       0.94830129 </v>
    <v>       0.21802707       0.44292286       0.04912417 </v>
    <v>       0.10810987       0.89288327       0.94815173 </v>
    <v>       0.22277073       0.77785282       0.05470599 </v>
    <v>       0.44475209       0.22166534       0.94680469 </v>
    <v>       0.55520109       0.11201528       0.05443438 </v>
    <v>       0.44875359       0.55849332       0.95044871 </v>
    <v>       0.55926951       0.45010364       0.05114846 </v>
    <v>       0.44383918       0.88816533       0.94473619 </v>
    <v>       0.55704469       0.77385734       0.05122688 </v>
    <v>       0.78363279       0.22544095       0.94815067 </v>
    <v>       0.89379362       0.11315682       0.04897359 </v>
    <v>       0.77460801       0.55730738       0.94995528 </v>
    <v>       0.89097347       0.44116473       0.05095170 </v>
    <v>       0.78063926       0.88687429       0.95070374 </v>
    <v>       0.88638030       0.78110201       0.05030395 </v>
   </varray>
  </structure>
  <varray name="forces" >
   <v>      -0.24507437      -0.19579266       0.02496827 </v>
   <v>       0.07310686      -0.00959761      -0.02547200 </v>
   <v>       0.10312842       0.03841241      -0.01735953 </v>
   <v>      -0.24381256      -0.02076902      -0.04605302 </v>
   <v>       0.08764473       0.30024071       0.02024866 </v>
   <v>      -0.01556607       0.09390647       0.02692357 </v>
   <v>       0.53365379      -0.06292315       0.05606131 </v>
   <v>      -0.26095048       0.13349774      -0.04053127 </v>
   <v>       0.02707235      -0.38043257       0.04348116 </v>
   <v>       0.04016189       0.02417907       0.06094416 </v>
   <v>       0.16372146      -0.01606564       0.07936852 </v>
   <v>       0.01496864       0.12362947      -0.07685434 </v>
   <v>       0.01223495       0.20737673      -0.32183814 </v>
   <v>       0.13733391       0.08807840      -0.07372658 </v>
   <v>      -0.10453419       0.06846122       0.30270031 </v>
   <v>       0.13951944      -0.11064306      -0.24370144 </v>
   <v>      -0.03897431      -0.06375115       0.26284238 </v>
   <v>      -0.17841577      -0.08217033       0.22925527 </v>
   <v>       0.10016739       0.02726864       0.07778419 </v>
   <v>      -0.03826527       0.03413159      -0.31097426 </v>
   <v>      -0.17427806       0.00417685      -0.01096489 </v>
   <v>      -0.02454848      -0.10154294      -0.12689227 </v>
   <v>      -0.10377349      -0.20759229      -0.03963287 </v>
   <v>       0.21659378       0.06117944       0.11504344 </v>
   <v>      -0.13951270       0.00149884      -0.06227033 </v>
   <v>      -0.17579013       0.01796524       0.05615294 </v>
   <v>       0.09418825       0.02727760       0.04049677 </v>
  </varray>
  <varray name="stress" >
   <v>       0.61643562       0.08954764      -0.35392718 </v>
   <v>       0.08954747       0.12155516      -0.01772477 </v>
   <v>      -0.35392709      -0.01772502      -0.32010623 </v>
  </varray>
  <energy>
   <i name="e_fr_energy">   -191.41961774 </i>
   <i name="e_wo_entrp">   -191.31715011 </i>
   <i name="e_0_energy">     -0.20493525 </i>
  </energy>
  <time name="totalsc">  384.12  385.14</time>
 </calculation>
 <calculation>
  <scstep>
   <time name="dav">   21.81   21.86</time>
   <time name="total">   22.32   22.37</time>
   <energy>
    <i name="alphaZ">     89.93980389 </i>
    <i name="ewald">  44549.83020408 </i>
    <i name="hartreedc"> -50556.92673406 </i>
    <i name="XCdc">   -233.57283195 </i>
    <i name="pawpsdc">   4087.50097910 </i>
    <i name="pawaedc">  -3503.50010870 </i>
    <i name="eentropy">     -0.20891679 </i>
    <i name="bandstr">  -1385.98878550 </i>
    <i name="atom">   6761.44252427 </i>
    <i name="e_fr_energy">   -191.48386566 </i>
    <i name="e_wo_entrp">   -191.27494887 </i>
    <i name="e_0_energy">   -191.37940727 </i>
   </energy>
  </scstep>
  <scstep>
   <time name="dav">   31.83   31.90</time>
   <time name="total">   32.33   32.42</time>
   <energy>
    <i name="e_fr_energy">   -191.54667707 </i>
    <i name="e_wo_entrp">   -191.33324978 </i>
    <i name="e_0_energy">   -191.43996343 </i>
   </energy>
  </scstep>
  <scstep>
   <time name="dav">   30.63   30.70</time>
   <time name="total">   31.13   31.22</time>
   <energy>
    <i name="e_fr_energy">   -191.49342162 </i>
    <i name="e_wo_entrp">   -191.28382290 </i>
    <i name="e_0_energy">   -191.38862226 </i>
   </energy>
  </scstep>
  <scstep>
   <time name="dav">   28.06   28.13</time>
   <time name="total">   28.56   28.64</time>
   <energy>
    <i name="e_fr_energy">   -191.49594889 </i>
    <i name="e_wo_entrp">   -191.28665084 </i>
    <i name="e_0_energy">   -191.39129986 </i>
   </energy>
  </scstep>
  <scstep>
   <time name="dav">   28.27   28.34</time>
   <time name="total">   28.78   28.86</time>
   <energy>
    <i name="e_fr_energy">   -191.49073820 </i>
    <i name="e_wo_entrp">   -191.28077215 </i>
    <i name="e_0_energy">   -191.38575518 </i>
   </energy>
  </scstep>
  <scstep>
   <time name="dav">   27.57   27.63</time>
   <time name="total">   28.09   28.16</time>
   <energy>
    <i name="e_fr_energy">   -191.49044843 </i>
    <i name="e_wo_entrp">   -191.28061382 </i>
    <i name="e_0_energy">   -191.38553113 </i>
   </energy>
  </scstep>
  <scstep>
   <time name="dav">   28.73   28.80</time>
   <time name="total">   29.23   29.31</time>
   <energy>
    <i name="e_fr_energy">   -191.49082828 </i>
    <i name="e_wo_entrp">   -191.28126293 </i>
    <i name="e_0_energy">   -191.38604560 </i>
   </energy>
  </scstep>
  <scstep>
   <time name="dav">   24.87   24.93</time>
   <time name="total">   25.38   25.44</time>
   <energy>
    <i name="e_fr_energy">   -191.48985122 </i>
    <i name="e_wo_entrp">   -191.28006954 </i>
    <i name="e_0_energy">   -191.38496038 </i>
   </energy>
  </scstep>
  <scstep>
   <time name="dav">   17.04   17.08</time>
   <time name="total">   17.08   17.13</time>
   <energy>
    <i name="alphaZ">     89.93980389 </i>
    <i name="ewald">  44549.83020408 </i>
    <i name="hartreedc"> -50559.97624026 </i>
    <i name="XCdc">   -233.46211755 </i>
    <i name="pawpsdc">   4083.14917232 </i>
    <i name="pawaedc">  -3499.08973359 </i>
    <i name="eentropy">     -0.20969012 </i>
    <i name="bandstr">  -1383.11376263 </i>
    <i name="atom">   6761.44252427 </i>
    <i name="e_fr_energy">   -191.48983958 </i>
    <i name="e_wo_entrp">   -191.28014946 </i>
    <i name="e_0_energy">   -191.38499452 </i>
   </energy>
  </scstep>
  <structure>
   <crystal>
    <varray name="basis" >
     <v>       8.30186235       4.78187230       0.00000000 </v>
     <v>      -8.29910182       4.77709087       0.00000000 </v>
     <v>       0.00000000       0.00000000      30.00000000 </v>
    </varray>
    <i name="volume">   2380.31987698 </i>
    <varray name="rec_basis" >
     <v>       0.06020734       0.10459647       0.00000000 </v>
     <v>      -0.06026760       0.10463126       0.00000000 </v>
     <v>       0.00000000       0.00000000       0.03333333 </v>
    </varray>
   </crystal>
   <varray name="positions" >
    <v>       0.99249603       0.33218345       0.00048624 </v>
    <v>       0.00017429      -0.00376560      -0.00003098 </v>
    <v>       0.67115136       0.66924306      -0.00042770 </v>
    <v>       0.65321564       0.00083160       0.00018818 </v>
    <v>       0.01301050       0.67472221      -0.00037411 </v>
    <v>       0.33843796      -0.00684639       0.00002133 </v>
    <v>       0.33769084       0.32421651       0.00024164 </v>
    <v>       0.33261963       0.68526448      -0.00012384 </v>
    <v>       0.66016315       0.32258791       0.00011282 </v>
    <v>       0.10582552       0.21906804       0.95072984 </v>
    <v>       0.21646460       0.10709537       0.05131145 </v>
    <v>       0.11020777       0.55018565       0.94828753 </v>
    <v>       0.21905034       0.44385085       0.04860490 </v>
    <v>       0.10890057       0.89288301       0.94814647 </v>
    <v>       0.22281259       0.77843178       0.05501432 </v>
    <v>       0.44461491       0.22081993       0.94655041 </v>
    <v>       0.55482670       0.11184106       0.05468686 </v>
    <v>       0.44785715       0.55855051       0.95084074 </v>
    <v>       0.55961106       0.44989898       0.05117658 </v>
    <v>       0.44388443       0.88839947       0.94443029 </v>
    <v>       0.55658241       0.77435755       0.05112064 </v>
    <v>       0.78304746       0.22503116       0.94806264 </v>
    <v>       0.89253438       0.11246629       0.04885014 </v>
    <v>       0.77547252       0.55698738       0.95018978 </v>
    <v>       0.89056964       0.44154425       0.05077578 </v>
    <v>       0.78023197       0.88742223       0.95085640 </v>
    <v>       0.88676102       0.78094372       0.05027154 </v>
   </varray>
  </structure>
  <varray name="forces" >
   <v>      -0.27690218      -0.24565208       0.03396778 </v>
   <v>       0.07187473      -0.02627389      -0.04436278 </v>
   <v>       0.07616415       0.06086883      -0.04607854 </v>
   <v>      -0.27582380      -0.02290619      -0.02548921 </v>
   <v>       0.12229410       0.38365923       0.00703853 </v>
   <v>       0.02579948       0.08092492       0.00167580 </v>
   <v>       0.60346989      -0.06302705       0.03681418 </v>
   <v>      -0.40695120       0.18975988       0.01033583 </v>
   <v>       0.03889442      -0.43747745       0.01160919 </v>
   <v>       0.03517921       0.03481461       0.10526724 </v>
   <v>       0.08812361      -0.02809381       0.11848929 </v>
   <v>       0.00239943       0.06585987      -0.04935108 </v>
   <v>       0.05424290       0.12184438      -0.35139247 </v>
   <v>       0.07345901       0.05988385      -0.06746046 </v>
   <v>      -0.04211123       0.06518269       0.19935993 </v>
   <v>       0.09615962      -0.05605373      -0.24624100 </v>
   <v>      -0.01376228      -0.04347087       0.22497176 </v>
   <v>      -0.09570696      -0.07305269       0.23757947 </v>
   <v>       0.08051107       0.01590039       0.07548896 </v>
   <v>      -0.04874747       0.02605065      -0.20464253 </v>
   <v>      -0.10222885       0.00610062      -0.03617371 </v>
   <v>      -0.03992012      -0.04760901      -0.12660713 </v>
   <v>      -0.06280722      -0.12275175      -0.05709023 </v>
   <v>       0.16238781       0.03156645       0.15787103 </v>
   <v>      -0.11190365      -0.00864351      -0.07111739 </v>
   <v>      -0.10741465       0.01119444       0.07627253 </v>
   <v>       0.05332019       0.02140120       0.02926497 </v>
  </varray>
  <varray name="stress" >
   <v>      -0.27219804       0.05984534      -0.14420556 </v>
   <v>       0.05984545      -0.30782971      -0.03726398 </v>
   <v>      -0.14420566      -0.03726382      -0.95596312 </v>
  </varray>
  <energy>
   <i name="e_fr_energy">   -191.48983958 </i>
   <i name="e_wo_entrp">   -191.38499452 </i>
   <i name="e_0_energy">     -0.20969012 </i>
  </energy>
  <time name="totalsc">  285.28  286.04</time>
 </calculation>
 <calculation>
  <scstep>
   <time name="dav">   21.82   21.88</time>
   <time name="total">   22.33   22.39</time>
   <energy>
    <i name="alphaZ">     90.03648327 </i>
    <i name="ewald">  44590.43917635 </i>
    <i name="hartreedc"> -50601.72192987 </i>
    <i name="XCdc">   -233.41011706 </i>
    <i name="pawpsdc">   4082.85661069 </i>
    <i name="pawaedc">  -3498.79383431 </i>
    <i name="eentropy">     -0.21078397 </i>
    <i name="bandstr">  -1382.17396732 </i>
    <i name="atom">   6761.44252427 </i>
    <i name="e_fr_energy">   -191.53583795 </i>
    <i name="e_wo_entrp">   -191.32505398 </i>
    <i name="e_0_energy">   -191.43044596 </i>
   </energy>
  </scstep>
  <scstep>
   <time name="dav">   32.88   32.96</time>
   <time name="total">   33.39   33.48</time>
   <energy>
    <i name="e_fr_energy">   -191.54958803 </i>
    <i name="e_wo_entrp">   -191.33594175 </i>
    <i name="e_0_energy">   -191.44276489 </i>
   </energy>
  </scstep>
  <scstep>
   <time name="dav">   30.09   30.16</time>
   <time name="total">   30.60   30.68</time>
   <energy>
    <i name="e_fr_energy">   -191.53895780 </i>
    <i name="e_wo_entrp">   -191.32792221 </i>
    <i name="e_0_energy">   -191.43344001 </i>
   </energy>
  </scstep>
  <scstep>
   <time name="dav">   27.91   27.98</time>
   <time name="total">   28.42   28.49</time>
   <energy>
    <i name="e_fr_energy">   -191.53928088 </i>
    <i name="e_wo_entrp">   -191.32836390 </i>
    <i name="e_0_energy">   -191.43382239 </i>
   </energy>
  </scstep>
  <scstep>
   <time name="dav">   27.77   27.83</time>
   <time name="total">   28.27   28.35</time>
   <energy>
    <i name="e_fr_energy">   -191.53774721 </i>
    <i name="e_wo_entrp">   -191.32627784 </i>
    <i name="e_0_energy">   -191.43201253 </i>
   </energy>
  </scstep>
  <scstep>
   <time name="dav">   25.57   25.63</time>
   <time name="total">   25.60   25.67</time>
   <energy>
    <i name="alphaZ">     90.03648327 </i>
    <i name="ewald">  44590.43917635 </i>
    <i name="hartreedc"> -50601.25046163 </i>
    <i name="XCdc">   -233.43250535 </i>
    <i name="pawpsdc">   4083.37416509 </i>
    <i name="pawaedc">  -3499.31816509 </i>
    <i name="eentropy">     -0.21145870 </i>
    <i name="bandstr">  -1382.61741471 </i>
    <i name="atom">   6761.44252427 </i>
    <i name="e_fr_energy">   -191.53765650 </i>
    <i name="e_wo_entrp">   -191.32619781 </i>
    <i name="e_0_energy">   -191.43192715 </i>
   </energy>
  </scstep>
  <structure>
   <crystal>
    <varray name="basis" >
     <v>       8.29815312       4.77979625       0.00000000 </v>
     <v>      -8.29459557       4.77363101       0.00000000 </v>
[...]
      <set comment="kpoint 31">
       <r>  -17.4977    1.0000 </r>
       <r>  -17.2823    1.0000 </r>
       <r>  -16.9065    1.0000 </r>
       <r>  -16.6426    1.0000 </r>
       <r>  -16.4908    1.0000 </r>
       <r>  -16.3971    1.0000 </r>
       <r>  -16.3246    1.0000 </r>
       <r>  -16.2051    1.0000 </r>
       <r>  -16.1031    1.0000 </r>
       <r>  -16.0140    1.0000 </r>
       <r>  -15.9004    1.0000 </r>
       <r>  -15.8133    1.0000 </r>
       <r>  -15.7804    1.0000 </r>
       <r>  -15.7270    1.0000 </r>
       <r>  -15.6516    1.0000 </r>
       <r>  -15.5473    1.0000 </r>
       <r>  -15.4203    1.0000 </r>
       <r>  -15.3079    1.0000 </r>
       <r>   -9.7591    1.0000 </r>
       <r>   -9.4522    1.0000 </r>
       <r>   -9.2796    1.0000 </r>
       <r>   -8.9574    1.0000 </r>
       <r>   -8.8484    1.0000 </r>
       <r>   -8.7167    1.0000 </r>
       <r>   -8.6123    1.0000 </r>
       <r>   -8.5197    1.0000 </r>
       <r>   -8.4008    1.0000 </r>
       <r>   -8.2857    1.0000 </r>
       <r>   -8.2425    1.0000 </r>
       <r>   -8.2004    1.0000 </r>
       <r>   -8.1293    1.0000 </r>
       <r>   -8.0241    1.0000 </r>
       <r>   -7.9262    1.0000 </r>
       <r>   -7.8428    1.0000 </r>
       <r>   -7.8092    1.0000 </r>
       <r>   -7.7526    1.0000 </r>
       <r>   -7.5242    1.0000 </r>
       <r>   -7.4579    1.0000 </r>
       <r>   -7.3237    1.0000 </r>
       <r>   -7.2810    1.0000 </r>
       <r>   -7.1092    1.0000 </r>
       <r>   -7.0510    1.0000 </r>
       <r>   -6.9861    1.0000 </r>
       <r>   -6.9180    1.0000 </r>
       <r>   -6.8319    1.0000 </r>
       <r>   -6.7732    1.0000 </r>
       <r>   -6.7292    1.0000 </r>
       <r>   -6.6622    1.0000 </r>
       <r>   -6.5776    1.0000 </r>
       <r>   -6.4779    1.0000 </r>
       <r>   -6.3991    1.0000 </r>
       <r>   -6.3958    1.0000 </r>
       <r>   -6.2958    1.0000 </r>
       <r>   -6.2226    1.0000 </r>
       <r>   -6.1171    1.0000 </r>
       <r>   -6.0486    1.0000 </r>
       <r>   -6.0147    1.0000 </r>
       <r>   -5.9418    1.0000 </r>
       <r>   -5.8713    1.0000 </r>
       <r>   -5.8260    1.0000 </r>
       <r>   -5.7089    1.0000 </r>
       <r>   -5.6479    1.0000 </r>
       <r>   -5.5333    1.0000 </r>
       <r>   -5.3244    1.0000 </r>
       <r>   -5.2248    1.0000 </r>
       <r>   -5.1175    1.0000 </r>
       <r>   -5.0696    1.0000 </r>
       <r>   -4.9517    1.0000 </r>
       <r>   -4.8453    1.0000 </r>
       <r>   -4.6228    1.0000 </r>
       <r>   -4.5130    1.0000 </r>
       <r>   -4.4549    1.0000 </r>
       <r>   -4.4042    1.0000 </r>
       <r>   -4.3074    1.0000 </r>
       <r>   -4.2539    1.0000 </r>
       <r>   -3.9109    1.0000 </r>
       <r>   -3.7621    0.9981 </r>
       <r>   -3.6990    0.9928 </r>
       <r>   -3.5515    0.9198 </r>
       <r>   -3.3117    0.3851 </r>
       <r>   -2.9846    0.0046 </r>
       <r>   -2.8615    0.0003 </r>
       <r>   -2.6676    0.0000 </r>
       <r>   -2.5676    0.0000 </r>
       <r>   -2.3919    0.0000 </r>
       <r>   -2.3238    0.0000 </r>
       <r>   -2.2198    0.0000 </r>
       <r>   -2.1846    0.0000 </r>
       <r>   -1.9688    0.0000 </r>
       <r>   -1.8856    0.0000 </r>
       <r>   -1.7944    0.0000 </r>
       <r>   -1.6967    0.0000 </r>
       <r>   -1.5379    0.0000 </r>
       <r>   -1.3098    0.0000 </r>
       <r>   -1.2277    0.0000 </r>
       <r>   -1.1862    0.0000 </r>
       <r>   -1.0845    0.0000 </r>
       <r>   -1.0249    0.0000 </r>
       <r>   -0.9601    0.0000 </r>
       <r>   -0.8501    0.0000 </r>
       <r>   -0.8200    0.0000 </r>
       <r>   -0.7374    0.0000 </r>
       <r>   -0.6155    0.0000 </r>
       <r>   -0.5204    0.0000 </r>
       <r>   -0.4525    0.0000 </r>
       <r>   -0.4164    0.0000 </r>
       <r>   -0.2556    0.0000 </r>
       <r>   -0.1373    0.0000 </r>
       <r>   -0.0264    0.0000 </r>
       <r>    0.2319    0.0000 </r>
       <r>    0.4288    0.0000 </r>
       <r>    0.5107    0.0000 </r>
       <r>    0.8352    0.0000 </r>
       <r>    0.9057    0.0000 </r>
       <r>    1.1022    0.0000 </r>
       <r>    1.1976    0.0000 </r>
       <r>    1.3050    0.0000 </r>
       <r>    2.1264    0.0000 </r>
       <r>    2.2873    0.0000 </r>
       <r>    2.3912    0.0000 </r>
      </set>
      <set comment="kpoint 32">
       <r>  -17.5147    1.0000 </r>
       <r>  -17.2155    1.0000 </r>
       <r>  -17.0091    1.0000 </r>
       <r>  -16.6420    1.0000 </r>
       <r>  -16.4092    1.0000 </r>
       <r>  -16.3607    1.0000 </r>
       <r>  -16.3061    1.0000 </r>
       <r>  -16.2464    1.0000 </r>
       <r>  -16.0916    1.0000 </r>
       <r>  -16.0166    1.0000 </r>
       <r>  -15.9402    1.0000 </r>
       <r>  -15.8364    1.0000 </r>
       <r>  -15.7946    1.0000 </r>
       <r>  -15.7453    1.0000 </r>
       <r>  -15.6323    1.0000 </r>
       <r>  -15.5423    1.0000 </r>
       <r>  -15.4016    1.0000 </r>
       <r>  -15.3094    1.0000 </r>
       <r>   -9.7107    1.0000 </r>
       <r>   -9.5056    1.0000 </r>
       <r>   -9.3603    1.0000 </r>
       <r>   -8.9465    1.0000 </r>
       <r>   -8.7210    1.0000 </r>
       <r>   -8.6608    1.0000 </r>
       <r>   -8.5195    1.0000 </r>
       <r>   -8.4790    1.0000 </r>
       <r>   -8.4017    1.0000 </r>
       <r>   -8.3386    1.0000 </r>
       <r>   -8.2953    1.0000 </r>
       <r>   -8.2328    1.0000 </r>
       <r>   -8.1866    1.0000 </r>
       <r>   -8.0303    1.0000 </r>
       <r>   -7.9909    1.0000 </r>
       <r>   -7.8914    1.0000 </r>
       <r>   -7.7742    1.0000 </r>
       <r>   -7.7231    1.0000 </r>
       <r>   -7.5459    1.0000 </r>
       <r>   -7.4233    1.0000 </r>
       <r>   -7.2960    1.0000 </r>
       <r>   -7.2733    1.0000 </r>
       <r>   -7.1725    1.0000 </r>
       <r>   -7.0707    1.0000 </r>
       <r>   -7.0168    1.0000 </r>
       <r>   -6.9164    1.0000 </r>
       <r>   -6.8369    1.0000 </r>
       <r>   -6.7684    1.0000 </r>
       <r>   -6.7116    1.0000 </r>
       <r>   -6.6659    1.0000 </r>
       <r>   -6.5873    1.0000 </r>
       <r>   -6.4871    1.0000 </r>
       <r>   -6.4172    1.0000 </r>
       <r>   -6.3681    1.0000 </r>
       <r>   -6.3044    1.0000 </r>
       <r>   -6.2419    1.0000 </r>
       <r>   -6.1350    1.0000 </r>
       <r>   -6.0621    1.0000 </r>
       <r>   -5.9750    1.0000 </r>
       <r>   -5.9442    1.0000 </r>
       <r>   -5.8518    1.0000 </r>
       <r>   -5.7350    1.0000 </r>
       <r>   -5.6622    1.0000 </r>
       <r>   -5.5651    1.0000 </r>
       <r>   -5.4909    1.0000 </r>
       <r>   -5.4315    1.0000 </r>
       <r>   -5.3329    1.0000 </r>
       <r>   -5.1786    1.0000 </r>
       <r>   -5.0209    1.0000 </r>
       <r>   -4.9051    1.0000 </r>
       <r>   -4.8769    1.0000 </r>
       <r>   -4.6252    1.0000 </r>
       <r>   -4.5068    1.0000 </r>
       <r>   -4.4731    1.0000 </r>
       <r>   -4.3782    1.0000 </r>
       <r>   -4.3134    1.0000 </r>
       <r>   -4.2239    1.0000 </r>
       <r>   -3.9092    1.0000 </r>
       <r>   -3.7297    0.9961 </r>
       <r>   -3.7004    0.9930 </r>
       <r>   -3.5627    0.9310 </r>
       <r>   -3.3502    0.4921 </r>
       <r>   -3.1027    0.0384 </r>
       <r>   -2.7903    0.0000 </r>
       <r>   -2.6233    0.0000 </r>
       <r>   -2.5304    0.0000 </r>
       <r>   -2.4000    0.0000 </r>
       <r>   -2.2890    0.0000 </r>
       <r>   -2.2179    0.0000 </r>
       <r>   -2.1482    0.0000 </r>
       <r>   -1.9909    0.0000 </r>
       <r>   -1.9046    0.0000 </r>
       <r>   -1.7933    0.0000 </r>
       <r>   -1.6579    0.0000 </r>
       <r>   -1.5416    0.0000 </r>
       <r>   -1.3373    0.0000 </r>
       <r>   -1.2607    0.0000 </r>
       <r>   -1.1800    0.0000 </r>
       <r>   -1.1006    0.0000 </r>
       <r>   -1.0060    0.0000 </r>
       <r>   -0.9509    0.0000 </r>
       <r>   -0.8855    0.0000 </r>
       <r>   -0.8170    0.0000 </r>
       <r>   -0.7666    0.0000 </r>
       <r>   -0.6174    0.0000 </r>
       <r>   -0.5627    0.0000 </r>
       <r>   -0.4792    0.0000 </r>
       <r>   -0.3830    0.0000 </r>
       <r>   -0.2595    0.0000 </r>
       <r>   -0.1370    0.0000 </r>
       <r>    0.0612    0.0000 </r>
       <r>    0.2391    0.0000 </r>
       <r>    0.3626    0.0000 </r>
       <r>    0.4910    0.0000 </r>
       <r>    0.8217    0.0000 </r>
       <r>    0.8852    0.0000 </r>
       <r>    1.0978    0.0000 </r>
       <r>    1.2115    0.0000 </r>
       <r>    1.3499    0.0000 </r>
       <r>    2.0942    0.0000 </r>
       <r>    2.2588    0.0000 </r>
       <r>    2.5482    0.0000 </r>
      </set>
      <set comment="kpoint 33">
       <r>  -17.4983    1.0000 </r>
       <r>  -17.2903    1.0000 </r>
       <r>  -16.9000    1.0000 </r>
       <r>  -16.6444    1.0000 </r>
       <r>  -16.4851    1.0000 </r>
       <r>  -16.4111    1.0000 </r>
       <r>  -16.3131    1.0000 </r>
       <r>  -16.1691    1.0000 </r>
       <r>  -16.0457    1.0000 </r>
       <r>  -16.0134    1.0000 </r>
       <r>  -15.9528    1.0000 </r>
       <r>  -15.8629    1.0000 </r>
       <r>  -15.7954    1.0000 </r>
       <r>  -15.7625    1.0000 </r>
       <r>  -15.6080    1.0000 </r>
       <r>  -15.5290    1.0000 </r>
       <r>  -15.4197    1.0000 </r>
       <r>  -15.3160    1.0000 </r>
       <r>   -9.7420    1.0000 </r>
       <r>   -9.4188    1.0000 </r>
       <r>   -9.3020    1.0000 </r>
       <r>   -8.9835    1.0000 </r>
       <r>   -8.8241    1.0000 </r>
       <r>   -8.6983    1.0000 </r>
       <r>   -8.5188    1.0000 </r>
       <r>   -8.4870    1.0000 </r>
       <r>   -8.4313    1.0000 </r>
       <r>   -8.3246    1.0000 </r>
       <r>   -8.2728    1.0000 </r>
       <r>   -8.2042    1.0000 </r>
       <r>   -8.1449    1.0000 </r>
       <r>   -8.0941    1.0000 </r>
       <r>   -7.9881    1.0000 </r>
       <r>   -7.8270    1.0000 </r>
       <r>   -7.8002    1.0000 </r>
       <r>   -7.6703    1.0000 </r>
       <r>   -7.5527    1.0000 </r>
       <r>   -7.4057    1.0000 </r>
       <r>   -7.3028    1.0000 </r>
       <r>   -7.2197    1.0000 </r>
       <r>   -7.1462    1.0000 </r>
       <r>   -7.1227    1.0000 </r>
       <r>   -7.0454    1.0000 </r>
       <r>   -6.9309    1.0000 </r>
       <r>   -6.8149    1.0000 </r>
       <r>   -6.7440    1.0000 </r>
       <r>   -6.7082    1.0000 </r>
       <r>   -6.6525    1.0000 </r>
       <r>   -6.5820    1.0000 </r>
       <r>   -6.5020    1.0000 </r>
       <r>   -6.4634    1.0000 </r>
       <r>   -6.3851    1.0000 </r>
       <r>   -6.3505    1.0000 </r>
       <r>   -6.2623    1.0000 </r>
       <r>   -6.1218    1.0000 </r>
       <r>   -6.0187    1.0000 </r>
       <r>   -5.9551    1.0000 </r>
       <r>   -5.9262    1.0000 </r>
       <r>   -5.8779    1.0000 </r>
       <r>   -5.7714    1.0000 </r>
       <r>   -5.7277    1.0000 </r>
       <r>   -5.6119    1.0000 </r>
       <r>   -5.5819    1.0000 </r>
       <r>   -5.4943    1.0000 </r>
       <r>   -5.2452    1.0000 </r>
       <r>   -5.1244    1.0000 </r>
       <r>   -4.9909    1.0000 </r>
       <r>   -4.8322    1.0000 </r>
       <r>   -4.7729    1.0000 </r>
       <r>   -4.6399    1.0000 </r>
       <r>   -4.5622    1.0000 </r>
       <r>   -4.4361    1.0000 </r>
       <r>   -4.3555    1.0000 </r>
       <r>   -4.2716    1.0000 </r>
       <r>   -4.1956    1.0000 </r>
       <r>   -3.9159    1.0000 </r>
       <r>   -3.7606    0.9980 </r>
       <r>   -3.7368    0.9967 </r>
       <r>   -3.5667    0.9346 </r>
       <r>   -3.3689    0.5447 </r>
       <r>   -3.2178    0.1695 </r>
       <r>   -2.7456    0.0000 </r>
       <r>   -2.5971    0.0000 </r>
       <r>   -2.4920    0.0000 </r>
       <r>   -2.4014    0.0000 </r>
       <r>   -2.2849    0.0000 </r>
       <r>   -2.2003    0.0000 </r>
       <r>   -2.1152    0.0000 </r>
       <r>   -1.9983    0.0000 </r>
       <r>   -1.9154    0.0000 </r>
       <r>   -1.7731    0.0000 </r>
       <r>   -1.6199    0.0000 </r>
       <r>   -1.5214    0.0000 </r>
       <r>   -1.3757    0.0000 </r>
       <r>   -1.2666    0.0000 </r>
       <r>   -1.1673    0.0000 </r>
       <r>   -1.1285    0.0000 </r>
       <r>   -1.0196    0.0000 </r>
       <r>   -0.9656    0.0000 </r>
       <r>   -0.9003    0.0000 </r>
       <r>   -0.8401    0.0000 </r>
       <r>   -0.7797    0.0000 </r>
       <r>   -0.6578    0.0000 </r>
       <r>   -0.5566    0.0000 </r>
       <r>   -0.5081    0.0000 </r>
       <r>   -0.4064    0.0000 </r>
       <r>   -0.2341    0.0000 </r>
       <r>   -0.1140    0.0000 </r>
       <r>    0.1323    0.0000 </r>
       <r>    0.2119    0.0000 </r>
       <r>    0.2930    0.0000 </r>
       <r>    0.4844    0.0000 </r>
       <r>    0.8042    0.0000 </r>
       <r>    0.8846    0.0000 </r>
       <r>    1.0945    0.0000 </r>
       <r>    1.2399    0.0000 </r>
       <r>    1.4553    0.0000 </r>
       <r>    2.1225    0.0000 </r>
       <r>    2.2924    0.0000 </r>
       <r>    2.3769    0.0000 </r>
      </set>
      <set comment="kpoint 34">
       <r>  -17.4729    1.0000 </r>
       <r>  -17.3502    1.0000 </r>
       <r>  -16.7556    1.0000 </r>
       <r>  -16.6846    1.0000 </r>
       <r>  -16.5925    1.0000 </r>
       <r>  -16.4191    1.0000 </r>
       <r>  -16.3111    1.0000 </r>
       <r>  -16.1466    1.0000 </r>
       <r>  -16.0270    1.0000 </r>
       <r>  -15.9999    1.0000 </r>
       <r>  -15.9479    1.0000 </r>
       <r>  -15.8649    1.0000 </r>
       <r>  -15.7965    1.0000 </r>
       <r>  -15.7756    1.0000 </r>
       <r>  -15.5951    1.0000 </r>
       <r>  -15.5120    1.0000 </r>
       <r>  -15.4468    1.0000 </r>
       <r>  -15.3199    1.0000 </r>
       <r>   -9.7674    1.0000 </r>
       <r>   -9.3361    1.0000 </r>
       <r>   -9.1915    1.0000 </r>
       <r>   -9.0680    1.0000 </r>
       <r>   -8.9272    1.0000 </r>
       <r>   -8.7545    1.0000 </r>
       <r>   -8.5445    1.0000 </r>
       <r>   -8.4815    1.0000 </r>
       <r>   -8.4481    1.0000 </r>
       <r>   -8.2853    1.0000 </r>
       <r>   -8.2669    1.0000 </r>
       <r>   -8.1879    1.0000 </r>
       <r>   -8.1441    1.0000 </r>
       <r>   -8.0938    1.0000 </r>
       <r>   -7.9426    1.0000 </r>
       <r>   -7.8546    1.0000 </r>
       <r>   -7.7657    1.0000 </r>
       <r>   -7.6448    1.0000 </r>
       <r>   -7.5218    1.0000 </r>
       <r>   -7.4126    1.0000 </r>
       <r>   -7.3247    1.0000 </r>
       <r>   -7.1988    1.0000 </r>
       <r>   -7.1601    1.0000 </r>
       <r>   -7.1385    1.0000 </r>
       <r>   -7.0000    1.0000 </r>
       <r>   -6.9547    1.0000 </r>
       <r>   -6.8015    1.0000 </r>
       <r>   -6.7736    1.0000 </r>
       <r>   -6.6510    1.0000 </r>
       <r>   -6.6081    1.0000 </r>
       <r>   -6.5884    1.0000 </r>
       <r>   -6.5289    1.0000 </r>
       <r>   -6.4803    1.0000 </r>
       <r>   -6.4437    1.0000 </r>
       <r>   -6.3101    1.0000 </r>
       <r>   -6.2861    1.0000 </r>
       <r>   -6.1298    1.0000 </r>
       <r>   -6.0714    1.0000 </r>
       <r>   -5.9846    1.0000 </r>
       <r>   -5.9185    1.0000 </r>
       <r>   -5.8558    1.0000 </r>
       <r>   -5.8154    1.0000 </r>
       <r>   -5.6967    1.0000 </r>
       <r>   -5.6538    1.0000 </r>
       <r>   -5.6381    1.0000 </r>
       <r>   -5.4927    1.0000 </r>
       <r>   -5.2775    1.0000 </r>
       <r>   -5.0733    1.0000 </r>
       <r>   -4.8663    1.0000 </r>
       <r>   -4.8139    1.0000 </r>
       <r>   -4.7754    1.0000 </r>
       <r>   -4.6378    1.0000 </r>
       <r>   -4.5658    1.0000 </r>
       <r>   -4.4280    1.0000 </r>
       <r>   -4.3674    1.0000 </r>
       <r>   -4.2256    1.0000 </r>
       <r>   -4.1652    1.0000 </r>
       <r>   -3.9260    1.0000 </r>
       <r>   -3.8003    0.9992 </r>
       <r>   -3.7482    0.9974 </r>
       <r>   -3.5507    0.9190 </r>
       <r>   -3.4354    0.7199 </r>
       <r>   -3.2329    0.1980 </r>
       <r>   -2.7350    0.0000 </r>
       <r>   -2.5861    0.0000 </r>
       <r>   -2.4771    0.0000 </r>
       <r>   -2.4047    0.0000 </r>
       <r>   -2.2840    0.0000 </r>
       <r>   -2.1912    0.0000 </r>
       <r>   -2.1137    0.0000 </r>
       <r>   -1.9846    0.0000 </r>
       <r>   -1.9171    0.0000 </r>
       <r>   -1.7626    0.0000 </r>
       <r>   -1.6009    0.0000 </r>
       <r>   -1.5066    0.0000 </r>
       <r>   -1.3931    0.0000 </r>
       <r>   -1.2670    0.0000 </r>
       <r>   -1.1592    0.0000 </r>
       <r>   -1.1362    0.0000 </r>
       <r>   -1.0279    0.0000 </r>
       <r>   -1.0005    0.0000 </r>
       <r>   -0.8929    0.0000 </r>
       <r>   -0.8490    0.0000 </r>
       <r>   -0.7802    0.0000 </r>
       <r>   -0.6873    0.0000 </r>
       <r>   -0.5693    0.0000 </r>
       <r>   -0.5261    0.0000 </r>
       <r>   -0.3839    0.0000 </r>
       <r>   -0.2276    0.0000 </r>
       <r>   -0.1058    0.0000 </r>
       <r>    0.1377    0.0000 </r>
       <r>    0.2150    0.0000 </r>
       <r>    0.2620    0.0000 </r>
       <r>    0.4836    0.0000 </r>
       <r>    0.7953    0.0000 </r>
       <r>    0.8857    0.0000 </r>
       <r>    1.0983    0.0000 </r>
       <r>    1.2673    0.0000 </r>
       <r>    1.5059    0.0000 </r>
       <r>    2.1940    0.0000 </r>
       <r>    2.2394    0.0000 </r>
       <r>    2.3747    0.0000 </r>
      </set>
     </set>
    </set>
   </array>
  </eigenvalues>
  <separator name="orbital magnetization" >
   <v name="MAGDIPOLOUT">      0.00000000      0.00000000      0.00000000</v>
  </separator>
 </calculation>
 <structure name="finalpos" >
  <crystal>
   <varray name="basis" >
    <v>       8.38835778       4.82832799       0.00000000 </v>
    <v>      -8.38346656       4.81970384       0.00000000 </v>
    <v>       0.00000000       0.00000000      30.00000000 </v>
   </varray>
   <i name="volume">   2427.22579310 </i>
   <varray name="rec_basis" >
    <v>       0.05957053       0.10361788       0.00000000 </v>
    <v>      -0.05967712       0.10367834       0.00000000 </v>
    <v>       0.00000000       0.00000000       0.03333333 </v>
   </varray>
  </crystal>
  <varray name="positions" >
   <v>       1.01537710       0.31201078       0.00179791 </v>
   <v>      -0.01111069      -0.00894829      -0.00132791 </v>
   <v>       0.68902693       0.65266080       0.00249707 </v>
   <v>       0.64846409       0.01539848      -0.00052376 </v>
   <v>       0.01837479       0.70341481       0.00039896 </v>
   <v>       0.34689584      -0.00110169       0.00001997 </v>
   <v>       0.33397178       0.30851352      -0.00026841 </v>
   <v>       0.32073029       0.69325598      -0.00115239 </v>
   <v>       0.63739821       0.31437237       0.00002613 </v>
   <v>       0.10814921       0.21428873       0.94791190 </v>
   <v>       0.21496276       0.10456323       0.05130494 </v>
   <v>       0.10578869       0.55263394       0.95078584 </v>
   <v>       0.22700215       0.44686052       0.04735938 </v>
   <v>       0.11384715       0.90127732       0.94691374 </v>
   <v>       0.22374067       0.78609844       0.05635456 </v>
   <v>       0.44272209       0.21608644       0.94324156 </v>
   <v>       0.55303439       0.11531832       0.05660715 </v>
   <v>       0.44713776       0.56013974       0.95807660 </v>
   <v>       0.55623957       0.44426535       0.05321079 </v>
   <v>       0.44500852       0.89083295       0.94345492 </v>
   <v>       0.55641619       0.77472088       0.04539771 </v>
   <v>       0.78500301       0.23043454       0.94998475 </v>
   <v>       0.88651065       0.10704033       0.04943740 </v>
   <v>       0.78117539       0.55544341       0.95030003 </v>
   <v>       0.89309839       0.44205373       0.04039417 </v>
   <v>       0.77098785       0.88128255       0.95424995 </v>
   <v>       0.88826169       0.78529728       0.05354694 </v>
  </varray>
 </structure>
</modeling>
