unknown system                          
           1
     8.858897    5.103917    0.000000
    -8.858506    5.103244    0.000000
     0.000000    0.000000   30.000000
   V    Mo   W    S 
   3   3   3  18
Direct configuration=     1
   1.00000000  0.33333334  0.00000000
   0.00000000  0.00000000  0.00000000
   0.66666669  0.66666669  0.00000000
   0.66666669  0.00000000  0.00000000
   0.00000000  0.66666669  0.00000000
   0.33333334  0.00000000  0.00000000
   0.33333334  0.33333334  0.00000000
   0.33333334  0.66666669  0.00000000
   0.66666669  0.33333334  0.00000000
   0.11068511  0.22244981  0.95539999
   0.22244981  0.11068511  0.04460000
   0.11068511  0.55578315  0.95539999
   0.22244981  0.44401845  0.04460000
   0.11068511  0.88911647  0.95539999
   0.22244981  0.77735180  0.04460000
   0.44401845  0.22244981  0.95539999
   0.55578315  0.11068511  0.04460000
   0.44401845  0.55578315  0.95539999
   0.55578315  0.44401845  0.04460000
   0.44401845  0.88911647  0.95539999
   0.55578315  0.77735180  0.04460000
   0.77735180  0.22244981  0.95539999
   0.88911647  0.11068511  0.04460000
   0.77735180  0.55578315  0.95539999
   0.88911647  0.44401845  0.04460000
   0.77735180  0.88911647  0.95539999
   0.88911647  0.77735180  0.04460000
unknown system                          
           1
     8.670017    4.997516    0.000000
    -8.669694    4.996962    0.000000
     0.000000    0.000000   30.000000
   V    Mo   W    S 
   3   3   3  18
Direct configuration=     2
   0.99884248  0.33290868 -0.00010681
  -0.00039288 -0.00112250  0.00003131
   0.66815712  0.66818040  0.00012377
   0.66566431 -0.00001430  0.00005721
   0.00133920  0.66819263 -0.00003055
   0.33332980 -0.00137098 -0.00002516
   0.33285908  0.33151901 -0.00003422
   0.33324442  0.66964440 -0.00020833
   0.66692927  0.33201239  0.00016462
   0.10752884  0.22072818  0.95309313
   0.21815787  0.10980242  0.04805643
   0.10980199  0.55132016  0.95191528
   0.21844511  0.44254818  0.04799069
   0.10864334  0.89120007  0.95200386
   0.22252915  0.77732058  0.04932969
   0.44468142  0.22282722  0.95074683
   0.55592379  0.11209671  0.04926158
   0.44796825  0.55719674  0.95199108
   0.55732423  0.44817112  0.04813925
   0.44378373  0.88769127  0.95067423
   0.55706398  0.77472589  0.04800521
   0.78189210  0.22481718  0.95187090
   0.89317637  0.11297142  0.04684692
   0.77485380  0.55695659  0.95208018
   0.89012778  0.44147311  0.04797664
   0.77983386  0.88662177  0.95305126
   0.88650604  0.77979614  0.04699488
unknown system                          
           1
     8.488797    4.899831    0.000000
    -8.488237    4.898865    0.000000
     0.000000    0.000000   30.000000
   V    Mo   W    S 
   3   3   3  18
Direct configuration=     3
   0.99846109  0.33281636 -0.00006566
  -0.00045457 -0.00142918  0.00003443
   0.66853899  0.66850262  0.00009251
   0.66485852 -0.00000349  0.00010408
   0.00210725  0.66870476 -0.00007945
   0.33355075 -0.00192926 -0.00003226
   0.33299296  0.33100712 -0.00002711
   0.33319707  0.67083345 -0.00022465
   0.66670960  0.33143991  0.00018521
   0.10768643  0.22076752  0.95315016
   0.21816568  0.10995307  0.04804400
   0.10997834  0.55133248  0.95190787
   0.21860962  0.44260570  0.04782595
   0.10857012  0.89126319  0.95195594
   0.22267396  0.77720745  0.04945675
   0.44477427  0.22302728  0.95074364
   0.55602924  0.11233491  0.04936415
   0.44779802  0.55713798  0.95213316
   0.55729382  0.44802224  0.04808029
   0.44363961  0.88746418  0.95051298
   0.55684753  0.77455936  0.04799953
   0.78190652  0.22501092  0.95183870
   0.89324088  0.11301839  0.04676261
   0.77470477  0.55675644  0.95216522
   0.88994658  0.44132372  0.04795889
   0.77989169  0.88662510  0.95310834
   0.88649573  0.77986226  0.04700466
unknown system                          
           1
     8.283402    4.775661    0.000000
    -8.282741    4.774522    0.000000
     0.000000    0.000000   30.000000
   V    Mo   W    S 
   3   3   3  18
Direct configuration=     4
   0.99704540  0.33271271  0.00012247
  -0.00037752 -0.00232802  0.00003198
   0.66943273  0.66904410 -0.00007750
   0.66109564  0.00002071  0.00022433
   0.00525650  0.67037287 -0.00023565
   0.33491344 -0.00397435 -0.00004114
   0.33411297  0.32940804  0.00002028
   0.33301985  0.67535570 -0.00018556
   0.66527525  0.32914866  0.00017041
   0.10664892  0.22005647  0.95202002
   0.21704165  0.10916347  0.04945677
   0.10955183  0.55025378  0.95040001
   0.21800528  0.44235835  0.04859047
   0.10802223  0.89201895  0.95033898
   0.22279439  0.77721252  0.05159520
   0.44484553  0.22293140  0.94909571
   0.55592407  0.11239457  0.05140644
   0.44851287  0.55769239  0.95127039
   0.55802283  0.44898792  0.04935311
   0.44364360  0.88757147  0.94820248
   0.55707548  0.77391231  0.04941300
   0.78299322  0.22557735  0.95025474
   0.89411228  0.11344491  0.04772493
   0.77420484  0.55705316  0.95110825
   0.89047510  0.44095562  0.04932061
   0.78042175  0.88639678  0.95205608
   0.88614431  0.78047261  0.04836310
unknown system                          
           1
     8.301862    4.781872    0.000000
    -8.299102    4.777091    0.000000
     0.000000    0.000000   30.000000
   V    Mo   W    S 
   3   3   3  18
Direct configuration=     5
   0.99395754  0.33243072  0.00046316
   0.00003953 -0.00357317  0.00000610
   0.67074192  0.66935260 -0.00041594
   0.65366512  0.00027719  0.00025901
   0.01162139  0.67367997 -0.00041200
   0.33817337 -0.00747568 -0.00001809
   0.33664633  0.32581850  0.00016345
   0.33268556  0.68429389 -0.00005728
   0.66173353  0.32425228  0.00004211
   0.10554039  0.21901211  0.95056497
   0.21604069  0.10753824  0.05128298
   0.10957380  0.54960244  0.94830129
   0.21802707  0.44292286  0.04912417
   0.10810987  0.89288327  0.94815173
   0.22277073  0.77785282  0.05470599
   0.44475209  0.22166534  0.94680469
   0.55520109  0.11201528  0.05443438
   0.44875359  0.55849332  0.95044871
   0.55926951  0.45010364  0.05114846
   0.44383918  0.88816533  0.94473619
   0.55704469  0.77385734  0.05122688
   0.78363279  0.22544095  0.94815067
   0.89379362  0.11315682  0.04897359
   0.77460801  0.55730738  0.94995528
   0.89097347  0.44116473  0.05095170
   0.78063926  0.88687429  0.95070374
   0.88638030  0.78110201  0.05030395
unknown system                          
           1
     8.298153    4.779796    0.000000
    -8.294596    4.773631    0.000000
     0.000000    0.000000   30.000000
   V    Mo   W    S 
   3   3   3  18
Direct configuration=     6
   0.99249603  0.33218345  0.00048624
   0.00017429 -0.00376560 -0.00003098
   0.67115136  0.66924306 -0.00042770
   0.65321564  0.00083160  0.00018818
   0.01301050  0.67472221 -0.00037411
   0.33843796 -0.00684639  0.00002133
   0.33769084  0.32421651  0.00024164
   0.33261963  0.68526448 -0.00012384
   0.66016315  0.32258791  0.00011282
   0.10582552  0.21906804  0.95072984
   0.21646460  0.10709537  0.05131145
   0.11020777  0.55018565  0.94828753
   0.21905034  0.44385085  0.04860490
   0.10890057  0.89288301  0.94814647
   0.22281259  0.77843178  0.05501432
   0.44461491  0.22081993  0.94655041
   0.55482670  0.11184106  0.05468686
   0.44785715  0.55855051  0.95084074
   0.55961106  0.44989898  0.05117658
   0.44388443  0.88839947  0.94443029
   0.55658241  0.77435755  0.05112064
   0.78304746  0.22503116  0.94806264
   0.89253438  0.11246629  0.04885014
   0.77547252  0.55698738  0.95018978
   0.89056964  0.44154425  0.05077578
   0.78023197  0.88742223  0.95085640
   0.88676102  0.78094372  0.05027154
unknown system                          
           1
     8.297804    4.779484    0.000000
    -8.293213    4.771525    0.000000
     0.000000    0.000000   30.000000
   V    Mo   W    S 
   3   3   3  18
Direct configuration=     7
   0.99141606  0.33196050  0.00051824
   0.00022062 -0.00395454 -0.00006734
   0.67143719  0.66928637 -0.00046904
   0.65265553  0.00118536  0.00016699
   0.01425424  0.67556726 -0.00037009
   0.33872494 -0.00671401  0.00002380
   0.33845554  0.32311375  0.00027438
   0.33250305  0.68645798 -0.00011523
   0.65904892  0.32134293  0.00012180
   0.10594914  0.21908936  0.95079373
   0.21651264  0.10686499  0.05143471
   0.11038531  0.55034566  0.94821603
   0.21944927  0.44410134  0.04832644
   0.10917101  0.89294011  0.94805957
   0.22291446  0.77867565  0.05522511
   0.44460861  0.22050694  0.94631442
   0.55468069  0.11174238  0.05491555
   0.44752671  0.55851978  0.95102247
   0.55979197  0.44983795  0.05126505
   0.44388406  0.88854899  0.94421068
   0.55644393  0.77452786  0.05111800
   0.78287189  0.22496049  0.94792798
   0.89211159  0.11223409  0.04882239
   0.77580614  0.55683244  0.95030055
   0.89038917  0.44169345  0.05074163
   0.78010177  0.88762043  0.95089860
   0.88690001  0.78092693  0.05032348
unknown system                          
           1
     8.299441    4.779694    0.000000
    -8.294381    4.770922    0.000000
     0.000000    0.000000   30.000000
   V    Mo   W    S 
   3   3   3  18
Direct configuration=     8
   0.98994957  0.33163728  0.00055543
   0.00025880 -0.00420971 -0.00011358
   0.67181450  0.66938265 -0.00052168
   0.65219732  0.00167630  0.00013956
   0.01578694  0.67667122 -0.00036521
   0.33893881 -0.00642206  0.00002982
   0.33945232  0.32170021  0.00032463
   0.33234229  0.68778376 -0.00011366
   0.65762568  0.31978947  0.00013721
   0.10617067  0.21916316  0.95093556
   0.21657112  0.10662420  0.05155159
   0.11061279  0.55057722  0.94819126
   0.21997207  0.44437106  0.04791325
   0.10949701  0.89298888  0.94800406
   0.22305375  0.77899252  0.05541880
   0.44462931  0.22014978  0.94604924
   0.55451588  0.11162661  0.05513253
   0.44708330  0.55842725  0.95130593
   0.55998204  0.44970653  0.05132634
   0.44388540  0.88873504  0.94402600
   0.55627182  0.77473642  0.05105562
   0.78263016  0.22489194  0.94780131
   0.89160203  0.11195530  0.04874350
   0.77623977  0.55660937  0.95050405
   0.89011649  0.44190033  0.05063940
   0.77994073  0.88785297  0.95099872
   0.88707390  0.78089673  0.05033023
unknown system                          
           1
     8.298587    4.779686    0.000000
    -8.293744    4.771291    0.000000
     0.000000    0.000000   30.000000
   V    Mo   W    S 
   3   3   3  18
Direct configuration=     9
   0.98919202  0.33147187  0.00057768
   0.00027095 -0.00436735 -0.00013066
   0.67201961  0.66946321 -0.00055184
   0.65204119  0.00191374  0.00012799
   0.01652196  0.67722755 -0.00036897
   0.33896354 -0.00628853  0.00003867
   0.33994744  0.32102812  0.00036056
   0.33225989  0.68835780 -0.00012331
   0.65695583  0.31907026  0.00014599
   0.10627167  0.21919435  0.95098969
   0.21655995  0.10651339  0.05162702
   0.11071276  0.55067856  0.94816470
   0.22019926  0.44446854  0.04772295
   0.10961900  0.89301365  0.94795222
   0.22310457  0.77915722  0.05554671
   0.44465618  0.21998685  0.94588958
   0.55443832  0.11157448  0.05526063
   0.44689086  0.55837871  0.95143105
   0.56006857  0.44964857  0.05136992
   0.44390222  0.88882917  0.94391044
   0.55620432  0.77481410  0.05104608
   0.78253683  0.22486833  0.94771329
   0.89140318  0.11184216  0.04872165
   0.77644751  0.55651186  0.95059456
   0.88998961  0.44201383  0.05060689
   0.77988674  0.88794718  0.95102797
   0.88715046  0.78089680  0.05034841
unknown system                          
           1
     8.288218    4.776917    0.000000
    -8.282941    4.767763    0.000000
     0.000000    0.000000   30.000000
   V    Mo   W    S 
   3   3   3  18
Direct configuration=    10
   0.98978900  0.33161390  0.00056604
   0.00025928 -0.00423956 -0.00011840
   0.67186897  0.66935447 -0.00053053
   0.65207804  0.00174073  0.00013264
   0.01602296  0.67683054 -0.00036904
   0.33901121 -0.00635015  0.00003519
   0.33962209  0.32143630  0.00033849
   0.33230422  0.68799799 -0.00011918
   0.65736007  0.31956086  0.00014464
   0.10617715  0.21914856  0.95093269
   0.21658265  0.10657905  0.05157792
   0.11065450  0.55060865  0.94816643
   0.22006474  0.44445212  0.04787390
   0.10954755  0.89299267  0.94798442
   0.22305924  0.77904946  0.05548095
   0.44462334  0.22008087  0.94598367
   0.55448768  0.11161775  0.05519671
   0.44701701  0.55842883  0.95133227
   0.56001954  0.44971188  0.05135211
   0.44388450  0.88875301  0.94395900
   0.55625377  0.77478008  0.05106670
   0.78259756  0.22486878  0.94776467
   0.89150945  0.11188926  0.04874320
   0.77630919  0.55658694  0.95051611
   0.89009051  0.44192751  0.05063940
   0.77991792  0.88789510  0.95100616
   0.88710230  0.78089886  0.05034375
unknown system                          
           1
     8.271062    4.772894    0.000000
    -8.267268    4.766319    0.000000
     0.000000    0.000000   30.000000
   V    Mo   W    S 
   3   3   3  18
Direct configuration=    11
   0.99186804  0.33200244  0.00055032
   0.00025625 -0.00354385 -0.00010132
   0.67152497  0.66855378 -0.00047642
   0.65147287  0.00144538  0.00011148
   0.01507369  0.67604609 -0.00034871
   0.34002434 -0.00575707  0.00003208
   0.33892273  0.32170494  0.00026323
   0.33234835  0.68751280 -0.00011448
   0.65732997  0.32023852  0.00014841
   0.10588701  0.21897519  0.95073158
   0.21668591  0.10660295  0.05143992
   0.11055219  0.55032879  0.94810426
   0.22008278  0.44471245  0.04828297
   0.10949449  0.89303350  0.94811119
   0.22299567  0.77890535  0.05538050
   0.44446574  0.22014290  0.94613440
   0.55459365  0.11177006  0.05515174
   0.44710474  0.55851030  0.95109650
   0.55995196  0.45007803  0.05137038
   0.44373076  0.88849359  0.94398326
   0.55635331  0.77483896  0.05112048
   0.78272513  0.22488594  0.94794940
   0.89161782  0.11173796  0.04877842
   0.77592585  0.55668169  0.95024322
   0.89032972  0.44155088  0.05070979
   0.77994946  0.88787529  0.95101441
   0.88694706  0.78088760  0.05033288
unknown system                          
           1
     8.283604    4.771592    0.000000
    -8.279476    4.764448    0.000000
     0.000000    0.000000   30.000000
   V    Mo   W    S 
   3   3   3  18
Direct configuration=    12
   1.00091432  0.33427422  0.00051740
  -0.00019005 -0.00134716 -0.00001016
   0.67007927  0.66582308 -0.00028478
   0.65061954 -0.00062315  0.00010546
   0.00934686  0.67123199 -0.00032810
   0.34211420 -0.00551510  0.00003743
   0.33499360  0.32575574 -0.00001336
   0.33231778  0.68357805 -0.00006020
   0.66056663  0.32578995  0.00017449
   0.10482075  0.21833533  0.94983748
   0.21715410  0.10709253  0.05094524
   0.10996180  0.54938380  0.94797078
   0.21940266  0.44511879  0.05016886
   0.10898907  0.89291134  0.94856279
   0.22254400  0.77808299  0.05473274
   0.44393355  0.22082972  0.94690815
   0.55525732  0.11253983  0.05475626
   0.44809301  0.55892711  0.94999177
   0.55929686  0.45106969  0.05135413
   0.44333282  0.88755012  0.94424384
   0.55681451  0.77479503  0.05133148
   0.78333011  0.22496981  0.94869256
   0.89235475  0.11179000  0.04900975
   0.77435475  0.55739738  0.94913440
   0.89145991  0.44019001  0.05101011
   0.78005750  0.88743989  0.95089163
   0.88629487  0.78082348  0.05031975
unknown system                          
           1
     8.287642    4.774847    0.000000
    -8.282595    4.766109    0.000000
     0.000000    0.000000   30.000000
   V    Mo   W    S 
   3   3   3  18
Direct configuration=    13
   1.00099052  0.33477611  0.00052817
  -0.00034702 -0.00207830 -0.00004542
   0.67156793  0.66604377 -0.00045254
   0.64979526 -0.00072012  0.00013685
   0.00982926  0.67164997 -0.00035146
   0.34205070 -0.00622358  0.00003548
   0.33521546  0.32554835  0.00003784
   0.33187695  0.68458135 -0.00013232
   0.65966098  0.32486396  0.00007243
   0.10538048  0.21861219  0.95001028
   0.21730717  0.10697618  0.05105521
   0.11011825  0.54977185  0.94796034
   0.22002177  0.44503985  0.04967514
   0.10941506  0.89284575  0.94855344
   0.22247329  0.77865133  0.05492261
   0.44401153  0.22051575  0.94670692
   0.55524993  0.11268772  0.05499278
   0.44765137  0.55872466  0.95047935
   0.55918531  0.45047506  0.05149382
   0.44330824  0.88777379  0.94401020
   0.55635889  0.77480061  0.05116270
   0.78308859  0.22508144  0.94868391
   0.89164351  0.11183810  0.04885109
   0.77504793  0.55714937  0.94943784
   0.89111175  0.44062524  0.05086403
   0.77971907  0.88753124  0.95100861
   0.88648225  0.78067280  0.05030261
unknown system                          
           1
     8.298914    4.779567    0.000000
    -8.290572    4.765113    0.000000
     0.000000    0.000000   30.000000
   V    Mo   W    S 
   3   3   3  18
Direct configuration=    14
   1.00659403  0.33696608  0.00053862
  -0.00095833 -0.00167581  0.00000096
   0.67317332  0.66402608 -0.00035584
   0.64761303 -0.00160577  0.00017545
   0.00790508  0.67002529 -0.00025310
   0.34406293 -0.00614778  0.00009643
   0.33371868  0.32640268 -0.00006387
   0.33073146  0.68398606 -0.00015165
   0.65916404  0.32622799  0.00015562
   0.10528494  0.21845393  0.94964532
   0.21768843  0.10692037  0.05090856
   0.10992262  0.54967540  0.94772755
   0.22073379  0.44569778  0.05022883
   0.10976294  0.89286110  0.94875373
   0.22217106  0.77886676  0.05485536
   0.44356927  0.22036953  0.94680485
   0.55555762  0.11329126  0.05507890
   0.44765162  0.55895398  0.95050794
   0.55893448  0.45057102  0.05159517
   0.44299789  0.88750081  0.94375374
   0.55602669  0.77473246  0.05096552
   0.78310239  0.22519764  0.94913033
   0.89107399  0.11173122  0.04869179
   0.77497176  0.55710898  0.94898521
   0.89128926  0.44021274  0.05075901
   0.77925891  0.88745475  0.95111840
   0.88621255  0.78040992  0.05034706
unknown system                          
           1
     8.290754    4.775373    0.000000
    -8.284578    4.764678    0.000000
     0.000000    0.000000   30.000000
   V    Mo   W    S 
   3   3   3  18
Direct configuration=    15
   1.00633270  0.33736690  0.00053206
  -0.00123758 -0.00233361 -0.00005066
   0.67510478  0.66395376 -0.00040860
   0.64667698 -0.00104907  0.00011378
   0.00952425  0.67150315 -0.00026957
   0.34448236 -0.00583489  0.00009389
   0.33454894  0.32462290 -0.00000856
   0.32974482  0.68535071 -0.00024568
   0.65689145  0.32423009  0.00012913
   0.10558966  0.21860401  0.94984744
   0.21762640  0.10669194  0.05099648
   0.10997669  0.54997307  0.94766251
   0.22147553  0.44602092  0.04977537
   0.11012011  0.89296532  0.94874914
   0.22223463  0.77940125  0.05512700
   0.44352074  0.21994925  0.94652413
   0.55539060  0.11330441  0.05535783
   0.44734038  0.55897897  0.95107447
   0.55904946  0.45027598  0.05169361
   0.44292546  0.88765751  0.94355742
   0.55562716  0.77462947  0.05070431
   0.78288046  0.22523300  0.94916421
   0.89056593  0.11173543  0.04842249
   0.77552699  0.55664011  0.94918273
   0.89091488  0.44040944  0.05050829
   0.77900466  0.88754977  0.95132089
   0.88637603  0.78038464  0.05044580
unknown system                          
           1
     8.286837    4.772727    0.000000
    -8.283103    4.766272    0.000000
     0.000000    0.000000   30.000000
   V    Mo   W    S 
   3   3   3  18
Direct configuration=    16
   1.00550835  0.33670069  0.00047331
  -0.00078047 -0.00193256 -0.00001856
   0.67331101  0.66435697 -0.00040989
   0.64740597 -0.00158561  0.00012630
   0.00817763  0.67017140 -0.00030632
   0.34394630 -0.00643785  0.00005388
   0.33413299  0.32629445 -0.00003156
   0.33096578  0.68475336 -0.00018768
   0.65904652  0.32570721  0.00006755
   0.10543658  0.21858964  0.94976707
   0.21774413  0.10691642  0.05091056
   0.10999374  0.54978360  0.94777332
   0.22083591  0.44562794  0.05002624
   0.10984513  0.89278982  0.94875372
   0.22216060  0.77894141  0.05495200
   0.44364838  0.22031822  0.94680910
   0.55549542  0.11326147  0.05515893
   0.44751912  0.55887881  0.95058655
   0.55898417  0.45042465  0.05162396
   0.44305576  0.88759098  0.94371138
   0.55597017  0.77473046  0.05101025
   0.78307800  0.22519004  0.94909396
   0.89088550  0.11177461  0.04866138
   0.77518230  0.55707774  0.94913065
   0.89119819  0.44038331  0.05079645
   0.77920465  0.88753652  0.95113926
   0.88626263  0.78037077  0.05032810
unknown system                          
           1
     8.282531    4.770450    0.000000
    -8.277857    4.762363    0.000000
     0.000000    0.000000   30.000000
   V    Mo   W    S 
   3   3   3  18
Direct configuration=    17
   1.00475166  0.33600271  0.00045017
  -0.00010656 -0.00121191  0.00001456
   0.67116848  0.66468082 -0.00040515
   0.64783080 -0.00236901  0.00020001
   0.00619043  0.66806471 -0.00030563
   0.34368509 -0.00717146  0.00008239
   0.33340262  0.32844183 -0.00002297
   0.33253339  0.68411690 -0.00005022
   0.66191085  0.32759306  0.00006492
   0.10520812  0.21855025  0.94965733
   0.21798956  0.10710000  0.05071888
   0.11006573  0.54956344  0.94787327
   0.22013176  0.44537941  0.05032113
   0.10959464  0.89259790  0.94883024
   0.22199145  0.77840903  0.05471943
   0.44373841  0.22067517  0.94716256
   0.55560173  0.11327839  0.05492811
   0.44771393  0.55887157  0.94996197
   0.55897833  0.45063881  0.05154386
   0.44319345  0.88750053  0.94372590
   0.55628583  0.77493818  0.05138737
   0.78336254  0.22508811  0.94902021
   0.89110131  0.11174835  0.04883662
   0.77474511  0.55754514  0.94895602
   0.89157253  0.44018928  0.05116548
   0.77945711  0.88765437  0.95097891
   0.88611614  0.78033887  0.05018454
unknown system                          
           1
     8.293136    4.776084    0.000000
    -8.286997    4.765456    0.000000
     0.000000    0.000000   30.000000
   V    Mo   W    S 
   3   3   3  18
Direct configuration=    18
   1.00409867  0.33599231  0.00042170
   0.00020412 -0.00110715 -0.00001840
   0.67098559  0.66453093 -0.00044404
   0.64689214 -0.00271356  0.00014943
   0.00551747  0.66715242 -0.00032219
   0.34403105 -0.00769290  0.00001972
   0.33345906  0.32902834 -0.00003787
   0.33325066  0.68481050 -0.00013082
   0.66284614  0.32790114  0.00003014
   0.10536493  0.21875937  0.94973644
   0.21828863  0.10708029  0.05060500
   0.11028429  0.54969675  0.94794459
   0.22025266  0.44563512  0.05021719
   0.10976103  0.89249269  0.94897811
   0.22183438  0.77836333  0.05473739
   0.44374420  0.22066635  0.94736170
   0.55555038  0.11334385  0.05499945
   0.44767426  0.55902309  0.95001708
   0.55913539  0.45065290  0.05147250
   0.44316263  0.88751350  0.94364378
   0.55619910  0.77502720  0.05144051
   0.78330827  0.22493042  0.94903666
   0.89072669  0.11160765  0.04868865
   0.77469406  0.55746772  0.94895487
   0.89156051  0.44003785  0.05128023
   0.77936863  0.88780976  0.95110674
   0.88601951  0.78020458  0.05011133
unknown system                          
           1
     8.299907    4.779248    0.000000
    -8.292728    4.766815    0.000000
     0.000000    0.000000   30.000000
   V    Mo   W    S 
   3   3   3  18
Direct configuration=    19
   1.00463466  0.33650375  0.00047449
  -0.00024276 -0.00158367 -0.00003213
   0.67262310  0.66428630 -0.00042401
   0.64659620 -0.00206823  0.00016215
   0.00698886  0.66867590 -0.00027762
   0.34426358 -0.00705596  0.00008666
   0.33393948  0.32731649 -0.00000241
   0.33201000  0.68524547 -0.00014327
   0.66072646  0.32643767  0.00009585
   0.10549135  0.21874948  0.94980283
   0.21809054  0.10689010  0.05073653
   0.11021705  0.54984204  0.94782146
   0.22077078  0.44587937  0.04998158
   0.10995699  0.89266931  0.94889954
   0.22195924  0.77876874  0.05489533
   0.44366026  0.22035416  0.94703693
   0.55544416  0.11332323  0.05515804
   0.44753743  0.55907329  0.95043954
   0.55918194  0.45050922  0.05155060
   0.44307850  0.88761131  0.94350995
   0.55593771  0.77490832  0.05115831
   0.78313136  0.22499385  0.94904508
   0.89052776  0.11159842  0.04853249
   0.77504308  0.55710671  0.94902445
   0.89129395  0.44015829  0.05101607
   0.77920556  0.88777590  0.95121691
   0.88614720  0.78024498  0.05023456
unknown system                          
           1
     8.293474    4.775917    0.000000
    -8.287953    4.766362    0.000000
     0.000000    0.000000   30.000000
   V    Mo   W    S 
   3   3   3  18
Direct configuration=    20
   1.00464433  0.33690417  0.00049270
  -0.00036132 -0.00187819 -0.00006339
   0.67378776  0.66396317 -0.00042428
   0.64595213 -0.00169297  0.00015033
   0.00762090  0.66923303 -0.00025107
   0.34460788 -0.00677189  0.00012037
   0.33430944  0.32626075  0.00001735
   0.33139034  0.68591985 -0.00017022
   0.65973686  0.32556085  0.00012488
   0.10565130  0.21884474  0.94989262
   0.21807545  0.10673282  0.05078417
   0.11026440  0.55000316  0.94775707
   0.22118518  0.44620209  0.04975792
   0.11016630  0.89274106  0.94891664
   0.22196497  0.77901238  0.05500489
   0.44363228  0.22015273  0.94689833
   0.55532137  0.11333087  0.05530964
   0.44745699  0.55919851  0.95075167
   0.55931079  0.45042764  0.05158406
   0.44299461  0.88770432  0.94335479
   0.55571435  0.77488845  0.05097640
   0.78297424  0.22493550  0.94903648
   0.89017572  0.11149662  0.04834558
   0.77525711  0.55681467  0.94905288
   0.89113303  0.44016961  0.05091895
   0.77904791  0.88784184  0.95136329
   0.88620014  0.78021866  0.05029784
unknown system                          
           1
     8.288032    4.773099    0.000000
    -8.283939    4.766025    0.000000
     0.000000    0.000000   30.000000
   V    Mo   W    S 
   3   3   3  18
Direct configuration=    21
   1.00469969  0.33643141  0.00046917
  -0.00030178 -0.00160746 -0.00001841
   0.67246936  0.66441597 -0.00042385
   0.64663864 -0.00216582  0.00017993
   0.00701910  0.66871826 -0.00027560
   0.34424702 -0.00717619  0.00010315
   0.33391476  0.32754484  0.00000346
   0.33209591  0.68520464 -0.00010247
   0.66072917  0.32645294  0.00008639
   0.10545643  0.21873994  0.94977762
   0.21811165  0.10688085  0.05070583
   0.11022896  0.54980579  0.94782510
   0.22071084  0.44585791  0.05003223
   0.10996181  0.89268820  0.94889256
   0.22198352  0.77872610  0.05487775
   0.44362901  0.22035460  0.94705061
   0.55544182  0.11329226  0.05513975
   0.44754768  0.55907447  0.95036392
   0.55916331  0.45053719  0.05155123
   0.44312667  0.88759107  0.94348655
   0.55594530  0.77488573  0.05120786
   0.78317220  0.22500599  0.94905252
   0.89056010  0.11161566  0.04856700
   0.77500941  0.55716309  0.94903161
   0.89130975  0.44016426  0.05101952
   0.77922765  0.88777513  0.95117277
   0.88611647  0.78023762  0.05022370
unknown system                          
           1
     8.284804    4.771620    0.000000
    -8.280298    4.763829    0.000000
     0.000000    0.000000   30.000000
   V    Mo   W    S 
   3   3   3  18
Direct configuration=    22
   1.00482054  0.33569347  0.00042217
  -0.00051975 -0.00141934  0.00005025
   0.67033055  0.66523073 -0.00045656
   0.64737236 -0.00313170  0.00020677
   0.00616548  0.66796992 -0.00034824
   0.34390678 -0.00818560  0.00002236
   0.33347563  0.33016994 -0.00002765
   0.33349893  0.68429128 -0.00006307
   0.66220463  0.32770285  0.00001171
   0.10515445  0.21863333  0.94961298
   0.21830357  0.10702717  0.05047954
   0.11029247  0.54955097  0.94798780
   0.21999552  0.44544098  0.05047855
   0.10980172  0.89263674  0.94890028
   0.22196759  0.77830497  0.05475345
   0.44349774  0.22051557  0.94736332
   0.55559314  0.11321777  0.05491059
   0.44770934  0.55899043  0.94974633
   0.55905754  0.45080853  0.05146221
   0.44336830  0.88735229  0.94366432
   0.55629665  0.77489368  0.05163970
   0.78344259  0.22504141  0.94912918
   0.89099318  0.11175029  0.04888144
   0.77461311  0.55769146  0.94907092
   0.89151041  0.44013015  0.05114517
   0.77944932  0.88771319  0.95087277
   0.88591267  0.78019399  0.05008360
unknown system                          
           1
     8.295145    4.776981    0.000000
    -8.288945    4.766248    0.000000
     0.000000    0.000000   30.000000
   V    Mo   W    S 
   3   3   3  18
Direct configuration=    23
   1.00512532  0.33533744  0.00045092
  -0.00088011 -0.00129866  0.00010760
   0.66920945  0.66586661 -0.00044359
   0.64722687 -0.00381898  0.00027583
   0.00647076  0.66803866 -0.00031847
   0.34389090 -0.00938752  0.00008790
   0.33310592  0.33205967  0.00002463
   0.33430234  0.68393357  0.00006946
   0.66257927  0.32761600  0.00000637
   0.10513279  0.21868493  0.94963014
   0.21867098  0.10714888  0.05010666
   0.11049568  0.54958573  0.94806636
   0.21980190  0.44549007  0.05060754
   0.10997074  0.89269857  0.94896674
   0.22201217  0.77810134  0.05467221
   0.44320318  0.22042299  0.94760127
   0.55553567  0.11311725  0.05483418
   0.44778375  0.55916556  0.94946256
   0.55912889  0.45096501  0.05135906
   0.44360477  0.88719442  0.94353200
   0.55630141  0.77500423  0.05184046
   0.78340457  0.22487443  0.94921573
   0.89088717  0.11164241  0.04886350
   0.77452576  0.55774712  0.94914447
   0.89146242  0.44007230  0.05109595
   0.77948929  0.88785190  0.95077048
   0.88577259  0.78010051  0.04996994
unknown system                          
           1
     8.298501    4.778551    0.000000
    -8.291577    4.766564    0.000000
     0.000000    0.000000   30.000000
   V    Mo   W    S 
   3   3   3  18
Direct configuration=    24
   1.00514989  0.33601385  0.00044962
  -0.00098881 -0.00168783  0.00003869
   0.67105259  0.66518923 -0.00045423
   0.64648388 -0.00302717  0.00018114
   0.00741268  0.66893080 -0.00032486
   0.34431924 -0.00866287  0.00004693
   0.33369728  0.33022676  0.00001227
   0.33317445  0.68474968 -0.00010125
   0.66101265  0.32630370  0.00001971
   0.10536939  0.21880693  0.94975037
   0.21853159  0.10695047  0.05028937
   0.11048213  0.54980987  0.94796038
   0.22039923  0.44588466  0.05030747
   0.11019802  0.89278582  0.94897009
   0.22199755  0.77847686  0.05489974
   0.44320938  0.22017928  0.94737297
   0.55537583  0.11314321  0.05509556
   0.44769781  0.55928423  0.94998470
   0.55926083  0.45080522  0.05143862
   0.44338243  0.88731167  0.94344325