   27   27  100    1
  0.9710400E+02  0.1002848E-08  0.1002848E-08  0.3000000E-08  0.5000000E-15
  1.000000000000000E-004
  CAR 
 unknown system                          
    159     34    120
 
  0.0000000E+00  0.0000000E+00  0.0000000E+00  0.1562500E-01
    1      -17.788050   1.000000
    2      -16.695649   1.000000
    3      -16.597568   1.000000
    4      -16.585376   1.000000
    5      -16.493856   1.000000
    6      -16.478125   1.000000
    7      -16.411394   1.000000
    8      -16.351438   1.000000
    9      -16.131848   1.000000
   10      -16.126629   1.000000
   11      -16.097462   1.000000
   12      -16.016968   1.000000
   13      -15.885812   1.000000
   14      -15.662459   1.000000
   15      -15.635503   1.000000
   16      -15.525874   1.000000
   17      -15.318477   1.000000
   18      -15.270731   1.000000
   19       -9.215091   1.000000
   20       -8.965615   1.000000
   21       -8.936109   1.000000
   22       -8.826506   1.000000
   23       -8.745339   1.000000
   24       -8.715333   1.000000
   25       -8.651318   1.000000
   26       -8.605551   1.000000
   27       -8.502552   1.000000
   28       -8.440719   1.000000
   29       -8.381535   1.000000
   30       -8.348193   1.000000
   31       -8.317290   1.000000
   32       -8.173227   1.000000
   33       -7.995244   1.000000
   34       -7.979915   1.000000
   35       -7.862897   1.000000
   36       -7.797564   1.000000
   37       -7.777684   1.000000
   38       -7.538881   1.000000
   39       -7.407681   1.000000
   40       -7.390425   1.000000
   41       -7.343830   1.000000
   42       -7.273436   1.000000
   43       -7.103857   1.000000
   44       -6.966562   1.000000
   45       -6.830616   1.000000
   46       -6.792918   1.000000
   47       -6.736209   1.000000
   48       -6.585805   1.000000
   49       -6.568740   1.000000
   50       -6.506085   1.000000
   51       -6.425180   1.000000
   52       -6.383924   1.000000
   53       -6.287938   1.000000
   54       -6.282031   1.000000
   55       -6.234205   1.000000
   56       -6.202724   1.000000
   57       -6.039146   1.000000
   58       -5.929593   1.000000
   59       -5.704613   1.000000
   60       -5.568700   1.000000
   61       -5.527803   1.000000
   62       -5.431180   1.000000
   63       -5.307653   1.000000
   64       -5.178635   1.000000
   65       -5.134008   1.000000
   66       -5.020088   1.000000
   67       -4.993039   1.000000
   68       -4.841136   1.000000
   69       -4.809986   1.000000
   70       -4.738306   1.000000
   71       -4.652188   1.000000
   72       -4.577488   1.000000
   73       -4.479050   1.000000
   74       -4.191464   1.000000
   75       -4.159481   1.000000
   76       -4.054967   1.000000
   77       -3.734815   0.999634
   78       -3.542437   0.978150
   79       -3.521497   0.969180
   80       -3.422441   0.878687
   81       -3.313143   0.653799
   82       -2.879604   0.003793
   83       -2.634022   0.000005
   84       -2.582206   0.000001
   85       -2.446527   0.000000
   86       -2.416034   0.000000
   87       -2.251562   0.000000
   88       -2.171436   0.000000
   89       -2.145831   0.000000
   90       -2.022844   0.000000
   91       -1.972222   0.000000
   92       -1.865443   0.000000
   93       -1.446265   0.000000
   94       -1.230273   0.000000
   95       -1.117014   0.000000
   96       -1.053597   0.000000
   97       -0.993701   0.000000
   98       -0.847587   0.000000
   99       -0.711900   0.000000
  100       -0.677065   0.000000
  101       -0.654632   0.000000
  102       -0.441223   0.000000
  103       -0.406335   0.000000
  104       -0.382904   0.000000
  105       -0.265964   0.000000
  106       -0.102755   0.000000
  107       -0.077593   0.000000
  108        0.030523   0.000000
  109        0.059650   0.000000
  110        0.198546   0.000000
  111        0.318077   0.000000
  112        0.411646   0.000000
  113        0.726642   0.000000
  114        0.870026   0.000000
  115        0.992153   0.000000
  116        1.094717   0.000000
  117        1.154332   0.000000
  118        1.631185   0.000000
  119        1.825036   0.000000
  120        2.133956   0.000000
 
  0.1250000E+00  0.2775558E-16  0.0000000E+00  0.3125000E-01
    1      -17.763016   1.000000
    2      -16.768667   1.000000
    3      -16.652865   1.000000
    4      -16.622198   1.000000
    5      -16.548163   1.000000
    6      -16.416194   1.000000
    7      -16.356287   1.000000
    8      -16.311450   1.000000
    9      -16.185265   1.000000
   10      -16.114561   1.000000
   11      -16.034521   1.000000
   12      -15.966421   1.000000
   13      -15.881810   1.000000
   14      -15.682783   1.000000
   15      -15.629761   1.000000
   16      -15.524974   1.000000
   17      -15.321005   1.000000
   18      -15.282011   1.000000
   19       -9.233607   1.000000
   20       -9.114317   1.000000
   21       -8.992490   1.000000
   22       -8.952934   1.000000
   23       -8.785003   1.000000
   24       -8.729415   1.000000
   25       -8.649129   1.000000
   26       -8.587918   1.000000
   27       -8.489780   1.000000
   28       -8.400503   1.000000
   29       -8.379223   1.000000
   30       -8.329386   1.000000
   31       -8.165335   1.000000
   32       -8.058266   1.000000
   33       -7.984105   1.000000
   34       -7.930483   1.000000
   35       -7.805838   1.000000
   36       -7.737959   1.000000
   37       -7.673859   1.000000
   38       -7.554896   1.000000
   39       -7.531481   1.000000
   40       -7.385319   1.000000
   41       -7.311953   1.000000
   42       -7.229052   1.000000
   43       -7.112748   1.000000
   44       -6.979984   1.000000
   45       -6.927117   1.000000
   46       -6.843505   1.000000
   47       -6.731967   1.000000
   48       -6.599864   1.000000
   49       -6.491261   1.000000
   50       -6.468276   1.000000
   51       -6.421068   1.000000
   52       -6.394271   1.000000
   53       -6.324754   1.000000
   54       -6.278551   1.000000
   55       -6.223912   1.000000
   56       -6.195066   1.000000
   57       -5.989215   1.000000
   58       -5.943729   1.000000
   59       -5.686371   1.000000
   60       -5.608370   1.000000
   61       -5.542954   1.000000
   62       -5.438986   1.000000
   63       -5.356813   1.000000
   64       -5.236785   1.000000
   65       -5.153207   1.000000
   66       -5.023080   1.000000
   67       -4.992768   1.000000
   68       -4.924167   1.000000
   69       -4.800721   1.000000
   70       -4.730433   1.000000
   71       -4.703236   1.000000
   72       -4.505480   1.000000
   73       -4.432868   1.000000
   74       -4.177798   1.000000
   75       -4.047592   1.000000
   76       -4.033778   1.000000
   77       -3.828544   0.999973
   78       -3.751282   0.999762
   79       -3.540071   0.977262
   80       -3.319900   0.671253
   81       -3.188328   0.313135
   82       -2.851413   0.002057
   83       -2.616362   0.000003
   84       -2.602754   0.000002
   85       -2.447994   0.000000
   86       -2.380330   0.000000
   87       -2.254794   0.000000
   88       -2.156737   0.000000
   89       -2.133213   0.000000
   90       -2.016149   0.000000
   91       -1.994122   0.000000
   92       -1.848838   0.000000
   93       -1.441085   0.000000
   94       -1.224520   0.000000
   95       -1.119132   0.000000
   96       -1.041325   0.000000
   97       -0.992936   0.000000
   98       -0.869382   0.000000
   99       -0.772059   0.000000
  100       -0.728081   0.000000
  101       -0.678541   0.000000
  102       -0.551241   0.000000
  103       -0.466446   0.000000
  104       -0.414908   0.000000
  105       -0.325954   0.000000
  106       -0.120485   0.000000
  107       -0.086746   0.000000
  108        0.013316   0.000000
  109        0.063710   0.000000
  110        0.231505   0.000000
  111        0.407801   0.000000
  112        0.502036   0.000000
  113        0.736157   0.000000
  114        0.839944   0.000000
  115        0.989662   0.000000
  116        1.102133   0.000000
  117        1.126874   0.000000
  118        1.675223   0.000000
  119        1.863138   0.000000
  120        2.169036   0.000000
 
  0.2500000E+00  0.5551115E-16  0.0000000E+00  0.3125000E-01
    1      -17.689135   1.000000
    2      -16.973376   1.000000
    3      -16.686662   1.000000
    4      -16.658390   1.000000
    5      -16.599583   1.000000
    6      -16.377381   1.000000
    7      -16.287086   1.000000
    8      -16.270818   1.000000
    9      -16.186993   1.000000
   10      -16.092639   1.000000
   11      -15.982557   1.000000
   12      -15.895078   1.000000
   13      -15.825862   1.000000
   14      -15.718182   1.000000
   15      -15.625860   1.000000
   16      -15.526726   1.000000
   17      -15.352764   1.000000
   18      -15.285380   1.000000
   19       -9.483086   1.000000
   20       -9.183198   1.000000
   21       -9.076101   1.000000
   22       -9.048323   1.000000
   23       -8.877000   1.000000
   24       -8.797470   1.000000
   25       -8.649661   1.000000
   26       -8.561470   1.000000
   27       -8.440463   1.000000
   28       -8.368602   1.000000
   29       -8.262778   1.000000
   30       -8.191667   1.000000
   31       -8.153017   1.000000
   32       -8.038802   1.000000
   33       -7.869509   1.000000
   34       -7.842008   1.000000
   35       -7.772722   1.000000
   36       -7.661383   1.000000
   37       -7.587218   1.000000
   38       -7.523355   1.000000
   39       -7.429677   1.000000
   40       -7.400563   1.000000
   41       -7.273387   1.000000
   42       -7.156414   1.000000
   43       -7.070477   1.000000
   44       -7.040059   1.000000
   45       -6.961016   1.000000
   46       -6.828938   1.000000
   47       -6.744622   1.000000
   48       -6.668459   1.000000
   49       -6.551041   1.000000
   50       -6.463707   1.000000
   51       -6.405801   1.000000
   52       -6.376195   1.000000
   53       -6.324309   1.000000
   54       -6.211290   1.000000
   55       -6.177680   1.000000
   56       -6.113608   1.000000
   57       -6.008362   1.000000
   58       -5.866834   1.000000
   59       -5.789124   1.000000
   60       -5.680618   1.000000
   61       -5.662926   1.000000
   62       -5.588738   1.000000
   63       -5.402420   1.000000
   64       -5.320423   1.000000
   65       -5.205154   1.000000
   66       -5.062138   1.000000
   67       -5.025564   1.000000
   68       -4.950276   1.000000
   69       -4.851117   1.000000
   70       -4.640966   1.000000
   71       -4.603984   1.000000
   72       -4.421595   1.000000
   73       -4.335530   1.000000
   74       -4.266448   1.000000
   75       -4.124462   1.000000
   76       -4.029085   1.000000
   77       -3.955272   1.000000
   78       -3.770102   0.999857
   79       -3.533680   0.974710
   80       -3.174976   0.280487
   81       -3.050651   0.072076
   82       -2.800442   0.000619
   83       -2.635080   0.000005
   84       -2.552558   0.000000
   85       -2.453665   0.000000
   86       -2.362576   0.000000
   87       -2.280389   0.000000
   88       -2.119025   0.000000
   89       -2.104157   0.000000
   90       -2.050671   0.000000
   91       -1.949056   0.000000
   92       -1.779659   0.000000
   93       -1.440436   0.000000
   94       -1.230379   0.000000
   95       -1.138312   0.000000
   96       -1.030440   0.000000
   97       -0.979967   0.000000
   98       -0.970888   0.000000
   99       -0.904778   0.000000
  100       -0.840003   0.000000
  101       -0.747507   0.000000
  102       -0.681939   0.000000
  103       -0.590426   0.000000
  104       -0.472849   0.000000
  105       -0.404507   0.000000
  106       -0.170667   0.000000
  107       -0.086252   0.000000
  108       -0.079668   0.000000
  109        0.053193   0.000000
  110        0.268400   0.000000
  111        0.524180   0.000000
  112        0.613351   0.000000
  113        0.764194   0.000000
  114        0.836777   0.000000
  115        0.992175   0.000000
  116        1.074021   0.000000
  117        1.165082   0.000000
  118        1.797474   0.000000
  119        1.973223   0.000000
  120        2.273056   0.000000
 
  0.3750000E+00  0.0000000E+00  0.0000000E+00  0.3125000E-01
    1      -17.571555   1.000000
    2      -17.187263   1.000000
    3      -16.729742   1.000000
    4      -16.672946   1.000000
    5      -16.614230   1.000000
    6      -16.379316   1.000000
    7      -16.270005   1.000000
    8      -16.248757   1.000000
    9      -16.122733   1.000000
   10      -16.056640   1.000000
   11      -15.951323   1.000000
   12      -15.886454   1.000000
   13      -15.774307   1.000000
   14      -15.702990   1.000000
   15      -15.628441   1.000000
   16      -15.525194   1.000000
   17      -15.416437   1.000000
   18      -15.267948   1.000000
   19       -9.695294   1.000000
   20       -9.300020   1.000000
   21       -9.135445   1.000000
   22       -9.047612   1.000000
   23       -8.889761   1.000000
   24       -8.846214   1.000000
   25       -8.609347   1.000000
   26       -8.485789   1.000000
   27       -8.426408   1.000000
   28       -8.289629   1.000000
   29       -8.251827   1.000000
   30       -8.229673   1.000000
   31       -8.088889   1.000000
   32       -8.037817   1.000000
   33       -7.898858   1.000000
   34       -7.855153   1.000000
   35       -7.773767   1.000000
   36       -7.687499   1.000000
   37       -7.506371   1.000000
   38       -7.470704   1.000000
   39       -7.349709   1.000000
   40       -7.250540   1.000000
   41       -7.186098   1.000000
   42       -7.145447   1.000000
   43       -7.066719   1.000000
   44       -6.941316   1.000000
   45       -6.866937   1.000000
   46       -6.803358   1.000000
   47       -6.752791   1.000000
   48       -6.596910   1.000000
   49       -6.537420   1.000000
   50       -6.490065   1.000000
   51       -6.409383   1.000000
   52       -6.350743   1.000000
   53       -6.282861   1.000000
   54       -6.199019   1.000000
   55       -6.155097   1.000000
   56       -6.094120   1.000000
   57       -5.940995   1.000000
   58       -5.915020   1.000000
   59       -5.886972   1.000000
   60       -5.860359   1.000000
   61       -5.781826   1.000000
   62       -5.700875   1.000000
   63       -5.631175   1.000000
   64       -5.320214   1.000000
   65       -5.167342   1.000000
   66       -5.072971   1.000000
   67       -5.035428   1.000000
   68       -4.958768   1.000000
   69       -4.828960   1.000000
   70       -4.713712   1.000000
   71       -4.541643   1.000000
   72       -4.447884   1.000000
   73       -4.338475   1.000000
   74       -4.269629   1.000000
   75       -4.230137   1.000000
   76       -4.046784   1.000000
   77       -3.917451   0.999998
   78       -3.660838   0.997843
   79       -3.540132   0.977285
   80       -3.030078   0.054140
   81       -2.943665   0.013311
   82       -2.787978   0.000454
   83       -2.618544   0.000003
   84       -2.527558   0.000000
   85       -2.463507   0.000000
   86       -2.416001   0.000000
   87       -2.254596   0.000000
   88       -2.152632   0.000000
   89       -2.063240   0.000000
   90       -2.011268   0.000000
   91       -1.922984   0.000000
   92       -1.638163   0.000000
   93       -1.454994   0.000000
   94       -1.272392   0.000000
   95       -1.192954   0.000000
   96       -1.113741   0.000000
   97       -1.075906   0.000000
   98       -1.020480   0.000000
   99       -0.944941   0.000000
  100       -0.925412   0.000000
  101       -0.807637   0.000000
  102       -0.733937   0.000000
  103       -0.663781   0.000000
  104       -0.520031   0.000000
  105       -0.435503   0.000000
  106       -0.205734   0.000000
  107       -0.192371   0.000000
  108       -0.113028   0.000000
  109       -0.001664   0.000000
  110        0.267973   0.000000
  111        0.582383   0.000000
  112        0.641713   0.000000
  113        0.787552   0.000000
  114        0.874309   0.000000
  115        1.010651   0.000000
  116        1.063576   0.000000
  117        1.266166   0.000000
  118        1.980230   0.000000
  119        2.145958   0.000000
  120        2.442441   0.000000
 
  0.5000000E+00  0.1110223E-15  0.0000000E+00  0.1562500E-01
    1      -17.459004   1.000000
    2      -17.333826   1.000000
    3      -16.745084   1.000000
    4      -16.682084   1.000000
    5      -16.613330   1.000000
    6      -16.384762   1.000000
    7      -16.270469   1.000000
    8      -16.242367   1.000000
    9      -16.073126   1.000000
   10      -16.030453   1.000000
   11      -15.989126   1.000000
   12      -15.824635   1.000000
   13      -15.815426   1.000000
   14      -15.673391   1.000000
   15      -15.627655   1.000000
   16      -15.503355   1.000000
   17      -15.468790   1.000000
   18      -15.257541   1.000000
   19       -9.772015   1.000000
   20       -9.343086   1.000000
   21       -9.166701   1.000000
   22       -9.064198   1.000000
   23       -8.871854   1.000000
   24       -8.821345   1.000000
   25       -8.592821   1.000000
   26       -8.494741   1.000000
   27       -8.380661   1.000000
   28       -8.344466   1.000000
   29       -8.239400   1.000000
   30       -8.150222   1.000000
   31       -8.131040   1.000000
   32       -8.042236   1.000000
   33       -7.892828   1.000000
   34       -7.816176   1.000000
   35       -7.804765   1.000000
   36       -7.782438   1.000000
   37       -7.514257   1.000000
   38       -7.448328   1.000000
   39       -7.276736   1.000000
   40       -7.260273   1.000000
   41       -7.123707   1.000000
   42       -7.025965   1.000000
   43       -7.008958   1.000000
   44       -6.910418   1.000000
   45       -6.889723   1.000000
   46       -6.796769   1.000000
   47       -6.743532   1.000000
   48       -6.570000   1.000000
   49       -6.539637   1.000000
   50       -6.431731   1.000000
   51       -6.375605   1.000000
   52       -6.344148   1.000000
   53       -6.261202   1.000000
   54       -6.152451   1.000000
   55       -6.148665   1.000000
   56       -6.119446   1.000000
   57       -6.101220   1.000000
   58       -5.978206   1.000000
   59       -5.918108   1.000000
   60       -5.851080   1.000000
   61       -5.826462   1.000000
   62       -5.713836   1.000000
   63       -5.563939   1.000000
   64       -5.356636   1.000000
   65       -5.305940   1.000000
   66       -5.104663   1.000000
   67       -5.088039   1.000000
   68       -4.937606   1.000000
   69       -4.784349   1.000000
   70       -4.747363   1.000000
   71       -4.508304   1.000000
   72       -4.461362   1.000000
   73       -4.377434   1.000000
   74       -4.267637   1.000000
   75       -4.212675   1.000000
   76       -4.041563   1.000000
   77       -3.880308   0.999995
   78       -3.620421   0.994891
   79       -3.556381   0.982808
   80       -2.943644   0.013306
   81       -2.903332   0.006171
   82       -2.807178   0.000731
   83       -2.578422   0.000001
   84       -2.556517   0.000000
   85       -2.467906   0.000000
   86       -2.450562   0.000000
   87       -2.226729   0.000000
   88       -2.166317   0.000000
   89       -2.042506   0.000000
   90       -1.984741   0.000000
   91       -1.927852   0.000000
   92       -1.554245   0.000000
   93       -1.454670   0.000000
   94       -1.313186   0.000000
   95       -1.242059   0.000000
   96       -1.142880   0.000000
   97       -1.124718   0.000000
   98       -1.081575   0.000000
   99       -0.946319   0.000000
  100       -0.924058   0.000000
  101       -0.818145   0.000000
  102       -0.768526   0.000000
  103       -0.669097   0.000000
  104       -0.523605   0.000000
  105       -0.464268   0.000000
  106       -0.237167   0.000000
  107       -0.211675   0.000000
  108       -0.137096   0.000000
  109       -0.031529   0.000000
  110        0.262908   0.000000
  111        0.584775   0.000000
  112        0.659677   0.000000
  113        0.798161   0.000000
  114        0.876137   0.000000
  115        1.037316   0.000000
  116        1.058499   0.000000
  117        1.315829   0.000000
  118        2.186779   0.000000
  119        2.245272   0.000000
  120        2.367138   0.000000
 
  0.0000000E+00  0.1250000E+00  0.0000000E+00  0.3125000E-01
    1      -17.762928   1.000000
    2      -16.773144   1.000000
    3      -16.675540   1.000000
    4      -16.603339   1.000000
    5      -16.517537   1.000000
    6      -16.434560   1.000000
    7      -16.370686   1.000000
    8      -16.291236   1.000000
    9      -16.195870   1.000000
   10      -16.111288   1.000000
   11      -16.033194   1.000000
   12      -15.984416   1.000000
   13      -15.860803   1.000000
   14      -15.679699   1.000000
   15      -15.636148   1.000000
   16      -15.531748   1.000000
   17      -15.324963   1.000000
   18      -15.275521   1.000000
   19       -9.214323   1.000000
   20       -9.133472   1.000000
   21       -8.995405   1.000000
   22       -8.932763   1.000000
   23       -8.778394   1.000000
   24       -8.720150   1.000000
   25       -8.686257   1.000000
   26       -8.550522   1.000000
   27       -8.488010   1.000000
   28       -8.449275   1.000000
   29       -8.394325   1.000000
   30       -8.264484   1.000000
   31       -8.201189   1.000000
   32       -8.064956   1.000000
   33       -7.978345   1.000000
   34       -7.890841   1.000000
   35       -7.824226   1.000000
   36       -7.749615   1.000000
   37       -7.710419   1.000000
   38       -7.570355   1.000000
   39       -7.481835   1.000000
   40       -7.383427   1.000000
   41       -7.293149   1.000000
   42       -7.237289   1.000000
   43       -7.143586   1.000000
   44       -7.013140   1.000000
   45       -6.874428   1.000000
   46       -6.824260   1.000000
   47       -6.751580   1.000000
   48       -6.623715   1.000000
   49       -6.544891   1.000000
   50       -6.450723   1.000000
   51       -6.432914   1.000000
   52       -6.383295   1.000000
   53       -6.333100   1.000000
   54       -6.264019   1.000000
   55       -6.214273   1.000000
   56       -6.172300   1.000000
   57       -5.964085   1.000000
   58       -5.941889   1.000000
   59       -5.709265   1.000000
   60       -5.571153   1.000000
   61       -5.553156   1.000000
   62       -5.439259   1.000000
   63       -5.309779   1.000000
   64       -5.290872   1.000000
   65       -5.198996   1.000000
   66       -5.080377   1.000000
   67       -5.011204   1.000000
   68       -4.854487   1.000000
   69       -4.813480   1.000000
   70       -4.708895   1.000000
   71       -4.607816   1.000000
   72       -4.491326   1.000000
   73       -4.451560   1.000000
   74       -4.174334   1.000000
   75       -4.074366   1.000000
   76       -4.039303   1.000000
   77       -3.896102   0.999997
   78       -3.697323   0.999071
   79       -3.476328   0.939368
   80       -3.417307   0.871213
   81       -3.177792   0.287235
   82       -2.848555   0.001929
   83       -2.625853   0.000004
   84       -2.587266   0.000001
   85       -2.433429   0.000000
   86       -2.405231   0.000000
   87       -2.236198   0.000000
   88       -2.158177   0.000000
   89       -2.132270   0.000000
   90       -2.019694   0.000000
   91       -1.965506   0.000000
   92       -1.869976   0.000000
   93       -1.447354   0.000000
   94       -1.239936   0.000000
   95       -1.108706   0.000000
   96       -1.050197   0.000000
   97       -0.987098   0.000000
   98       -0.860400   0.000000
   99       -0.766988   0.000000
  100       -0.726181   0.000000
  101       -0.662029   0.000000
  102       -0.511048   0.000000
  103       -0.480470   0.000000
  104       -0.431150   0.000000
  105       -0.305142   0.000000
  106       -0.175511   0.000000
  107       -0.129936   0.000000
  108       -0.011712   0.000000
  109        0.099946   0.000000
  110        0.208343   0.000000
  111        0.389983   0.000000
  112        0.494564   0.000000
  113        0.694685   0.000000
  114        0.863977   0.000000
  115        1.023499   0.000000
  116        1.100705   0.000000
  117        1.191665   0.000000
  118        1.675195   0.000000
  119        1.864488   0.000000
  120        2.168928   0.000000
 
  0.1250000E+00  0.1250000E+00  0.0000000E+00  0.3125000E-01
    1      -17.712680   1.000000
    2      -16.904706   1.000000
    3      -16.758313   1.000000
    4      -16.628118   1.000000
    5      -16.499809   1.000000
    6      -16.405834   1.000000
    7      -16.313326   1.000000
    8      -16.285799   1.000000
    9      -16.187098   1.000000
   10      -16.106413   1.000000
   11      -16.004646   1.000000
   12      -15.907088   1.000000
   13      -15.837903   1.000000
   14      -15.704260   1.000000
   15      -15.633878   1.000000
   16      -15.528500   1.000000
   17      -15.336512   1.000000
   18      -15.288264   1.000000
   19       -9.382203   1.000000
   20       -9.211301   1.000000
   21       -9.104339   1.000000
   22       -9.024905   1.000000
   23       -8.798059   1.000000
   24       -8.704319   1.000000
   25       -8.669423   1.000000
   26       -8.565156   1.000000
   27       -8.456696   1.000000
   28       -8.389094   1.000000
   29       -8.315969   1.000000
   30       -8.248796   1.000000
   31       -8.130741   1.000000
   32       -8.063764   1.000000
   33       -7.919670   1.000000
   34       -7.827429   1.000000
   35       -7.766497   1.000000
   36       -7.692110   1.000000
   37       -7.644483   1.000000
   38       -7.494201   1.000000
   39       -7.440955   1.000000
   40       -7.353428   1.000000
   41       -7.309648   1.000000
   42       -7.224204   1.000000
   43       -7.131139   1.000000
   44       -7.019665   1.000000
   45       -6.953292   1.000000
   46       -6.838676   1.000000
   47       -6.757939   1.000000
   48       -6.620272   1.000000
   49       -6.570394   1.000000
   50       -6.465427   1.000000
   51       -6.423787   1.000000
   52       -6.362427   1.000000
   53       -6.308885   1.000000
   54       -6.233773   1.000000
   55       -6.175518   1.000000
   56       -6.152780   1.000000
   57       -6.000949   1.000000
   58       -5.887761   1.000000
   59       -5.750874   1.000000
   60       -5.678493   1.000000
   61       -5.581300   1.000000
   62       -5.475556   1.000000
   63       -5.410348   1.000000
   64       -5.285099   1.000000
   65       -5.228898   1.000000
   66       -5.108309   1.000000
   67       -5.049737   1.000000
   68       -4.937046   1.000000
   69       -4.778643   1.000000
   70       -4.683997   1.000000
   71       -4.594440   1.000000
   72       -4.427619   1.000000
   73       -4.370647   1.000000
   74       -4.165740   1.000000
   75       -4.147260   1.000000
   76       -4.034578   1.000000
   77       -3.912484   0.999998
   78       -3.822222   0.999968
   79       -3.493884   0.952898
   80       -3.309096   0.643183
   81       -3.047706   0.069259
   82       -2.806644   0.000722
   83       -2.632100   0.000005
   84       -2.579566   0.000001
   85       -2.436291   0.000000
   86       -2.373797   0.000000
   87       -2.261507   0.000000
   88       -2.126612   0.000000
   89       -2.090501   0.000000
   90       -2.052527   0.000000
   91       -1.952523   0.000000
   92       -1.828387   0.000000
   93       -1.443882   0.000000
   94       -1.242386   0.000000
   95       -1.117957   0.000000
   96       -1.039890   0.000000
   97       -0.972562   0.000000
   98       -0.924228   0.000000
   99       -0.857613   0.000000
  100       -0.794088   0.000000
  101       -0.697325   0.000000
  102       -0.659813   0.000000
  103       -0.543596   0.000000
  104       -0.496583   0.000000
  105       -0.390433   0.000000
  106       -0.184913   0.000000
  107       -0.155335   0.000000
  108       -0.042103   0.000000
  109        0.081438   0.000000
  110        0.254061   0.000000
  111        0.453218   0.000000
  112        0.587728   0.000000
  113        0.761508   0.000000
  114        0.865267   0.000000
  115        1.022767   0.000000
  116        1.062230   0.000000
  117        1.188798   0.000000
  118        1.758661   0.000000
  119        1.938080   0.000000
  120        2.238550   0.000000
 
  0.2500000E+00  0.1250000E+00  0.0000000E+00  0.3125000E-01
    1      -17.615674   1.000000
    2      -17.086176   1.000000
    3      -16.862463   1.000000
    4      -16.622361   1.000000
    5      -16.499353   1.000000
    6      -16.368130   1.000000
    7      -16.299949   1.000000
    8      -16.260975   1.000000
    9      -16.145222   1.000000
   10      -16.088399   1.000000
   11      -15.956865   1.000000
   12      -15.894192   1.000000
   13      -15.785264   1.000000
   14      -15.719620   1.000000
   15      -15.622052   1.000000
   16      -15.526325   1.000000
   17      -15.383815   1.000000
   18      -15.278190   1.000000
   19       -9.601756   1.000000
   20       -9.364078   1.000000
   21       -9.175808   1.000000
   22       -9.018272   1.000000
   23       -8.820206   1.000000
   24       -8.730458   1.000000
   25       -8.610191   1.000000
   26       -8.507010   1.000000
   27       -8.413938   1.000000
   28       -8.321027   1.000000
   29       -8.285935   1.000000
   30       -8.210104   1.000000
   31       -8.127997   1.000000
   32       -8.056424   1.000000
   33       -7.941936   1.000000
   34       -7.890287   1.000000
   35       -7.783016   1.000000
   36       -7.621200   1.000000
   37       -7.524071   1.000000
   38       -7.459680   1.000000
   39       -7.400218   1.000000
   40       -7.292099   1.000000
   41       -7.221466   1.000000
   42       -7.154772   1.000000
   43       -7.046393   1.000000
   44       -6.979693   1.000000
   45       -6.894126   1.000000
   46       -6.797452   1.000000
   47       -6.741879   1.000000