       N       E                     dE             d eps       ncg     rms          rms(c)
DAV:   1     0.112447737281E+04    0.11245E+04   -0.35857E+04  8160   0.577E+02
DAV:   2    -0.147083876272E+01   -0.11259E+04   -0.10831E+04 11000   0.173E+02
DAV:   3    -0.199467892622E+03   -0.19800E+03   -0.18993E+03 10880   0.822E+01
DAV:   4    -0.208873120911E+03   -0.94052E+01   -0.90947E+01 12080   0.263E+01
DAV:   5    -0.209224252930E+03   -0.35113E+00   -0.35012E+00 11840   0.371E+00    0.274E+01
DAV:   6    -0.236380150216E+03   -0.27156E+02   -0.11201E+02 12760   0.602E+01    0.592E+01
DAV:   7    -0.196823916462E+03    0.39556E+02   -0.17550E+02 13280   0.151E+02    0.206E+01
DAV:   8    -0.190298836077E+03    0.65251E+01   -0.21184E+01 11520   0.135E+01    0.140E+01
DAV:   9    -0.188295689457E+03    0.20031E+01   -0.37466E+00 12240   0.644E+00    0.935E+00
DAV:  10    -0.187100716513E+03    0.11950E+01   -0.17500E+00 13360   0.770E+00    0.325E+00
DAV:  11    -0.187014600623E+03    0.86116E-01   -0.66250E-01 12280   0.235E+00    0.243E+00
DAV:  12    -0.186973686731E+03    0.40914E-01   -0.37717E-01 13000   0.253E+00    0.273E+00
DAV:  13    -0.186929977679E+03    0.43709E-01   -0.19278E-01 13240   0.280E+00    0.205E+00
DAV:  14    -0.186892058422E+03    0.37919E-01   -0.95446E-02 13040   0.183E+00    0.616E-01
DAV:  15    -0.186887562941E+03    0.44955E-02   -0.15625E-02 12000   0.434E-01    0.497E-01
DAV:  16    -0.186887470152E+03    0.92789E-04   -0.11098E-02 13400   0.527E-01    0.600E-01
DAV:  17    -0.186885086404E+03    0.23837E-02   -0.10392E-02 12800   0.541E-01    0.286E-01
DAV:  18    -0.186884014586E+03    0.10718E-02   -0.25787E-03 12600   0.226E-01    0.186E-01
DAV:  19    -0.186883813112E+03    0.20147E-03   -0.87163E-04 10960   0.149E-01    0.478E-02
DAV:  20    -0.186884679820E+03   -0.86671E-03   -0.85382E-04  9080   0.590E-02    0.460E-02
DAV:  21    -0.186885431984E+03   -0.75216E-03   -0.22792E-04  8200   0.511E-02    0.333E-02
DAV:  22    -0.186886286609E+03   -0.85463E-03   -0.11868E-04  7160   0.316E-02    0.383E-02
DAV:  23    -0.186887531130E+03   -0.12445E-02   -0.15385E-04  7440   0.481E-02    0.219E-02
DAV:  24    -0.186888066240E+03   -0.53511E-03   -0.29682E-05  6800   0.233E-02    0.513E-03
DAV:  25    -0.186888472972E+03   -0.40673E-03   -0.20664E-05  5440   0.100E-02    0.518E-03
DAV:  26    -0.186888710889E+03   -0.23792E-03   -0.92176E-06  6840   0.795E-03    0.165E-03
DAV:  27    -0.186888797395E+03   -0.86506E-04   -0.31631E-06  7200   0.388E-03
   1 F= -.18688880E+03 E0= -.18671741E+03  d E =-.186889E+03
       N       E                     dE             d eps       ncg     rms          rms(c)
DAV:   1    -0.187544154908E+03   -0.65544E+00   -0.27352E+02  8160   0.352E+01    0.470E+00
DAV:   2    -0.189651885993E+03   -0.21077E+01   -0.20594E+01 12320   0.160E+01    0.103E+01
DAV:   3    -0.189341383206E+03    0.31050E+00   -0.45752E+00 12360   0.127E+01    0.618E+00
DAV:   4    -0.188806534183E+03    0.53485E+00   -0.57722E-01 12560   0.429E+00    0.188E+00
DAV:   5    -0.188959718137E+03   -0.15318E+00   -0.52447E-01 12360   0.372E+00    0.590E+00
DAV:   6    -0.188779399962E+03    0.18032E+00   -0.85750E-01 12840   0.448E+00    0.215E+00
DAV:   7    -0.188766350909E+03    0.13049E-01   -0.20679E-01 11640   0.228E+00    0.227E+00
DAV:   8    -0.188735988485E+03    0.30362E-01   -0.12817E-01 13000   0.214E+00    0.147E+00
DAV:   9    -0.188715983426E+03    0.20005E-01   -0.35991E-02 12400   0.950E-01    0.342E-01
DAV:  10    -0.188715271753E+03    0.71167E-03   -0.45871E-03 10800   0.224E-01    0.198E-01
DAV:  11    -0.188714761049E+03    0.51070E-03   -0.25224E-03 12480   0.164E-01    0.102E-01
DAV:  12    -0.188714905592E+03   -0.14454E-03   -0.79057E-04 11760   0.839E-02    0.895E-02
DAV:  13    -0.188714838567E+03    0.67025E-04   -0.25226E-04  7880   0.579E-02
   2 F= -.18871484E+03 E0= -.18857531E+03  d E =-.182604E+01
       N       E                     dE             d eps       ncg     rms          rms(c)
DAV:   1    -0.190645782361E+03   -0.19309E+01   -0.31670E+01  9080   0.143E+01    0.442E+00
DAV:   2    -0.190564615528E+03    0.81167E-01   -0.27497E+00 11120   0.928E+00    0.703E+00
DAV:   3    -0.190135630537E+03    0.42898E+00   -0.13635E+00 12360   0.856E+00    0.427E+00
DAV:   4    -0.189923239413E+03    0.21239E+00   -0.76134E-01 12800   0.437E+00    0.253E+00
DAV:   5    -0.189900344711E+03    0.22895E-01   -0.37956E-01 12240   0.307E+00    0.282E+00
DAV:   6    -0.189825953520E+03    0.74391E-01   -0.15628E-01 12360   0.251E+00    0.856E-01
DAV:   7    -0.189817297893E+03    0.86556E-02   -0.17687E-02 11760   0.630E-01    0.248E-01
DAV:   8    -0.189818328234E+03   -0.10303E-02   -0.51013E-03 12520   0.397E-01    0.404E-01
DAV:   9    -0.189817185595E+03    0.11426E-02   -0.27378E-03 11200   0.331E-01    0.137E-01
DAV:  10    -0.189817451677E+03   -0.26608E-03   -0.91988E-04 10080   0.121E-01    0.128E-01
DAV:  11    -0.189817236023E+03    0.21565E-03   -0.45070E-04  8600   0.763E-02    0.206E-02
DAV:  12    -0.189817259004E+03   -0.22981E-04   -0.76849E-05  6920   0.289E-02
   3 F= -.18981726E+03 E0= -.18969785E+03  d E =-.110242E+01
       N       E                     dE             d eps       ncg     rms          rms(c)
DAV:   1    -0.191415445003E+03   -0.15982E+01   -0.82487E+01  8160   0.206E+01    0.459E+00
DAV:   2    -0.191225806474E+03    0.18964E+00   -0.54481E+00 13160   0.749E+00    0.439E+00
DAV:   3    -0.191375762956E+03   -0.14996E+00   -0.16035E+00 12240   0.895E+00    0.657E+00
DAV:   4    -0.190998461598E+03    0.37730E+00   -0.13947E+00 12320   0.777E+00    0.299E+00
DAV:   5    -0.190920775729E+03    0.77686E-01   -0.39168E-01 12400   0.344E+00    0.252E+00
DAV:   6    -0.190869235333E+03    0.51540E-01   -0.21075E-01 12400   0.305E+00    0.160E+00
DAV:   7    -0.190846300432E+03    0.22935E-01   -0.61053E-02 12640   0.138E+00    0.418E-01
DAV:   8    -0.190844640719E+03    0.16597E-02   -0.86845E-03 11520   0.462E-01    0.360E-01
DAV:   9    -0.190843736352E+03    0.90437E-03   -0.28677E-03 10560   0.357E-01    0.172E-01
DAV:  10    -0.190843970568E+03   -0.23422E-03   -0.13473E-03 11240   0.157E-01    0.113E-01
DAV:  11    -0.190843781330E+03    0.18924E-03   -0.59889E-04 10320   0.887E-02    0.433E-02
DAV:  12    -0.190843788496E+03   -0.71662E-05   -0.10266E-04  7040   0.394E-02
   4 F= -.19084379E+03 E0= -.19073583E+03  d E =-.102653E+01
       N       E                     dE             d eps       ncg     rms          rms(c)
DAV:   1    -0.192145594926E+03   -0.13018E+01   -0.17168E+02  8160   0.290E+01    0.547E+00
DAV:   2    -0.191923999644E+03    0.22160E+00   -0.90988E+00 10880   0.769E+00    0.341E+00
DAV:   3    -0.191798482453E+03    0.12552E+00   -0.14602E+00 11840   0.608E+00    0.368E+00
DAV:   4    -0.191821170027E+03   -0.22688E-01   -0.10758E+00 12320   0.755E+00    0.435E+00
DAV:   5    -0.191552102338E+03    0.26907E+00   -0.43869E-01 12320   0.453E+00    0.814E-01
DAV:   6    -0.191542469151E+03    0.96332E-02   -0.80409E-02 11440   0.116E+00    0.546E-01
DAV:   7    -0.191547118036E+03   -0.46489E-02   -0.38096E-02 11960   0.117E+00    0.102E+00
DAV:   8    -0.191537700494E+03    0.94175E-02   -0.20488E-02 11560   0.870E-01    0.171E-01
DAV:   9    -0.191538493250E+03   -0.79276E-03   -0.29024E-03 11520   0.290E-01    0.293E-01
DAV:  10    -0.191538009681E+03    0.48357E-03   -0.29914E-03 11800   0.351E-01    0.182E-01
DAV:  11    -0.191537742048E+03    0.26763E-03   -0.89894E-04 10080   0.160E-01    0.512E-02
DAV:  12    -0.191537713710E+03    0.28338E-04   -0.11567E-04  6480   0.431E-02
   5 F= -.19153771E+03 E0= -.19142714E+03  d E =-.693925E+00
       N       E                     dE             d eps       ncg     rms          rms(c)
DAV:   1    -0.191611279025E+03   -0.73537E-01   -0.52813E+00  8160   0.486E+00    0.640E-01
DAV:   2    -0.191663710451E+03   -0.52431E-01   -0.28050E-01 13440   0.274E+00    0.206E+00
DAV:   3    -0.191622564058E+03    0.41146E-01   -0.98299E-02 12520   0.207E+00    0.458E-01
DAV:   4    -0.191625487968E+03   -0.29239E-02   -0.21574E-02 10240   0.919E-01    0.766E-01
DAV:   5    -0.191619558387E+03    0.59296E-02   -0.13275E-02 11160   0.743E-01    0.232E-01
DAV:   6    -0.191620290521E+03   -0.73213E-03   -0.52917E-03 11120   0.387E-01    0.381E-01
DAV:   7    -0.191619347292E+03    0.94323E-03   -0.46434E-03 11200   0.440E-01    0.218E-01
DAV:   8    -0.191618842028E+03    0.50526E-03   -0.10077E-03  9840   0.174E-01    0.337E-02
DAV:   9    -0.191618852097E+03   -0.10069E-04   -0.98040E-05  6320   0.345E-02
   6 F= -.19161885E+03 E0= -.19150734E+03  d E =-.811384E-01
       N       E                     dE             d eps       ncg     rms          rms(c)
DAV:   1    -0.191692453642E+03   -0.73612E-01   -0.54186E+00  8160   0.490E+00    0.544E-01
DAV:   2    -0.191727367995E+03   -0.34914E-01   -0.18109E-01 13040   0.190E+00    0.171E+00
DAV:   3    -0.191699802615E+03    0.27565E-01   -0.79329E-02 12480   0.179E+00    0.495E-01
DAV:   4    -0.191700365956E+03   -0.56334E-03   -0.15736E-02 11040   0.752E-01    0.565E-01
DAV:   5    -0.191697102831E+03    0.32631E-02   -0.80302E-03 11160   0.609E-01    0.203E-01
DAV:   6    -0.191697165301E+03   -0.62470E-04   -0.30794E-03 11400   0.292E-01    0.259E-01
DAV:   7    -0.191697166904E+03   -0.16032E-05   -0.34816E-03 10600   0.379E-01    0.264E-01
DAV:   8    -0.191696479696E+03    0.68721E-03   -0.12456E-03  9200   0.212E-01    0.283E-02
DAV:   9    -0.191696503795E+03   -0.24099E-04   -0.85597E-05  5960   0.331E-02
   7 F= -.19169650E+03 E0= -.19158514E+03  d E =-.776517E-01
       N       E                     dE             d eps       ncg     rms          rms(c)
DAV:   1    -0.191764146409E+03   -0.67667E-01   -0.43634E+00  8160   0.443E+00    0.547E-01
DAV:   2    -0.191807646335E+03   -0.43500E-01   -0.19209E-01 11720   0.233E+00    0.204E+00
DAV:   3    -0.191769898867E+03    0.37747E-01   -0.93548E-02 12440   0.192E+00    0.395E-01
DAV:   4    -0.191771321979E+03   -0.14231E-02   -0.13364E-02 11400   0.742E-01    0.564E-01
DAV:   5    -0.191768064080E+03    0.32579E-02   -0.82320E-03 11080   0.609E-01    0.230E-01
DAV:   6    -0.191768756295E+03   -0.69222E-03   -0.45092E-03 11720   0.404E-01    0.385E-01
DAV:   7    -0.191767703103E+03    0.10532E-02   -0.36520E-03 11200   0.394E-01    0.148E-01
DAV:   8    -0.191767390402E+03    0.31270E-03   -0.61414E-04  9680   0.121E-01    0.211E-02
DAV:   9    -0.191767402941E+03   -0.12540E-04   -0.65599E-05  6840   0.259E-02
   8 F= -.19176740E+03 E0= -.19165736E+03  d E =-.708991E-01
       N       E                     dE             d eps       ncg     rms          rms(c)
DAV:   1    -0.191905512328E+03   -0.13812E+00   -0.34267E+01  8160   0.125E+01    0.143E+00
DAV:   2    -0.192193085971E+03   -0.28757E+00   -0.13497E+00 11440   0.574E+00    0.538E+00
DAV:   3    -0.191960057727E+03    0.23303E+00   -0.72111E-01 12320   0.513E+00    0.111E+00
DAV:   4    -0.191972820419E+03   -0.12763E-01   -0.94738E-02 12200   0.201E+00    0.177E+00
DAV:   5    -0.191943022845E+03    0.29798E-01   -0.66857E-02 11360   0.172E+00    0.650E-01
DAV:   6    -0.191944333279E+03   -0.13104E-02   -0.22687E-02 11760   0.101E+00    0.781E-01
DAV:   7    -0.191939764883E+03    0.45684E-02   -0.19313E-02 11720   0.104E+00    0.385E-01
DAV:   8    -0.191937299642E+03    0.24652E-02   -0.39680E-03 11160   0.361E-01    0.613E-02
DAV:   9    -0.191937328833E+03   -0.29191E-04   -0.56218E-04 10120   0.722E-02
   9 F= -.19193733E+03 E0= -.19183357E+03  d E =-.169926E+00
       N       E                     dE             d eps       ncg     rms          rms(c)
DAV:   1    -0.191975007771E+03   -0.37708E-01   -0.23168E+00  8160   0.327E+00    0.478E-01
DAV:   2    -0.191993759327E+03   -0.18752E-01   -0.11532E-01 12160   0.163E+00    0.135E+00
DAV:   3    -0.191978009704E+03    0.15750E-01   -0.43788E-02 12320   0.139E+00    0.386E-01
DAV:   4    -0.191978767382E+03   -0.75768E-03   -0.95803E-03 12240   0.674E-01    0.534E-01
DAV:   5    -0.191976402521E+03    0.23649E-02   -0.81337E-03 11200   0.626E-01    0.304E-01
DAV:   6    -0.191976712112E+03   -0.30959E-03   -0.40386E-03 11520   0.440E-01    0.353E-01
DAV:   7    -0.191975521456E+03    0.11907E-02   -0.23987E-03 10920   0.356E-01    0.676E-02
DAV:   8    -0.191975461303E+03    0.60154E-04   -0.16425E-04  6160   0.652E-02
  10 F= -.19197546E+03 E0= -.19187268E+03  d E =-.381325E-01
       N       E                     dE             d eps       ncg     rms          rms(c)
DAV:   1    -0.192031025032E+03   -0.55504E-01   -0.90878E+00  8160   0.635E+00    0.697E-01
DAV:   2    -0.192088842939E+03   -0.57818E-01   -0.30359E-01 11760   0.257E+00    0.225E+00
DAV:   3    -0.192045293167E+03    0.43550E-01   -0.11516E-01 12280   0.226E+00    0.562E-01
DAV:   4    -0.192048726694E+03   -0.34335E-02   -0.19471E-02 11240   0.922E-01    0.893E-01
DAV:   5    -0.192041550455E+03    0.71762E-02   -0.14456E-02 10840   0.851E-01    0.286E-01
DAV:   6    -0.192041533481E+03    0.16974E-04   -0.37702E-03 12200   0.336E-01    0.239E-01
DAV:   7    -0.192041082555E+03    0.45093E-03   -0.26200E-03 11960   0.393E-01    0.180E-01
DAV:   8    -0.192040656939E+03    0.42562E-03   -0.71693E-04  9680   0.195E-01    0.303E-02
DAV:   9    -0.192040657857E+03   -0.91812E-06   -0.10300E-04  6800   0.378E-02
  11 F= -.19204066E+03 E0= -.19194065E+03  d E =-.651966E-01
       N       E                     dE             d eps       ncg     rms          rms(c)
DAV:   1    -0.192054952693E+03   -0.14296E-01   -0.61351E-01  8160   0.166E+00    0.174E-01
DAV:   2    -0.192055923073E+03   -0.97038E-03   -0.15371E-02 13320   0.429E-01    0.217E-01
DAV:   3    -0.192055819836E+03    0.10324E-03   -0.26011E-03 12280   0.372E-01    0.210E-01
DAV:   4    -0.192055505663E+03    0.31417E-03   -0.14049E-03  9960   0.249E-01    0.164E-01
DAV:   5    -0.192055435414E+03    0.70249E-04   -0.10623E-03  9120   0.228E-01    0.147E-01
DAV:   6    -0.192055276225E+03    0.15919E-03   -0.56447E-04  8720   0.152E-01    0.719E-02
DAV:   7    -0.192055285385E+03   -0.91604E-05   -0.25480E-04  8440   0.122E-01
  12 F= -.19205529E+03 E0= -.19195568E+03  d E =-.146275E-01
       N       E                     dE             d eps       ncg     rms          rms(c)
DAV:   1    -0.192057675307E+03   -0.23991E-02   -0.12583E-02  8160   0.250E-01    0.288E-02
DAV:   2    -0.192057738166E+03   -0.62859E-04   -0.38064E-04 10160   0.806E-02
  13 F= -.19205774E+03 E0= -.19195811E+03  d E =-.245278E-02
       N       E                     dE             d eps       ncg     rms          rms(c)
DAV:   1    -0.192085693025E+03   -0.28018E-01   -0.19005E+00  8160   0.289E+00    0.285E-01
DAV:   2    -0.192091636045E+03   -0.59430E-02   -0.49140E-02 11560   0.800E-01    0.618E-01
DAV:   3    -0.192088787910E+03    0.28481E-02   -0.11877E-02 12440   0.750E-01    0.314E-01
DAV:   4    -0.192088563822E+03    0.22409E-03   -0.30431E-03 11440   0.369E-01    0.295E-01
DAV:   5    -0.192087885061E+03    0.67876E-03   -0.21838E-03  9800   0.340E-01    0.163E-01
DAV:   6    -0.192088103284E+03   -0.21822E-03   -0.12037E-03 10440   0.251E-01    0.201E-01
DAV:   7    -0.192087689082E+03    0.41420E-03   -0.81016E-04 10000   0.229E-01    0.503E-02
DAV:   8    -0.192087652460E+03    0.36622E-04   -0.76965E-05  5880   0.531E-02
  14 F= -.19208765E+03 E0= -.19198971E+03  d E =-.299143E-01
       N       E                     dE             d eps       ncg     rms          rms(c)
DAV:   1    -0.192079469398E+03    0.82197E-02   -0.17778E-01  8160   0.901E-01    0.119E-01
DAV:   2    -0.192079970700E+03   -0.50130E-03   -0.69430E-03 11480   0.284E-01    0.198E-01
DAV:   3    -0.192079948214E+03    0.22485E-04   -0.20081E-03 10560   0.298E-01    0.207E-01
DAV:   4    -0.192079528592E+03    0.41962E-03   -0.67161E-04  8160   0.169E-01    0.472E-02
DAV:   5    -0.192079594773E+03   -0.66182E-04   -0.26899E-04  7320   0.119E-01
  15 F= -.19207959E+03 E0= -.19198124E+03  d E =0.805769E-02
       N       E                     dE             d eps       ncg     rms          rms(c)
DAV:   1    -0.192110914074E+03   -0.31385E-01   -0.21512E+00  8160   0.310E+00    0.315E-01
DAV:   2    -0.192116607083E+03   -0.56930E-02   -0.53508E-02 11640   0.891E-01    0.614E-01
DAV:   3    -0.192113808477E+03    0.27986E-02   -0.11831E-02 12560   0.800E-01    0.326E-01
DAV:   4    -0.192112635043E+03    0.11734E-02   -0.24398E-03 11320   0.316E-01    0.121E-01
DAV:   5    -0.192112687703E+03   -0.52660E-04   -0.13896E-03 12320   0.208E-01    0.179E-01
DAV:   6    -0.192112682778E+03    0.49252E-05   -0.14733E-03 10240   0.278E-01    0.183E-01
DAV:   7    -0.192112442543E+03    0.24023E-03   -0.70059E-04  8320   0.181E-01    0.964E-02
DAV:   8    -0.192112349847E+03    0.92696E-04   -0.15648E-04  6280   0.103E-01
  16 F= -.19211235E+03 E0= -.19201555E+03  d E =-.327551E-01
       N       E                     dE             d eps       ncg     rms          rms(c)
DAV:   1    -0.192132383006E+03   -0.19940E-01   -0.79675E-01  8160   0.189E+00    0.184E-01
DAV:   2    -0.192133814001E+03   -0.14310E-02   -0.20775E-02 12080   0.445E-01    0.195E-01
DAV:   3    -0.192134126942E+03   -0.31294E-03   -0.29186E-03 12080   0.395E-01    0.270E-01
DAV:   4    -0.192133563921E+03    0.56302E-03   -0.16523E-03 10080   0.297E-01    0.173E-01
DAV:   5    -0.192133399777E+03    0.16414E-03   -0.79018E-04  8680   0.211E-01    0.117E-01
DAV:   6    -0.192133344272E+03    0.55505E-04   -0.47207E-04  8320   0.135E-01
  17 F= -.19213334E+03 E0= -.19203806E+03  d E =-.209944E-01
       N       E                     dE             d eps       ncg     rms          rms(c)
DAV:   1    -0.192125073054E+03    0.83267E-02   -0.11513E-01  8160   0.734E-01    0.110E-01
DAV:   2    -0.192127267653E+03   -0.21946E-02   -0.63282E-03 12640   0.495E-01    0.447E-01
DAV:   3    -0.192125144563E+03    0.21231E-02   -0.30207E-03 11160   0.441E-01    0.562E-02
DAV:   4    -0.192125173110E+03   -0.28546E-04   -0.19143E-04  6920   0.867E-02
  18 F= -.19212517E+03 E0= -.19202925E+03  d E =0.817116E-02
       N       E                     dE             d eps       ncg     rms          rms(c)
DAV:   1    -0.192110895843E+03    0.14249E-01   -0.60089E-01  8160   0.170E+00    0.261E-01
DAV:   2    -0.192111279907E+03   -0.38406E-03   -0.19728E-02 11520   0.475E-01    0.295E-01
DAV:   3    -0.192111840319E+03   -0.56041E-03   -0.59542E-03 12200   0.566E-01    0.401E-01
DAV:   4    -0.192110392049E+03    0.14483E-02   -0.38300E-03 10840   0.431E-01    0.189E-01
DAV:   5    -0.192110598710E+03   -0.20666E-03   -0.20654E-03 10120   0.322E-01    0.256E-01
DAV:   6    -0.192110055589E+03    0.54312E-03   -0.13618E-03  9520   0.253E-01    0.102E-01
DAV:   7    -0.192110020266E+03    0.35323E-04   -0.35738E-04  8280   0.145E-01
  19 F= -.19211002E+03 E0= -.19201272E+03  d E =0.151528E-01
       N       E                     dE             d eps       ncg     rms          rms(c)
DAV:   1    -0.192158658094E+03   -0.48603E-01   -0.47309E+00  8160   0.467E+00    0.502E-01
DAV:   2    -0.192167528237E+03   -0.88701E-02   -0.12860E-01 11760   0.115E+00    0.654E-01
DAV:   3    -0.192168309267E+03   -0.78103E-03   -0.22164E-02 12160   0.112E+00    0.705E-01
DAV:   4    -0.192163530764E+03    0.47785E-02   -0.94860E-03 11880   0.720E-01    0.367E-01
DAV:   5    -0.192163595056E+03   -0.64293E-04   -0.59581E-03 10480   0.559E-01    0.407E-01
DAV:   6    -0.192162814581E+03    0.78048E-03   -0.45882E-03 11400   0.458E-01    0.258E-01
DAV:   7    -0.192162239802E+03    0.57478E-03   -0.18764E-03 10120   0.343E-01    0.133E-01
DAV:   8    -0.192161997677E+03    0.24212E-03   -0.38827E-04  9360   0.144E-01    0.273E-02
DAV:   9    -0.192161988779E+03    0.88976E-05   -0.58889E-05  6600   0.307E-02
  20 F= -.19216199E+03 E0= -.19206822E+03  d E =-.519685E-01
       N       E                     dE             d eps       ncg     rms          rms(c)
DAV:   1    -0.192195072408E+03   -0.33075E-01   -0.19163E+00  8160   0.296E+00    0.317E-01
DAV:   2    -0.192199594849E+03   -0.45224E-02   -0.52986E-02 11520   0.778E-01    0.526E-01
DAV:   3    -0.192198839043E+03    0.75581E-03   -0.10480E-02 12480   0.734E-01    0.451E-01
DAV:   4    -0.192197073096E+03    0.17659E-02   -0.37738E-03 11120   0.414E-01    0.184E-01
DAV:   5    -0.192197068409E+03    0.46864E-05   -0.17418E-03 11200   0.321E-01    0.205E-01
DAV:   6    -0.192196738255E+03    0.33015E-03   -0.12981E-03 11000   0.273E-01    0.995E-02
DAV:   7    -0.192196650766E+03    0.87489E-04   -0.40448E-04  8760   0.144E-01
  21 F= -.19219665E+03 E0= -.19210506E+03  d E =-.346620E-01
       N       E                     dE             d eps       ncg     rms          rms(c)
DAV:   1    -0.192202702335E+03   -0.59641E-02   -0.57674E-02  8160   0.524E-01    0.655E-02
DAV:   2    -0.192202916805E+03   -0.21447E-03   -0.18034E-03 12160   0.166E-01    0.133E-01
DAV:   3    -0.192202796351E+03    0.12045E-03   -0.48130E-04  8760   0.169E-01    0.826E-02
DAV:   4    -0.192202781271E+03    0.15080E-04   -0.18083E-04  7080   0.100E-01
  22 F= -.19220278E+03 E0= -.19211200E+03  d E =-.613051E-02
       N       E                     dE             d eps       ncg     rms          rms(c)
DAV:   1    -0.192229881270E+03   -0.27085E-01   -0.12372E+00  8160   0.237E+00    0.292E-01
DAV:   2    -0.192238805523E+03   -0.89243E-02   -0.44584E-02 11320   0.101E+00    0.862E-01
DAV:   3    -0.192231622472E+03    0.71831E-02   -0.13145E-02 12240   0.886E-01    0.222E-01
DAV:   4    -0.192231872722E+03   -0.25025E-03   -0.23023E-03 11240   0.334E-01    0.298E-01
DAV:   5    -0.192231121466E+03    0.75126E-03   -0.16784E-03  9800   0.336E-01    0.128E-01
DAV:   6    -0.192231040835E+03    0.80631E-04   -0.61784E-04 10040   0.135E-01
  23 F= -.19223104E+03 E0= -.19214235E+03  d E =-.282596E-01
       N       E                     dE             d eps       ncg     rms          rms(c)
DAV:   1    -0.192236751082E+03   -0.56296E-02   -0.13505E-01  8160   0.784E-01    0.124E-01
DAV:   2    -0.192238466333E+03   -0.17153E-02   -0.57469E-03 11880   0.488E-01    0.414E-01
DAV:   3    -0.192236730313E+03    0.17360E-02   -0.27826E-03 10480   0.427E-01    0.916E-02
DAV:   4    -0.192236769231E+03   -0.38918E-04   -0.40518E-04  8320   0.141E-01
  24 F= -.19223677E+03 E0= -.19214867E+03  d E =-.572840E-02
       N       E                     dE             d eps       ncg     rms          rms(c)
DAV:   1    -0.192217762180E+03    0.18968E-01   -0.62562E-01  8160   0.171E+00    0.231E-01
DAV:   2    -0.192224720229E+03   -0.69580E-02   -0.23280E-02 12440   0.898E-01    0.842E-01
DAV:   3    -0.192218046677E+03    0.66736E-02   -0.95379E-03 11440   0.771E-01    0.153E-01
DAV:   4    -0.192218544143E+03   -0.49747E-03   -0.18499E-03  9920   0.319E-01    0.273E-01
DAV:   5    -0.192217803139E+03    0.74100E-03   -0.12953E-03  9600   0.290E-01    0.814E-02
DAV:   6    -0.192217795667E+03    0.74723E-05   -0.34210E-04  8680   0.123E-01
  25 F= -.19221780E+03 E0= -.19212791E+03  d E =0.189736E-01
       N       E                     dE             d eps       ncg     rms          rms(c)
DAV:   1    -0.192227129192E+03   -0.93261E-02   -0.70526E-01  8160   0.183E+00    0.305E-01
DAV:   2    -0.192233139021E+03   -0.60098E-02   -0.35930E-02 11480   0.109E+00    0.751E-01
DAV:   3    -0.192227262080E+03    0.58769E-02   -0.11663E-02 11520   0.890E-01    0.244E-01
DAV:   4    -0.192227832774E+03   -0.57069E-03   -0.36576E-03 10840   0.451E-01    0.380E-01
DAV:   5    -0.192226543982E+03    0.12888E-02   -0.26616E-03 10040   0.400E-01    0.156E-01
DAV:   6    -0.192226375739E+03    0.16824E-03   -0.10639E-03  9800   0.195E-01    0.122E-01
DAV:   7    -0.192226287858E+03    0.87881E-04   -0.50658E-04  8760   0.186E-01
  26 F= -.19222629E+03 E0= -.19213634E+03  d E =-.849219E-02
       N       E                     dE             d eps       ncg     rms          rms(c)
DAV:   1    -0.192201109888E+03    0.25266E-01   -0.38326E+00  8160   0.425E+00    0.578E-01
DAV:   2    -0.192204748862E+03   -0.36390E-02   -0.95095E-02 11840   0.108E+00    0.720E-01
DAV:   3    -0.192207122941E+03   -0.23741E-02   -0.29803E-02 12400   0.134E+00    0.955E-01
DAV:   4    -0.192200170964E+03    0.69520E-02   -0.18427E-02 11880   0.965E-01    0.444E-01
DAV:   5    -0.192199456434E+03    0.71453E-03   -0.85421E-03 10840   0.703E-01    0.433E-01
DAV:   6    -0.192197818516E+03    0.16379E-02   -0.48714E-03 11840   0.529E-01    0.199E-01
DAV:   7    -0.192197687493E+03    0.13102E-03   -0.17761E-03 10840   0.310E-01    0.171E-01
DAV:   8    -0.192197373385E+03    0.31411E-03   -0.62080E-04  9120   0.200E-01    0.512E-02
DAV:   9    -0.192197347991E+03    0.25393E-04   -0.82544E-05  6240   0.476E-02
  27 F= -.19219735E+03 E0= -.19210411E+03  d E =0.289399E-01
       N       E                     dE             d eps       ncg     rms          rms(c)
DAV:   1    -0.192242664845E+03   -0.45291E-01   -0.43255E+00  8160   0.452E+00    0.562E-01
DAV:   2    -0.192253827292E+03   -0.11162E-01   -0.12987E-01 11280   0.136E+00    0.956E-01
DAV:   3    -0.192249298443E+03    0.45288E-02   -0.30088E-02 12200   0.135E+00    0.669E-01
DAV:   4    -0.192246239381E+03    0.30591E-02   -0.12227E-02 12200   0.765E-01    0.488E-01
DAV:   5    -0.192245024991E+03    0.12144E-02   -0.78457E-03 11280   0.673E-01    0.405E-01
DAV:   6    -0.192243569241E+03    0.14558E-02   -0.42360E-03 11240   0.447E-01    0.147E-01
DAV:   7    -0.192243297727E+03    0.27151E-03   -0.94276E-04 10080   0.146E-01    0.644E-02
DAV:   8    -0.192243264516E+03    0.33211E-04   -0.18887E-04  8320   0.108E-01
  28 F= -.19224326E+03 E0= -.19215346E+03  d E =-.459165E-01
       N       E                     dE             d eps       ncg     rms          rms(c)
DAV:   1    -0.192265363564E+03   -0.22066E-01   -0.97283E-01  8160   0.211E+00    0.253E-01
DAV:   2    -0.192268919584E+03   -0.35560E-02   -0.32197E-02 11240   0.673E-01    0.506E-01
DAV:   3    -0.192267267845E+03    0.16517E-02   -0.70718E-03 12520   0.630E-01    0.297E-01
DAV:   4    -0.192266414021E+03    0.85382E-03   -0.16969E-03 11440   0.267E-01    0.110E-01
DAV:   5    -0.192266508476E+03   -0.94455E-04   -0.87719E-04 10520   0.217E-01
  29 F= -.19226651E+03 E0= -.19217882E+03  d E =-.232440E-01
       N       E                     dE             d eps       ncg     rms          rms(c)
DAV:   1    -0.192282446742E+03   -0.16033E-01   -0.89346E-01  8160   0.203E+00    0.235E-01
DAV:   2    -0.192286671376E+03   -0.42246E-02   -0.32181E-02 11680   0.681E-01    0.522E-01
DAV:   3    -0.192284379184E+03    0.22922E-02   -0.70293E-03 12280   0.639E-01    0.243E-01
DAV:   4    -0.192284064093E+03    0.31509E-03   -0.15057E-03 10120   0.269E-01    0.184E-01
DAV:   5    -0.192283859115E+03    0.20498E-03   -0.93732E-04 10040   0.260E-01    0.134E-01
DAV:   6    -0.192283754592E+03    0.10452E-03   -0.56908E-04 10240   0.162E-01    0.743E-02
DAV:   7    -0.192283706501E+03    0.48092E-04   -0.23762E-04  8840   0.112E-01
  30 F= -.19228371E+03 E0= -.19219668E+03  d E =-.171980E-01
       N       E                     dE             d eps       ncg     rms          rms(c)
DAV:   1    -0.192316170260E+03   -0.32416E-01   -0.23770E+00  8160   0.332E+00    0.406E-01
DAV:   2    -0.192329117806E+03   -0.12948E-01   -0.81688E-02 11360   0.126E+00    0.951E-01
DAV:   3    -0.192320136987E+03    0.89808E-02   -0.19147E-02 11400   0.111E+00    0.360E-01
DAV:   4    -0.192320340801E+03   -0.20381E-03   -0.52528E-03 11520   0.547E-01    0.409E-01
DAV:   5    -0.192318682400E+03    0.16584E-02   -0.31044E-03 10760   0.467E-01    0.161E-01
DAV:   6    -0.192318795006E+03   -0.11261E-03   -0.13246E-03 10240   0.270E-01    0.184E-01
DAV:   7    -0.192318609346E+03    0.18566E-03   -0.10823E-03 10440   0.285E-01    0.133E-01
DAV:   8    -0.192318372489E+03    0.23686E-03   -0.29739E-04  8760   0.128E-01    0.183E-02
DAV:   9    -0.192318375060E+03   -0.25711E-05   -0.39392E-05  6520   0.229E-02
  31 F= -.19231838E+03 E0= -.19223391E+03  d E =-.346686E-01
       N       E                     dE             d eps       ncg     rms          rms(c)
DAV:   1    -0.192348337408E+03   -0.29965E-01   -0.22609E+00  8160   0.324E+00    0.387E-01
DAV:   2    -0.192357674739E+03   -0.93373E-02   -0.77881E-02 11320   0.108E+00    0.766E-01
DAV:   3    -0.192352897210E+03    0.47775E-02   -0.15826E-02 12160   0.100E+00    0.413E-01
DAV:   4    -0.192351609902E+03    0.12873E-02   -0.42367E-03 11440   0.462E-01    0.270E-01
DAV:   5    -0.192351133898E+03    0.47600E-03   -0.23010E-03 10680   0.397E-01    0.206E-01
DAV:   6    -0.192350914134E+03    0.21976E-03   -0.13446E-03 10240   0.274E-01    0.133E-01
DAV:   7    -0.192350810709E+03    0.10342E-03   -0.72613E-04 10640   0.221E-01    0.117E-01
DAV:   8    -0.192350645167E+03    0.16554E-03   -0.23101E-04  8320   0.128E-01    0.226E-02
DAV:   9    -0.192350642084E+03    0.30827E-05   -0.31089E-05  6200   0.240E-02
  32 F= -.19235064E+03 E0= -.19226819E+03  d E =-.322670E-01
       N       E                     dE             d eps       ncg     rms          rms(c)
DAV:   1    -0.192378575079E+03   -0.27930E-01   -0.18580E+00  8160   0.293E+00    0.356E-01
DAV:   2    -0.192386885765E+03   -0.83107E-02   -0.60935E-02 11120   0.108E+00    0.733E-01
DAV:   3    -0.192381597613E+03    0.52882E-02   -0.13446E-02 11840   0.949E-01    0.326E-01
DAV:   4    -0.192381433351E+03    0.16426E-03   -0.40472E-03 11440   0.478E-01    0.321E-01
DAV:   5    -0.192380494503E+03    0.93885E-03   -0.24027E-03 11280   0.417E-01    0.168E-01
DAV:   6    -0.192380345564E+03    0.14894E-03   -0.99750E-04 10440   0.213E-01    0.120E-01
DAV:   7    -0.192380417750E+03   -0.72186E-04   -0.74651E-04 10680   0.237E-01
  33 F= -.19238042E+03 E0= -.19230008E+03  d E =-.297757E-01
       N       E                     dE             d eps       ncg     rms          rms(c)
DAV:   1    -0.192386483727E+03   -0.61382E-02   -0.96247E-02  8160   0.694E-01    0.107E-01
DAV:   2    -0.192386616419E+03   -0.13269E-03   -0.32228E-03 10800   0.203E-01    0.143E-01
DAV:   3    -0.192386613515E+03    0.29042E-05   -0.10188E-03 10920   0.257E-01    0.156E-01
DAV:   4    -0.192386377764E+03    0.23575E-03   -0.43582E-04  8240   0.163E-01    0.570E-02
DAV:   5    -0.192386381905E+03   -0.41404E-05   -0.17746E-04  7360   0.102E-01
  34 F= -.19238638E+03 E0= -.19230641E+03  d E =-.596415E-02
       N       E                     dE             d eps       ncg     rms          rms(c)
DAV:   1    -0.192414028665E+03   -0.27651E-01   -0.18438E+00  8160   0.293E+00    0.376E-01
DAV:   2    -0.192423383086E+03   -0.93544E-02   -0.58696E-02 11200   0.114E+00    0.835E-01
DAV:   3    -0.192416185005E+03    0.71981E-02   -0.16362E-02 12160   0.106E+00    0.313E-01
DAV:   4    -0.192415813313E+03    0.37169E-03   -0.35897E-03 11480   0.429E-01    0.278E-01
DAV:   5    -0.192415148309E+03    0.66500E-03   -0.22602E-03 11680   0.404E-01    0.179E-01
DAV:   6    -0.192414995178E+03    0.15313E-03   -0.10883E-03 10320   0.244E-01    0.138E-01
DAV:   7    -0.192414964479E+03    0.30699E-04   -0.73289E-04 10280   0.237E-01
  35 F= -.19241496E+03 E0= -.19233646E+03  d E =-.285826E-01
       N       E                     dE             d eps       ncg     rms          rms(c)
DAV:   1    -0.192461292930E+03   -0.46298E-01   -0.84455E+00  8160   0.629E+00    0.773E-01
DAV:   2    -0.192498783943E+03   -0.37491E-01   -0.26486E-01 11800   0.230E+00    0.155E+00
DAV:   3    -0.192472614715E+03    0.26169E-01   -0.61504E-02 11960   0.207E+00    0.653E-01
DAV:   4    -0.192470943757E+03    0.16710E-02   -0.16476E-02 12320   0.946E-01    0.570E-01
DAV:   5    -0.192467976024E+03    0.29677E-02   -0.96428E-03 12240   0.850E-01    0.361E-01
DAV:   6    -0.192466892184E+03    0.10838E-02   -0.43802E-03 10760   0.457E-01    0.214E-01
DAV:   7    -0.192467153565E+03   -0.26138E-03   -0.25682E-03 11920   0.415E-01    0.287E-01
DAV:   8    -0.192466224868E+03    0.92870E-03   -0.11486E-03 10240   0.294E-01    0.384E-02
DAV:   9    -0.192466215441E+03    0.94266E-05   -0.77175E-05  5880   0.412E-02
  36 F= -.19246622E+03 E0= -.19239051E+03  d E =-.512510E-01
       N       E                     dE             d eps       ncg     rms          rms(c)
DAV:   1    -0.192489989859E+03   -0.23765E-01   -0.76424E+00  8160   0.598E+00    0.730E-01
DAV:   2    -0.192525939781E+03   -0.35950E-01   -0.25728E-01 11520   0.226E+00    0.149E+00
DAV:   3    -0.192501935912E+03    0.24004E-01   -0.62505E-02 12160   0.205E+00    0.624E-01
DAV:   4    -0.192499238954E+03    0.26970E-02   -0.13528E-02 12240   0.844E-01    0.455E-01
DAV:   5    -0.192497406495E+03    0.18325E-02   -0.70122E-03 12200   0.739E-01    0.330E-01
DAV:   6    -0.192496401815E+03    0.10047E-02   -0.36899E-03 11640   0.436E-01    0.168E-01
DAV:   7    -0.192496051073E+03    0.35074E-03   -0.12828E-03 10640   0.189E-01    0.104E-01
DAV:   8    -0.192495969753E+03    0.81320E-04   -0.36422E-04  9640   0.158E-01
  37 F= -.19249597E+03 E0= -.19242147E+03  d E =-.297543E-01
       N       E                     dE             d eps       ncg     rms          rms(c)
DAV:   1    -0.192488639019E+03    0.74121E-02   -0.20038E+00  8160   0.304E+00    0.456E-01
DAV:   2    -0.192515038956E+03   -0.26400E-01   -0.84118E-02 10960   0.188E+00    0.156E+00
DAV:   3    -0.192489960230E+03    0.25079E-01   -0.39938E-02 11600   0.169E+00    0.290E-01
DAV:   4    -0.192490319718E+03   -0.35949E-03   -0.48520E-03 11560   0.549E-01    0.365E-01
DAV:   5    -0.192488792674E+03    0.15270E-02   -0.28906E-03 11320   0.455E-01    0.151E-01
DAV:   6    -0.192488668477E+03    0.12420E-03   -0.11908E-03 10480   0.213E-01    0.132E-01
DAV:   7    -0.192488699602E+03   -0.31125E-04   -0.89223E-04 10680   0.258E-01
  38 F= -.19248870E+03 E0= -.19241371E+03  d E =0.727015E-02
       N       E                     dE             d eps       ncg     rms          rms(c)
DAV:   1    -0.192503063308E+03   -0.14395E-01   -0.78857E+00  8160   0.608E+00    0.757E-01
DAV:   2    -0.192546191768E+03   -0.43128E-01   -0.25490E-01 11240   0.258E+00    0.170E+00
DAV:   3    -0.192511299551E+03    0.34892E-01   -0.68055E-02 12040   0.219E+00    0.537E-01
DAV:   4    -0.192510869207E+03    0.43034E-03   -0.14307E-02 12200   0.885E-01    0.557E-01
DAV:   5    -0.192507865147E+03    0.30041E-02   -0.85313E-03 11240   0.827E-01    0.325E-01
DAV:   6    -0.192506699827E+03    0.11653E-02   -0.34625E-03 10640   0.384E-01    0.142E-01
DAV:   7    -0.192506438853E+03    0.26097E-03   -0.10800E-03 10760   0.176E-01    0.992E-02
DAV:   8    -0.192506361986E+03    0.76867E-04   -0.37019E-04  9520   0.156E-01
  39 F= -.19250636E+03 E0= -.19243233E+03  d E =-.176624E-01
       N       E                     dE             d eps       ncg     rms          rms(c)
DAV:   1    -0.192506254569E+03    0.18428E-03   -0.46877E-01  8160   0.147E+00    0.211E-01
DAV:   2    -0.192511222217E+03   -0.49676E-02   -0.19613E-02 10920   0.867E-01    0.639E-01
DAV:   3    -0.192506565496E+03    0.46567E-02   -0.75533E-03 12080   0.738E-01    0.129E-01
DAV:   4    -0.192506602646E+03   -0.37150E-04   -0.95100E-04  9840   0.239E-01
  40 F= -.19250660E+03 E0= -.19243251E+03  d E =-.240660E-03
       N       E                     dE             d eps       ncg     rms          rms(c)
DAV:   1    -0.192507429865E+03   -0.86437E-03   -0.11318E-01  8160   0.744E-01    0.101E-01
DAV:   2    -0.192508892199E+03   -0.14623E-02   -0.64841E-03 11840   0.418E-01    0.298E-01
DAV:   3    -0.192507745832E+03    0.11464E-02   -0.17723E-03 11400   0.351E-01    0.550E-02
DAV:   4    -0.192507769432E+03   -0.23600E-04   -0.17433E-04  8160   0.949E-02
  41 F= -.19250777E+03 E0= -.19243356E+03  d E =-.116679E-02
       N       E                     dE             d eps       ncg     rms          rms(c)
DAV:   1    -0.192508273702E+03   -0.52787E-03   -0.23943E-02  8160   0.337E-01    0.452E-02
DAV:   2    -0.192508427183E+03   -0.15348E-03   -0.10016E-03 12920   0.139E-01    0.102E-01
DAV:   3    -0.192508317753E+03    0.10943E-03   -0.23933E-04  8920   0.130E-01    0.394E-02
DAV:   4    -0.192508305096E+03    0.12656E-04   -0.32210E-05  5960   0.387E-02
  42 F= -.19250831E+03 E0= -.19243417E+03  d E =-.535665E-03
       N       E                     dE             d eps       ncg     rms          rms(c)
DAV:   1    -0.192509378436E+03   -0.10607E-02   -0.16614E-01  8160   0.866E-01    0.963E-02
DAV:   2    -0.192510083914E+03   -0.70548E-03   -0.65692E-03 12400   0.293E-01    0.172E-01
DAV:   3    -0.192509850719E+03    0.23319E-03   -0.10515E-03 11000   0.257E-01    0.106E-01
DAV:   4    -0.192509734300E+03    0.11642E-03   -0.21864E-04  7960   0.114E-01    0.446E-02
DAV:   5    -0.192509727531E+03    0.67687E-05   -0.83239E-05  6400   0.856E-02
  43 F= -.19250973E+03 E0= -.19243583E+03  d E =-.142243E-02
       N       E                     dE             d eps       ncg     rms          rms(c)
DAV:   1    -0.192510379479E+03   -0.64518E-03   -0.10447E-01  8160   0.689E-01    0.820E-02
DAV:   2    -0.192510884947E+03   -0.50547E-03   -0.44658E-03 11280   0.253E-01    0.145E-01
DAV:   3    -0.192510664090E+03    0.22086E-03   -0.63499E-04 10080   0.211E-01    0.660E-02
DAV:   4    -0.192510618677E+03    0.45413E-04   -0.11214E-04  6200   0.838E-02
  44 F= -.19251062E+03 E0= -.19243681E+03  d E =-.891147E-03
