<?xml version="1.0" encoding="ISO-8859-1"?>
<modeling>
 <generator>
  <i name="program" type="string">vasp </i>
  <i name="version" type="string">5.4.1  </i>
  <i name="subversion" type="string">05Feb16 (build Jul 05 2020 17:13:04) complex                          parallel </i>
  <i name="platform" type="string">IFC91_ompi </i>
  <i name="date" type="string">2024 04 30 </i>
  <i name="time" type="string">12:35:44 </i>
 </generator>
 <incar>
  <i type="int" name="ISTART">     0</i>
  <i type="string" name="PREC">normal</i>
  <i type="string" name="ALGO"> Normal</i>
  <i type="int" name="ISPIN">     1</i>
  <i type="int" name="ICHARG">     2</i>
  <i type="int" name="IBRION">     1</i>
  <i type="int" name="NSW">   100</i>
  <i type="int" name="ISIF">     3</i>
  <i type="int" name="ISYM">     0</i>
  <i name="SYMPREC">      0.00000001</i>
  <i name="POTIM">      0.50000000</i>
  <i type="logical" name="LREAL"> F  </i>
  <i type="logical" name="LPLANE"> F  </i>
  <i type="int" name="ISMEAR">     0</i>
  <i type="logical" name="LWAVE"> F  </i>
  <i type="logical" name="LCHARG"> F  </i>
  <v type="int" name="KPOINT_BSE">    -1     0     0     0</v>
 </incar>
 <kpoints>
  <generation param="Gamma">
   <v type="int" name="divisions">       8        8        1 </v>
   <v name="usershift">      0.00000000       0.00000000       0.00000000 </v>
   <v name="genvec1">      0.12500000       0.00000000       0.00000000 </v>
   <v name="genvec2">     -0.00000000       0.12500000       0.00000000 </v>
   <v name="genvec3">      0.00000000       0.00000000       1.00000000 </v>
   <v name="shift">      0.00000000       0.00000000       0.00000000 </v>
  </generation>
  <varray name="kpointlist" >
   <v>       0.00000000       0.00000000       0.00000000 </v>
   <v>       0.12500000       0.00000000       0.00000000 </v>
   <v>       0.25000000       0.00000000       0.00000000 </v>
   <v>       0.37500000       0.00000000       0.00000000 </v>
   <v>       0.50000000       0.00000000       0.00000000 </v>
   <v>       0.00000000       0.12500000       0.00000000 </v>
   <v>       0.12500000       0.12500000       0.00000000 </v>
   <v>       0.25000000       0.12500000       0.00000000 </v>
   <v>       0.37500000       0.12500000       0.00000000 </v>
   <v>       0.50000000       0.12500000       0.00000000 </v>
   <v>      -0.37500000       0.12500000       0.00000000 </v>
   <v>      -0.25000000       0.12500000       0.00000000 </v>
   <v>      -0.12500000       0.12500000       0.00000000 </v>
   <v>       0.00000000       0.25000000       0.00000000 </v>
   <v>       0.12500000       0.25000000       0.00000000 </v>
   <v>       0.25000000       0.25000000       0.00000000 </v>
   <v>       0.37500000       0.25000000       0.00000000 </v>
   <v>       0.50000000       0.25000000       0.00000000 </v>
   <v>      -0.37500000       0.25000000       0.00000000 </v>
   <v>      -0.25000000       0.25000000       0.00000000 </v>
   <v>      -0.12500000       0.25000000       0.00000000 </v>
   <v>      -0.00000000       0.37500000       0.00000000 </v>
   <v>       0.12500000       0.37500000       0.00000000 </v>
   <v>       0.25000000       0.37500000       0.00000000 </v>
   <v>       0.37500000       0.37500000       0.00000000 </v>
   <v>       0.50000000       0.37500000       0.00000000 </v>
   <v>      -0.37500000       0.37500000       0.00000000 </v>
   <v>      -0.25000000       0.37500000       0.00000000 </v>
   <v>      -0.12500000       0.37500000       0.00000000 </v>
   <v>       0.00000000       0.50000000       0.00000000 </v>
   <v>       0.12500000       0.50000000       0.00000000 </v>
   <v>       0.25000000       0.50000000       0.00000000 </v>
   <v>       0.37500000       0.50000000       0.00000000 </v>
   <v>       0.50000000       0.50000000       0.00000000 </v>
  </varray>
  <varray name="weights" >
   <v>       0.01562500 </v>
   <v>       0.03125000 </v>
   <v>       0.03125000 </v>
   <v>       0.03125000 </v>
   <v>       0.01562500 </v>
   <v>       0.03125000 </v>
   <v>       0.03125000 </v>
   <v>       0.03125000 </v>
   <v>       0.03125000 </v>
   <v>       0.03125000 </v>
   <v>       0.03125000 </v>
   <v>       0.03125000 </v>
   <v>       0.03125000 </v>
   <v>       0.03125000 </v>
   <v>       0.03125000 </v>
   <v>       0.03125000 </v>
   <v>       0.03125000 </v>
   <v>       0.03125000 </v>
   <v>       0.03125000 </v>
   <v>       0.03125000 </v>
   <v>       0.03125000 </v>
   <v>       0.03125000 </v>
   <v>       0.03125000 </v>
   <v>       0.03125000 </v>
   <v>       0.03125000 </v>
   <v>       0.03125000 </v>
   <v>       0.03125000 </v>
   <v>       0.03125000 </v>
   <v>       0.03125000 </v>
   <v>       0.01562500 </v>
   <v>       0.03125000 </v>
   <v>       0.03125000 </v>
   <v>       0.03125000 </v>
   <v>       0.01562500 </v>
  </varray>
 </kpoints>
 <parameters>
  <separator name="general" >
   <i type="string" name="SYSTEM">unknown system</i>
   <i type="logical" name="LCOMPAT"> F  </i>
  </separator>
  <separator name="electronic" >
   <i type="string" name="PREC">normal</i>
   <i name="ENMAX">    280.00000000</i>
   <i name="ENAUG">    373.43800000</i>
   <i name="EDIFF">      0.00010000</i>
   <i type="int" name="IALGO">    38</i>
   <i type="int" name="IWAVPR">    11</i>
   <i type="int" name="NBANDS">   120</i>
   <i name="NELECT">    159.00000000</i>
   <i type="int" name="TURBO">     0</i>
   <i type="int" name="IRESTART">     0</i>
   <i type="int" name="NREBOOT">     0</i>
   <i type="int" name="NMIN">     0</i>
   <i name="EREF">      0.00000000</i>
   <separator name="electronic smearing" >
    <i type="int" name="ISMEAR">     0</i>
    <i name="SIGMA">      0.20000000</i>
    <i name="KSPACING">      0.50000000</i>
    <i type="logical" name="KGAMMA"> T  </i>
   </separator>
   <separator name="electronic projectors" >
    <i type="logical" name="LREAL"> F  </i>
    <v name="ROPT">      0.00000000      0.00000000      0.00000000      0.00000000</v>
    <i type="int" name="LMAXPAW">  -100</i>
    <i type="int" name="LMAXMIX">     2</i>
    <i type="logical" name="NLSPLINE"> F  </i>
   </separator>
   <separator name="electronic startup" >
    <i type="int" name="ISTART">     0</i>
    <i type="int" name="ICHARG">     2</i>
    <i type="int" name="INIWAV">     1</i>
   </separator>
   <separator name="electronic spin" >
    <i type="int" name="ISPIN">     1</i>
    <i type="logical" name="LNONCOLLINEAR"> F  </i>
    <v name="MAGMOM">      1.00000000      1.00000000      1.00000000      1.00000000      1.00000000      1.00000000      1.00000000      1.00000000      1.00000000      1.00000000      1.00000000      1.00000000      1.00000000      1.00000000      1.00000000      1.00000000      1.00000000      1.00000000      1.00000000      1.00000000
      1.00000000      1.00000000      1.00000000      1.00000000      1.00000000      1.00000000      1.00000000</v>
    <i name="NUPDOWN">     -1.00000000</i>
    <i type="logical" name="LSORBIT"> F  </i>
    <v name="SAXIS">      0.00000000      0.00000000      1.00000000</v>
    <i type="logical" name="LSPIRAL"> F  </i>
    <v name="QSPIRAL">      0.00000000      0.00000000      0.00000000</v>
    <i type="logical" name="LZEROZ"> F  </i>
   </separator>
   <separator name="electronic exchange-correlation" >
    <i type="logical" name="LASPH"> F  </i>
    <i type="logical" name="LMETAGGA"> F  </i>
   </separator>
   <separator name="electronic convergence" >
    <i type="int" name="NELM">    60</i>
    <i type="int" name="NELMDL">    -5</i>
    <i type="int" name="NELMIN">     2</i>
    <i name="ENINI">    280.00000000</i>
    <separator name="electronic convergence detail" >
     <i type="logical" name="LDIAG"> T  </i>
     <i type="logical" name="LSUBROT"> F  </i>
     <i name="WEIMIN">      0.00100000</i>
     <i name="EBREAK">      0.00000021</i>
     <i name="DEPER">      0.30000000</i>
     <i type="int" name="NRMM">     4</i>
     <i name="TIME">      0.40000000</i>
    </separator>
   </separator>
   <separator name="electronic mixer" >
    <i name="AMIX">      0.40000000</i>
    <i name="BMIX">      1.00000000</i>
    <i name="AMIN">      0.10000000</i>
    <i name="AMIX_MAG">      1.60000000</i>
    <i name="BMIX_MAG">      1.00000000</i>
    <separator name="electronic mixer details" >
     <i type="int" name="IMIX">     4</i>
     <i type="logical" name="MIXFIRST"> F  </i>
     <i type="int" name="MAXMIX">   -45</i>
     <i name="WC">    100.00000000</i>
     <i type="int" name="INIMIX">     1</i>
     <i type="int" name="MIXPRE">     1</i>
     <i type="int" name="MREMOVE">     5</i>
    </separator>
   </separator>
   <separator name="electronic dipolcorrection" >
    <i type="logical" name="LDIPOL"> F  </i>
    <i type="logical" name="LMONO"> F  </i>
    <i type="int" name="IDIPOL">     0</i>
    <i name="EPSILON">      1.00000000</i>
    <v name="DIPOL">   -100.00000000   -100.00000000   -100.00000000</v>
    <i name="EFIELD">      0.00000000</i>
   </separator>
  </separator>
  <separator name="grids" >
   <i type="int" name="NGX">    42</i>
   <i type="int" name="NGY">    42</i>
   <i type="int" name="NGZ">   126</i>
   <i type="int" name="NGXF">    84</i>
   <i type="int" name="NGYF">    84</i>
   <i type="int" name="NGZF">   252</i>
   <i type="logical" name="ADDGRID"> F  </i>
  </separator>
  <separator name="ionic" >
   <i type="int" name="NSW">   100</i>
   <i type="int" name="IBRION">     1</i>
   <i type="int" name="ISIF">     3</i>
   <i name="PSTRESS">      0.00000000</i>
   <i name="EDIFFG">      0.00100000</i>
   <i type="int" name="NFREE">     0</i>
   <i name="POTIM">      0.50000000</i>
   <i name="SMASS">     -3.00000000</i>
   <i name="SCALEE">      1.00000000</i>
  </separator>
  <separator name="ionic md" >
   <i name="TEBEG">      0.00010000</i>
   <i name="TEEND">      0.00010000</i>
   <i type="int" name="NBLOCK">     1</i>
   <i type="int" name="KBLOCK">   100</i>
   <i type="int" name="NPACO">   256</i>
   <i name="APACO">     16.00000000</i>
  </separator>
  <separator name="symmetry" >
   <i type="int" name="ISYM">     0</i>
   <i name="SYMPREC">      0.00000001</i>
  </separator>
  <separator name="dos" >
   <i type="logical" name="LORBIT"> F  </i>
   <v name="RWIGS">     -1.00000000     -1.00000000     -1.00000000     -1.00000000</v>
   <i type="int" name="NEDOS">   301</i>
   <i name="EMIN">     10.00000000</i>
   <i name="EMAX">    -10.00000000</i>
   <i name="EFERMI">      0.00000000</i>
  </separator>
  <separator name="writing" >
   <i type="int" name="NWRITE">     2</i>
   <i type="logical" name="LWAVE"> F  </i>
   <i type="logical" name="LCHARG"> F  </i>
   <i type="logical" name="LPARD"> F  </i>
   <i type="logical" name="LVTOT"> F  </i>
   <i type="logical" name="LVHAR"> F  </i>
   <i type="logical" name="LELF"> F  </i>
   <i type="logical" name="LOPTICS"> F  </i>
   <v name="STM">      0.00000000      0.00000000      0.00000000      0.00000000      0.00000000      0.00000000      0.00000000</v>
  </separator>
  <separator name="performance" >
   <i type="int" name="NPAR">    40</i>
   <i type="int" name="NSIM">     4</i>
   <i type="int" name="NBLK">    -1</i>
   <i type="logical" name="LPLANE"> F  </i>
   <i type="logical" name="LSCALAPACK"> T  </i>
   <i type="logical" name="LSCAAWARE"> F  </i>
   <i type="logical" name="LSCALU"> F  </i>
   <i type="logical" name="LASYNC"> F  </i>
   <i type="logical" name="LORBITALREAL"> F  </i>
  </separator>
  <separator name="miscellaneous" >
   <i type="int" name="IDIOT">     3</i>
   <i type="logical" name="LMUSIC"> F  </i>
   <v name="POMASS">     50.94100000     95.94000000    183.85000000     32.06600000</v>
   <v name="DARWINR">      0.00000000      0.00000000      0.00000000      0.00000000</v>
   <v name="DARWINV">      1.00000000      1.00000000      1.00000000      1.00000000</v>
   <i type="logical" name="LCORR"> T  </i>
  </separator>
  <i type="logical" name="GGA_COMPAT"> T  </i>
  <i type="logical" name="LBERRY"> F  </i>
  <i type="int" name="ICORELEVEL">     0</i>
  <i type="logical" name="LDAU"> F  </i>
  <i type="int" name="I_CONSTRAINED_M">     0</i>
  <separator name="electronic exchange-correlation" >
   <i type="string" name="GGA">--</i>
   <i type="int" name="VOSKOWN">     0</i>
   <i type="logical" name="LHFCALC"> F  </i>
   <i type="string" name="PRECFOCK"></i>
   <i type="logical" name="LSYMGRAD"> F  </i>
   <i type="logical" name="LHFONE"> F  </i>
   <i type="logical" name="LRHFCALC"> F  </i>
   <i type="logical" name="LTHOMAS"> F  </i>
   <i type="logical" name="LMODELHF"> F  </i>
   <i name="ENCUT4O">     -1.00000000</i>
   <i type="int" name="EXXOEP">     0</i>
   <i type="int" name="FOURORBIT">     0</i>
   <i name="AEXX">      0.00000000</i>
   <i name="HFALPHA">      0.00000000</i>
   <i name="MCALPHA">      0.00000000</i>
   <i name="ALDAX">      1.00000000</i>
   <i name="AGGAX">      1.00000000</i>
   <i name="ALDAC">      1.00000000</i>
   <i name="AGGAC">      1.00000000</i>
   <i type="int" name="NKREDX">     1</i>
   <i type="int" name="NKREDY">     1</i>
   <i type="int" name="NKREDZ">     1</i>
   <i type="logical" name="SHIFTRED"> F  </i>
   <i type="logical" name="ODDONLY"> F  </i>
   <i type="logical" name="EVENONLY"> F  </i>
   <i type="int" name="LMAXFOCK">     0</i>
   <i type="int" name="NMAXFOCKAE">     0</i>
   <i type="logical" name="LFOCKAEDFT"> F  </i>
   <i name="HFSCREEN">      0.00000000</i>
   <i name="HFSCREENC">      0.00000000</i>
   <i type="int" name="NBANDSGWLOW">     0</i>
  </separator>
  <separator name="vdW DFT" >
   <i type="logical" name="LUSE_VDW"> F  </i>
   <i name="Zab_VDW">     -0.84910000</i>
   <i name="PARAM1">      0.12340000</i>
   <i name="PARAM2">      1.00000000</i>
   <i name="PARAM3">      0.00000000</i>
  </separator>
  <separator name="model GW" >
   <i type="int" name="MODEL_GW">     0</i>
   <i name="MODEL_EPS0">     58.26239943</i>
   <i name="MODEL_ALPHA">      1.00000000</i>
  </separator>
  <separator name="linear response parameters" >
   <i type="logical" name="LEPSILON"> F  </i>
   <i type="logical" name="LRPA"> F  </i>
   <i type="logical" name="LNABLA"> F  </i>
   <i type="logical" name="LVEL"> F  </i>
   <i type="int" name="KINTER">     0</i>
   <i name="CSHIFT">      0.10000000</i>
   <i name="OMEGAMAX">     -1.00000000</i>
   <i name="DEG_THRESHOLD">      0.00200000</i>
  </separator>
  <separator name="orbital magnetization" >
   <i type="logical" name="NUCIND"> F  </i>
   <v name="MAGPOS">      0.00000000      0.00000000      0.00000000</v>
   <i type="logical" name="LNICSALL"> T  </i>
   <i type="logical" name="ORBITALMAG"> F  </i>
   <i type="logical" name="LMAGBLOCH"> F  </i>
   <i type="logical" name="LCHIMAG"> F  </i>
   <i type="logical" name="LGAUGE"> T  </i>
   <i type="int" name="MAGATOM">     0</i>
   <v name="MAGDIPOL">      0.00000000      0.00000000      0.00000000</v>
   <v name="AVECCONST">      0.00000000      0.00000000      0.00000000</v>
  </separator>
  <separator name="response functions" >
   <i type="logical" name="LADDER"> F  </i>
   <i type="logical" name="LFXC"> F  </i>
   <i type="logical" name="LHARTREE"> T  </i>
   <i type="int" name="IBSE">     0</i>
   <v type="int" name="KPOINT">    -1     0     0     0</v>
   <i type="logical" name="LTCTE"> F  </i>
   <i type="logical" name="LTETE"> F  </i>
   <i type="logical" name="LTRIPLET"> F  </i>
   <i type="logical" name="LFXCEPS"> F  </i>
   <i type="logical" name="LFXHEG"> F  </i>
   <i type="int" name="NATURALO">     0</i>
   <i type="logical" name="L2ORDER"> F  </i>
   <i type="logical" name="LUSEW"> F  </i>
   <i name="ENCUTGW">     -2.00000000</i>
   <i name="ENCUTGWSOFT">     -2.00000000</i>
   <i name="ENCUTLF">     -1.00000000</i>
   <i type="int" name="LMAXMP2">    -1</i>
   <i name="SCISSOR">      0.00000000</i>
   <i type="int" name="NOMEGA">     0</i>
   <i type="int" name="NOMEGAR">     0</i>
   <i type="int" name="NBANDSGW">    -1</i>
   <i type="int" name="NBANDSO">    -1</i>
   <i type="int" name="NBANDSV">    -1</i>
   <i type="int" name="NELM">     1</i>
   <i type="int" name="NELMHF">     1</i>
   <i type="int" name="DIM">     3</i>
   <i type="int" name="ANTIRES">     0</i>
   <i name="OMEGAMAX">    -30.00000000</i>
   <i name="OMEGAMIN">    -30.00000000</i>
   <i name="OMEGATL">   -200.00000000</i>
   <i type="int" name="OMEGAGRID">     0</i>
   <i name="CSHIFT">     -0.10000000</i>
   <i type="logical" name="SELFENERGY"> F  </i>
   <i type="logical" name="LSPECTRAL"> F  </i>
   <i type="logical" name="LSPECTRALGW"> F  </i>
   <i type="logical" name="LSINGLES"> F  </i>
   <i type="logical" name="LFERMIGW"> F  </i>
   <i type="logical" name="ODDONLYGW"> F  </i>
   <i type="logical" name="EVENONLYGW"> F  </i>
   <i type="int" name="NKREDLFX">     1</i>
   <i type="int" name="NKREDLFY">     1</i>
   <i type="int" name="NKREDLFZ">     1</i>
   <i type="int" name="MAXMEM">  1800</i>
   <i type="int" name="TELESCOPE">     0</i>
   <i type="int" name="TAUPAR">     1</i>
   <i type="int" name="OMEGAPAR">    -1</i>
   <i name="LAMBDA">      1.00000000</i>
  </separator>
  <separator name="External order field" >
   <i name="OFIELD_KAPPA">      0.00000000</i>
   <v name="OFIELD_K">      0.00000000      0.00000000      0.00000000</v>
   <i name="OFIELD_Q6_NEAR">      0.00000000</i>
   <i name="OFIELD_Q6_FAR">      0.00000000</i>
   <i name="OFIELD_A">      0.00000000</i>
  </separator>
 </parameters>
 <atominfo>
  <atoms>      27 </atoms>
  <types>       4 </types>
  <array name="atoms" >
   <dimension dim="1">ion</dimension>
   <field type="string">element</field>
   <field type="int">atomtype</field>
   <set>
    <rc><c>V </c><c>   1</c></rc>
    <rc><c>V </c><c>   1</c></rc>
    <rc><c>V </c><c>   1</c></rc>
    <rc><c>Mo</c><c>   2</c></rc>
    <rc><c>Mo</c><c>   2</c></rc>
    <rc><c>Mo</c><c>   2</c></rc>
    <rc><c>W </c><c>   3</c></rc>
    <rc><c>W </c><c>   3</c></rc>
    <rc><c>W </c><c>   3</c></rc>
    <rc><c>S </c><c>   4</c></rc>
    <rc><c>S </c><c>   4</c></rc>
    <rc><c>S </c><c>   4</c></rc>
    <rc><c>S </c><c>   4</c></rc>
    <rc><c>S </c><c>   4</c></rc>
    <rc><c>S </c><c>   4</c></rc>
    <rc><c>S </c><c>   4</c></rc>
    <rc><c>S </c><c>   4</c></rc>
    <rc><c>S </c><c>   4</c></rc>
    <rc><c>S </c><c>   4</c></rc>
    <rc><c>S </c><c>   4</c></rc>
    <rc><c>S </c><c>   4</c></rc>
    <rc><c>S </c><c>   4</c></rc>
    <rc><c>S </c><c>   4</c></rc>
    <rc><c>S </c><c>   4</c></rc>
    <rc><c>S </c><c>   4</c></rc>
    <rc><c>S </c><c>   4</c></rc>
    <rc><c>S </c><c>   4</c></rc>
   </set>
  </array>
  <array name="atomtypes" >
   <dimension dim="1">type</dimension>
   <field type="int">atomspertype</field>
   <field type="string">element</field>
   <field>mass</field>
   <field>valence</field>
   <field type="string">pseudopotential</field>
   <set>
    <rc><c>   3</c><c>V </c><c>     50.94100000</c><c>      5.00000000</c><c> PAW_PBE V 08Apr2002                    </c></rc>
    <rc><c>   3</c><c>Mo</c><c>     95.94000000</c><c>      6.00000000</c><c> PAW_PBE Mo 08Apr2002                   </c></rc>
    <rc><c>   3</c><c>W </c><c>    183.85000000</c><c>      6.00000000</c><c> PAW_PBE W 08Apr2002                    </c></rc>
    <rc><c>  18</c><c>S </c><c>     32.06600000</c><c>      6.00000000</c><c>  PAW_PBE S 17Jan2003                   </c></rc>
   </set>
  </array>
 </atominfo>
 <structure name="initialpos" >
  <crystal>
   <varray name="basis" >
    <v>       8.66999996       5.03999989       0.00000000 </v>
    <v>      -8.66999982       5.04000013       0.00000000 </v>
    <v>       0.00000000       0.00000000      30.00000000 </v>
   </varray>
   <i name="volume">   2621.80797419 </i>
   <varray name="rec_basis" >
    <v>       0.05767013       0.09920635       0.00000000 </v>
    <v>      -0.05767013       0.09920635       0.00000000 </v>
    <v>       0.00000000       0.00000000       0.03333333 </v>
   </varray>
  </crystal>
  <varray name="positions" >
   <v>       0.66666669       0.66666669       0.00000000 </v>
   <v>       0.33333334       0.66666669       0.00000000 </v>
   <v>       1.00000000       0.33333334       0.00000000 </v>
   <v>       0.00000000       0.00000000       0.00000000 </v>
   <v>       0.33333334       0.33333334       0.00000000 </v>
   <v>       0.33333334       0.00000000       0.00000000 </v>
   <v>       0.00000000       0.66666669       0.00000000 </v>
   <v>       0.66666669       0.00000000       0.00000000 </v>
   <v>       0.66666669       0.33333334       0.00000000 </v>
   <v>       0.11068511       0.22244981       0.95539999 </v>
   <v>       0.22244981       0.11068511       0.04460000 </v>
   <v>       0.11068511       0.55578315       0.95539999 </v>
   <v>       0.22244981       0.44401845       0.04460000 </v>
   <v>       0.11068511       0.88911647       0.95539999 </v>
   <v>       0.22244981       0.77735180       0.04460000 </v>
   <v>       0.44401845       0.22244981       0.95539999 </v>
   <v>       0.55578315       0.11068511       0.04460000 </v>
   <v>       0.44401845       0.55578315       0.95539999 </v>
   <v>       0.55578315       0.44401845       0.04460000 </v>
   <v>       0.44401845       0.88911647       0.95539999 </v>
   <v>       0.55578315       0.77735180       0.04460000 </v>
   <v>       0.77735180       0.22244981       0.95539999 </v>
   <v>       0.88911647       0.11068511       0.04460000 </v>
   <v>       0.77735180       0.55578315       0.95539999 </v>
   <v>       0.88911647       0.44401845       0.04460000 </v>
   <v>       0.77735180       0.88911647       0.95539999 </v>
   <v>       0.88911647       0.77735180       0.04460000 </v>
  </varray>
 </structure>
 <calculation>
  <scstep>
   <time name="dav">   21.99   22.05</time>
   <time name="total">   22.04   22.10</time>
   <energy>
    <i name="alphaZ">     81.65567618 </i>
    <i name="ewald">  41890.23010355 </i>
    <i name="hartreedc"> -47722.85866319 </i>
    <i name="XCdc">   -242.92971630 </i>
    <i name="pawpsdc">   3467.42045192 </i>
    <i name="pawaedc">  -2871.19716117 </i>
    <i name="eentropy">     -0.53820146 </i>
    <i name="bandstr">   -238.74764098 </i>
    <i name="atom">   6761.44252427 </i>
    <i name="e_fr_energy">   1124.47737281 </i>
    <i name="e_wo_entrp">   1125.01557427 </i>
    <i name="e_0_energy">   1124.74647354 </i>
   </energy>
  </scstep>
  <scstep>
   <time name="dav">   28.04   28.10</time>
   <time name="total">   28.04   28.11</time>
   <energy>
    <i name="e_fr_energy">     -1.47083876 </i>
    <i name="e_wo_entrp">     -1.28665470 </i>
    <i name="e_0_energy">     -1.37874673 </i>
   </energy>
  </scstep>
  <scstep>
   <time name="dav">   27.83   27.90</time>
   <time name="total">   27.83   27.91</time>
   <energy>
    <i name="e_fr_energy">   -199.46789262 </i>
    <i name="e_wo_entrp">   -199.18823524 </i>
    <i name="e_0_energy">   -199.32806393 </i>
   </energy>
  </scstep>
  <scstep>
   <time name="dav">   30.33   30.40</time>
   <time name="total">   30.33   30.41</time>
   <energy>
    <i name="e_fr_energy">   -208.87312091 </i>
    <i name="e_wo_entrp">   -208.55005611 </i>
    <i name="e_0_energy">   -208.71158851 </i>
   </energy>
  </scstep>
  <scstep>
   <time name="dav">   29.80   29.87</time>
   <time name="total">   30.26   30.34</time>
   <energy>
    <i name="e_fr_energy">   -209.22425293 </i>
    <i name="e_wo_entrp">   -208.90490030 </i>
    <i name="e_0_energy">   -209.06457662 </i>
   </energy>
  </scstep>
  <scstep>
   <time name="dav">   31.65   31.73</time>
   <time name="total">   32.15   32.24</time>
   <energy>
    <i name="e_fr_energy">   -236.38015022 </i>
    <i name="e_wo_entrp">   -236.10300611 </i>
    <i name="e_0_energy">   -236.24157816 </i>
   </energy>
  </scstep>
  <scstep>
   <time name="dav">   32.78   32.86</time>
   <time name="total">   33.29   33.37</time>
   <energy>
    <i name="e_fr_energy">   -196.82391646 </i>
    <i name="e_wo_entrp">   -196.49361880 </i>
    <i name="e_0_energy">   -196.65876763 </i>
   </energy>
  </scstep>
  <scstep>
   <time name="dav">   29.07   29.14</time>
   <time name="total">   29.58   29.66</time>
   <energy>
    <i name="e_fr_energy">   -190.29883608 </i>
    <i name="e_wo_entrp">   -190.03126186 </i>
    <i name="e_0_energy">   -190.16504897 </i>
   </energy>
  </scstep>
  <scstep>
   <time name="dav">   30.60   30.68</time>
   <time name="total">   31.12   31.21</time>
   <energy>
    <i name="e_fr_energy">   -188.29568946 </i>
    <i name="e_wo_entrp">   -187.96095668 </i>
    <i name="e_0_energy">   -188.12832307 </i>
   </energy>
  </scstep>
  <scstep>
   <time name="dav">   33.00   33.08</time>
   <time name="total">   33.53   33.62</time>
   <energy>
    <i name="e_fr_energy">   -187.10071651 </i>
    <i name="e_wo_entrp">   -186.75421729 </i>
    <i name="e_0_energy">   -186.92746690 </i>
   </energy>
  </scstep>
  <scstep>
   <time name="dav">   30.75   30.83</time>
   <time name="total">   31.28   31.37</time>
   <energy>
    <i name="e_fr_energy">   -187.01460062 </i>
    <i name="e_wo_entrp">   -186.66792832 </i>
    <i name="e_0_energy">   -186.84126447 </i>
   </energy>
  </scstep>
  <scstep>
   <time name="dav">   32.21   32.29</time>
   <time name="total">   32.74   32.83</time>
   <energy>
    <i name="e_fr_energy">   -186.97368673 </i>
    <i name="e_wo_entrp">   -186.63728092 </i>
    <i name="e_0_energy">   -186.80548383 </i>
   </energy>
  </scstep>
  <scstep>
   <time name="dav">   32.72   32.80</time>
   <time name="total">   33.26   33.35</time>
   <energy>
    <i name="e_fr_energy">   -186.92997768 </i>
    <i name="e_wo_entrp">   -186.59107465 </i>
    <i name="e_0_energy">   -186.76052617 </i>
   </energy>
  </scstep>
  <scstep>
   <time name="dav">   32.30   32.38</time>
   <time name="total">   32.83   32.92</time>
   <energy>
    <i name="e_fr_energy">   -186.89205842 </i>
    <i name="e_wo_entrp">   -186.54847774 </i>
    <i name="e_0_energy">   -186.72026808 </i>
   </energy>
  </scstep>
  <scstep>
   <time name="dav">   30.17   30.24</time>
   <time name="total">   30.70   30.78</time>
   <energy>
    <i name="e_fr_energy">   -186.88756294 </i>
    <i name="e_wo_entrp">   -186.54315115 </i>
    <i name="e_0_energy">   -186.71535705 </i>
   </energy>
  </scstep>
  <scstep>
   <time name="dav">   33.07   33.15</time>
   <time name="total">   33.61   33.70</time>
   <energy>
    <i name="e_fr_energy">   -186.88747015 </i>
    <i name="e_wo_entrp">   -186.54391150 </i>
    <i name="e_0_energy">   -186.71569083 </i>
   </energy>
  </scstep>
  <scstep>
   <time name="dav">   31.78   31.86</time>
   <time name="total">   32.32   32.40</time>
   <energy>
    <i name="e_fr_energy">   -186.88508640 </i>
    <i name="e_wo_entrp">   -186.54199079 </i>
    <i name="e_0_energy">   -186.71353859 </i>
   </energy>
  </scstep>
  <scstep>
   <time name="dav">   31.32   31.40</time>
   <time name="total">   31.86   31.94</time>
   <energy>
    <i name="e_fr_energy">   -186.88401459 </i>
    <i name="e_wo_entrp">   -186.54146086 </i>
    <i name="e_0_energy">   -186.71273772 </i>
   </energy>
  </scstep>
  <scstep>
   <time name="dav">   27.83   27.90</time>
   <time name="total">   28.37   28.44</time>
   <energy>
    <i name="e_fr_energy">   -186.88381311 </i>
    <i name="e_wo_entrp">   -186.54074941 </i>
    <i name="e_0_energy">   -186.71228126 </i>
   </energy>
  </scstep>
  <scstep>
   <time name="dav">   23.85   23.91</time>
   <time name="total">   24.39   24.46</time>
   <energy>
    <i name="e_fr_energy">   -186.88467982 </i>
    <i name="e_wo_entrp">   -186.54194728 </i>
    <i name="e_0_energy">   -186.71331355 </i>
   </energy>
  </scstep>
  <scstep>
   <time name="dav">   22.14   22.19</time>
   <time name="total">   22.67   22.73</time>
   <energy>
    <i name="e_fr_energy">   -186.88543198 </i>
    <i name="e_wo_entrp">   -186.54258501 </i>
    <i name="e_0_energy">   -186.71400850 </i>
   </energy>
  </scstep>
  <scstep>
   <time name="dav">   19.96   20.00</time>
   <time name="total">   20.49   20.54</time>
   <energy>
    <i name="e_fr_energy">   -186.88628661 </i>
    <i name="e_wo_entrp">   -186.54345031 </i>
    <i name="e_0_energy">   -186.71486846 </i>
   </energy>
  </scstep>
  <scstep>
   <time name="dav">   20.53   20.58</time>
   <time name="total">   21.06   21.12</time>
   <energy>
    <i name="e_fr_energy">   -186.88753113 </i>
    <i name="e_wo_entrp">   -186.54482933 </i>
    <i name="e_0_energy">   -186.71618023 </i>
   </energy>
  </scstep>
  <scstep>
   <time name="dav">   19.26   19.30</time>
   <time name="total">   19.79   19.85</time>
   <energy>
    <i name="e_fr_energy">   -186.88806624 </i>
    <i name="e_wo_entrp">   -186.54529034 </i>
    <i name="e_0_energy">   -186.71667829 </i>
   </energy>
  </scstep>
  <scstep>
   <time name="dav">   16.47   16.51</time>
   <time name="total">   17.00   17.05</time>
   <energy>
    <i name="e_fr_energy">   -186.88847297 </i>
    <i name="e_wo_entrp">   -186.54567792 </i>
    <i name="e_0_energy">   -186.71707544 </i>
   </energy>
  </scstep>
  <scstep>
   <time name="dav">   19.36   19.41</time>
   <time name="total">   19.90   19.95</time>
   <energy>
    <i name="e_fr_energy">   -186.88871089 </i>
    <i name="e_wo_entrp">   -186.54593648 </i>
    <i name="e_0_energy">   -186.71732369 </i>
   </energy>
  </scstep>
  <scstep>
   <time name="dav">   20.22   20.27</time>
   <time name="total">   20.26   20.31</time>
   <energy>
    <i name="alphaZ">     81.65567618 </i>
    <i name="ewald">  41890.23010355 </i>
    <i name="hartreedc"> -47833.14058375 </i>
    <i name="XCdc">   -231.59824961 </i>
    <i name="pawpsdc">   4192.18691355 </i>
    <i name="pawaedc">  -3610.21265236 </i>
    <i name="eentropy">     -0.34277627 </i>
    <i name="bandstr">  -1437.10975295 </i>
    <i name="atom">   6761.44252427 </i>
    <i name="e_fr_energy">   -186.88879740 </i>
    <i name="e_wo_entrp">   -186.54602112 </i>
    <i name="e_0_energy">   -186.71740926 </i>
   </energy>
  </scstep>
  <structure>
   <crystal>
    <varray name="basis" >
     <v>       8.66999996       5.03999989       0.00000000 </v>
     <v>      -8.66999982       5.04000013       0.00000000 </v>
     <v>       0.00000000       0.00000000      30.00000000 </v>
    </varray>
    <i name="volume">   2621.80797419 </i>
    <varray name="rec_basis" >
     <v>       0.05767013       0.09920635       0.00000000 </v>
     <v>      -0.05767013       0.09920635       0.00000000 </v>
     <v>       0.00000000       0.00000000       0.03333333 </v>
    </varray>
   </crystal>
   <varray name="positions" >
    <v>       0.66666669       0.66666669       0.00000000 </v>
    <v>       0.33333334       0.66666669       0.00000000 </v>
    <v>       1.00000000       0.33333334       0.00000000 </v>
    <v>       0.00000000       0.00000000       0.00000000 </v>
    <v>       0.33333334       0.33333334       0.00000000 </v>
    <v>       0.33333334       0.00000000       0.00000000 </v>
    <v>       0.00000000       0.66666669       0.00000000 </v>
    <v>       0.66666669       0.00000000       0.00000000 </v>
    <v>       0.66666669       0.33333334       0.00000000 </v>
    <v>       0.11068511       0.22244981       0.95539999 </v>
    <v>       0.22244981       0.11068511       0.04460000 </v>
    <v>       0.11068511       0.55578315       0.95539999 </v>
    <v>       0.22244981       0.44401845       0.04460000 </v>
    <v>       0.11068511       0.88911647       0.95539999 </v>
    <v>       0.22244981       0.77735180       0.04460000 </v>
    <v>       0.44401845       0.22244981       0.95539999 </v>
    <v>       0.55578315       0.11068511       0.04460000 </v>
    <v>       0.44401845       0.55578315       0.95539999 </v>
    <v>       0.55578315       0.44401845       0.04460000 </v>
    <v>       0.44401845       0.88911647       0.95539999 </v>
    <v>       0.55578315       0.77735180       0.04460000 </v>
    <v>       0.77735180       0.22244981       0.95539999 </v>
    <v>       0.88911647       0.11068511       0.04460000 </v>
    <v>       0.77735180       0.55578315       0.95539999 </v>
    <v>       0.88911647       0.44401845       0.04460000 </v>
    <v>       0.77735180       0.88911647       0.95539999 </v>
    <v>       0.88911647       0.77735180       0.04460000 </v>
   </varray>
  </structure>
  <varray name="forces" >
   <v>      -0.06499333      -0.04895705       0.06166223 </v>
   <v>       0.08201534      -0.04461616      -0.03018220 </v>
   <v>       0.43771128       0.06480838      -0.06238497 </v>
   <v>       0.26171721       0.43455257       0.09584668 </v>
   <v>       0.17246702      -0.38473312      -0.02024235 </v>
   <v>      -0.52670225       0.00358951      -0.01003004 </v>
   <v>      -0.21331480       0.46898539       0.02634234 </v>
   <v>       0.05825814      -0.04869357      -0.01771823 </v>
   <v>      -0.29498116      -0.44972122      -0.07081129 </v>
   <v>      -0.77626699       0.01217393      -2.13745769 </v>
   <v>      -0.11914665      -0.01944225       2.94664894 </v>
   <v>       0.75684052      -0.02240965      -1.47660934 </v>
   <v>      -0.89811663      -0.00174593       1.45910996 </v>
   <v>       0.23310340      -0.14433052      -2.91508195 </v>
   <v>       0.65819415      -0.14674200       2.10765519 </v>
   <v>       0.23121791       0.16409909      -2.93411512 </v>
   <v>      -0.04671753       0.10658508       2.89827326 </v>
   <v>      -0.32517551       0.66807744      -1.39233243 </v>
   <v>      -0.37998546       0.72974440       2.17336203 </v>
   <v>       0.60782143      -0.53780849      -2.10724976 </v>
   <v>       0.26323170      -0.52271104       1.45166231 </v>
   <v>       0.46806089       0.59754022      -2.19836760 </v>
   <v>      -0.59763726       0.54049796       2.14275027 </v>
   <v>      -0.57634757      -0.01162466      -2.10116533 </v>
   <v>       0.59979045       0.00388270       2.03483656 </v>
   <v>       0.36137465      -0.69557591      -2.10539297 </v>
   <v>      -0.37241895      -0.71542514       2.18099149 </v>
  </varray>
  <varray name="stress" >
   <v>       7.35311859      -0.09744827      -1.52878038 </v>
   <v>      -0.09744825       4.42562053      -0.04529646 </v>
   <v>      -1.52878025      -0.04529632      30.28121854 </v>
  </varray>
  <energy>
   <i name="e_fr_energy">   -186.88879740 </i>
   <i name="e_wo_entrp">   -186.71740926 </i>
   <i name="e_0_energy">     -0.34277627 </i>
  </energy>
  <time name="totalsc">  793.05  795.29</time>
 </calculation>
 <calculation>
  <scstep>
   <time name="dav">   21.93   21.99</time>
   <time name="total">   22.48   22.54</time>
   <energy>
    <i name="alphaZ">     78.91590559 </i>
    <i name="ewald">  39377.61433997 </i>
    <i name="hartreedc"> -45335.17182064 </i>
    <i name="XCdc">   -239.05715270 </i>
    <i name="pawpsdc">   4192.17231068 </i>
    <i name="pawaedc">  -3610.19815393 </i>
    <i name="eentropy">     -0.28177356 </i>
    <i name="bandstr">  -1412.98033460 </i>
    <i name="atom">   6761.44252427 </i>
    <i name="e_fr_energy">   -187.54415491 </i>
    <i name="e_wo_entrp">   -187.26238135 </i>
    <i name="e_0_energy">   -187.40326813 </i>
   </energy>
  </scstep>
  <scstep>
   <time name="dav">   30.81   30.89</time>
   <time name="total">   31.34   31.43</time>
   <energy>
    <i name="e_fr_energy">   -189.65188599 </i>
    <i name="e_wo_entrp">   -189.31191619 </i>
    <i name="e_0_energy">   -189.48190109 </i>
   </energy>
  </scstep>
  <scstep>
   <time name="dav">   30.69   30.76</time>
   <time name="total">   31.24   31.32</time>
   <energy>
    <i name="e_fr_energy">   -189.34138321 </i>
    <i name="e_wo_entrp">   -189.06736408 </i>
    <i name="e_0_energy">   -189.20437365 </i>
   </energy>
  </scstep>
  <scstep>
   <time name="dav">   31.17   31.25</time>
   <time name="total">   31.72   31.80</time>
   <energy>
    <i name="e_fr_energy">   -188.80653418 </i>
    <i name="e_wo_entrp">   -188.52567645 </i>
    <i name="e_0_energy">   -188.66610532 </i>
   </energy>
  </scstep>
  <scstep>
   <time name="dav">   30.80   30.88</time>
   <time name="total">   31.35   31.43</time>
   <energy>
    <i name="e_fr_energy">   -188.95971814 </i>
    <i name="e_wo_entrp">   -188.66574666 </i>
    <i name="e_0_energy">   -188.81273240 </i>
   </energy>
  </scstep>
  <scstep>
   <time name="dav">   31.80   31.88</time>
   <time name="total">   32.35   32.44</time>
   <energy>
    <i name="e_fr_energy">   -188.77939996 </i>
    <i name="e_wo_entrp">   -188.49990194 </i>
    <i name="e_0_energy">   -188.63965095 </i>
   </energy>
  </scstep>
  <scstep>
   <time name="dav">   29.23   29.30</time>
   <time name="total">   29.78   29.86</time>
   <energy>
    <i name="e_fr_energy">   -188.76635091 </i>
    <i name="e_wo_entrp">   -188.48535641 </i>
    <i name="e_0_energy">   -188.62585366 </i>
   </energy>
  </scstep>
  <scstep>
   <time name="dav">   32.14   32.22</time>
   <time name="total">   32.69   32.77</time>
   <energy>
    <i name="e_fr_energy">   -188.73598849 </i>
    <i name="e_wo_entrp">   -188.45544943 </i>
    <i name="e_0_energy">   -188.59571896 </i>
   </energy>
  </scstep>
  <scstep>
   <time name="dav">   30.88   30.95</time>
   <time name="total">   31.42   31.51</time>
   <energy>
    <i name="e_fr_energy">   -188.71598343 </i>
    <i name="e_wo_entrp">   -188.43640522 </i>
    <i name="e_0_energy">   -188.57619432 </i>
   </energy>
  </scstep>
  <scstep>
   <time name="dav">   27.49   27.56</time>
   <time name="total">   28.04   28.11</time>
   <energy>
    <i name="e_fr_energy">   -188.71527175 </i>
    <i name="e_wo_entrp">   -188.43584544 </i>
    <i name="e_0_energy">   -188.57555860 </i>
   </energy>
  </scstep>
  <scstep>
   <time name="dav">   31.02   31.09</time>
   <time name="total">   31.56   31.65</time>
   <energy>
    <i name="e_fr_energy">   -188.71476105 </i>
    <i name="e_wo_entrp">   -188.43578730 </i>
    <i name="e_0_energy">   -188.57527417 </i>
   </energy>
  </scstep>
  <scstep>
   <time name="dav">   29.61   29.69</time>
   <time name="total">   30.16   30.24</time>
   <energy>
    <i name="e_fr_energy">   -188.71490559 </i>
    <i name="e_wo_entrp">   -188.43585194 </i>
    <i name="e_0_energy">   -188.57537876 </i>
   </energy>
  </scstep>
  <scstep>
   <time name="dav">   21.68   21.73</time>
   <time name="total">   21.72   21.78</time>
   <energy>
    <i name="alphaZ">     78.91590559 </i>
    <i name="ewald">  39377.61433997 </i>
    <i name="hartreedc"> -45345.89289486 </i>
    <i name="XCdc">   -237.96847499 </i>
    <i name="pawpsdc">   3950.60003019 </i>
    <i name="pawaedc">  -3365.12295235 </i>
    <i name="eentropy">     -0.27905188 </i>
    <i name="bandstr">  -1408.02426450 </i>
    <i name="atom">   6761.44252427 </i>
    <i name="e_fr_energy">   -188.71483857 </i>
    <i name="e_wo_entrp">   -188.43578668 </i>
    <i name="e_0_energy">   -188.57531262 </i>
   </energy>
  </scstep>
  <structure>
   <crystal>
    <varray name="basis" >
     <v>       8.85496500       5.10274683       0.00000000 </v>
     <v>      -8.85783691       5.10768768       0.00000000 </v>
     <v>       0.00000000       0.00000000      30.00000000 </v>
    </varray>
    <i name="volume">   2712.83084605 </i>
    <varray name="rec_basis" >
     <v>       0.05648367       0.09795491       0.00000000 </v>
     <v>      -0.05642903       0.09792315       0.00000000 </v>
     <v>       0.00000000       0.00000000       0.03333333 </v>
    </varray>
   </crystal>
   <varray name="positions" >
    <v>       0.66625156       0.66661320       0.00009916 </v>
    <v>       0.33334799       0.66622497      -0.00004854 </v>
    <v>       1.00152795       0.33242573      -0.00010032 </v>
    <v>       0.00280790       0.00135162       0.00015413 </v>
    <v>       0.33197185       0.33101219      -0.00003255 </v>
    <v>       0.33188515       0.00148255      -0.00001613 </v>
    <v>       0.00165108       0.66950472       0.00004236 </v>
    <v>       0.66659572      -0.00039513      -0.00002849 </v>
    <v>       0.66369365       0.33200167      -0.00011387 </v>
    <v>       0.10858368       0.22466777       0.95196277 </v>
    <v>       0.22202527       0.11092354       0.04933847 </v>
    <v>       0.11268351       0.55357025       0.95302547 </v>
    <v>       0.21994275       0.44650880       0.04694638 </v>
    <v>       0.11064288       0.88777717       0.95071228 </v>
    <v>       0.22357871       0.77481829       0.04798929 </v>
    <v>       0.44544711       0.22259190       0.95068167 </v>
    <v>       0.55616329       0.11132520       0.04926068 </v>
    <v>       0.44631117       0.55988525       0.95316100 </v>
    <v>       0.55821851       0.44856817       0.04809496 </v>
    <v>       0.44313557       0.88485147       0.95201135 </v>
    <v>       0.55401382       0.77411776       0.04693440 </v>
    <v>       0.78151383       0.22400740       0.95186482 </v>
    <v>       0.89004055       0.11493464       0.04804573 </v>
    <v>       0.77569267       0.55733101       0.95202113 </v>
    <v>       0.89080376       0.44236832       0.04787220 </v>
    <v>       0.77502819       0.88478205       0.95201433 </v>
    <v>       0.88465633       0.77496392       0.04810723 </v>
   </varray>
  </structure>
  <varray name="forces" >
   <v>      -0.02945682      -0.00753819      -0.06874271 </v>
   <v>       0.05167534      -0.03025576      -0.09157136 </v>
   <v>       0.33470418       0.00831343       0.06126636 </v>
   <v>       0.42257433       0.43345473       0.03088231 </v>
   <v>       0.45243508      -0.46503805      -0.00146239 </v>
   <v>      -0.62517245       0.07679656       0.01134227 </v>
   <v>      -0.27430471       0.49051165       0.11938408 </v>
   <v>      -0.07319950       0.04956965      -0.11269867 </v>
   <v>      -0.18747499      -0.55420827       0.07214254 </v>
   <v>      -0.05149547       0.00310553      -0.18320557 </v>
   <v>      -0.00410005       0.00107626       0.40208536 </v>
   <v>      -0.10559986       0.00174358       0.15357730 </v>
   <v>      -0.02551212       0.00595251      -0.09601465 </v>
   <v>       0.04943284      -0.09871237      -0.24216140 </v>
   <v>      -0.03135776      -0.10279493      -0.02320013 </v>
   <v>       0.05115946       0.09894174      -0.28764503 </v>
   <v>       0.06128806       0.08499404      -0.00855909 </v>
   <v>      -0.00865596       0.02622943       0.15803368 </v>
   <v>       0.09993243       0.04648830      -0.02583391 </v>
   <v>       0.07195592       0.06059487       0.14032983 </v>
   <v>      -0.04844141       0.06235892      -0.03829987 </v>
   <v>      -0.05611445      -0.05235350       0.11676803 </v>
   <v>      -0.07058191      -0.05618086      -0.04280631 </v>
   <v>       0.09379268      -0.00390216       0.14934149 </v>
   <v>      -0.10327003      -0.00047037      -0.36520731 </v>
   <v>      -0.10529131      -0.03900987       0.16938438 </v>
   <v>       0.11107847      -0.03966689       0.00287078 </v>
  </varray>
  <varray name="stress" >
   <v>     -19.89910138       0.01487130       0.04188465 </v>
   <v>       0.01487131     -19.48325229       0.01353940 </v>
   <v>       0.04188484       0.01353945      -1.76563813 </v>
  </varray>
  <energy>
   <i name="e_fr_energy">   -188.71483857 </i>
   <i name="e_wo_entrp">   -188.57531262 </i>
   <i name="e_0_energy">     -0.27905188 </i>
  </energy>
  <time name="totalsc">  428.42  429.56</time>
 </calculation>
 <calculation>
  <scstep>
   <time name="dav">   23.81   23.87</time>
   <time name="total">   24.35   24.41</time>
   <energy>
    <i name="alphaZ">     82.33693712 </i>
    <i name="ewald">  41299.20837864 </i>
    <i name="hartreedc"> -47297.99597979 </i>
    <i name="XCdc">   -233.84845972 </i>
    <i name="pawpsdc">   3950.06839054 </i>
    <i name="pawaedc">  -3364.58626107 </i>
    <i name="eentropy">     -0.23645555 </i>
    <i name="bandstr">  -1387.03485682 </i>
    <i name="atom">   6761.44252427 </i>
    <i name="e_fr_energy">   -190.64578236 </i>
    <i name="e_wo_entrp">   -190.40932681 </i>
    <i name="e_0_energy">   -190.52755459 </i>
   </energy>
  </scstep>
  <scstep>
   <time name="dav">   28.12   28.19</time>
   <time name="total">   28.64   28.72</time>
   <energy>
    <i name="e_fr_energy">   -190.56461553 </i>
    <i name="e_wo_entrp">   -190.32729528 </i>
    <i name="e_0_energy">   -190.44595540 </i>
   </energy>
  </scstep>
  <scstep>
   <time name="dav">   30.69   30.77</time>
   <time name="total">   31.22   31.30</time>
   <energy>
    <i name="e_fr_energy">   -190.13563054 </i>
    <i name="e_wo_entrp">   -189.88365643 </i>
    <i name="e_0_energy">   -190.00964348 </i>
   </energy>
  </scstep>
  <scstep>
   <time name="dav">   31.71   31.79</time>
   <time name="total">   32.25   32.33</time>
   <energy>
    <i name="e_fr_energy">   -189.92323941 </i>
    <i name="e_wo_entrp">   -189.68731899 </i>
    <i name="e_0_energy">   -189.80527920 </i>
   </energy>
  </scstep>
  <scstep>
   <time name="dav">   30.43   30.51</time>
   <time name="total">   30.96   31.05</time>
   <energy>
    <i name="e_fr_energy">   -189.90034471 </i>
    <i name="e_wo_entrp">   -189.66078710 </i>
    <i name="e_0_energy">   -189.78056590 </i>
   </energy>
  </scstep>
  <scstep>
   <time name="dav">   30.72   30.80</time>
   <time name="total">   31.25   31.34</time>
   <energy>
    <i name="e_fr_energy">   -189.82595352 </i>
    <i name="e_wo_entrp">   -189.58685763 </i>
    <i name="e_0_energy">   -189.70640557 </i>
   </energy>
  </scstep>
  <scstep>
   <time name="dav">   29.46   29.54</time>
   <time name="total">   29.99   30.07</time>
   <energy>
    <i name="e_fr_energy">   -189.81729789 </i>
    <i name="e_wo_entrp">   -189.57867828 </i>
    <i name="e_0_energy">   -189.69798809 </i>
   </energy>
  </scstep>
  <scstep>
   <time name="dav">   31.09   31.17</time>
   <time name="total">   31.62   31.71</time>
   <energy>
    <i name="e_fr_energy">   -189.81832823 </i>
    <i name="e_wo_entrp">   -189.57957172 </i>
    <i name="e_0_energy">   -189.69894998 </i>
   </energy>
  </scstep>
  <scstep>
   <time name="dav">   28.29   28.36</time>
   <time name="total">   28.82   28.90</time>
   <energy>
    <i name="e_fr_energy">   -189.81718560 </i>
    <i name="e_wo_entrp">   -189.57847317 </i>
    <i name="e_0_energy">   -189.69782938 </i>
   </energy>
  </scstep>
  <scstep>
   <time name="dav">   25.97   26.04</time>
   <time name="total">   26.50   26.57</time>
   <energy>
    <i name="e_fr_energy">   -189.81745168 </i>
    <i name="e_wo_entrp">   -189.57874619 </i>
    <i name="e_0_energy">   -189.69809894 </i>
   </energy>
  </scstep>
  <scstep>
   <time name="dav">   22.86   22.91</time>
   <time name="total">   23.39   23.45</time>
   <energy>
    <i name="e_fr_energy">   -189.81723602 </i>
    <i name="e_wo_entrp">   -189.57842675 </i>
    <i name="e_0_energy">   -189.69783139 </i>
   </energy>
  </scstep>
  <scstep>
   <time name="dav">   19.60   19.65</time>
   <time name="total">   19.64   19.69</time>
   <energy>
    <i name="alphaZ">     82.33693712 </i>
    <i name="ewald">  41299.20837864 </i>
    <i name="hartreedc"> -47271.45506238 </i>
    <i name="XCdc">   -235.23789089 </i>
    <i name="pawpsdc">   4038.95787841 </i>
    <i name="pawaedc">  -3454.67639211 </i>
    <i name="eentropy">     -0.23881476 </i>
    <i name="bandstr">  -1410.15481732 </i>
    <i name="atom">   6761.44252427 </i>
    <i name="e_fr_energy">   -189.81725900 </i>
    <i name="e_wo_entrp">   -189.57844424 </i>
    <i name="e_0_energy">   -189.69785162 </i>
   </energy>
  </scstep>
  <structure>
   <crystal>
    <varray name="basis" >
     <v>       8.66717324       4.99688653       0.00000000 </v>
     <v>      -8.66982232       5.00144389       0.00000000 </v>
     <v>       0.00000000       0.00000000      30.00000000 </v>
    </varray>
    <i name="volume">   2600.11497170 </i>
    <varray name="rec_basis" >
     <v>       0.05770642       0.10003199       0.00000000 </v>
     <v>      -0.05765383       0.10000142       0.00000000 </v>
     <v>       0.00000000       0.00000000       0.03333333 </v>
    </varray>
   </crystal>
   <varray name="positions" >
    <v>       0.66621072       0.66662891       0.00006020 </v>
    <v>       0.33334723       0.66612503      -0.00010043 </v>
    <v>       1.00186322       0.33211846      -0.00006560 </v>
    <v>       0.00393559       0.00166785       0.00017163 </v>
    <v>       0.33163186       0.32980390      -0.00003338 </v>
    <v>       0.33141268       0.00221019      -0.00000970 </v>
    <v>       0.00220456       0.67058452       0.00011002 </v>
    <v>       0.66660798      -0.00024238      -0.00009236 </v>
    <v>       0.66259063       0.33125885      -0.00007299 </v>
    <v>       0.10853939       0.22472235       0.95185894 </v>
    <v>       0.22202313       0.11092927       0.04956634 </v>
    <v>       0.11258500       0.55367446       0.95311251 </v>
    <v>       0.21992816       0.44654319       0.04689196 </v>
    <v>       0.11052595       0.88756540       0.95057504 </v>
    <v>       0.22337740       0.77467724       0.04797615 </v>
    <v>       0.44566102       0.22270754       0.95051866 </v>
    <v>       0.55636370       0.11140790       0.04925583 </v>
    <v>       0.44634654       0.55993722       0.95325056 </v>
    <v>       0.55839190       0.44854970       0.04808032 </v>
    <v>       0.44330559       0.88488332       0.95209087 </v>
    <v>       0.55407116       0.77426805       0.04691269 </v>
    <v>       0.78137275       0.22397408       0.95193100 </v>
    <v>       0.88987921       0.11490883       0.04802147 </v>
    <v>       0.77577624       0.55723453       0.95210577 </v>
    <v>       0.89070381       0.44246662       0.04766522 </v>
    <v>       0.77486211       0.88481812       0.95211033 </v>
    <v>       0.88469694       0.77479131       0.04810885 </v>
   </varray>
  </structure>
  <varray name="forces" >
   <v>      -0.00357588       0.01115688      -0.08298471 </v>
   <v>       0.03540740      -0.01710234      -0.08517981 </v>
   <v>       0.31399171      -0.03491365       0.07764562 </v>
   <v>       0.45992714       0.42022866       0.00589274 </v>
   <v>       0.53449212      -0.47827333       0.00198562 </v>
   <v>      -0.65651659       0.10583563       0.00732147 </v>
   <v>      -0.30119945       0.48140972       0.10831843 </v>
   <v>      -0.11450584       0.08249220      -0.10697062 </v>
   <v>      -0.15872488      -0.58371498       0.08568119 </v>
   <v>      -0.10911330       0.00191662      -0.67830191 </v>
   <v>      -0.00976735       0.00983287       0.97721794 </v>
   <v>       0.03760158      -0.00205455      -0.30057169 </v>
   <v>      -0.07670681       0.01106318       0.34042492 </v>
   <v>       0.00321564      -0.01762278      -0.81173044 </v>
   <v>       0.08307561      -0.00214202       0.47658104 </v>
   <v>      -0.00101009       0.01391438      -0.87330988 </v>
   <v>       0.02648967      -0.00133683       0.55091230 </v>
   <v>      -0.03064519       0.06150230      -0.27160930 </v>
   <v>      -0.03683438       0.08915813       0.47476000 </v>
   <v>       0.03978183      -0.07371463      -0.33820811 </v>
   <v>       0.02280453      -0.07012424       0.42511897 </v>
   <v>       0.00675239       0.08453066      -0.39240852 </v>
   <v>      -0.05193385       0.06889866       0.44371308 </v>
   <v>      -0.03625587       0.00003147      -0.33453428 </v>
   <v>       0.02837208      -0.00115543       0.09497254 </v>
   <v>       0.02589284      -0.07192894      -0.30751870 </v>
   <v>      -0.03101504      -0.08788765       0.51278215 </v>
  </varray>
  <varray name="stress" >
   <v>     -10.13054112       0.01984252       0.01938995 </v>
   <v>       0.01984249      -9.82764776       0.02660539 </v>
   <v>       0.01939000       0.02660517       6.47616383 </v>
  </varray>
  <energy>
   <i name="e_fr_energy">   -189.81725900 </i>
   <i name="e_wo_entrp">   -189.69785162 </i>
   <i name="e_0_energy">     -0.23881476 </i>
  </energy>
  <time name="totalsc">  381.23  382.25</time>
 </calculation>
 <calculation>
  <scstep>
   <time name="dav">   21.91   21.97</time>
   <time name="total">   22.43   22.49</time>
   <energy>
    <i name="alphaZ">     85.80579955 </i>
    <i name="ewald">  42827.69465530 </i>
    <i name="hartreedc"> -48844.23778685 </i>
    <i name="XCdc">   -232.95464948 </i>
    <i name="pawpsdc">   4039.09752592 </i>
    <i name="pawaedc">  -3454.81415914 </i>
    <i name="eentropy">     -0.21083144 </i>
    <i name="bandstr">  -1373.23852313 </i>
    <i name="atom">   6761.44252427 </i>
    <i name="e_fr_energy">   -191.41544500 </i>
    <i name="e_wo_entrp">   -191.20461356 </i>
    <i name="e_0_energy">   -191.31002928 </i>
   </energy>
  </scstep>
  <scstep>
   <time name="dav">   32.50   32.58</time>
   <time name="total">   33.01   33.10</time>
   <energy>
    <i name="e_fr_energy">   -191.22580647 </i>
    <i name="e_wo_entrp">   -191.01522487 </i>
    <i name="e_0_energy">   -191.12051567 </i>
   </energy>
  </scstep>
  <scstep>
   <time name="dav">   30.40   30.47</time>
   <time name="total">   30.91   30.99</time>
   <energy>
    <i name="e_fr_energy">   -191.37576296 </i>
    <i name="e_wo_entrp">   -191.14344714 </i>
    <i name="e_0_energy">   -191.25960505 </i>
   </energy>
  </scstep>
  <scstep>
   <time name="dav">   30.60   30.68</time>
   <time name="total">   31.12   31.20</time>
   <energy>
    <i name="e_fr_energy">   -190.99846160 </i>
    <i name="e_wo_entrp">   -190.78510989 </i>
    <i name="e_0_energy">   -190.89178575 </i>
   </energy>
  </scstep>
  <scstep>
   <time name="dav">   30.75   30.82</time>
   <time name="total">   31.27   31.35</time>
   <energy>
    <i name="e_fr_energy">   -190.92077573 </i>
    <i name="e_wo_entrp">   -190.70824163 </i>
    <i name="e_0_energy">   -190.81450868 </i>
   </energy>
  </scstep>
  <scstep>
   <time name="dav">   30.81   30.88</time>
   <time name="total">   31.36   31.44</time>
   <energy>
    <i name="e_fr_energy">   -190.86923533 </i>
    <i name="e_wo_entrp">   -190.65162114 </i>
    <i name="e_0_energy">   -190.76042824 </i>
   </energy>
  </scstep>
  <scstep>
   <time name="dav">   31.38   31.46</time>
   <time name="total">   31.90   31.99</time>
   <energy>
    <i name="e_fr_energy">   -190.84630043 </i>
    <i name="e_wo_entrp">   -190.63045486 </i>
    <i name="e_0_energy">   -190.73837764 </i>
   </energy>
  </scstep>
  <scstep>
   <time name="dav">   28.96   29.03</time>
   <time name="total">   29.47   29.55</time>
   <energy>
    <i name="e_fr_energy">   -190.84464072 </i>
    <i name="e_wo_entrp">   -190.62877197 </i>
    <i name="e_0_energy">   -190.73670635 </i>
   </energy>
  </scstep>
  <scstep>
   <time name="dav">   26.98   27.05</time>
   <time name="total">   27.49   27.57</time>
   <energy>
    <i name="e_fr_energy">   -190.84373635 </i>
    <i name="e_wo_entrp">   -190.62787510 </i>
    <i name="e_0_energy">   -190.73580573 </i>
   </energy>
  </scstep>
  <scstep>
   <time name="dav">   28.35   28.42</time>
   <time name="total">   28.86   28.94</time>
   <energy>
    <i name="e_fr_energy">   -190.84397057 </i>
    <i name="e_wo_entrp">   -190.62811983 </i>
    <i name="e_0_energy">   -190.73604520 </i>
   </energy>
  </scstep>
  <scstep>
   <time name="dav">   26.46   26.53</time>
   <time name="total">   26.98   27.05</time>
   <energy>
    <i name="e_fr_energy">   -190.84378133 </i>
    <i name="e_wo_entrp">   -190.62786785 </i>
    <i name="e_0_energy">   -190.73582459 </i>
   </energy>
  </scstep>
  <scstep>
   <time name="dav">   19.82   19.87</time>
   <time name="total">   19.86   19.91</time>
   <energy>
    <i name="alphaZ">     85.80579955 </i>
    <i name="ewald">  42827.69465530 </i>
    <i name="hartreedc"> -48815.75722231 </i>
    <i name="XCdc">   -234.27336814 </i>
    <i name="pawpsdc">   4064.79549305 </i>
    <i name="pawaedc">  -3480.70750027 </i>
    <i name="eentropy">     -0.21592416 </i>
    <i name="bandstr">  -1399.62824579 </i>
    <i name="atom">   6761.44252427 </i>
    <i name="e_fr_energy">   -190.84378850 </i>
    <i name="e_wo_entrp">   -190.62786434 </i>
    <i name="e_0_energy">   -190.73582642 </i>
   </energy>
  </scstep>
  <structure>
   <crystal>
    <varray name="basis" >
     <v>       8.48666540       4.89778249       0.00000000 </v>
     <v>      -8.48846326       4.90086869       0.00000000 </v>
     <v>       0.00000000       0.00000000      30.00000000 </v>
    </varray>
    <i name="volume">   2495.00038542 </i>
    <varray name="rec_basis" >
     <v>       0.05892827       0.10206567       0.00000000 </v>
     <v>      -0.05889116       0.10204406       0.00000000 </v>
     <v>       0.00000000       0.00000000       0.03333333 </v>
    </varray>
   </crystal>
   <varray name="positions" >
    <v>       0.66635132       0.66672107      -0.00012355 </v>
    <v>       0.33337745       0.66594621      -0.00027125 </v>
    <v>       1.00264171       0.33068866       0.00010892 </v>
    <v>       0.00824926       0.00255177       0.00016266 </v>
    <v>       0.33065292       0.32473010      -0.00002635 </v>
    <v>       0.32973078       0.00535968       0.00000204 </v>
    <v>       0.00406955       0.67470119       0.00032476 </v>
    <v>       0.66673349       0.00082846      -0.00030883 </v>
    <v>       0.65832997       0.32806322       0.00011575 </v>
    <v>       0.10807154       0.22520785       0.95003627 </v>
    <v>       0.22206307       0.11105599       0.05207525 </v>
    <v>       0.11290403       0.55331112       0.95210603 </v>
    <v>       0.21965956       0.44697544       0.04796590 </v>
    <v>       0.11056270       0.88771148       0.94841324 </v>
    <v>       0.22407883       0.77445031       0.04938543 </v>
    <v>       0.44545803       0.22266155       0.94821582 </v>
    <v>       0.55618624       0.11113903       0.05086945 </v>
    <v>       0.44667715       0.56055211       0.95232475 </v>
    <v>       0.55872703       0.44954300       0.04948652 </v>
    <v>       0.44260731       0.88399026       0.95098587 </v>
    <v>       0.55348698       0.77331503       0.04818471 </v>
    <v>       0.78235733       0.22472927       0.95068790 </v>
    <v>       0.89046104       0.11581203       0.04935152 </v>
    <v>       0.77546862       0.55756183       0.95100384 </v>
    <v>       0.89098628       0.44216654       0.04825143 </v>
    <v>       0.77461159       0.88400443       0.95107020 </v>
    <v>       0.88371065       0.77443685       0.04960162 </v>
   </varray>
  </structure>
  <varray name="forces" >
   <v>       0.00811910       0.03025330      -0.07708081 </v>
   <v>       0.05638982      -0.02926089      -0.04614043 </v>
   <v>       0.33853082      -0.05849142       0.07946701 </v>
   <v>       0.46199744       0.36526813      -0.01967075 </v>
   <v>       0.53361047      -0.41915413       0.00792965 </v>
   <v>      -0.63246229       0.13200257       0.00589674 </v>
   <v>      -0.31815266       0.54187094       0.06556710 </v>
   <v>      -0.13474585       0.09524025      -0.07122317 </v>
   <v>      -0.15810223      -0.66501742       0.05053369 </v>
   <v>       0.04288869       0.01061721      -0.48813010 </v>
   <v>      -0.01812518       0.00194494       0.78399172 </v>
   <v>      -0.01345645       0.00514461      -0.21113050 </v>
   <v>       0.06686068       0.00443353       0.24940556 </v>
   <v>      -0.01255136       0.06296341      -0.60251559 </v>
   <v>      -0.01927828       0.08591735       0.31065523 </v>
   <v>      -0.02544613      -0.04870657      -0.69653307 </v>
   <v>      -0.02578192      -0.10341207       0.40174626 </v>
   <v>       0.04683181      -0.07877287      -0.19342618 </v>
   <v>      -0.05846344      -0.04907153       0.32495067 </v>
   <v>      -0.08178002      -0.02927020      -0.19100347 </v>
   <v>      -0.00752601      -0.02439099       0.29016493 </v>
   <v>      -0.03380400       0.06542347      -0.28328891 </v>
   <v>       0.05525643       0.01538364       0.27912001 </v>
   <v>       0.02560557      -0.00701864      -0.12666148 </v>
   <v>      -0.05936032      -0.00300502      -0.07715187 </v>
   <v>       0.04458738       0.06537492      -0.16187767 </v>
   <v>      -0.08164205       0.03373349       0.39640541 </v>
  </varray>
  <varray name="stress" >
   <v>      -5.56466650      -0.07831078      -0.13543068 </v>
   <v>      -0.07831073      -5.68073734      -0.08371179 </v>
   <v>      -0.13543061      -0.08371177       4.48250979 </v>
  </varray>
  <energy>
   <i name="e_fr_energy">   -190.84378850 </i>
   <i name="e_wo_entrp">   -190.73582642 </i>
   <i name="e_0_energy">     -0.21592416 </i>
  </energy>
  <time name="totalsc">  386.68  387.72</time>
 </calculation>
 <calculation>
  <scstep>
   <time name="dav">   21.94   22.00</time>
   <time name="total">   22.44   22.50</time>
   <energy>
    <i name="alphaZ">     89.93688993 </i>
    <i name="ewald">  44564.03634394 </i>
    <i name="hartreedc"> -50604.58349191 </i>
    <i name="XCdc">   -231.95833906 </i>
    <i name="pawpsdc">   4064.75302279 </i>
    <i name="pawaedc">  -3480.66101547 </i>
    <i name="eentropy">     -0.21451732 </i>
    <i name="bandstr">  -1354.89701212 </i>
    <i name="atom">   6761.44252427 </i>
    <i name="e_fr_energy">   -192.14559493 </i>
    <i name="e_wo_entrp">   -191.93107761 </i>
    <i name="e_0_energy">   -192.03833627 </i>
   </energy>
  </scstep>
  <scstep>
   <time name="dav">   27.58   27.65</time>
   <time name="total">   28.08   28.16</time>
   <energy>
    <i name="e_fr_energy">   -191.92399964 </i>
    <i name="e_wo_entrp">   -191.70776302 </i>
    <i name="e_0_energy">   -191.81588133 </i>
   </energy>
  </scstep>
  <scstep>
   <time name="dav">   29.62   29.69</time>
   <time name="total">   30.13   30.21</time>
   <energy>
    <i name="e_fr_energy">   -191.79848245 </i>
    <i name="e_wo_entrp">   -191.57178780 </i>
    <i name="e_0_energy">   -191.68513513 </i>
   </energy>
  </scstep>
  <scstep>
   <time name="dav">   30.63   30.70</time>
   <time name="total">   31.13   31.21</time>
   <energy>
    <i name="e_fr_energy">   -191.82117003 </i>
    <i name="e_wo_entrp">   -191.61586566 </i>
    <i name="e_0_energy">   -191.71851785 </i>
   </energy>
  </scstep>
  <scstep>
   <time name="dav">   30.61   30.69</time>
   <time name="total">   31.11   31.20</time>
   <energy>
    <i name="e_fr_energy">   -191.55210234 </i>
    <i name="e_wo_entrp">   -191.33037599 </i>
    <i name="e_0_energy">   -191.44123916 </i>
   </energy>
  </scstep>
  <scstep>
   <time name="dav">   28.73   28.80</time>
   <time name="total">   29.24   29.32</time>
   <energy>
    <i name="e_fr_energy">   -191.54246915 </i>
    <i name="e_wo_entrp">   -191.32104095 </i>
    <i name="e_0_energy">   -191.43175505 </i>
   </energy>
  </scstep>
  <scstep>
   <time name="dav">   29.88   29.96</time>
   <time name="total">   30.39   30.47</time>
   <energy>
    <i name="e_fr_energy">   -191.54711804 </i>
    <i name="e_wo_entrp">   -191.32658151 </i>
    <i name="e_0_energy">   -191.43684977 </i>
   </energy>
  </scstep>
  <scstep>
   <time name="dav">   29.03   29.10</time>
   <time name="total">   29.54   29.62</time>
   <energy>
    <i name="e_fr_energy">   -191.53770049 </i>
    <i name="e_wo_entrp">   -191.31652606 </i>
    <i name="e_0_energy">   -191.42711328 </i>
   </energy>
  </scstep>
  <scstep>
   <time name="dav">   28.92   28.99</time>
   <time name="total">   29.42   29.50</time>
   <energy>
    <i name="e_fr_energy">   -191.53849325 </i>
    <i name="e_wo_entrp">   -191.31764635 </i>
    <i name="e_0_energy">   -191.42806980 </i>
   </energy>
  </scstep>
  <scstep>
   <time name="dav">   29.55   29.62</time>
   <time name="total">   30.05   30.13</time>
   <energy>
    <i name="e_fr_energy">   -191.53800968 </i>
    <i name="e_wo_entrp">   -191.31683361 </i>
    <i name="e_0_energy">   -191.42742165 </i>
   </energy>
  </scstep>
  <scstep>
   <time name="dav">   25.94   26.01</time>
   <time name="total">   26.45   26.52</time>
   <energy>
    <i name="e_fr_energy">   -191.53774205 </i>
    <i name="e_wo_entrp">   -191.31666233 </i>
    <i name="e_0_energy">   -191.42720219 </i>
   </energy>
  </scstep>
  <scstep>
   <time name="dav">   18.64   18.69</time>
   <time name="total">   18.68   18.73</time>
   <energy>
    <i name="alphaZ">     89.93688993 </i>
    <i name="ewald">  44564.03634394 </i>
    <i name="hartreedc"> -50572.98858572 </i>
    <i name="XCdc">   -233.38241609 </i>
    <i name="pawpsdc">   4087.40866577 </i>
    <i name="pawaedc">  -3503.44549940 </i>
    <i name="eentropy">     -0.22115656 </i>
    <i name="bandstr">  -1384.32447987 </i>
    <i name="atom">   6761.44252427 </i>
    <i name="e_fr_energy">   -191.53771371 </i>
    <i name="e_wo_entrp">   -191.31655715 </i>
    <i name="e_0_energy">   -191.42713543 </i>
   </energy>
  </scstep>
  <structure>
   <crystal>
    <varray name="basis" >
     <v>       8.29014496       4.77869656       0.00000000 </v>
     <v>      -8.29613445       4.78904261       0.00000000 </v>
     <v>       0.00000000       0.00000000      30.00000000 </v>
    </varray>
    <i name="volume">   2380.39699943 </i>
    <varray name="rec_basis" >
     <v>       0.06035602       0.10455568       0.00000000 </v>
     <v>      -0.06022562       0.10448020       0.00000000 </v>
     <v>       0.00000000       0.00000000       0.03333333 </v>
    </varray>
   </crystal>
   <varray name="positions" >
    <v>       0.66681681       0.66701534      -0.00043777 </v>
    <v>       0.33342689       0.66531213      -0.00046341 </v>
    <v>       1.00413194       0.32765078       0.00043045 </v>
    <v>       0.01585651       0.00371587       0.00007635 </v>
    <v>       0.32933546       0.31584519       0.00000451 </v>
    <v>       0.32693084       0.01136523       0.00002184 </v>
    <v>       0.00817405       0.68321627       0.00058959 </v>
    <v>       0.66696358       0.00299693      -0.00059694 </v>
    <v>       0.64944627       0.32125818       0.00034137 </v>
    <v>       0.10824669       0.22525093       0.94759518 </v>
    <v>       0.22199681       0.11124064       0.05573598 </v>
    <v>       0.11312186       0.55317238       0.95082465 </v>
    <v>       0.21998442       0.44680446       0.04937971 </v>
    <v>       0.11125979       0.88869653       0.94545138 </v>
    <v>       0.22537375       0.77546543       0.05113235 </v>
    <v>       0.44451316       0.22218463       0.94489183 </v>
    <v>       0.55470057       0.11002126       0.05301538 </v>
    <v>       0.44627437       0.55971694       0.95114016 </v>
    <v>       0.55788202       0.44988815       0.05128137 </v>
    <v>       0.44132460       0.88370890       0.94973071 </v>
    <v>       0.55285336       0.77250668       0.04980319 </v>
    <v>       0.78343923       0.22600367       0.94906671 </v>
    <v>       0.89137818       0.11610757       0.05096356 </v>
    <v>       0.77532276       0.55758446       0.94996203 </v>
    <v>       0.89083059       0.44225298       0.04846520 </v>
    <v>       0.77557686       0.88398175       0.94992997 </v>
    <v>       0.88305309       0.77525116       0.05166457 </v>
   </varray>
  </structure>
  <varray name="forces" >
   <v>      -0.00269880       0.06446544      -0.02128256 </v>
   <v>       0.10822980      -0.09221301      -0.04424577 </v>
   <v>       0.46322509      -0.04910130      -0.00176357 </v>
   <v>       0.09661329       0.02351255       0.06797863 </v>
   <v>       0.05408208      -0.02924169       0.03337703 </v>
   <v>      -0.00756846       0.05115810       0.03555973 </v>
   <v>      -0.26418417       0.52279614       0.02777644 </v>
   <v>      -0.18965095       0.06437562      -0.05231501 </v>
   <v>      -0.09542180      -0.53768953      -0.06316317 </v>
   <v>       0.16207799       0.01213271      -0.12172815 </v>
   <v>      -0.02175564      -0.02607859       0.27889623 </v>
   <v>      -0.09399393      -0.01764340       0.08287355 </v>
   <v>       0.21403656      -0.01006131       0.02476095 </v>
   <v>       0.00373033       0.14227352      -0.25690895 </v>
   <v>      -0.14067938       0.18807862       0.02776483 </v>
   <v>      -0.01896910      -0.08155908      -0.30088138 </v>
   <v>      -0.06652948      -0.21293047       0.16973698 </v>
   <v>       0.12291438      -0.19104570       0.03222268 </v>
   <v>      -0.00584127      -0.18246015       0.02704155 </v>
   <v>      -0.19166940       0.04337461       0.09110892 </v>
   <v>      -0.01904742       0.03623080      -0.00799886 </v>
   <v>      -0.11208329       0.03738559      -0.00384861 </v>
   <v>       0.16438355      -0.05740181      -0.00247246 </v>
   <v>       0.13078771      -0.02544357       0.20787935 </v>
   <v>      -0.21563242      -0.01678464      -0.42462877 </v>
   <v>       0.00961714       0.20359538       0.08823931 </v>
   <v>      -0.08397244       0.14027516       0.10602110 </v>
  </varray>
  <varray name="stress" >
   <v>       0.46045469      -0.23231839      -0.19506351 </v>
   <v>      -0.23231867       0.27126205      -0.28941475 </v>
   <v>      -0.19506352      -0.28941457      -0.68439186 </v>
  </varray>
  <energy>
   <i name="e_fr_energy">   -191.53771371 </i>
   <i name="e_wo_entrp">   -191.42713543 </i>
   <i name="e_0_energy">     -0.22115656 </i>
  </energy>
  <time name="totalsc">  379.14  380.16</time>
 </calculation>
 <calculation>
  <scstep>
   <time name="dav">   21.88   21.93</time>
   <time name="total">   22.38   22.44</time>
   <energy>
    <i name="alphaZ">     89.68760867 </i>
    <i name="ewald">  44440.26201317 </i>
    <i name="hartreedc"> -50446.93644762 </i>
    <i name="XCdc">   -233.60274445 </i>
    <i name="pawpsdc">   4087.25859963 </i>
    <i name="pawaedc">  -3503.29023052 </i>
    <i name="eentropy">     -0.22197241 </i>
    <i name="bandstr">  -1386.21062977 </i>
    <i name="atom">   6761.44252427 </i>
    <i name="e_fr_energy">   -191.61127902 </i>
    <i name="e_wo_entrp">   -191.38930661 </i>
    <i name="e_0_energy">   -191.50029282 </i>
   </energy>
  </scstep>
  <scstep>
   <time name="dav">   33.13   33.21</time>
   <time name="total">   33.63   33.72</time>
   <energy>
    <i name="e_fr_energy">   -191.66371045 </i>
    <i name="e_wo_entrp">   -191.43480642 </i>
    <i name="e_0_energy">   -191.54925844 </i>
   </energy>
  </scstep>
  <scstep>
   <time name="dav">   31.02   31.09</time>
   <time name="total">   31.52   31.61</time>
   <energy>
    <i name="e_fr_energy">   -191.62256406 </i>
    <i name="e_wo_entrp">   -191.40000486 </i>
    <i name="e_0_energy">   -191.51128446 </i>
   </energy>
  </scstep>
  <scstep>
   <time name="dav">   26.24   26.31</time>
   <time name="total">   26.75   26.82</time>
   <energy>
    <i name="e_fr_energy">   -191.62548797 </i>
    <i name="e_wo_entrp">   -191.40357770 </i>
    <i name="e_0_energy">   -191.51453283 </i>
   </energy>
  </scstep>
  <scstep>
   <time name="dav">   28.17   28.24</time>
   <time name="total">   28.67   28.75</time>
   <energy>
    <i name="e_fr_energy">   -191.61955839 </i>
    <i name="e_wo_entrp">   -191.39570320 </i>
    <i name="e_0_energy">   -191.50763079 </i>
   </energy>
  </scstep>
  <scstep>
   <time name="dav">   28.10   28.16</time>
   <time name="total">   28.60   28.68</time>
   <energy>
    <i name="e_fr_energy">   -191.62029052 </i>
    <i name="e_wo_entrp">   -191.39749222 </i>
    <i name="e_0_energy">   -191.50889137 </i>
   </energy>
  </scstep>
  <scstep>
   <time name="dav">   28.28   28.35</time>
   <time name="total">   28.78   28.86</time>
   <energy>
    <i name="e_fr_energy">   -191.61934729 </i>
    <i name="e_wo_entrp">   -191.39634642 </i>
    <i name="e_0_energy">   -191.50784685 </i>
   </energy>
  </scstep>
  <scstep>
   <time name="dav">   25.49   25.55</time>
   <time name="total">   26.00   26.07</time>
   <energy>
    <i name="e_fr_energy">   -191.61884203 </i>
    <i name="e_wo_entrp">   -191.39584965 </i>
    <i name="e_0_energy">   -191.50734584 </i>
   </energy>
  </scstep>
  <scstep>
   <time name="dav">   18.27   18.32</time>
   <time name="total">   18.31   18.36</time>
   <energy>
    <i name="alphaZ">     89.68760867 </i>
    <i name="ewald">  44440.26201317 </i>
    <i name="hartreedc"> -50449.96282302 </i>
    <i name="XCdc">   -233.49919782 </i>
    <i name="pawpsdc">   4083.93954555 </i>
    <i name="pawaedc">  -3499.92701981 </i>
    <i name="eentropy">     -0.22303317 </i>
    <i name="bandstr">  -1383.33846995 </i>
    <i name="atom">   6761.44252427 </i>
    <i name="e_fr_energy">   -191.61885210 </i>
    <i name="e_wo_entrp">   -191.39581893 </i>
    <i name="e_0_energy">   -191.50733551 </i>
   </energy>
  </scstep>
  <structure>
   <crystal>
    <varray name="basis" >
     <v>       8.30082380       4.77957341       0.00000000 </v>
     <v>      -8.31223038       4.79930561       0.00000000 </v>
     <v>       0.00000000       0.00000000      30.00000000 </v>
    </varray>
    <i name="volume">   2387.01316838 </i>
    <varray name="rec_basis" >
     <v>       0.06031771       0.10446818       0.00000000 </v>
     <v>      -0.06006972       0.10432482       0.00000000 </v>
     <v>       0.00000000       0.00000000       0.03333333 </v>
    </varray>
   </crystal>
   <varray name="positions" >
    <v>       0.66709661       0.66731734      -0.00045820 </v>
    <v>       0.33328407       0.66460100      -0.00052295 </v>
    <v>       1.00511532       0.32626511       0.00041589 </v>
    <v>       0.01595576       0.00352196       0.00018231 </v>
    <v>       0.32939215       0.31588523       0.00005377 </v>
    <v>       0.32725381       0.01140931       0.00007488 </v>
    <v>       0.00978334       0.68610632       0.00062172 </v>
    <v>       0.66674120       0.00373778      -0.00066524 </v>
    <v>       0.64695685       0.31921916       0.00023717 </v>
    <v>       0.10874702       0.22485943       0.94751317 </v>
    <v>       0.22181538       0.11116900       0.05600952 </v>
    <v>       0.11276728       0.55335766       0.95100758 </v>
    <v>       0.22051479       0.44617336       0.04935488 </v>
    <v>       0.11191758       0.88932016       0.94518602 </v>
    <v>       0.22582278       0.77670582       0.05109765 </v>
    <v>       0.44411406       0.22186952       0.94457306 </v>
    <v>       0.55356616       0.10923723       0.05317945 </v>
    <v>       0.44571492       0.55849726       0.95124245 </v>
    <v>       0.55702910       0.44901506       0.05124404 </v>
    <v>       0.44106178       0.88445948       0.94992645 </v>
    <v>       0.55300305       0.77277361       0.04972037 </v>
    <v>       0.78325734       0.22643359       0.94913249 </v>
    <v>       0.89151364       0.11536459       0.05088839 </v>
    <v>       0.77557104       0.55709945       0.95032726 </v>
    <v>       0.89016012       0.44276575       0.04780355 </v>
    <v>       0.77653528       0.88493208       0.95011719 </v>
    <v>       0.88352403       0.77611820       0.05173704 </v>
   </varray>
  </structure>
  <varray name="forces" >
   <v>       0.01068416       0.05843879      -0.03398322 </v>
   <v>       0.12145490      -0.11904556      -0.05967452 </v>
   <v>       0.54874901      -0.02599563       0.00482678 </v>
   <v>       0.16934697       0.08452591       0.01832200 </v>
   <v>       0.10621124      -0.10991077       0.02932278 </v>
   <v>      -0.11633843       0.08102634       0.02314971 </v>
   <v>      -0.29331490       0.56031994       0.02707810 </v>
   <v>      -0.24856070       0.05398975      -0.04877261 </v>
   <v>      -0.10830255      -0.57822867       0.00012083 </v>
   <v>       0.08541882      -0.01004181      -0.12501407 </v>
   <v>      -0.00755587      -0.00645323       0.16331917 </v>
   <v>      -0.07226418      -0.02281973       0.12146589 </v>
   <v>       0.11980021      -0.01318379       0.04248426 </v>
   <v>      -0.02790971       0.10836652      -0.19433275 </v>
   <v>      -0.06442072       0.12914171       0.05367011 </v>
   <v>      -0.03896099      -0.08411148      -0.23393122 </v>
   <v>      -0.02962857      -0.12056977       0.15887580 </v>
   <v>       0.06822439      -0.08943101       0.03610417 </v>
   <v>       0.01684797      -0.10389604       0.01434825 </v>
   <v>      -0.08924649       0.00639104       0.07147391 </v>
   <v>      -0.01338385       0.02646845      -0.03967076 </v>
   <v>      -0.07870003       0.03513039       0.01972031 </v>
   <v>       0.08902404      -0.04183907       0.01182457 </v>
   <v>       0.09733937      -0.01297448       0.21650556 </v>
   <v>      -0.15534728       0.00175288      -0.48418594 </v>
   <v>      -0.02711927       0.11260805       0.09878589 </v>
   <v>      -0.06204753       0.08034128       0.10816699 </v>
  </varray>
  <varray name="stress" >
   <v>      -0.21967130      -0.03836867      -0.01350206 </v>
   <v>      -0.03836872      -0.04069595      -0.09399190 </v>
   <v>      -0.01350223      -0.09399184      -1.21627099 </v>
  </varray>
  <energy>
   <i name="e_fr_energy">   -191.61885210 </i>
   <i name="e_wo_entrp">   -191.50733551 </i>
   <i name="e_0_energy">     -0.22303317 </i>
  </energy>
  <time name="totalsc">  287.32  288.09</time>
 </calculation>
 <calculation>
  <scstep>
   <time name="dav">   21.93   21.98</time>
   <time name="total">   22.43   22.49</time>
   <energy>
    <i name="alphaZ">     89.76442005 </i>
    <i name="ewald">  44472.75810613 </i>
    <i name="hartreedc"> -50483.26845738 </i>
    <i name="XCdc">   -233.45908398 </i>
    <i name="pawpsdc">   4083.60503511 </i>
    <i name="pawaedc">  -3499.58913167 </i>
    <i name="eentropy">     -0.22148681 </i>
    <i name="bandstr">  -1382.72437936 </i>
    <i name="atom">   6761.44252427 </i>
    <i name="e_fr_energy">   -191.69245364 </i>
    <i name="e_wo_entrp">   -191.47096683 </i>
    <i name="e_0_energy">   -191.58171024 </i>
   </energy>
  </scstep>
  <scstep>
   <time name="dav">   32.24   32.32</time>
   <time name="total">   32.74   32.83</time>
   <energy>
    <i name="e_fr_energy">   -191.72736800 </i>
    <i name="e_wo_entrp">   -191.49888580 </i>
    <i name="e_0_energy">   -191.61312690 </i>
   </energy>
  </scstep>
  <scstep>
   <time name="dav">   30.98   31.05</time>
   <time name="total">   31.48   31.57</time>
   <energy>
    <i name="e_fr_energy">   -191.69980262 </i>
    <i name="e_wo_entrp">   -191.47789716 </i>
    <i name="e_0_energy">   -191.58884989 </i>
   </energy>
  </scstep>
  <scstep>
   <time name="dav">   27.97   28.04</time>
   <time name="total">   28.48   28.56</time>
   <energy>
    <i name="e_fr_energy">   -191.70036596 </i>
    <i name="e_wo_entrp">   -191.47941840 </i>
    <i name="e_0_energy">   -191.58989218 </i>
   </energy>
  </scstep>
  <scstep>
   <time name="dav">   28.17   28.24</time>
   <time name="total">   28.67   28.75</time>
   <energy>
    <i name="e_fr_energy">   -191.69710283 </i>
    <i name="e_wo_entrp">   -191.47390723 </i>
    <i name="e_0_energy">   -191.58550503 </i>
   </energy>
  </scstep>
  <scstep>
   <time name="dav">   28.66   28.73</time>
   <time name="total">   29.17   29.25</time>
   <energy>
    <i name="e_fr_energy">   -191.69716530 </i>
    <i name="e_wo_entrp">   -191.47463662 </i>
    <i name="e_0_energy">   -191.58590096 </i>
   </energy>
  </scstep>
  <scstep>
   <time name="dav">   27.03   27.10</time>
   <time name="total">   27.53   27.61</time>
   <energy>
    <i name="e_fr_energy">   -191.69716690 </i>
    <i name="e_wo_entrp">   -191.47445615 </i>
    <i name="e_0_energy">   -191.58581153 </i>
   </energy>
  </scstep>
  <scstep>
[...]
      <set comment="kpoint 31">
       <r>  -17.4832    1.0000 </r>
       <r>  -17.2779    1.0000 </r>
       <r>  -16.9101    1.0000 </r>
       <r>  -16.6191    1.0000 </r>
       <r>  -16.4823    1.0000 </r>
       <r>  -16.3922    1.0000 </r>
       <r>  -16.3159    1.0000 </r>
       <r>  -16.1921    1.0000 </r>
       <r>  -16.0970    1.0000 </r>
       <r>  -16.0138    1.0000 </r>
       <r>  -15.9640    1.0000 </r>
       <r>  -15.9053    1.0000 </r>
       <r>  -15.7937    1.0000 </r>
       <r>  -15.7608    1.0000 </r>
       <r>  -15.6073    1.0000 </r>
       <r>  -15.5067    1.0000 </r>
       <r>  -15.3886    1.0000 </r>
       <r>  -15.2892    1.0000 </r>
       <r>   -9.7062    1.0000 </r>
       <r>   -9.4103    1.0000 </r>
       <r>   -9.3098    1.0000 </r>
       <r>   -8.9370    1.0000 </r>
       <r>   -8.8315    1.0000 </r>
       <r>   -8.6966    1.0000 </r>
       <r>   -8.5281    1.0000 </r>
       <r>   -8.4506    1.0000 </r>
       <r>   -8.4119    1.0000 </r>
       <r>   -8.3206    1.0000 </r>
       <r>   -8.2603    1.0000 </r>
       <r>   -8.2339    1.0000 </r>
       <r>   -8.1290    1.0000 </r>
       <r>   -8.0755    1.0000 </r>
       <r>   -8.0102    1.0000 </r>
       <r>   -7.8916    1.0000 </r>
       <r>   -7.7981    1.0000 </r>
       <r>   -7.6356    1.0000 </r>
       <r>   -7.5695    1.0000 </r>
       <r>   -7.4748    1.0000 </r>
       <r>   -7.3009    1.0000 </r>
       <r>   -7.1976    1.0000 </r>
       <r>   -7.1524    1.0000 </r>
       <r>   -7.1202    1.0000 </r>
       <r>   -7.0368    1.0000 </r>
       <r>   -6.9831    1.0000 </r>
       <r>   -6.8783    1.0000 </r>
       <r>   -6.7711    1.0000 </r>
       <r>   -6.6584    1.0000 </r>
       <r>   -6.6179    1.0000 </r>
       <r>   -6.5598    1.0000 </r>
       <r>   -6.4994    1.0000 </r>
       <r>   -6.3914    1.0000 </r>
       <r>   -6.3254    1.0000 </r>
       <r>   -6.2965    1.0000 </r>
       <r>   -6.2318    1.0000 </r>
       <r>   -6.1714    1.0000 </r>
       <r>   -6.0995    1.0000 </r>
       <r>   -5.9826    1.0000 </r>
       <r>   -5.9092    1.0000 </r>
       <r>   -5.8743    1.0000 </r>
       <r>   -5.8202    1.0000 </r>
       <r>   -5.7442    1.0000 </r>
       <r>   -5.6492    1.0000 </r>
       <r>   -5.5717    1.0000 </r>
       <r>   -5.4119    1.0000 </r>
       <r>   -5.2269    1.0000 </r>
       <r>   -5.1931    1.0000 </r>
       <r>   -5.0822    1.0000 </r>
       <r>   -4.8976    1.0000 </r>
       <r>   -4.8022    1.0000 </r>
       <r>   -4.7511    1.0000 </r>
       <r>   -4.5322    1.0000 </r>
       <r>   -4.4212    1.0000 </r>
       <r>   -4.3267    1.0000 </r>
       <r>   -4.2573    1.0000 </r>
       <r>   -4.1611    1.0000 </r>
       <r>   -4.0377    1.0000 </r>
       <r>   -3.9027    1.0000 </r>
       <r>   -3.6812    0.9986 </r>
       <r>   -3.4662    0.9303 </r>
       <r>   -3.2897    0.5908 </r>
       <r>   -2.9611    0.0182 </r>
       <r>   -2.6738    0.0000 </r>
       <r>   -2.6102    0.0000 </r>
       <r>   -2.5442    0.0000 </r>
       <r>   -2.3758    0.0000 </r>
       <r>   -2.3263    0.0000 </r>
       <r>   -2.2887    0.0000 </r>
       <r>   -2.0978    0.0000 </r>
       <r>   -1.9874    0.0000 </r>
       <r>   -1.9374    0.0000 </r>
       <r>   -1.8857    0.0000 </r>
       <r>   -1.7874    0.0000 </r>
       <r>   -1.5084    0.0000 </r>
       <r>   -1.2794    0.0000 </r>
       <r>   -1.2153    0.0000 </r>
       <r>   -1.0908    0.0000 </r>
       <r>   -1.0610    0.0000 </r>
       <r>   -1.0278    0.0000 </r>
       <r>   -0.9432    0.0000 </r>
       <r>   -0.8891    0.0000 </r>
       <r>   -0.8704    0.0000 </r>
       <r>   -0.7477    0.0000 </r>
       <r>   -0.7256    0.0000 </r>
       <r>   -0.6071    0.0000 </r>
       <r>   -0.5228    0.0000 </r>
       <r>   -0.4189    0.0000 </r>
       <r>   -0.2411    0.0000 </r>
       <r>   -0.1752    0.0000 </r>
       <r>    0.0755    0.0000 </r>
       <r>    0.2045    0.0000 </r>
       <r>    0.4188    0.0000 </r>
       <r>    0.6019    0.0000 </r>
       <r>    0.7415    0.0000 </r>
       <r>    0.9801    0.0000 </r>
       <r>    1.0849    0.0000 </r>
       <r>    1.2327    0.0000 </r>
       <r>    1.4426    0.0000 </r>
       <r>    2.1165    0.0000 </r>
       <r>    2.2753    0.0000 </r>
       <r>    2.3769    0.0000 </r>
      </set>
      <set comment="kpoint 32">
       <r>  -17.5116    1.0000 </r>
       <r>  -17.1557    1.0000 </r>
       <r>  -17.0561    1.0000 </r>
       <r>  -16.6171    1.0000 </r>
       <r>  -16.4009    1.0000 </r>
       <r>  -16.3590    1.0000 </r>
       <r>  -16.3017    1.0000 </r>
       <r>  -16.2321    1.0000 </r>
       <r>  -16.0926    1.0000 </r>
       <r>  -16.0641    1.0000 </r>
       <r>  -15.9525    1.0000 </r>
       <r>  -15.9300    1.0000 </r>
       <r>  -15.7915    1.0000 </r>
       <r>  -15.7403    1.0000 </r>
       <r>  -15.6234    1.0000 </r>
       <r>  -15.5047    1.0000 </r>
       <r>  -15.3822    1.0000 </r>
       <r>  -15.2835    1.0000 </r>
       <r>   -9.6010    1.0000 </r>
       <r>   -9.5536    1.0000 </r>
       <r>   -9.3694    1.0000 </r>
       <r>   -8.9228    1.0000 </r>
       <r>   -8.7282    1.0000 </r>
       <r>   -8.5552    1.0000 </r>
       <r>   -8.5087    1.0000 </r>
       <r>   -8.4642    1.0000 </r>
       <r>   -8.3819    1.0000 </r>
       <r>   -8.3591    1.0000 </r>
       <r>   -8.2967    1.0000 </r>
       <r>   -8.2330    1.0000 </r>
       <r>   -8.1820    1.0000 </r>
       <r>   -8.1210    1.0000 </r>
       <r>   -8.0730    1.0000 </r>
       <r>   -7.9237    1.0000 </r>
       <r>   -7.7747    1.0000 </r>
       <r>   -7.6483    1.0000 </r>
       <r>   -7.5091    1.0000 </r>
       <r>   -7.4663    1.0000 </r>
       <r>   -7.3215    1.0000 </r>
       <r>   -7.2342    1.0000 </r>
       <r>   -7.1983    1.0000 </r>
       <r>   -7.0743    1.0000 </r>
       <r>   -7.0412    1.0000 </r>
       <r>   -6.9518    1.0000 </r>
       <r>   -6.8362    1.0000 </r>
       <r>   -6.7953    1.0000 </r>
       <r>   -6.6863    1.0000 </r>
       <r>   -6.6583    1.0000 </r>
       <r>   -6.5653    1.0000 </r>
       <r>   -6.4945    1.0000 </r>
       <r>   -6.3886    1.0000 </r>
       <r>   -6.3733    1.0000 </r>
       <r>   -6.2826    1.0000 </r>
       <r>   -6.2298    1.0000 </r>
       <r>   -6.0999    1.0000 </r>
       <r>   -6.0909    1.0000 </r>
       <r>   -5.9437    1.0000 </r>
       <r>   -5.9098    1.0000 </r>
       <r>   -5.8925    1.0000 </r>
       <r>   -5.7502    1.0000 </r>
       <r>   -5.7212    1.0000 </r>
       <r>   -5.5842    1.0000 </r>
       <r>   -5.5497    1.0000 </r>
       <r>   -5.4238    1.0000 </r>
       <r>   -5.3178    1.0000 </r>
       <r>   -5.2548    1.0000 </r>
       <r>   -5.0530    1.0000 </r>
       <r>   -4.9171    1.0000 </r>
       <r>   -4.8456    1.0000 </r>
       <r>   -4.7375    1.0000 </r>
       <r>   -4.5821    1.0000 </r>
       <r>   -4.3962    1.0000 </r>
       <r>   -4.3687    1.0000 </r>
       <r>   -4.2492    1.0000 </r>
       <r>   -4.1375    1.0000 </r>
       <r>   -4.0281    1.0000 </r>
       <r>   -3.8923    1.0000 </r>
       <r>   -3.7028    0.9992 </r>
       <r>   -3.4387    0.9004 </r>
       <r>   -3.2120    0.3746 </r>
       <r>   -3.0581    0.0796 </r>
       <r>   -2.6704    0.0000 </r>
       <r>   -2.5766    0.0000 </r>
       <r>   -2.5419    0.0000 </r>
       <r>   -2.3591    0.0000 </r>
       <r>   -2.3353    0.0000 </r>
       <r>   -2.2716    0.0000 </r>
       <r>   -2.1142    0.0000 </r>
       <r>   -1.9543    0.0000 </r>
       <r>   -1.9267    0.0000 </r>
       <r>   -1.8974    0.0000 </r>
       <r>   -1.8311    0.0000 </r>
       <r>   -1.5256    0.0000 </r>
       <r>   -1.2976    0.0000 </r>
       <r>   -1.1903    0.0000 </r>
       <r>   -1.1026    0.0000 </r>
       <r>   -1.0488    0.0000 </r>
       <r>   -1.0078    0.0000 </r>
       <r>   -0.9556    0.0000 </r>
       <r>   -0.9220    0.0000 </r>
       <r>   -0.8528    0.0000 </r>
       <r>   -0.7740    0.0000 </r>
       <r>   -0.6872    0.0000 </r>
       <r>   -0.6335    0.0000 </r>
       <r>   -0.5340    0.0000 </r>
       <r>   -0.4532    0.0000 </r>
       <r>   -0.2040    0.0000 </r>
       <r>   -0.0882    0.0000 </r>
       <r>    0.1053    0.0000 </r>
       <r>    0.2075    0.0000 </r>
       <r>    0.3700    0.0000 </r>
       <r>    0.6095    0.0000 </r>
       <r>    0.7109    0.0000 </r>
       <r>    0.9407    0.0000 </r>
       <r>    1.0508    0.0000 </r>
       <r>    1.2630    0.0000 </r>
       <r>    1.4406    0.0000 </r>
       <r>    2.0848    0.0000 </r>
       <r>    2.2459    0.0000 </r>
       <r>    2.5415    0.0000 </r>
      </set>
      <set comment="kpoint 33">
       <r>  -17.5070    1.0000 </r>
       <r>  -17.2315    1.0000 </r>
       <r>  -16.9308    1.0000 </r>
       <r>  -16.6204    1.0000 </r>
       <r>  -16.4957    1.0000 </r>
       <r>  -16.4018    1.0000 </r>
       <r>  -16.3095    1.0000 </r>
       <r>  -16.1685    1.0000 </r>
       <r>  -16.0875    1.0000 </r>
       <r>  -16.0193    1.0000 </r>
       <r>  -15.9559    1.0000 </r>
       <r>  -15.9258    1.0000 </r>
       <r>  -15.7956    1.0000 </r>
       <r>  -15.7548    1.0000 </r>
       <r>  -15.6065    1.0000 </r>
       <r>  -15.5144    1.0000 </r>
       <r>  -15.3816    1.0000 </r>
       <r>  -15.2933    1.0000 </r>
       <r>   -9.6835    1.0000 </r>
       <r>   -9.4225    1.0000 </r>
       <r>   -9.2917    1.0000 </r>
       <r>   -8.9380    1.0000 </r>
       <r>   -8.8597    1.0000 </r>
       <r>   -8.7461    1.0000 </r>
       <r>   -8.5410    1.0000 </r>
       <r>   -8.4252    1.0000 </r>
       <r>   -8.3762    1.0000 </r>
       <r>   -8.3258    1.0000 </r>
       <r>   -8.2757    1.0000 </r>
       <r>   -8.2387    1.0000 </r>
       <r>   -8.1136    1.0000 </r>
       <r>   -8.0791    1.0000 </r>
       <r>   -8.0003    1.0000 </r>
       <r>   -7.8620    1.0000 </r>
       <r>   -7.7941    1.0000 </r>
       <r>   -7.6489    1.0000 </r>
       <r>   -7.5849    1.0000 </r>
       <r>   -7.4686    1.0000 </r>
       <r>   -7.3072    1.0000 </r>
       <r>   -7.2138    1.0000 </r>
       <r>   -7.1350    1.0000 </r>
       <r>   -7.1093    1.0000 </r>
       <r>   -7.0372    1.0000 </r>
       <r>   -6.9932    1.0000 </r>
       <r>   -6.8803    1.0000 </r>
       <r>   -6.7656    1.0000 </r>
       <r>   -6.6578    1.0000 </r>
       <r>   -6.5983    1.0000 </r>
       <r>   -6.5676    1.0000 </r>
       <r>   -6.5074    1.0000 </r>
       <r>   -6.3798    1.0000 </r>
       <r>   -6.3331    1.0000 </r>
       <r>   -6.3035    1.0000 </r>
       <r>   -6.2453    1.0000 </r>
       <r>   -6.1647    1.0000 </r>
       <r>   -6.0891    1.0000 </r>
       <r>   -5.9848    1.0000 </r>
       <r>   -5.9282    1.0000 </r>
       <r>   -5.8660    1.0000 </r>
       <r>   -5.8315    1.0000 </r>
       <r>   -5.7373    1.0000 </r>
       <r>   -5.6422    1.0000 </r>
       <r>   -5.5627    1.0000 </r>
       <r>   -5.4029    1.0000 </r>
       <r>   -5.2304    1.0000 </r>
       <r>   -5.2010    1.0000 </r>
       <r>   -5.0752    1.0000 </r>
       <r>   -4.9088    1.0000 </r>
       <r>   -4.7843    1.0000 </r>
       <r>   -4.7564    1.0000 </r>
       <r>   -4.5603    1.0000 </r>
       <r>   -4.4111    1.0000 </r>
       <r>   -4.3278    1.0000 </r>
       <r>   -4.2607    1.0000 </r>
       <r>   -4.1552    1.0000 </r>
       <r>   -4.0401    1.0000 </r>
       <r>   -3.9085    1.0000 </r>
       <r>   -3.6835    0.9987 </r>
       <r>   -3.4588    0.9230 </r>
       <r>   -3.2913    0.5953 </r>
       <r>   -2.9731    0.0223 </r>
       <r>   -2.7030    0.0000 </r>
       <r>   -2.5615    0.0000 </r>
       <r>   -2.5404    0.0000 </r>
       <r>   -2.3864    0.0000 </r>
       <r>   -2.3079    0.0000 </r>
       <r>   -2.2753    0.0000 </r>
       <r>   -2.1023    0.0000 </r>
       <r>   -1.9825    0.0000 </r>
       <r>   -1.9352    0.0000 </r>
       <r>   -1.8946    0.0000 </r>
       <r>   -1.7799    0.0000 </r>
       <r>   -1.5111    0.0000 </r>
       <r>   -1.2691    0.0000 </r>
       <r>   -1.2202    0.0000 </r>
       <r>   -1.1215    0.0000 </r>
       <r>   -1.0804    0.0000 </r>
       <r>   -1.0288    0.0000 </r>
       <r>   -0.9558    0.0000 </r>
       <r>   -0.9157    0.0000 </r>
       <r>   -0.8472    0.0000 </r>
       <r>   -0.7756    0.0000 </r>
       <r>   -0.7211    0.0000 </r>
       <r>   -0.6295    0.0000 </r>
       <r>   -0.5115    0.0000 </r>
       <r>   -0.3970    0.0000 </r>
       <r>   -0.2352    0.0000 </r>
       <r>   -0.0924    0.0000 </r>
       <r>    0.1230    0.0000 </r>
       <r>    0.1874    0.0000 </r>
       <r>    0.3814    0.0000 </r>
       <r>    0.6044    0.0000 </r>
       <r>    0.6766    0.0000 </r>
       <r>    0.9466    0.0000 </r>
       <r>    1.0357    0.0000 </r>
       <r>    1.3080    0.0000 </r>
       <r>    1.4713    0.0000 </r>
       <r>    2.1163    0.0000 </r>
       <r>    2.2755    0.0000 </r>
       <r>    2.3751    0.0000 </r>
      </set>
      <set comment="kpoint 34">
       <r>  -17.4948    1.0000 </r>
       <r>  -17.2846    1.0000 </r>
       <r>  -16.7728    1.0000 </r>
       <r>  -16.6831    1.0000 </r>
       <r>  -16.5939    1.0000 </r>
       <r>  -16.4085    1.0000 </r>
       <r>  -16.3026    1.0000 </r>
       <r>  -16.1603    1.0000 </r>
       <r>  -16.0845    1.0000 </r>
       <r>  -15.9850    1.0000 </r>
       <r>  -15.9399    1.0000 </r>
       <r>  -15.9186    1.0000 </r>
       <r>  -15.7964    1.0000 </r>
       <r>  -15.7777    1.0000 </r>
       <r>  -15.5845    1.0000 </r>
       <r>  -15.5284    1.0000 </r>
       <r>  -15.3825    1.0000 </r>
       <r>  -15.3022    1.0000 </r>
       <r>   -9.7247    1.0000 </r>
       <r>   -9.2735    1.0000 </r>
       <r>   -9.2128    1.0000 </r>
       <r>   -9.0158    1.0000 </r>
       <r>   -8.9741    1.0000 </r>
       <r>   -8.8604    1.0000 </r>
       <r>   -8.5551    1.0000 </r>
       <r>   -8.4323    1.0000 </r>
       <r>   -8.3860    1.0000 </r>
       <r>   -8.2831    1.0000 </r>
       <r>   -8.2787    1.0000 </r>
       <r>   -8.2266    1.0000 </r>
       <r>   -8.1050    1.0000 </r>
       <r>   -8.0396    1.0000 </r>
       <r>   -7.9214    1.0000 </r>
       <r>   -7.8353    1.0000 </r>
       <r>   -7.8049    1.0000 </r>
       <r>   -7.6273    1.0000 </r>
       <r>   -7.5700    1.0000 </r>
       <r>   -7.4459    1.0000 </r>
       <r>   -7.4132    1.0000 </r>
       <r>   -7.1988    1.0000 </r>
       <r>   -7.1457    1.0000 </r>
       <r>   -7.1206    1.0000 </r>
       <r>   -7.0417    1.0000 </r>
       <r>   -6.9730    1.0000 </r>
       <r>   -6.8586    1.0000 </r>
       <r>   -6.7279    1.0000 </r>
       <r>   -6.6370    1.0000 </r>
       <r>   -6.5991    1.0000 </r>
       <r>   -6.5567    1.0000 </r>
       <r>   -6.4679    1.0000 </r>
       <r>   -6.3722    1.0000 </r>
       <r>   -6.3527    1.0000 </r>
       <r>   -6.2907    1.0000 </r>
       <r>   -6.2846    1.0000 </r>
       <r>   -6.2474    1.0000 </r>
       <r>   -6.1323    1.0000 </r>
       <r>   -5.9947    1.0000 </r>
       <r>   -5.9427    1.0000 </r>
       <r>   -5.8801    1.0000 </r>
       <r>   -5.8160    1.0000 </r>
       <r>   -5.7413    1.0000 </r>
       <r>   -5.6468    1.0000 </r>
       <r>   -5.6009    1.0000 </r>
       <r>   -5.4506    1.0000 </r>
       <r>   -5.2447    1.0000 </r>
       <r>   -5.0613    1.0000 </r>
       <r>   -4.9724    1.0000 </r>
       <r>   -4.9548    1.0000 </r>
       <r>   -4.8804    1.0000 </r>
       <r>   -4.6787    1.0000 </r>
       <r>   -4.5433    1.0000 </r>
       <r>   -4.4092    1.0000 </r>
       <r>   -4.2844    1.0000 </r>
       <r>   -4.2453    1.0000 </r>
       <r>   -4.2053    1.0000 </r>
       <r>   -4.0589    1.0000 </r>
       <r>   -3.9214    1.0000 </r>
       <r>   -3.6464    0.9970 </r>
       <r>   -3.5119    0.9641 </r>
       <r>   -3.3297    0.6959 </r>
       <r>   -2.9004    0.0058 </r>
       <r>   -2.7405    0.0001 </r>
       <r>   -2.5500    0.0000 </r>
       <r>   -2.5482    0.0000 </r>
       <r>   -2.4007    0.0000 </r>
       <r>   -2.2980    0.0000 </r>
       <r>   -2.2790    0.0000 </r>
       <r>   -2.0905    0.0000 </r>
       <r>   -2.0072    0.0000 </r>
       <r>   -1.9428    0.0000 </r>
       <r>   -1.8820    0.0000 </r>
       <r>   -1.7465    0.0000 </r>
       <r>   -1.4870    0.0000 </r>
       <r>   -1.2754    0.0000 </r>
       <r>   -1.1997    0.0000 </r>
       <r>   -1.1581    0.0000 </r>
       <r>   -1.1172    0.0000 </r>
       <r>   -1.0281    0.0000 </r>
       <r>   -0.9488    0.0000 </r>
       <r>   -0.8950    0.0000 </r>
       <r>   -0.8611    0.0000 </r>
       <r>   -0.7931    0.0000 </r>
       <r>   -0.7266    0.0000 </r>
       <r>   -0.6359    0.0000 </r>
       <r>   -0.4606    0.0000 </r>
       <r>   -0.3625    0.0000 </r>
       <r>   -0.2854    0.0000 </r>
       <r>   -0.1108    0.0000 </r>
       <r>    0.1218    0.0000 </r>
       <r>    0.1700    0.0000 </r>
       <r>    0.4085    0.0000 </r>
       <r>    0.5934    0.0000 </r>
       <r>    0.6644    0.0000 </r>
       <r>    0.9735    0.0000 </r>
       <r>    1.0250    0.0000 </r>
       <r>    1.3298    0.0000 </r>
       <r>    1.4945    0.0000 </r>
       <r>    2.2024    0.0000 </r>
       <r>    2.2206    0.0000 </r>
       <r>    2.3700    0.0000 </r>
      </set>
     </set>
    </set>
   </array>
  </eigenvalues>
  <separator name="orbital magnetization" >
   <v name="MAGDIPOLOUT">      0.00000000      0.00000000      0.00000000</v>
  </separator>
 </calculation>
 <structure name="finalpos" >
  <crystal>
   <varray name="basis" >
    <v>       8.38201418       4.82824200       0.00000000 </v>
    <v>      -8.38971076       4.84140388       0.00000000 </v>
    <v>       0.00000000       0.00000000      30.00000000 </v>
   </varray>
   <i name="volume">   2432.64809456 </i>
   <varray name="rec_basis" >
    <v>       0.05970535       0.10346393       0.00000000 </v>
    <v>      -0.05954304       0.10336901       0.00000000 </v>
    <v>       0.00000000       0.00000000       0.03333333 </v>
   </varray>
  </crystal>
  <varray name="positions" >
   <v>       0.65143849       0.63283946      -0.00062175 </v>
   <v>       0.33393735       0.64121566       0.00035432 </v>
   <v>       1.01809862       0.31450576       0.00064033 </v>
   <v>       0.03289890       0.01318645      -0.00016328 </v>
   <v>       0.33155710       0.32533922       0.00001310 </v>
   <v>       0.33162633       0.02002542      -0.00001666 </v>
   <v>       0.02243583       0.70637237       0.00156240 </v>
   <v>       0.64379634       0.01717980      -0.00179595 </v>
   <v>       0.63409526       0.31480875      -0.00004256 </v>
   <v>       0.11193343       0.22344294       0.94553638 </v>
   <v>       0.22575460       0.11673998       0.05685815 </v>
   <v>       0.11227862       0.55071199       0.95425533 </v>
   <v>       0.21855553       0.44099044       0.05179109 </v>
   <v>       0.11627371       0.89532503       0.94374998 </v>
   <v>       0.23403173       0.78144198       0.04942396 </v>
   <v>       0.44051461       0.22405419       0.94306914 </v>
   <v>       0.54987710       0.11381612       0.05590971 </v>
   <v>       0.44826203       0.55674692       0.94883507 </v>
   <v>       0.55529257       0.44581091       0.05413649 </v>
   <v>       0.43136800       0.87911279       0.95082384 </v>
   <v>       0.55526144       0.77347749       0.04616919 </v>
   <v>       0.78196343       0.23065564       0.95009723 </v>
   <v>       0.88612517       0.10973658       0.04837791 </v>
   <v>       0.78007639       0.55690667       0.95129286 </v>
   <v>       0.89231677       0.44557611       0.04022501 </v>
   <v>       0.77321498       0.88724179       0.95947091 </v>
   <v>       0.88523011       0.78095398       0.05004773 </v>
  </varray>
 </structure>
</modeling>
