unknown system                          
           1
     8.854965    5.102747    0.000000
    -8.857837    5.107688    0.000000
     0.000000    0.000000   30.000000
   V    Mo   W    S 
   3   3   3  18
Direct configuration=     1
   0.66666669  0.66666669  0.00000000
   0.33333334  0.66666669  0.00000000
   1.00000000  0.33333334  0.00000000
   0.00000000  0.00000000  0.00000000
   0.33333334  0.33333334  0.00000000
   0.33333334  0.00000000  0.00000000
   0.00000000  0.66666669  0.00000000
   0.66666669  0.00000000  0.00000000
   0.66666669  0.33333334  0.00000000
   0.11068511  0.22244981  0.95539999
   0.22244981  0.11068511  0.04460000
   0.11068511  0.55578315  0.95539999
   0.22244981  0.44401845  0.04460000
   0.11068511  0.88911647  0.95539999
   0.22244981  0.77735180  0.04460000
   0.44401845  0.22244981  0.95539999
   0.55578315  0.11068511  0.04460000
   0.44401845  0.55578315  0.95539999
   0.55578315  0.44401845  0.04460000
   0.44401845  0.88911647  0.95539999
   0.55578315  0.77735180  0.04460000
   0.77735180  0.22244981  0.95539999
   0.88911647  0.11068511  0.04460000
   0.77735180  0.55578315  0.95539999
   0.88911647  0.44401845  0.04460000
   0.77735180  0.88911647  0.95539999
   0.88911647  0.77735180  0.04460000
unknown system                          
           1
     8.667173    4.996887    0.000000
    -8.669822    5.001444    0.000000
     0.000000    0.000000   30.000000
   V    Mo   W    S 
   3   3   3  18
Direct configuration=     2
   0.66625156  0.66661320  0.00009916
   0.33334799  0.66622497 -0.00004854
   1.00152795  0.33242573 -0.00010032
   0.00280790  0.00135162  0.00015413
   0.33197185  0.33101219 -0.00003255
   0.33188515  0.00148255 -0.00001613
   0.00165108  0.66950472  0.00004236
   0.66659572 -0.00039513 -0.00002849
   0.66369365  0.33200167 -0.00011387
   0.10858368  0.22466777  0.95196277
   0.22202527  0.11092354  0.04933847
   0.11268351  0.55357025  0.95302547
   0.21994275  0.44650880  0.04694638
   0.11064288  0.88777717  0.95071228
   0.22357871  0.77481829  0.04798929
   0.44544711  0.22259190  0.95068167
   0.55616329  0.11132520  0.04926068
   0.44631117  0.55988525  0.95316100
   0.55821851  0.44856817  0.04809496
   0.44313557  0.88485147  0.95201135
   0.55401382  0.77411776  0.04693440
   0.78151383  0.22400740  0.95186482
   0.89004055  0.11493464  0.04804573
   0.77569267  0.55733101  0.95202113
   0.89080376  0.44236832  0.04787220
   0.77502819  0.88478205  0.95201433
   0.88465633  0.77496392  0.04810723
unknown system                          
           1
     8.486665    4.897782    0.000000
    -8.488463    4.900869    0.000000
     0.000000    0.000000   30.000000
   V    Mo   W    S 
   3   3   3  18
Direct configuration=     3
   0.66621072  0.66662891  0.00006020
   0.33334723  0.66612503 -0.00010043
   1.00186322  0.33211846 -0.00006560
   0.00393559  0.00166785  0.00017163
   0.33163186  0.32980390 -0.00003338
   0.33141268  0.00221019 -0.00000970
   0.00220456  0.67058452  0.00011002
   0.66660798 -0.00024238 -0.00009236
   0.66259063  0.33125885 -0.00007299
   0.10853939  0.22472235  0.95185894
   0.22202313  0.11092927  0.04956634
   0.11258500  0.55367446  0.95311251
   0.21992816  0.44654319  0.04689196
   0.11052595  0.88756540  0.95057504
   0.22337740  0.77467724  0.04797615
   0.44566102  0.22270754  0.95051866
   0.55636370  0.11140790  0.04925583
   0.44634654  0.55993722  0.95325056
   0.55839190  0.44854970  0.04808032
   0.44330559  0.88488332  0.95209087
   0.55407116  0.77426805  0.04691269
   0.78137275  0.22397408  0.95193100
   0.88987921  0.11490883  0.04802147
   0.77577624  0.55723453  0.95210577
   0.89070381  0.44246662  0.04766522
   0.77486211  0.88481812  0.95211033
   0.88469694  0.77479131  0.04810885
unknown system                          
           1
     8.290145    4.778697    0.000000
    -8.296134    4.789043    0.000000
     0.000000    0.000000   30.000000
   V    Mo   W    S 
   3   3   3  18
Direct configuration=     4
   0.66635132  0.66672107 -0.00012355
   0.33337745  0.66594621 -0.00027125
   1.00264171  0.33068866  0.00010892
   0.00824926  0.00255177  0.00016266
   0.33065292  0.32473010 -0.00002635
   0.32973078  0.00535968  0.00000204
   0.00406955  0.67470119  0.00032476
   0.66673349  0.00082846 -0.00030883
   0.65832997  0.32806322  0.00011575
   0.10807154  0.22520785  0.95003627
   0.22206307  0.11105599  0.05207525
   0.11290403  0.55331112  0.95210603
   0.21965956  0.44697544  0.04796590
   0.11056270  0.88771148  0.94841324
   0.22407883  0.77445031  0.04938543
   0.44545803  0.22266155  0.94821582
   0.55618624  0.11113903  0.05086945
   0.44667715  0.56055211  0.95232475
   0.55872703  0.44954300  0.04948652
   0.44260731  0.88399026  0.95098587
   0.55348698  0.77331503  0.04818471
   0.78235733  0.22472927  0.95068790
   0.89046104  0.11581203  0.04935152
   0.77546862  0.55756183  0.95100384
   0.89098628  0.44216654  0.04825143
   0.77461159  0.88400443  0.95107020
   0.88371065  0.77443685  0.04960162
unknown system                          
           1
     8.300824    4.779573    0.000000
    -8.312230    4.799306    0.000000
     0.000000    0.000000   30.000000
   V    Mo   W    S 
   3   3   3  18
Direct configuration=     5
   0.66681681  0.66701534 -0.00043777
   0.33342689  0.66531213 -0.00046341
   1.00413194  0.32765078  0.00043045
   0.01585651  0.00371587  0.00007635
   0.32933546  0.31584519  0.00000451
   0.32693084  0.01136523  0.00002184
   0.00817405  0.68321627  0.00058959
   0.66696358  0.00299693 -0.00059694
   0.64944627  0.32125818  0.00034137
   0.10824669  0.22525093  0.94759518
   0.22199681  0.11124064  0.05573598
   0.11312186  0.55317238  0.95082465
   0.21998442  0.44680446  0.04937971
   0.11125979  0.88869653  0.94545138
   0.22537375  0.77546543  0.05113235
   0.44451316  0.22218463  0.94489183
   0.55470057  0.11002126  0.05301538
   0.44627437  0.55971694  0.95114016
   0.55788202  0.44988815  0.05128137
   0.44132460  0.88370890  0.94973071
   0.55285336  0.77250668  0.04980319
   0.78343923  0.22600367  0.94906671
   0.89137818  0.11610757  0.05096356
   0.77532276  0.55758446  0.94996203
   0.89083059  0.44225298  0.04846520
   0.77557686  0.88398175  0.94992997
   0.88305309  0.77525116  0.05166457
unknown system                          
           1
     8.295279    4.777564    0.000000
    -8.307642    4.798963    0.000000
     0.000000    0.000000   30.000000
   V    Mo   W    S 
   3   3   3  18
Direct configuration=     6
   0.66709661  0.66731734 -0.00045820
   0.33328407  0.66460100 -0.00052295
   1.00511532  0.32626511  0.00041589
   0.01595576  0.00352196  0.00018231
   0.32939215  0.31588523  0.00005377
   0.32725381  0.01140931  0.00007488
   0.00978334  0.68610632  0.00062172
   0.66674120  0.00373778 -0.00066524
   0.64695685  0.31921916  0.00023717
   0.10874702  0.22485943  0.94751317
   0.22181538  0.11116900  0.05600952
   0.11276728  0.55335766  0.95100758
   0.22051479  0.44617336  0.04935488
   0.11191758  0.88932016  0.94518602
   0.22582278  0.77670582  0.05109765
   0.44411406  0.22186952  0.94457306
   0.55356616  0.10923723  0.05317945
   0.44571492  0.55849726  0.95124245
   0.55702910  0.44901506  0.05124404
   0.44106178  0.88445948  0.94992645
   0.55300305  0.77277361  0.04972037
   0.78325734  0.22643359  0.94913249
   0.89151364  0.11536459  0.05088839
   0.77557104  0.55709945  0.95032726
   0.89016012  0.44276575  0.04780355
   0.77653528  0.88493208  0.95011719
   0.88352403  0.77611820  0.05173704
unknown system                          
           1
     8.299030    4.779737    0.000000
    -8.313614    4.804992    0.000000
     0.000000    0.000000   30.000000
   V    Mo   W    S 
   3   3   3  18
Direct configuration=     7
   0.66737185  0.66753995 -0.00050708
   0.33308325  0.66381184 -0.00060427
   1.00633608  0.32480689  0.00042632
   0.01680212  0.00348077  0.00020720
   0.32917854  0.31506965  0.00009327
   0.32727885  0.01209267  0.00010630
   0.01146021  0.68924080  0.00066122
   0.66637657  0.00458365 -0.00073397
   0.64418107  0.31699053  0.00023827
   0.10891792  0.22461321  0.94731083
   0.22176673  0.11116171  0.05628329
   0.11250282  0.55343330  0.95114688
   0.22075674  0.44582601  0.04943294
   0.11231673  0.88985332  0.94488187
   0.22622760  0.77742019  0.05119544
   0.44365788  0.22160529  0.94421151
   0.55296052  0.10878401  0.05342384
   0.44549557  0.55794044  0.95127108
   0.55661727  0.44854474  0.05129150
   0.44085149  0.88470222  0.95000125
   0.55307098  0.77290155  0.04969410
   0.78323134  0.22678926  0.94913224
   0.89157158  0.11497925  0.05092915
   0.77574772  0.55681181  0.95059615
   0.88978869  0.44314526  0.04716988
   0.77696271  0.88546814  0.95022871
   0.88370161  0.77661797  0.05191197
unknown system                          
           1
     8.302277    4.781861    0.000000
    -8.322753    4.817347    0.000000
     0.000000    0.000000   30.000000
   V    Mo   W    S 
   3   3   3  18
Direct configuration=     8
   0.66769011  0.66777268 -0.00056353
   0.33283837  0.66291145 -0.00068531
   1.00768776  0.32337413  0.00044601
   0.01735963  0.00343168  0.00024083
   0.32891012  0.31466026  0.00011552
   0.32749633  0.01249995  0.00012644
   0.01291570  0.69197570  0.00074065
   0.66580142  0.00538039 -0.00080731
   0.64188892  0.31517597  0.00022781
   0.10903454  0.22439260  0.94713923
   0.22171319  0.11113936  0.05645283
   0.11221352  0.55347006  0.95134787
   0.22090463  0.44551242  0.04949708
   0.11272708  0.89042866  0.94463350
   0.22658378  0.77800370  0.05124803
   0.44320284  0.22137886  0.94394481
   0.55245289  0.10837860  0.05364975
   0.44540639  0.55757412  0.95133010
   0.55627435  0.44810967  0.05129810
   0.44069481  0.88481193  0.95010430
   0.55312145  0.77302205  0.04960766
   0.78319732  0.22712604  0.94920263
   0.89155370  0.11461842  0.05092045
   0.77595857  0.55654644  0.95091303
   0.88949317  0.44350570  0.04644422
   0.77722981  0.88595504  0.95039079
   0.88386404  0.77705860  0.05203439
unknown system                          
           1
     8.315072    4.788406    0.000000
    -8.336681    4.825852    0.000000
     0.000000    0.000000   30.000000
   V    Mo   W    S 
   3   3   3  18
Direct configuration=     9
   0.66875551  0.66836320 -0.00072819
   0.33201870  0.65988761 -0.00089844
   1.01191586  0.31939798  0.00051832
   0.01919838  0.00347737  0.00029511
   0.32783059  0.31369154  0.00015656
   0.32840897  0.01367099  0.00016906
   0.01662928  0.69909894  0.00099318
   0.66324986  0.00766439 -0.00099040
   0.63602207  0.31076817  0.00022249
   0.10923090  0.22372058  0.94662768
   0.22166456  0.11108572  0.05677641
   0.11130168  0.55343435  0.95203376
   0.22113019  0.44464768  0.04973554
   0.11382454  0.89211353  0.94405403
   0.22760307  0.77939489  0.05135303
   0.44183402  0.22083037  0.94331995
   0.55132224  0.10746855  0.05427826
   0.44550193  0.55694949  0.95149711
   0.55542473  0.44696594  0.05125363
   0.44021078  0.88469570  0.95038340
   0.55322291  0.77334899  0.04925835
   0.78312617  0.22804111  0.94952561
   0.89131734  0.11360191  0.05081164
   0.77663553  0.55592190  0.95186903
   0.88896418  0.44444110  0.04418642
   0.77760572  0.88727217  0.95096061
   0.88426475  0.77826028  0.05233774
unknown system                          
           1
     8.317062    4.788203    0.000000
    -8.340947    4.829592    0.000000
     0.000000    0.000000   30.000000
   V    Mo   W    S 
   3   3   3  18
Direct configuration=    10
   0.66921972  0.66839709 -0.00076534
   0.33174041  0.65868519 -0.00089789
   1.01270576  0.31894296  0.00055765
   0.01988488  0.00367266  0.00027113
   0.32741559  0.31368575  0.00012089
   0.32895156  0.01390324  0.00015233
   0.01690430  0.69961967  0.00105796
   0.66163057  0.00828896 -0.00098835
   0.63562795  0.31074580  0.00019981
   0.10931562  0.22339186  0.94642099
   0.22177846  0.11111535  0.05683716
   0.11102769  0.55325916  0.95223205
   0.22115965  0.44438969  0.04989764
   0.11415472  0.89264769  0.94394570
   0.22799280  0.77964749  0.05138062
   0.44136802  0.22074337  0.94320290
   0.55114592  0.10738042  0.05451100
   0.44576808  0.55696679  0.95147783
   0.55522106  0.44677390  0.05127292
   0.43983658  0.88426509  0.95036163
   0.55318007  0.77338271  0.04914072
   0.78317598  0.22829219  0.94963427
   0.89116178  0.11322604  0.05072098
   0.77685375  0.55588949  0.95207436
   0.88913060  0.44452540  0.04356952
   0.77751090  0.88770703  0.95118297
   0.88435205  0.77866948  0.05242846
unknown system                          
           1
     8.322300    4.790171    0.000000
    -8.345868    4.831000    0.000000
     0.000000    0.000000   30.000000
   V    Mo   W    S 
   3   3   3  18
Direct configuration=    11
   0.67000368  0.66834489 -0.00082370
   0.33126289  0.65648156 -0.00090177
   1.01459721  0.31755129  0.00060036
   0.02139964  0.00394196  0.00024980
   0.32659751  0.31341399  0.00009493
   0.32983746  0.01451244  0.00015415
   0.01824191  0.70214844  0.00118953
   0.65882744  0.00962367 -0.00102839
   0.63357297  0.30956409  0.00017892
   0.10940264  0.22287690  0.94617337
   0.22197124  0.11115836  0.05687198
   0.11057310  0.55301851  0.95261817
   0.22119795  0.44384261  0.05009351
   0.11467207  0.89340114  0.94381773
   0.22851876  0.78013837  0.05133755
   0.44069392  0.22062402  0.94303500
   0.55081677  0.10734862  0.05484561
   0.44612861  0.55686765  0.95151933
   0.55482007  0.44634947  0.05124473
   0.43926704  0.88370236  0.95041653
   0.55316256  0.77352360  0.04887648
   0.78312422  0.22864323  0.94986372
   0.89086139  0.11252931  0.05047791
   0.77728148  0.55581877  0.95248528
   0.88926118  0.44478286  0.04242575
   0.77745424  0.88861027  0.95167524
   0.88466650  0.77939610  0.05250818
unknown system                          
           1
     8.322654    4.790244    0.000000
    -8.346238    4.831099    0.000000
     0.000000    0.000000   30.000000
   V    Mo   W    S 
   3   3   3  18
Direct configuration=    12
   0.67015785  0.66794605 -0.00082017
   0.33125294  0.65592422 -0.00083700
   1.01454231  0.31775642  0.00060011
   0.02181103  0.00408495  0.00022328
   0.32644978  0.31359097  0.00007459
   0.33012099  0.01451922  0.00013931
   0.01810347  0.70179640  0.00119090
   0.65781521  0.00989199 -0.00101327
   0.63388457  0.31002800  0.00017209
   0.10939937  0.22274356  0.94615259
   0.22214786  0.11123043  0.05685043
   0.11058415  0.55287763  0.95263849
   0.22118083  0.44373309  0.05015693
   0.11473215  0.89337463  0.94385094
   0.22859883  0.78007182  0.05130004
   0.44065832  0.22069830  0.94306095
   0.55086539  0.10763444  0.05492434
   0.44629142  0.55692307  0.95148794
   0.55481762  0.44645891  0.05126911
   0.43895874  0.88338132  0.95034907
   0.55313553  0.77354115  0.04882447
   0.78308603  0.22862329  0.94987828
   0.89071136  0.11233755  0.05035123
   0.77736828  0.55596032  0.95243687
   0.88943885  0.44468668  0.04239504
   0.77733110  0.88887442  0.95185416
   0.88477050  0.77952562  0.05248917
unknown system                          
           1
     8.324487    4.790025    0.000000
    -8.348203    4.831099    0.000000
     0.000000    0.000000   30.000000
   V    Mo   W    S 
   3   3   3  18
Direct configuration=    13
   0.67017454  0.66788249 -0.00082116
   0.33125092  0.65583708 -0.00083117
   1.01457943  0.31774666  0.00060037
   0.02188165  0.00409776  0.00022112
   0.32643077  0.31360887  0.00007310
   0.33015825  0.01453045  0.00013804
   0.01812353  0.70182500  0.00119417
   0.65767057  0.00994074 -0.00101437
   0.63386297  0.31004220  0.00017140
   0.10939869  0.22272378  0.94614694
   0.22216840  0.11123854  0.05684897
   0.11058051  0.55286240  0.95264648
   0.22117861  0.44371365  0.05016564
   0.11474700  0.89338234  0.94385059
   0.22861357  0.78007309  0.05129460
   0.44064659  0.22070440  0.94306045
   0.55086276  0.10766572  0.05493776
   0.44631075  0.55692678  0.95148619
   0.55481210  0.44646476  0.05127183
   0.43891971  0.88334449  0.95034457
   0.55313368  0.77354753  0.04881441
   0.78307535  0.22862779  0.94988310
   0.89068828  0.11230474  0.05033404
   0.77738572  0.55597133  0.95243780
   0.88945179  0.44468638  0.04237473
   0.77731911  0.88891597  0.95188290
   0.88478921  0.77954952  0.05248740
unknown system                          
           1
     8.327762    4.792027    0.000000
    -8.351722    4.833525    0.000000
     0.000000    0.000000   30.000000
   V    Mo   W    S 
   3   3   3  18
Direct configuration=    14
   0.67043646  0.66734556 -0.00083261
   0.33116418  0.65477644 -0.00077102
   1.01506031  0.31758621  0.00060922
   0.02276006  0.00422388  0.00019905
   0.32617984  0.31371636  0.00005391
   0.33060682  0.01471807  0.00012383
   0.01848478  0.70232897  0.00123884
   0.65591390  0.01053594 -0.00102408
   0.63347153  0.31003686  0.00015610
   0.10942458  0.22242432  0.94604837
   0.22241443  0.11132725  0.05683317
   0.11050724  0.55267545  0.95276713
   0.22119997  0.44347700  0.05028747
   0.11496043  0.89353821  0.94383924
   0.22882391  0.78011963  0.05123023
   0.44044915  0.22076177  0.94304249
   0.55080637  0.10799399  0.05511862
   0.44653232  0.55693908  0.95146714
   0.55468897  0.44646277  0.05130261
   0.43843475  0.88288212  0.95029741
   0.55306682  0.77362324  0.04869157
   0.78292206  0.22869891  0.94995286
   0.89039710  0.11186400  0.05013567
   0.77763269  0.55606986  0.95248452
   0.88960198  0.44471031  0.04205472
   0.77721485  0.88947240  0.95221140
   0.88505896  0.77990583  0.05248206
unknown system                          
           1
     8.333301    4.793240    0.000000
    -8.357698    4.835481    0.000000
     0.000000    0.000000   30.000000
   V    Mo   W    S 
   3   3   3  18
Direct configuration=    15
   0.67039401  0.66747227 -0.00083622
   0.33120564  0.65501389 -0.00079317
   1.01498642  0.31760931  0.00060650
   0.02247167  0.00418801  0.00020627
   0.32621110  0.31372685  0.00006096
   0.33050842  0.01463624  0.00012897
   0.01830905  0.70217537  0.00123324
   0.65637885  0.01036459 -0.00102673
   0.63360090  0.31013734  0.00016298
   0.10940143  0.22256381  0.94609011
   0.22230862  0.11128914  0.05683756
   0.11052966  0.55275212  0.95272932
   0.22117422  0.44355827  0.05023437
   0.11488079  0.89350959  0.94384530
   0.22874717  0.78012185  0.05125299
   0.44052498  0.22073377  0.94304975
   0.55083478  0.10785982  0.05504692
   0.44648641  0.55697483  0.95149042
   0.55474595  0.44646783  0.05127472
   0.43863069  0.88304639  0.95032260
   0.55313676  0.77357754  0.04872167
   0.78304026  0.22867529  0.94993701
   0.89053649  0.11204167  0.05020167
   0.77749601  0.55604632  0.95248189
   0.88956076  0.44468810  0.04214886
   0.77722121  0.88923845  0.95211517
   0.88489222  0.77974579  0.05247677
unknown system                          
           1
     8.335896    4.793959    0.000000
    -8.360123    4.835896    0.000000
     0.000000    0.000000   30.000000
   V    Mo   W    S 
   3   3   3  18
Direct configuration=    16
   0.67060212  0.66645116 -0.00085351
   0.33110792  0.65381904 -0.00071980
   1.01552430  0.31722960  0.00061417
   0.02339742  0.00455968  0.00017621
   0.32580903  0.31391526  0.00003949
   0.33102137  0.01483583  0.00011466
   0.01856884  0.70255886  0.00126942
   0.65474356  0.01118238 -0.00105746
   0.63328903  0.31026194  0.00016492
   0.10934444  0.22237938  0.94605966
   0.22258055  0.11141508  0.05681844
   0.11043500  0.55255110  0.95285357
   0.22104246  0.44322574  0.05032332
   0.11505279  0.89357210  0.94384220
   0.22887979  0.78015777  0.05118078
   0.44037995  0.22080887  0.94305215
   0.55080814  0.10828375  0.05519830
   0.44672216  0.55695700  0.95145703
   0.55470459  0.44654527  0.05131028
   0.43818160  0.88265246  0.95027517
   0.55321213  0.77374214  0.04857361
   0.78294827  0.22875048  0.95003368
   0.89029251  0.11174805  0.04995133
   0.77772153  0.55618182  0.95248877
   0.88973007  0.44465180  0.04186092
   0.77702274  0.88976988  0.95252020
   0.88509216  0.78000799  0.05245237
unknown system                          
           1
     8.335161    4.794145    0.000000
    -8.359466    4.836224    0.000000
     0.000000    0.000000   30.000000
   V    Mo   W    S 
   3   3   3  18
Direct configuration=    17
   0.67058413  0.66560346 -0.00085970
   0.33116659  0.65318666 -0.00066791
   1.01577102  0.31717092  0.00061488
   0.02394146  0.00465879  0.00015329
   0.32580093  0.31417960  0.00003149
   0.33124288  0.01488715  0.00009758
   0.01871026  0.70271534  0.00128576
   0.65368856  0.01157807 -0.00106958
   0.63317667  0.31045130  0.00016829
   0.10934255  0.22219968  0.94598989
   0.22277800  0.11150923  0.05683405
   0.11042230  0.55241890  0.95290942
   0.22101423  0.44305740  0.05041248
   0.11519116  0.89362522  0.94381364
   0.22903844  0.78016923  0.05114848
   0.44025428  0.22085597  0.94302490
   0.55074181  0.10856791  0.05533199
   0.44686282  0.55696819  0.95141723
   0.55467991  0.44665861  0.05136761
   0.43780319  0.88235240  0.95022749
   0.55320315  0.77383439  0.04848876
   0.78283556  0.22884664  0.95004485
   0.89005030  0.11144336  0.04982513
   0.77791004  0.55627967  0.95246059
   0.88981972  0.44467099  0.04172578
   0.77689807  0.89010166  0.95278442
   0.88528644  0.78022371  0.05243911
unknown system                          
           1
     8.325630    4.790908    0.000000
    -8.350126    4.833340    0.000000
     0.000000    0.000000   30.000000
   V    Mo   W    S 
   3   3   3  18
Direct configuration=    18
   0.67068936  0.66607813 -0.00086268
   0.33113788  0.65340512 -0.00069422
   1.01566765  0.31721464  0.00061898
   0.02368626  0.00455481  0.00016178
   0.32581076  0.31408201  0.00003601
   0.33122707  0.01486951  0.00010188
   0.01862273  0.70264867  0.00128376
   0.65401131  0.01140720 -0.00106255
   0.63322080  0.31038436  0.00016989
   0.10934786  0.22224603  0.94599624
   0.22270390  0.11146317  0.05683648
   0.11041983  0.55247688  0.95289119
   0.22104656  0.44312049  0.05038586
   0.11514706  0.89362980  0.94382339
   0.22898691  0.78016989  0.05116404
   0.44027825  0.22083251  0.94302562
   0.55077008  0.10843702  0.05529510
   0.44681687  0.55696224  0.95144281
   0.55466366  0.44658207  0.05133207
   0.43794844  0.88245437  0.95024444
   0.55319985  0.77379058  0.04852165
   0.78289378  0.22881026  0.95003894
   0.89014172  0.11154109  0.04987995
   0.77783155  0.55624778  0.95248654
   0.88978624  0.44466687  0.04176099
   0.77695115  0.88999019  0.95267146
   0.88520692  0.78014877  0.05245030
unknown system                          
           1
     8.338112    4.793901    0.000000
    -8.362169    4.835531    0.000000
     0.000000    0.000000   30.000000
   V    Mo   W    S 
   3   3   3  18
Direct configuration=    19
   0.67137845  0.66777006 -0.00085752
   0.33106813  0.65372773 -0.00075369
   1.01542627  0.31734796  0.00062215
   0.02321206  0.00409614  0.00018465
   0.32578183  0.31370048  0.00003559
   0.33148618  0.01502281  0.00011885
   0.01851358  0.70265968  0.00127543
   0.65421300  0.01107718 -0.00102581
   0.63311974  0.30996918  0.00015325
   0.10936110  0.22225676  0.94599316
   0.22257114  0.11132388  0.05681148
   0.11043965  0.55265121  0.95287426
   0.22121425  0.44326242  0.05035541
   0.11509316  0.89366017  0.94385281
   0.22887536  0.78012290  0.05118153
   0.44032688  0.22081228  0.94304458
   0.55087564  0.10820108  0.05525206
   0.44675866  0.55691588  0.95152391
   0.55452329  0.44631737  0.05121573
   0.43823034  0.88257253  0.95025960
   0.55319518  0.77374911  0.04857632
   0.78294359  0.22864682  0.95005692
   0.89019370  0.11159502  0.04996584
   0.77768348  0.55613347  0.95256926
   0.88966253  0.44463910  0.04177637
   0.77704036  0.88995439  0.95241831
   0.88502691  0.78002885  0.05251945
unknown system                          
           1
     8.344793    4.795828    0.000000
    -8.368514    4.836859    0.000000
     0.000000    0.000000   30.000000
   V    Mo   W    S 
   3   3   3  18
Direct configuration=    20
   0.67069856  0.66455120 -0.00086186
   0.33122320  0.65224935 -0.00059558
   1.01613550  0.31702338  0.00061405
   0.02471763  0.00481100  0.00012675
   0.32566719  0.31443976  0.00001715
   0.33158212  0.01503064  0.00007946
   0.01893133  0.70298329  0.00130724
   0.65224157  0.01217623 -0.00108913
   0.63296543  0.31063837  0.00016489
   0.10931641  0.22198250  0.94592731
   0.22304105  0.11162719  0.05682508
   0.11041485  0.55226456  0.95299882
   0.22095805  0.44282288  0.05051786
   0.11536662  0.89366951  0.94379540
   0.22919548  0.78016004  0.05108660
   0.44012590  0.22093708  0.94301674
   0.55068331  0.10899007  0.05549423
   0.44706606  0.55696938  0.95137440
   0.55464206  0.44680414  0.05142695
   0.43732416  0.88195886  0.95016758
   0.55324836  0.77400284  0.04835454
   0.78269166  0.22894598  0.95008892
   0.88971661  0.11106451  0.04962986
   0.77814419  0.55638914  0.95241908
   0.88993000  0.44466545  0.04153421
   0.77668791  0.89057585  0.95315587
   0.88549927  0.78048123  0.05242345
unknown system                          
           1
     8.344690    4.795521    0.000000
    -8.368344    4.836432    0.000000
     0.000000    0.000000   30.000000
   V    Mo   W    S 
   3   3   3  18
Direct configuration=    21
   0.67040122  0.66263331 -0.00085770
   0.33142210  0.65129861 -0.00050253
   1.01650401  0.31684949  0.00061233
   0.02552819  0.00511013  0.00009022
   0.32571924  0.31500244  0.00000466
   0.33182164  0.01510557  0.00005389
   0.01910298  0.70312258  0.00133008
   0.65087311  0.01284999 -0.00112965
   0.63287849  0.31104654  0.00018023
   0.10928918  0.22178346  0.94586628
   0.22333342  0.11181136  0.05683895
   0.11043880  0.55207620  0.95307959
   0.22083768  0.44256473  0.05063166
   0.11553944  0.89368333  0.94375065
   0.22938725  0.78016044  0.05102461
   0.43998771  0.22102169  0.94299568
   0.55057329  0.10950737  0.05565234
   0.44729382  0.55701332  0.95129152
   0.55469514  0.44709861  0.05154085
   0.43677363  0.88156905  0.95011029
   0.55333617  0.77420197  0.04819940
   0.78252781  0.22911521  0.95011139
   0.88935165  0.11068777  0.04942507
   0.77841243  0.55654036  0.95231704
   0.89005273  0.44466121  0.04138071
   0.77639611  0.89096913  0.95362699
   0.88573720  0.78073058  0.05237535
unknown system                          
           1
     8.345357    4.794339    0.000000
    -8.368346    4.834078    0.000000
     0.000000    0.000000   30.000000
   V    Mo   W    S 
   3   3   3  18
Direct configuration=    22
   0.67026000  0.66219165 -0.00085779
   0.33145712  0.65116827 -0.00048787
   1.01655757  0.31682404  0.00061135
   0.02569862  0.00519023  0.00008453
   0.32575865  0.31510988  0.00000365
   0.33182965  0.01511121  0.00004969
   0.01913786  0.70314950  0.00133505
   0.65067545  0.01297221 -0.00114051
   0.63286072  0.31112105  0.00018450
   0.10928871  0.22175799  0.94585834
   0.22338035  0.11184905  0.05683886
   0.11044409  0.55204445  0.95309331
   0.22081226  0.44252465  0.05064774
   0.11555515  0.89368138  0.94374710
   0.22941506  0.78016655  0.05101188
   0.43996861  0.22103434  0.94299904
   0.55055995  0.10959023  0.05566599
   0.44731630  0.55702297  0.95127432
   0.55471079  0.44714823  0.05156553
   0.43669682  0.88152184  0.95010878
   0.55334983  0.77423341  0.04817219
   0.78249870  0.22914492  0.95011740
   0.88930271  0.11063475  0.04939352
   0.77846037  0.55656637  0.95229672
   0.89007489  0.44466312  0.04135849
   0.77635466  0.89101612  0.95371116
   0.88578957  0.78077607  0.05235694
unknown system                          
           1
     8.346808    4.795660    0.000000
    -8.369712    4.835256    0.000000
     0.000000    0.000000   30.000000
   V    Mo   W    S 
   3   3   3  18
Direct configuration=    23
   0.66989396  0.66047178 -0.00084418
   0.33178182  0.65052630 -0.00041716
   1.01672997  0.31678077  0.00060907
   0.02634706  0.00523123  0.00006008
   0.32604964  0.31558086 -0.00000377
   0.33183642  0.01518390  0.00002839
   0.01925080  0.70333470  0.00135599
   0.64962972  0.01339549 -0.00118318
   0.63275500  0.31148474  0.00018908
   0.10931042  0.22155835  0.94581046
   0.22360221  0.11201295  0.05680992
   0.11054444  0.55196141  0.95317185
   0.22077586  0.44236879  0.05074233
   0.11566292  0.89366731  0.94374672
   0.22952292  0.78015804  0.05092393
   0.43986867  0.22110910  0.94301696
   0.55047371  0.11002908  0.05575592
   0.44754686  0.55709989  0.95121332
   0.55478070  0.44745407  0.05166197
   0.43626180  0.88124991  0.95008877
   0.55345032  0.77440977  0.04801733
   0.78227684  0.22923916  0.95014594
   0.88894986  0.11028411  0.04923354
   0.77868756  0.55671077  0.95220618
   0.89014688  0.44471442  0.04125094
   0.77607472  0.89123098  0.95413244
   0.88600337  0.78096658  0.05227706
unknown system                          
           1
     8.344630    4.793169    0.000000
    -8.367235    4.832233    0.000000
     0.000000    0.000000   30.000000
   V    Mo   W    S 
   3   3   3  18
Direct configuration=    24
   0.66956569  0.65994421 -0.00084598
   0.33161190  0.65034123 -0.00040147
   1.01692122  0.31663702  0.00060951
   0.02657833  0.00567986  0.00005251
   0.32586199  0.31574439 -0.00000419
   0.33194782  0.01520244  0.00002468
   0.01938812  0.70331416  0.00135803
   0.64965127  0.01361602 -0.00119787
   0.63276922  0.31146787  0.00018589
   0.10928164  0.22164722  0.94583063
   0.22363959  0.11206287  0.05682587
   0.11048801  0.55186370  0.95317727
   0.22064990  0.44229557  0.05072763
   0.11564105  0.89363473  0.94373999
   0.22954945  0.78015570  0.05093874
   0.43989675  0.22113667  0.94302126
   0.55047974  0.11007276  0.05576626
   0.44745765  0.55706977  0.95118293
   0.55479709  0.44742975  0.05169170
   0.43624959  0.88122181  0.95009133