   27   27  100    1
  0.9710400E+02  0.1002848E-08  0.1002848E-08  0.3000000E-08  0.5000000E-15
  1.000000000000000E-004
  CAR 
 unknown system                          
    159     34    120
 
  0.0000000E+00  0.0000000E+00  0.0000000E+00  0.1562500E-01
    1      -17.818944   1.000000
    2      -16.632451   1.000000
    3      -16.556297   1.000000
    4      -16.504456   1.000000
    5      -16.474751   1.000000
    6      -16.455387   1.000000
    7      -16.392172   1.000000
    8      -16.321798   1.000000
    9      -16.118363   1.000000
   10      -16.082210   1.000000
   11      -16.044406   1.000000
   12      -15.951474   1.000000
   13      -15.889053   1.000000
   14      -15.846536   1.000000
   15      -15.605217   1.000000
   16      -15.542036   1.000000
   17      -15.460060   1.000000
   18      -15.387388   1.000000
   19       -9.270210   1.000000
   20       -8.897199   1.000000
   21       -8.864684   1.000000
   22       -8.804932   1.000000
   23       -8.697186   1.000000
   24       -8.625770   1.000000
   25       -8.594932   1.000000
   26       -8.524503   1.000000
   27       -8.499405   1.000000
   28       -8.420981   1.000000
   29       -8.357516   1.000000
   30       -8.349375   1.000000
   31       -8.222648   1.000000
   32       -8.198683   1.000000
   33       -8.136862   1.000000
   34       -8.099056   1.000000
   35       -7.879060   1.000000
   36       -7.852846   1.000000
   37       -7.803022   1.000000
   38       -7.569251   1.000000
   39       -7.550888   1.000000
   40       -7.436477   1.000000
   41       -7.297456   1.000000
   42       -7.221650   1.000000
   43       -7.157035   1.000000
   44       -6.869427   1.000000
   45       -6.814278   1.000000
   46       -6.754921   1.000000
   47       -6.705645   1.000000
   48       -6.647250   1.000000
   49       -6.576375   1.000000
   50       -6.481786   1.000000
   51       -6.434764   1.000000
   52       -6.394365   1.000000
   53       -6.349712   1.000000
   54       -6.251255   1.000000
   55       -6.212743   1.000000
   56       -6.139734   1.000000
   57       -6.033706   1.000000
   58       -5.851516   1.000000
   59       -5.704045   1.000000
   60       -5.584665   1.000000
   61       -5.509820   1.000000
   62       -5.388124   1.000000
   63       -5.291652   1.000000
   64       -5.157674   1.000000
   65       -4.913603   1.000000
   66       -4.901482   1.000000
   67       -4.855866   1.000000
   68       -4.774278   1.000000
   69       -4.747444   1.000000
   70       -4.621332   1.000000
   71       -4.580694   1.000000
   72       -4.497517   1.000000
   73       -4.397662   1.000000
   74       -4.318026   1.000000
   75       -4.121017   1.000000
   76       -4.084222   1.000000
   77       -3.590581   0.999930
   78       -3.494410   0.999118
   79       -3.463282   0.998176
   80       -3.100062   0.632628
   81       -3.075705   0.566155
   82       -2.656085   0.002551
   83       -2.624546   0.001249
   84       -2.588664   0.000524
   85       -2.531024   0.000114
   86       -2.495514   0.000041
   87       -2.408774   0.000003
   88       -2.241206   0.000000
   89       -2.140311   0.000000
   90       -2.008960   0.000000
   91       -1.744459   0.000000
   92       -1.615605   0.000000
   93       -1.471664   0.000000
   94       -1.395442   0.000000
   95       -1.293519   0.000000
   96       -1.232045   0.000000
   97       -1.127845   0.000000
   98       -1.081202   0.000000
   99       -1.004111   0.000000
  100       -0.472050   0.000000
  101       -0.389035   0.000000
  102       -0.384341   0.000000
  103       -0.333467   0.000000
  104       -0.232535   0.000000
  105       -0.076023   0.000000
  106        0.069180   0.000000
  107        0.128105   0.000000
  108        0.233771   0.000000
  109        0.318080   0.000000
  110        0.369276   0.000000
  111        0.459407   0.000000
  112        0.809038   0.000000
  113        0.830799   0.000000
  114        0.873240   0.000000
  115        0.964137   0.000000
  116        0.965653   0.000000
  117        1.090049   0.000000
  118        1.681895   0.000000
  119        1.839240   0.000000
  120        2.188508   0.000000
 
  0.1250000E+00  0.2775558E-16  0.0000000E+00  0.3125000E-01
    1      -17.792785   1.000000
    2      -16.745194   1.000000
    3      -16.614190   1.000000
    4      -16.541506   1.000000
    5      -16.503604   1.000000
    6      -16.370670   1.000000
    7      -16.327446   1.000000
    8      -16.290524   1.000000
    9      -16.173333   1.000000
   10      -16.078039   1.000000
   11      -15.973562   1.000000
   12      -15.961272   1.000000
   13      -15.869298   1.000000
   14      -15.784192   1.000000
   15      -15.630739   1.000000
   16      -15.545816   1.000000
   17      -15.466962   1.000000
   18      -15.400293   1.000000
   19       -9.257853   1.000000
   20       -9.111010   1.000000
   21       -8.952368   1.000000
   22       -8.894512   1.000000
   23       -8.735723   1.000000
   24       -8.662510   1.000000
   25       -8.618452   1.000000
   26       -8.557550   1.000000
   27       -8.493193   1.000000
   28       -8.442304   1.000000
   29       -8.343535   1.000000
   30       -8.255946   1.000000
   31       -8.151177   1.000000
   32       -8.113914   1.000000
   33       -8.045285   1.000000
   34       -7.918104   1.000000
   35       -7.817385   1.000000
   36       -7.749387   1.000000
   37       -7.734960   1.000000
   38       -7.613452   1.000000
   39       -7.526153   1.000000
   40       -7.429080   1.000000
   41       -7.328057   1.000000
   42       -7.202371   1.000000
   43       -7.109002   1.000000
   44       -6.983542   1.000000
   45       -6.861439   1.000000
   46       -6.814775   1.000000
   47       -6.677604   1.000000
   48       -6.637574   1.000000
   49       -6.553727   1.000000
   50       -6.500211   1.000000
   51       -6.438018   1.000000
   52       -6.380822   1.000000
   53       -6.331579   1.000000
   54       -6.272490   1.000000
   55       -6.221373   1.000000
   56       -6.174350   1.000000
   57       -6.035957   1.000000
   58       -5.830370   1.000000
   59       -5.665078   1.000000
   60       -5.538217   1.000000
   61       -5.523419   1.000000
   62       -5.351804   1.000000
   63       -5.229362   1.000000
   64       -5.159123   1.000000
   65       -5.056313   1.000000
   66       -5.021264   1.000000
   67       -4.982283   1.000000
   68       -4.942780   1.000000
   69       -4.724589   1.000000
   70       -4.656728   1.000000
   71       -4.616402   1.000000
   72       -4.439441   1.000000
   73       -4.297440   1.000000
   74       -4.114927   1.000000
   75       -4.021466   1.000000
   76       -3.929351   1.000000
   77       -3.715912   0.999999
   78       -3.650709   0.999988
   79       -3.554488   0.999809
   80       -3.020196   0.410631
   81       -2.955629   0.247469
   82       -2.705697   0.007147
   83       -2.612061   0.000930
   84       -2.607521   0.000833
   85       -2.543672   0.000162
   86       -2.487163   0.000032
   87       -2.386216   0.000001
   88       -2.250956   0.000000
   89       -2.144315   0.000000
   90       -2.035924   0.000000
   91       -1.738686   0.000000
   92       -1.590026   0.000000
   93       -1.475063   0.000000
   94       -1.395398   0.000000
   95       -1.262995   0.000000
   96       -1.220943   0.000000
   97       -1.108845   0.000000
   98       -1.048252   0.000000
   99       -0.978995   0.000000
  100       -0.565013   0.000000
  101       -0.464998   0.000000
  102       -0.437231   0.000000
  103       -0.373960   0.000000
  104       -0.279411   0.000000
  105       -0.156001   0.000000
  106       -0.090950   0.000000
  107        0.131645   0.000000
  108        0.204103   0.000000
  109        0.333833   0.000000
  110        0.436079   0.000000
  111        0.531207   0.000000
  112        0.629592   0.000000
  113        0.778017   0.000000
  114        0.895658   0.000000
  115        1.016556   0.000000
  116        1.087614   0.000000
  117        1.211799   0.000000
  118        1.725078   0.000000
  119        1.879026   0.000000
  120        2.223831   0.000000
 
  0.2500000E+00  0.5551115E-16  0.0000000E+00  0.3125000E-01
    1      -17.715255   1.000000
    2      -16.976095   1.000000
    3      -16.630273   1.000000
    4      -16.597743   1.000000
    5      -16.542066   1.000000
    6      -16.329113   1.000000
    7      -16.282594   1.000000
    8      -16.219108   1.000000
    9      -16.151839   1.000000
   10      -16.091793   1.000000
   11      -15.984370   1.000000
   12      -15.865842   1.000000
   13      -15.814780   1.000000
   14      -15.691444   1.000000
   15      -15.652583   1.000000
   16      -15.566325   1.000000
   17      -15.491062   1.000000
   18      -15.433941   1.000000
   19       -9.468017   1.000000
   20       -9.206298   1.000000
   21       -9.095074   1.000000
   22       -8.984302   1.000000
   23       -8.900751   1.000000
   24       -8.790786   1.000000
   25       -8.577699   1.000000
   26       -8.496372   1.000000
   27       -8.460917   1.000000
   28       -8.397930   1.000000
   29       -8.277978   1.000000
   30       -8.210322   1.000000
   31       -8.164502   1.000000
   32       -8.064982   1.000000
   33       -7.875835   1.000000
   34       -7.810034   1.000000
   35       -7.678286   1.000000
   36       -7.643620   1.000000
   37       -7.575174   1.000000
   38       -7.512753   1.000000
   39       -7.472064   1.000000
   40       -7.373281   1.000000
   41       -7.229178   1.000000
   42       -7.163056   1.000000
   43       -7.088550   1.000000
   44       -7.032424   1.000000
   45       -6.911786   1.000000
   46       -6.841708   1.000000
   47       -6.744541   1.000000
   48       -6.649706   1.000000
   49       -6.584520   1.000000
   50       -6.550352   1.000000
   51       -6.468920   1.000000
   52       -6.380345   1.000000
   53       -6.292231   1.000000
   54       -6.234792   1.000000
   55       -6.164298   1.000000
   56       -6.134559   1.000000
   57       -6.020475   1.000000
   58       -5.828233   1.000000
   59       -5.634966   1.000000
   60       -5.585601   1.000000
   61       -5.541700   1.000000
   62       -5.433975   1.000000
   63       -5.397413   1.000000
   64       -5.324672   1.000000
   65       -5.262922   1.000000
   66       -5.168921   1.000000
   67       -4.995106   1.000000
   68       -4.871839   1.000000
   69       -4.707010   1.000000
   70       -4.654713   1.000000
   71       -4.622946   1.000000
   72       -4.291380   1.000000
   73       -4.233032   1.000000
   74       -4.078185   1.000000
   75       -3.967098   1.000000
   76       -3.912638   1.000000
   77       -3.753012   1.000000
   78       -3.639794   0.999984
   79       -3.535529   0.999685
   80       -2.977072   0.297762
   81       -2.862130   0.089537
   82       -2.763617   0.020665
   83       -2.618620   0.001087
   84       -2.595095   0.000615
   85       -2.573517   0.000357
   86       -2.482017   0.000028
   87       -2.330215   0.000000
   88       -2.271005   0.000000
   89       -2.166676   0.000000
   90       -2.069956   0.000000
   91       -1.732294   0.000000
   92       -1.549015   0.000000
   93       -1.485268   0.000000
   94       -1.362229   0.000000
   95       -1.223373   0.000000
   96       -1.162975   0.000000
   97       -1.073784   0.000000
   98       -1.008112   0.000000
   99       -0.921265   0.000000
  100       -0.725642   0.000000
  101       -0.615297   0.000000
  102       -0.576757   0.000000
  103       -0.492345   0.000000
  104       -0.386330   0.000000
  105       -0.332378   0.000000
  106       -0.201630   0.000000
  107        0.011094   0.000000
  108        0.083501   0.000000
  109        0.261710   0.000000
  110        0.442391   0.000000
  111        0.513371   0.000000
  112        0.676718   0.000000
  113        0.758460   0.000000
  114        0.967122   0.000000
  115        1.070857   0.000000
  116        1.253141   0.000000
  117        1.418191   0.000000
  118        1.846566   0.000000
  119        1.993414   0.000000
  120        2.328769   0.000000
 
  0.3750000E+00  0.0000000E+00  0.0000000E+00  0.3125000E-01
    1      -17.589733   1.000000
    2      -17.205692   1.000000
    3      -16.667125   1.000000
    4      -16.632756   1.000000
    5      -16.522977   1.000000
    6      -16.386086   1.000000
    7      -16.245316   1.000000
    8      -16.171316   1.000000
    9      -16.107305   1.000000
   10      -16.052870   1.000000
   11      -15.964811   1.000000
   12      -15.847593   1.000000
   13      -15.747943   1.000000
   14      -15.705517   1.000000
   15      -15.602618   1.000000
   16      -15.563538   1.000000
   17      -15.517088   1.000000
   18      -15.471825   1.000000
   19       -9.702380   1.000000
   20       -9.275762   1.000000
   21       -9.156596   1.000000
   22       -9.031546   1.000000
   23       -8.941903   1.000000
   24       -8.868831   1.000000
   25       -8.533628   1.000000
   26       -8.476419   1.000000
   27       -8.422292   1.000000
   28       -8.346923   1.000000
   29       -8.278638   1.000000
   30       -8.212400   1.000000
   31       -8.125085   1.000000
   32       -8.023559   1.000000
   33       -7.892122   1.000000
   34       -7.749038   1.000000
   35       -7.708088   1.000000
   36       -7.650073   1.000000
   37       -7.549729   1.000000
   38       -7.398447   1.000000
   39       -7.309900   1.000000
   40       -7.276185   1.000000
   41       -7.184629   1.000000
   42       -7.079332   1.000000
   43       -7.037675   1.000000
   44       -6.974793   1.000000
   45       -6.892371   1.000000
   46       -6.776298   1.000000
   47       -6.713510   1.000000
   48       -6.617643   1.000000
   49       -6.581515   1.000000
   50       -6.531267   1.000000
   51       -6.410177   1.000000
   52       -6.357705   1.000000
   53       -6.251382   1.000000
   54       -6.217859   1.000000
   55       -6.073761   1.000000
   56       -6.020258   1.000000
   57       -5.982458   1.000000
   58       -5.902431   1.000000
   59       -5.859284   1.000000
   60       -5.772106   1.000000
   61       -5.702833   1.000000
   62       -5.676908   1.000000
   63       -5.605928   1.000000
   64       -5.473741   1.000000
   65       -5.235182   1.000000
   66       -5.064692   1.000000
   67       -4.892724   1.000000
   68       -4.829777   1.000000
   69       -4.730242   1.000000
   70       -4.633332   1.000000
   71       -4.607970   1.000000
   72       -4.569055   1.000000
   73       -4.196569   1.000000
   74       -4.128292   1.000000
   75       -3.972019   1.000000
   76       -3.829335   1.000000
   77       -3.639581   0.999984
   78       -3.486416   0.998932
   79       -3.348155   0.981830
   80       -2.984361   0.315859
   81       -2.942461   0.218995
   82       -2.808280   0.042318
   83       -2.660592   0.002814
   84       -2.584235   0.000469
   85       -2.542517   0.000157
   86       -2.433972   0.000006
   87       -2.305131   0.000000
   88       -2.275179   0.000000
   89       -2.167789   0.000000
   90       -2.088675   0.000000
   91       -1.733989   0.000000
   92       -1.534524   0.000000
   93       -1.462095   0.000000
   94       -1.345086   0.000000
   95       -1.183100   0.000000
   96       -1.120178   0.000000
   97       -1.059008   0.000000
   98       -1.021232   0.000000
   99       -0.899791   0.000000
  100       -0.785786   0.000000
  101       -0.724773   0.000000
  102       -0.677630   0.000000
  103       -0.621581   0.000000
  104       -0.527462   0.000000
  105       -0.420101   0.000000
  106       -0.336225   0.000000
  107       -0.088627   0.000000
  108        0.001136   0.000000
  109        0.085565   0.000000
  110        0.399257   0.000000
  111        0.503181   0.000000
  112        0.750392   0.000000
  113        0.800555   0.000000
  114        1.048718   0.000000
  115        1.140738   0.000000
  116        1.365281   0.000000
  117        1.571292   0.000000
  118        2.030638   0.000000
  119        2.171336   0.000000
  120        2.500874   0.000000
 
  0.5000000E+00  0.1110223E-15  0.0000000E+00  0.1562500E-01
    1      -17.448896   1.000000
    2      -17.382831   1.000000
    3      -16.682154   1.000000
    4      -16.645627   1.000000
    5      -16.499523   1.000000
    6      -16.420479   1.000000
    7      -16.238327   1.000000
    8      -16.167310   1.000000
    9      -16.083578   1.000000
   10      -16.010304   1.000000
   11      -15.954122   1.000000
   12      -15.867911   1.000000
   13      -15.718319   1.000000
   14      -15.684392   1.000000
   15      -15.625524   1.000000
   16      -15.571418   1.000000
   17      -15.513527   1.000000
   18      -15.473466   1.000000
   19       -9.786844   1.000000
   20       -9.313215   1.000000
   21       -9.184193   1.000000
   22       -9.065417   1.000000
   23       -8.941036   1.000000
   24       -8.819404   1.000000
   25       -8.599795   1.000000
   26       -8.479491   1.000000
   27       -8.396654   1.000000
   28       -8.317919   1.000000
   29       -8.278796   1.000000
   30       -8.172693   1.000000
   31       -8.101759   1.000000
   32       -7.971318   1.000000
   33       -7.929902   1.000000
   34       -7.778325   1.000000
   35       -7.724775   1.000000
   36       -7.659932   1.000000
   37       -7.602719   1.000000
   38       -7.376788   1.000000
   39       -7.327756   1.000000
   40       -7.212508   1.000000
   41       -7.141960   1.000000
   42       -7.032333   1.000000
   43       -6.962711   1.000000
   44       -6.902084   1.000000
   45       -6.865357   1.000000
   46       -6.722915   1.000000
   47       -6.645548   1.000000
   48       -6.608316   1.000000
   49       -6.555824   1.000000
   50       -6.476699   1.000000
   51       -6.409509   1.000000
   52       -6.382957   1.000000
   53       -6.238955   1.000000
   54       -6.152017   1.000000
   55       -6.132748   1.000000
   56       -6.053868   1.000000
   57       -6.013871   1.000000
   58       -5.888728   1.000000
   59       -5.857581   1.000000
   60       -5.806824   1.000000
   61       -5.797713   1.000000
   62       -5.683691   1.000000
   63       -5.644291   1.000000
   64       -5.560518   1.000000
   65       -5.347892   1.000000
   66       -5.087029   1.000000
   67       -4.985205   1.000000
   68       -4.811003   1.000000
   69       -4.703889   1.000000
   70       -4.657182   1.000000
   71       -4.595194   1.000000
   72       -4.496586   1.000000
   73       -4.312157   1.000000
   74       -4.120957   1.000000
   75       -3.932211   1.000000
   76       -3.725883   0.999999
   77       -3.671218   0.999994
   78       -3.416055   0.994962
   79       -3.181346   0.819533
   80       -3.055867   0.510496
   81       -2.980379   0.305913
   82       -2.846411   0.072867
   83       -2.681727   0.004406
   84       -2.579012   0.000411
   85       -2.532365   0.000119
   86       -2.405636   0.000002
   87       -2.296884   0.000000
   88       -2.273822   0.000000
   89       -2.147808   0.000000
   90       -2.103420   0.000000
   91       -1.736677   0.000000
   92       -1.524786   0.000000
   93       -1.449991   0.000000
   94       -1.352123   0.000000
   95       -1.167290   0.000000
   96       -1.110612   0.000000
   97       -1.076156   0.000000
   98       -1.030129   0.000000
   99       -0.909649   0.000000
  100       -0.774548   0.000000
  101       -0.735091   0.000000
  102       -0.709094   0.000000
  103       -0.679171   0.000000
  104       -0.598845   0.000000
  105       -0.448777   0.000000
  106       -0.399083   0.000000
  107       -0.129378   0.000000
  108       -0.019237   0.000000
  109        0.012915   0.000000
  110        0.375778   0.000000
  111        0.501997   0.000000
  112        0.775689   0.000000
  113        0.814649   0.000000
  114        1.082557   0.000000
  115        1.171697   0.000000
  116        1.403935   0.000000
  117        1.625056   0.000000
  118        2.261229   0.000000
  119        2.272163   0.000000
  120        2.391896   0.000000
 
  0.0000000E+00  0.1250000E+00  0.0000000E+00  0.3125000E-01
    1      -17.793160   1.000000
    2      -16.728169   1.000000
    3      -16.617951   1.000000
    4      -16.542652   1.000000
    5      -16.522150   1.000000
    6      -16.385204   1.000000
    7      -16.312227   1.000000
    8      -16.280395   1.000000
    9      -16.202409   1.000000
   10      -16.058831   1.000000
   11      -15.968122   1.000000
   12      -15.936250   1.000000
   13      -15.890490   1.000000
   14      -15.789520   1.000000
   15      -15.615638   1.000000
   16      -15.561513   1.000000
   17      -15.468682   1.000000
   18      -15.395639   1.000000
   19       -9.260250   1.000000
   20       -9.105900   1.000000
   21       -8.965714   1.000000
   22       -8.912685   1.000000
   23       -8.738600   1.000000
   24       -8.683741   1.000000
   25       -8.596849   1.000000
   26       -8.538920   1.000000
   27       -8.483701   1.000000
   28       -8.381657   1.000000
   29       -8.351928   1.000000
   30       -8.251134   1.000000
   31       -8.179982   1.000000
   32       -8.147553   1.000000
   33       -8.049409   1.000000
   34       -7.905286   1.000000
   35       -7.792390   1.000000
   36       -7.772099   1.000000
   37       -7.732992   1.000000
   38       -7.601212   1.000000
   39       -7.556662   1.000000
   40       -7.463090   1.000000
   41       -7.251382   1.000000
   42       -7.212540   1.000000
   43       -7.148525   1.000000
   44       -6.955744   1.000000
   45       -6.881265   1.000000
   46       -6.784005   1.000000
   47       -6.697025   1.000000
   48       -6.643503   1.000000
   49       -6.590567   1.000000
   50       -6.462625   1.000000
   51       -6.423205   1.000000
   52       -6.391541   1.000000
   53       -6.321807   1.000000
   54       -6.259201   1.000000
   55       -6.214494   1.000000
   56       -6.157547   1.000000
   57       -6.089783   1.000000
   58       -5.811778   1.000000
   59       -5.660197   1.000000
   60       -5.588880   1.000000
   61       -5.485660   1.000000
   62       -5.319371   1.000000
   63       -5.279597   1.000000
   64       -5.123321   1.000000
   65       -5.079681   1.000000
   66       -5.023658   1.000000
   67       -5.000229   1.000000
   68       -4.922375   1.000000
   69       -4.716809   1.000000
   70       -4.651851   1.000000
   71       -4.589487   1.000000
   72       -4.405896   1.000000
   73       -4.309971   1.000000
   74       -4.245316   1.000000
   75       -3.976093   1.000000
   76       -3.907338   1.000000
   77       -3.728360   0.999999
   78       -3.636854   0.999982
   79       -3.550399   0.999787
   80       -3.022423   0.416766
   81       -2.955133   0.246361
   82       -2.694175   0.005683
   83       -2.653529   0.002411
   84       -2.604129   0.000768
   85       -2.540038   0.000147
   86       -2.489330   0.000035
   87       -2.361911   0.000001
   88       -2.247518   0.000000
   89       -2.163493   0.000000
   90       -2.034718   0.000000
   91       -1.745321   0.000000
   92       -1.580229   0.000000
   93       -1.457549   0.000000
   94       -1.385235   0.000000
   95       -1.273919   0.000000
   96       -1.213245   0.000000
   97       -1.106618   0.000000
   98       -1.064411   0.000000
   99       -0.968679   0.000000
  100       -0.563348   0.000000
  101       -0.466384   0.000000
  102       -0.420558   0.000000
  103       -0.373608   0.000000
  104       -0.267599   0.000000
  105       -0.176934   0.000000
  106       -0.101366   0.000000
  107        0.111493   0.000000
  108        0.225900   0.000000
  109        0.318037   0.000000
  110        0.402012   0.000000
  111        0.514358   0.000000
  112        0.708516   0.000000
  113        0.856019   0.000000
  114        0.911210   0.000000
  115        0.997017   0.000000
  116        1.053614   0.000000
  117        1.158276   0.000000
  118        1.724954   0.000000
  119        1.877595   0.000000
  120        2.223918   0.000000
 
  0.1250000E+00  0.1250000E+00  0.0000000E+00  0.3125000E-01
    1      -17.741212   1.000000
    2      -16.888508   1.000000
    3      -16.711251   1.000000
    4      -16.581385   1.000000
    5      -16.438521   1.000000
    6      -16.337261   1.000000
    7      -16.309329   1.000000
    8      -16.239199   1.000000
    9      -16.196419   1.000000
   10      -16.083727   1.000000
   11      -15.960355   1.000000
   12      -15.912679   1.000000
   13      -15.810412   1.000000
   14      -15.712394   1.000000
   15      -15.650736   1.000000
   16      -15.567796   1.000000
   17      -15.484074   1.000000
   18      -15.420139   1.000000
   19       -9.352056   1.000000
   20       -9.256067   1.000000
   21       -9.155517   1.000000
   22       -8.954737   1.000000
   23       -8.764798   1.000000
   24       -8.734416   1.000000
   25       -8.585951   1.000000
   26       -8.490058   1.000000
   27       -8.446341   1.000000
   28       -8.365216   1.000000
   29       -8.322565   1.000000
   30       -8.279411   1.000000
   31       -8.175130   1.000000
   32       -8.076803   1.000000
   33       -7.954972   1.000000
   34       -7.823204   1.000000
   35       -7.733042   1.000000
   36       -7.657366   1.000000
   37       -7.629282   1.000000
   38       -7.494617   1.000000
   39       -7.447370   1.000000
   40       -7.396722   1.000000
   41       -7.239537   1.000000
   42       -7.213055   1.000000
   43       -7.100648   1.000000
   44       -7.038079   1.000000
   45       -6.907943   1.000000
   46       -6.873202   1.000000
   47       -6.717646   1.000000
   48       -6.644102   1.000000
   49       -6.610861   1.000000
   50       -6.483925   1.000000
   51       -6.455238   1.000000
   52       -6.392791   1.000000
   53       -6.274336   1.000000
   54       -6.234577   1.000000
   55       -6.213538   1.000000
   56       -6.143243   1.000000
   57       -6.073877   1.000000
   58       -5.812615   1.000000
   59       -5.648479   1.000000
   60       -5.580638   1.000000
   61       -5.460074   1.000000
   62       -5.403976   1.000000
   63       -5.330862   1.000000
   64       -5.268487   1.000000
   65       -5.168718   1.000000
   66       -5.041482   1.000000
   67       -5.011828   1.000000
   68       -4.954476   1.000000
   69       -4.902543   1.000000
   70       -4.743837   1.000000
   71       -4.429995   1.000000
   72       -4.310781   1.000000
   73       -4.242203   1.000000
   74       -4.030091   1.000000
   75       -4.002863   1.000000
   76       -3.915675   1.000000
   77       -3.830063   1.000000
   78       -3.666247   0.999993
   79       -3.547897   0.999772
   80       -2.992365   0.336251
   81       -2.825398   0.054429
   82       -2.709807   0.007745
   83       -2.661847   0.002892
   84       -2.630308   0.001428
   85       -2.578652   0.000407
   86       -2.487734   0.000033
   87       -2.320924   0.000000
   88       -2.255417   0.000000
   89       -2.163386   0.000000
   90       -2.076319   0.000000
   91       -1.748231   0.000000
   92       -1.533423   0.000000
   93       -1.479160   0.000000
   94       -1.367988   0.000000
   95       -1.250119   0.000000
   96       -1.163729   0.000000
   97       -1.078337   0.000000
   98       -1.028339   0.000000
   99       -0.923177   0.000000
  100       -0.686657   0.000000
  101       -0.565640   0.000000
  102       -0.515505   0.000000
  103       -0.458828   0.000000
  104       -0.376006   0.000000
  105       -0.336896   0.000000
  106       -0.155253   0.000000
  107        0.065481   0.000000
  108        0.164872   0.000000
  109        0.332337   0.000000
  110        0.439565   0.000000
  111        0.549663   0.000000
  112        0.599580   0.000000
  113        0.778978   0.000000
  114        0.976884   0.000000
  115        1.020742   0.000000
  116        1.176509   0.000000
  117        1.331145   0.000000
  118        1.807212   0.000000
  119        1.953288   0.000000
  120        2.294019   0.000000
 
  0.2500000E+00  0.1250000E+00  0.0000000E+00  0.3125000E-01
    1      -17.639614   1.000000
    2      -17.091788   1.000000
    3      -16.822229   1.000000
    4      -16.546656   1.000000
    5      -16.432468   1.000000
    6      -16.358280   1.000000
    7      -16.264793   1.000000
    8      -16.187390   1.000000
    9      -16.151688   1.000000
   10      -16.071512   1.000000
   11      -15.971523   1.000000
   12      -15.875586   1.000000
   13      -15.783412   1.000000
   14      -15.648320   1.000000
   15      -15.615534   1.000000
   16      -15.586748   1.000000
   17      -15.522522   1.000000
   18      -15.441265   1.000000
   19       -9.592331   1.000000
   20       -9.398386   1.000000
   21       -9.212438   1.000000
   22       -8.992934   1.000000
   23       -8.817239   1.000000
   24       -8.732525   1.000000
   25       -8.541049   1.000000
   26       -8.448394   1.000000
   27       -8.421406   1.000000
   28       -8.362207   1.000000
   29       -8.290962   1.000000
   30       -8.227383   1.000000
   31       -8.151366   1.000000
   32       -8.084969   1.000000
   33       -7.957520   1.000000
   34       -7.837148   1.000000
   35       -7.809938   1.000000
   36       -7.509892   1.000000
   37       -7.441812   1.000000
   38       -7.396430   1.000000
   39       -7.337491   1.000000
   40       -7.295204   1.000000
   41       -7.261083   1.000000
   42       -7.144104   1.000000
   43       -7.036403   1.000000
   44       -6.978821   1.000000
   45       -6.884414   1.000000
   46       -6.763403   1.000000
   47       -6.754825   1.000000