       N       E                     dE             d eps       ncg     rms          rms(c)
DAV:   1     0.112433543743E+04    0.11243E+04   -0.35857E+04  8160   0.577E+02
DAV:   2    -0.439887184103E+01   -0.11287E+04   -0.10887E+04 11240   0.173E+02
DAV:   3    -0.199723839582E+03   -0.19532E+03   -0.18773E+03 10880   0.818E+01
DAV:   4    -0.208907391809E+03   -0.91836E+01   -0.88830E+01 12040   0.262E+01
DAV:   5    -0.209247691881E+03   -0.34030E+00   -0.33933E+00 11520   0.376E+00    0.274E+01
DAV:   6    -0.236667192620E+03   -0.27420E+02   -0.10817E+02 12920   0.604E+01    0.592E+01
DAV:   7    -0.196772565680E+03    0.39895E+02   -0.17599E+02 12960   0.152E+02    0.205E+01
DAV:   8    -0.190259744338E+03    0.65128E+01   -0.21710E+01 11720   0.135E+01    0.140E+01
DAV:   9    -0.188309111582E+03    0.19506E+01   -0.36027E+00 11800   0.637E+00    0.939E+00
DAV:  10    -0.187167276972E+03    0.11418E+01   -0.17970E+00 13280   0.745E+00    0.376E+00
DAV:  11    -0.187002396461E+03    0.16488E+00   -0.72506E-01 12680   0.271E+00    0.226E+00
DAV:  12    -0.187088635532E+03   -0.86239E-01   -0.53325E-01 13320   0.377E+00    0.449E+00
DAV:  13    -0.186939237411E+03    0.14940E+00   -0.50026E-01 13160   0.380E+00    0.199E+00
DAV:  14    -0.186905450617E+03    0.33787E-01   -0.10701E-01 13440   0.173E+00    0.116E+00
DAV:  15    -0.186898442907E+03    0.70077E-02   -0.54242E-02 13080   0.136E+00    0.998E-01
DAV:  16    -0.186890850547E+03    0.75924E-02   -0.19650E-02 13120   0.732E-01    0.480E-01
DAV:  17    -0.186888657238E+03    0.21933E-02   -0.67147E-03 13120   0.284E-01    0.229E-01
DAV:  18    -0.186887644991E+03    0.10122E-02   -0.36737E-03 13000   0.270E-01    0.200E-01
DAV:  19    -0.186887331730E+03    0.31326E-03   -0.10233E-03 11720   0.157E-01    0.477E-02
DAV:  20    -0.186888092435E+03   -0.76070E-03   -0.70696E-04  9080   0.593E-02    0.536E-02
DAV:  21    -0.186888658146E+03   -0.56571E-03   -0.23925E-04  8360   0.461E-02    0.290E-02
DAV:  22    -0.186889792279E+03   -0.11341E-02   -0.17575E-04  7520   0.406E-02    0.354E-02
DAV:  23    -0.186891042451E+03   -0.12502E-02   -0.14001E-04  7440   0.442E-02    0.144E-02
DAV:  24    -0.186891611912E+03   -0.56946E-03   -0.25882E-05  6840   0.143E-02    0.604E-03
DAV:  25    -0.186892000051E+03   -0.38814E-03   -0.16284E-05  5440   0.956E-03    0.444E-03
DAV:  26    -0.186892242507E+03   -0.24246E-03   -0.90453E-06  6800   0.721E-03    0.153E-03
DAV:  27    -0.186892341986E+03   -0.99479E-04   -0.34697E-06  7280   0.414E-03
   1 F= -.18689234E+03 E0= -.18672149E+03  d E =-.186892E+03
       N       E                     dE             d eps       ncg     rms          rms(c)
DAV:   1    -0.187532387467E+03   -0.64014E+00   -0.27203E+02  8160   0.350E+01    0.466E+00
DAV:   2    -0.189535219459E+03   -0.20028E+01   -0.20341E+01 12320   0.157E+01    0.961E+00
DAV:   3    -0.189353655679E+03    0.18156E+00   -0.41878E+00 12400   0.123E+01    0.641E+00
DAV:   4    -0.188788439863E+03    0.56522E+00   -0.58127E-01 12600   0.442E+00    0.173E+00
DAV:   5    -0.188857955994E+03   -0.69516E-01   -0.40877E-01 11360   0.295E+00    0.428E+00
DAV:   6    -0.188772137092E+03    0.85819E-01   -0.60922E-01 12920   0.410E+00    0.255E+00
DAV:   7    -0.188728230803E+03    0.43906E-01   -0.17465E-01 12400   0.195E+00    0.132E+00
DAV:   8    -0.188711677046E+03    0.16554E-01   -0.69365E-02 12960   0.133E+00    0.121E+00
DAV:   9    -0.188701665339E+03    0.10012E-01   -0.25149E-02 11960   0.882E-01    0.372E-01
DAV:  10    -0.188700567158E+03    0.10982E-02   -0.38918E-03 11840   0.242E-01    0.183E-01
DAV:  11    -0.188700128936E+03    0.43822E-03   -0.23454E-03 12200   0.157E-01    0.101E-01
DAV:  12    -0.188700229211E+03   -0.10028E-03   -0.90143E-04 11560   0.939E-02    0.824E-02
DAV:  13    -0.188700176875E+03    0.52336E-04   -0.22368E-04  7720   0.540E-02
   2 F= -.18870018E+03 E0= -.18856118E+03  d E =-.180783E+01
       N       E                     dE             d eps       ncg     rms          rms(c)
DAV:   1    -0.190622929059E+03   -0.19227E+01   -0.31339E+01  8960   0.142E+01    0.443E+00
DAV:   2    -0.190571818059E+03    0.51111E-01   -0.27610E+00 11280   0.946E+00    0.720E+00
DAV:   3    -0.190106623312E+03    0.46519E+00   -0.13332E+00 12360   0.859E+00    0.420E+00
DAV:   4    -0.189898476755E+03    0.20815E+00   -0.72270E-01 12800   0.424E+00    0.253E+00
DAV:   5    -0.189876690745E+03    0.21786E-01   -0.38277E-01 12280   0.312E+00    0.282E+00
DAV:   6    -0.189800530787E+03    0.76160E-01   -0.14984E-01 12520   0.248E+00    0.744E-01
DAV:   7    -0.189793637359E+03    0.68934E-02   -0.14752E-02 11640   0.544E-01    0.206E-01
DAV:   8    -0.189793740724E+03   -0.10336E-03   -0.31085E-03 11200   0.186E-01    0.174E-01
DAV:   9    -0.189793927525E+03   -0.18680E-03   -0.14538E-03 10680   0.230E-01    0.215E-01
DAV:  10    -0.189794055117E+03   -0.12759E-03   -0.15005E-03  9960   0.249E-01    0.184E-01
DAV:  11    -0.189793686628E+03    0.36849E-03   -0.61012E-04  9400   0.129E-01    0.190E-02
DAV:  12    -0.189793715255E+03   -0.28627E-04   -0.85037E-05  6600   0.311E-02
   3 F= -.18979372E+03 E0= -.18967533E+03  d E =-.109354E+01
       N       E                     dE             d eps       ncg     rms          rms(c)
DAV:   1    -0.191366973189E+03   -0.15733E+01   -0.77750E+01  8160   0.201E+01    0.459E+00
DAV:   2    -0.191204161523E+03    0.16281E+00   -0.53933E+00 13200   0.783E+00    0.473E+00
DAV:   3    -0.191309668834E+03   -0.10551E+00   -0.15981E+00 12200   0.909E+00    0.648E+00
DAV:   4    -0.190936146051E+03    0.37352E+00   -0.13445E+00 12480   0.746E+00    0.296E+00
DAV:   5    -0.190886697080E+03    0.49449E-01   -0.43254E-01 12480   0.388E+00    0.284E+00
DAV:   6    -0.190805176893E+03    0.81520E-01   -0.20823E-01 12280   0.315E+00    0.127E+00
DAV:   7    -0.190790115801E+03    0.15061E-01   -0.47842E-02 12720   0.116E+00    0.407E-01
DAV:   8    -0.190787526512E+03    0.25893E-02   -0.65913E-03 10160   0.348E-01    0.199E-01
DAV:   9    -0.190787914607E+03   -0.38810E-03   -0.22639E-03 11680   0.314E-01    0.266E-01
DAV:  10    -0.190787647578E+03    0.26703E-03   -0.17760E-03 11000   0.238E-01    0.917E-02
DAV:  11    -0.190787542351E+03    0.10523E-03   -0.45390E-04  9160   0.823E-02    0.447E-02
DAV:  12    -0.190787539735E+03    0.26159E-05   -0.99069E-05  7280   0.385E-02
   4 F= -.19078754E+03 E0= -.19068266E+03  d E =-.993824E+00
       N       E                     dE             d eps       ncg     rms          rms(c)
DAV:   1    -0.192100745307E+03   -0.13132E+01   -0.16173E+02  8160   0.283E+01    0.559E+00
DAV:   2    -0.191864996864E+03    0.23575E+00   -0.92755E+00 11480   0.808E+00    0.389E+00
DAV:   3    -0.192062359662E+03   -0.19736E+00   -0.20644E+00 11200   0.871E+00    0.803E+00
DAV:   4    -0.191749905213E+03    0.31245E+00   -0.28821E+00 11440   0.108E+01    0.447E+00
DAV:   5    -0.191573048862E+03    0.17686E+00   -0.74864E-01 12360   0.550E+00    0.321E+00
DAV:   6    -0.191447383221E+03    0.12567E+00   -0.27453E-01 12280   0.376E+00    0.126E+00
DAV:   7    -0.191433145194E+03    0.14238E-01   -0.62151E-02 12280   0.132E+00    0.512E-01
DAV:   8    -0.191429016296E+03    0.41289E-02   -0.10598E-02 10720   0.491E-01    0.249E-01
DAV:   9    -0.191430230573E+03   -0.12143E-02   -0.51036E-03 12600   0.488E-01    0.407E-01
DAV:  10    -0.191428877121E+03    0.13535E-02   -0.35700E-03 11320   0.364E-01    0.623E-02
DAV:  11    -0.191428944030E+03   -0.66909E-04   -0.35634E-04  9040   0.709E-02
   5 F= -.19142894E+03 E0= -.19132369E+03  d E =-.641404E+00
       N       E                     dE             d eps       ncg     rms          rms(c)
DAV:   1    -0.191478049192E+03   -0.49172E-01   -0.39873E+00  8160   0.422E+00    0.591E-01
DAV:   2    -0.191530963767E+03   -0.52915E-01   -0.24653E-01 13040   0.270E+00    0.200E+00
DAV:   3    -0.191488787297E+03    0.42176E-01   -0.88038E-02 12440   0.209E+00    0.370E-01
DAV:   4    -0.191490382065E+03   -0.15948E-02   -0.11955E-02 11360   0.687E-01    0.585E-01
DAV:   5    -0.191487000593E+03    0.33815E-02   -0.74379E-03 10200   0.568E-01    0.179E-01
DAV:   6    -0.191486970350E+03    0.30242E-04   -0.17799E-03 10480   0.174E-01    0.126E-01
DAV:   7    -0.191486661711E+03    0.30864E-03   -0.91214E-04 10160   0.123E-01    0.650E-02
DAV:   8    -0.191486672515E+03   -0.10803E-04   -0.27332E-04  7640   0.108E-01
   6 F= -.19148667E+03 E0= -.19137910E+03  d E =-.577285E-01
       N       E                     dE             d eps       ncg     rms          rms(c)
DAV:   1    -0.191540036906E+03   -0.53375E-01   -0.46896E+00  8160   0.458E+00    0.572E-01
DAV:   2    -0.191574573382E+03   -0.34536E-01   -0.17486E-01 13600   0.202E+00    0.159E+00
DAV:   3    -0.191546780895E+03    0.27792E-01   -0.67204E-02 12440   0.185E+00    0.426E-01
DAV:   4    -0.191546377301E+03    0.40359E-03   -0.85018E-03 11160   0.528E-01    0.432E-01
DAV:   5    -0.191545118277E+03    0.12590E-02   -0.68842E-03 10640   0.541E-01    0.290E-01
DAV:   6    -0.191544473941E+03    0.64434E-03   -0.25213E-03 10000   0.273E-01    0.116E-01
DAV:   7    -0.191544308702E+03    0.16524E-03   -0.78205E-04 10520   0.118E-01    0.656E-02
DAV:   8    -0.191544317231E+03   -0.85282E-05   -0.30769E-04  8120   0.116E-01
   7 F= -.19154432E+03 E0= -.19143491E+03  d E =-.576447E-01
       N       E                     dE             d eps       ncg     rms          rms(c)
DAV:   1    -0.191546707813E+03   -0.23991E-02   -0.22025E-02  8160   0.336E-01    0.639E-02
DAV:   2    -0.191546813739E+03   -0.10593E-03   -0.13582E-03 11280   0.139E-01    0.107E-01
DAV:   3    -0.191546733858E+03    0.79881E-04   -0.45223E-04  9120   0.153E-01
   8 F= -.19154673E+03 E0= -.19143737E+03  d E =-.241663E-02
       N       E                     dE             d eps       ncg     rms          rms(c)
DAV:   1    -0.191527396255E+03    0.19417E-01   -0.12215E+00  8160   0.239E+00    0.460E-01
DAV:   2    -0.191552963806E+03   -0.25568E-01   -0.95369E-02 12760   0.192E+00    0.155E+00
DAV:   3    -0.191526746443E+03    0.26217E-01   -0.42490E-02 12120   0.152E+00    0.304E-01
DAV:   4    -0.191527809812E+03   -0.10634E-02   -0.81705E-03  9920   0.612E-01    0.475E-01
DAV:   5    -0.191525675159E+03    0.21347E-02   -0.61169E-03 10120   0.518E-01    0.203E-01
DAV:   6    -0.191525536251E+03    0.13891E-03   -0.24998E-03 11240   0.290E-01    0.206E-01
DAV:   7    -0.191525242084E+03    0.29417E-03   -0.16062E-03 10120   0.252E-01    0.110E-01
DAV:   8    -0.191525118754E+03    0.12333E-03   -0.33281E-04  7720   0.102E-01    0.248E-02
DAV:   9    -0.191525117637E+03    0.11168E-05   -0.38813E-05  6800   0.259E-02
   9 F= -.19152512E+03 E0= -.19141632E+03  d E =0.216162E-01
       N       E                     dE             d eps       ncg     rms          rms(c)
DAV:   1    -0.191573443284E+03   -0.48325E-01   -0.36760E+00  8160   0.408E+00    0.554E-01
DAV:   2    -0.191611112912E+03   -0.37670E-01   -0.16756E-01 13600   0.230E+00    0.175E+00
DAV:   3    -0.191578294687E+03    0.32818E-01   -0.69923E-02 12280   0.188E+00    0.331E-01
DAV:   4    -0.191579690180E+03   -0.13955E-02   -0.95733E-03 11480   0.629E-01    0.546E-01
DAV:   5    -0.191576785381E+03    0.29048E-02   -0.64257E-03 10800   0.564E-01    0.176E-01
DAV:   6    -0.191576730924E+03    0.54457E-04   -0.17763E-03 11280   0.201E-01    0.140E-01
DAV:   7    -0.191576841192E+03   -0.11027E-03   -0.18124E-03 10480   0.260E-01    0.216E-01
DAV:   8    -0.191576385563E+03    0.45563E-03   -0.92097E-04  8400   0.193E-01    0.316E-02
DAV:   9    -0.191576396128E+03   -0.10565E-04   -0.61046E-05  5680   0.330E-02
  10 F= -.19157640E+03 E0= -.19146664E+03  d E =-.512785E-01
       N       E                     dE             d eps       ncg     rms          rms(c)
DAV:   1    -0.191622133039E+03   -0.45747E-01   -0.27540E+00  8160   0.353E+00    0.478E-01
DAV:   2    -0.191647702315E+03   -0.25569E-01   -0.11438E-01 13600   0.190E+00    0.148E+00
DAV:   3    -0.191624832977E+03    0.22869E-01   -0.46095E-02 12160   0.158E+00    0.310E-01
DAV:   4    -0.191626176521E+03   -0.13435E-02   -0.85191E-03 11280   0.597E-01    0.516E-01
DAV:   5    -0.191623525050E+03    0.26515E-02   -0.59592E-03 10840   0.530E-01    0.161E-01
DAV:   6    -0.191623371614E+03    0.15344E-03   -0.16031E-03 10080   0.183E-01    0.101E-01
DAV:   7    -0.191623276871E+03    0.94744E-04   -0.70171E-04 10720   0.137E-01
  11 F= -.19162328E+03 E0= -.19151399E+03  d E =-.468807E-01
       N       E                     dE             d eps       ncg     rms          rms(c)
DAV:   1    -0.191639371864E+03   -0.16000E-01   -0.32198E-01  8160   0.121E+00    0.147E-01
DAV:   2    -0.191640859554E+03   -0.14877E-02   -0.10261E-02 13520   0.406E-01    0.322E-01
DAV:   3    -0.191639845607E+03    0.10139E-02   -0.35619E-03 11360   0.421E-01    0.157E-01
DAV:   4    -0.191639826850E+03    0.18757E-04   -0.96619E-04  8680   0.192E-01
  12 F= -.19163983E+03 E0= -.19153138E+03  d E =-.165500E-01
       N       E                     dE             d eps       ncg     rms          rms(c)
DAV:   1    -0.191552837100E+03    0.87009E-01   -0.84913E+00  8160   0.619E+00    0.703E-01
DAV:   2    -0.191596503718E+03   -0.43667E-01   -0.26645E-01 13600   0.216E+00    0.167E+00
DAV:   3    -0.191564814870E+03    0.31689E-01   -0.76811E-02 12080   0.202E+00    0.606E-01
DAV:   4    -0.191564186645E+03    0.62823E-03   -0.18240E-02 12080   0.773E-01    0.629E-01
DAV:   5    -0.191561178848E+03    0.30078E-02   -0.12992E-02 11080   0.722E-01    0.332E-01
DAV:   6    -0.191560221715E+03    0.95713E-03   -0.37789E-03 11480   0.330E-01    0.144E-01
DAV:   7    -0.191560276955E+03   -0.55240E-04   -0.19086E-03 12040   0.239E-01    0.198E-01
DAV:   8    -0.191559918042E+03    0.35891E-03   -0.11300E-03  8880   0.227E-01    0.794E-02
DAV:   9    -0.191559858932E+03    0.59110E-04   -0.16452E-04  6040   0.755E-02
  13 F= -.19155986E+03 E0= -.19144934E+03  d E =0.799679E-01
       N       E                     dE             d eps       ncg     rms          rms(c)
DAV:   1    -0.191452001094E+03    0.10792E+00   -0.16465E+01  8160   0.862E+00    0.960E-01
DAV:   2    -0.191521537335E+03   -0.69536E-01   -0.49202E-01 13600   0.266E+00    0.199E+00
DAV:   3    -0.191478141884E+03    0.43395E-01   -0.12959E-01 12000   0.257E+00    0.942E-01
DAV:   4    -0.191473922879E+03    0.42190E-02   -0.34039E-02 12240   0.108E+00    0.785E-01
DAV:   5    -0.191470110856E+03    0.38120E-02   -0.24149E-02 11280   0.986E-01    0.547E-01
DAV:   6    -0.191467471418E+03    0.26394E-02   -0.87826E-03 11920   0.554E-01    0.223E-01
DAV:   7    -0.191467385859E+03    0.85560E-04   -0.36360E-03 11960   0.313E-01    0.243E-01
DAV:   8    -0.191466887850E+03    0.49801E-03   -0.19890E-03 10160   0.298E-01    0.131E-01
DAV:   9    -0.191466712486E+03    0.17536E-03   -0.41495E-04  8800   0.120E-01    0.341E-02
DAV:  10    -0.191466699106E+03    0.13379E-04   -0.94994E-05  7520   0.354E-02
  14 F= -.19146670E+03 E0= -.19135769E+03  d E =0.931598E-01
       N       E                     dE             d eps       ncg     rms          rms(c)
DAV:   1    -0.191468106290E+03   -0.13938E-02   -0.19434E+00  8160   0.294E+00    0.340E-01
DAV:   2    -0.191475956341E+03   -0.78501E-02   -0.62373E-02 12560   0.982E-01    0.762E-01
DAV:   3    -0.191471720501E+03    0.42358E-02   -0.21996E-02 12200   0.939E-01    0.440E-01
DAV:   4    -0.191470063921E+03    0.16566E-02   -0.52648E-03 10880   0.399E-01    0.170E-01
DAV:   5    -0.191470004719E+03    0.59202E-04   -0.21498E-03 11480   0.289E-01    0.203E-01
DAV:   6    -0.191469694429E+03    0.31029E-03   -0.14864E-03  9960   0.274E-01    0.104E-01
DAV:   7    -0.191469585462E+03    0.10897E-03   -0.33769E-04  8120   0.106E-01    0.390E-02
DAV:   8    -0.191469593613E+03   -0.81513E-05   -0.12741E-04  7040   0.757E-02
  15 F= -.19146959E+03 E0= -.19135990E+03  d E =-.289451E-02
       N       E                     dE             d eps       ncg     rms          rms(c)
DAV:   1    -0.191446729894E+03    0.22856E-01   -0.89958E+00  8160   0.630E+00    0.664E-01
DAV:   2    -0.191478272777E+03   -0.31543E-01   -0.22551E-01 13400   0.180E+00    0.152E+00
DAV:   3    -0.191461147190E+03    0.17126E-01   -0.78960E-02 12400   0.186E+00    0.837E-01
DAV:   4    -0.191456097564E+03    0.50496E-02   -0.19011E-02 11920   0.780E-01    0.466E-01
DAV:   5    -0.191454659337E+03    0.14382E-02   -0.93864E-03 11560   0.677E-01    0.378E-01
DAV:   6    -0.191453693585E+03    0.96575E-03   -0.55946E-03 11680   0.491E-01    0.252E-01
DAV:   7    -0.191454300933E+03   -0.60735E-03   -0.48617E-03 10960   0.452E-01    0.358E-01
DAV:   8    -0.191453024242E+03    0.12767E-02   -0.24339E-03  9840   0.329E-01    0.565E-02
DAV:   9    -0.191453002041E+03    0.22201E-04   -0.13107E-04  5680   0.505E-02
  16 F= -.19145300E+03 E0= -.19134422E+03  d E =0.165916E-01
       N       E                     dE             d eps       ncg     rms          rms(c)
DAV:   1    -0.191480008085E+03   -0.26984E-01   -0.27498E+00  8160   0.354E+00    0.417E-01
DAV:   2    -0.191493231045E+03   -0.13223E-01   -0.91486E-02 13240   0.123E+00    0.956E-01
DAV:   3    -0.191484787923E+03    0.84431E-02   -0.32534E-02 12040   0.122E+00    0.456E-01
DAV:   4    -0.191484357944E+03    0.42998E-03   -0.85333E-03 11120   0.567E-01    0.430E-01
DAV:   5    -0.191482571053E+03    0.17869E-02   -0.46802E-03 10520   0.461E-01    0.182E-01
DAV:   6    -0.191482295197E+03    0.27586E-03   -0.14162E-03 10160   0.185E-01    0.103E-01
DAV:   7    -0.191482535427E+03   -0.24023E-03   -0.11996E-03 10840   0.218E-01    0.200E-01
DAV:   8    -0.191482145194E+03    0.39023E-03   -0.66947E-04  8560   0.178E-01    0.268E-02
DAV:   9    -0.191482157155E+03   -0.11961E-04   -0.41043E-05  5840   0.294E-02
  17 F= -.19148216E+03 E0= -.19137133E+03  d E =-.291551E-01
       N       E                     dE             d eps       ncg     rms          rms(c)
DAV:   1    -0.191495321615E+03   -0.13176E-01   -0.61855E-01  8160   0.168E+00    0.195E-01
DAV:   2    -0.191498651124E+03   -0.33295E-02   -0.21852E-02 13240   0.642E-01    0.514E-01
DAV:   3    -0.191496379655E+03    0.22715E-02   -0.77885E-03 11560   0.567E-01    0.206E-01
DAV:   4    -0.191496323859E+03    0.55797E-04   -0.17711E-03  9800   0.268E-01    0.194E-01
DAV:   5    -0.191495964450E+03    0.35941E-03   -0.10137E-03 10000   0.226E-01    0.897E-02
DAV:   6    -0.191495905029E+03    0.59421E-04   -0.35316E-04  7280   0.979E-02
  18 F= -.19149591E+03 E0= -.19138441E+03  d E =-.137479E-01
       N       E                     dE             d eps       ncg     rms          rms(c)
DAV:   1    -0.191474821197E+03    0.21143E-01   -0.10923E+00  8160   0.224E+00    0.252E-01
DAV:   2    -0.191480303405E+03   -0.54822E-02   -0.36628E-02 12920   0.780E-01    0.639E-01
DAV:   3    -0.191476708031E+03    0.35954E-02   -0.11541E-02 11680   0.726E-01    0.264E-01
DAV:   4    -0.191476281333E+03    0.42670E-03   -0.22742E-03 10960   0.285E-01    0.175E-01
DAV:   5    -0.191476027496E+03    0.25384E-03   -0.11611E-03 10280   0.246E-01    0.129E-01
DAV:   6    -0.191475884396E+03    0.14310E-03   -0.63930E-04  8560   0.160E-01    0.645E-02
DAV:   7    -0.191475874174E+03    0.10222E-04   -0.29149E-04  7520   0.937E-02
  19 F= -.19147587E+03 E0= -.19136514E+03  d E =0.200309E-01
       N       E                     dE             d eps       ncg     rms          rms(c)
DAV:   1    -0.191449672290E+03    0.26212E-01   -0.38194E+00  8160   0.416E+00    0.436E-01
DAV:   2    -0.191461279284E+03   -0.11607E-01   -0.10565E-01 13480   0.115E+00    0.853E-01
DAV:   3    -0.191457253752E+03    0.40255E-02   -0.30117E-02 12560   0.113E+00    0.611E-01
DAV:   4    -0.191454205493E+03    0.30483E-02   -0.87254E-03 11800   0.535E-01    0.224E-01
DAV:   5    -0.191453585400E+03    0.62009E-03   -0.26888E-03 10800   0.288E-01    0.186E-01
DAV:   6    -0.191454016533E+03   -0.43113E-03   -0.28763E-03 11800   0.370E-01    0.261E-01
DAV:   7    -0.191453392739E+03    0.62379E-03   -0.16865E-03  9960   0.268E-01    0.126E-01
DAV:   8    -0.191453257948E+03    0.13479E-03   -0.41540E-04  8440   0.140E-01    0.446E-02
DAV:   9    -0.191453244223E+03    0.13725E-04   -0.56554E-05  6320   0.431E-02
  20 F= -.19145324E+03 E0= -.19134337E+03  d E =0.226300E-01
       N       E                     dE             d eps       ncg     rms          rms(c)
DAV:   1    -0.191452162417E+03    0.10955E-02   -0.11281E-02  8160   0.222E-01    0.264E-02
DAV:   2    -0.191452231451E+03   -0.69034E-04   -0.33762E-04  9840   0.960E-02
  21 F= -.19145223E+03 E0= -.19134256E+03  d E =0.101277E-02
       N       E                     dE             d eps       ncg     rms          rms(c)
DAV:   1    -0.191449966682E+03    0.21957E-02   -0.12324E-01  8160   0.771E-01    0.106E-01
DAV:   2    -0.191451021397E+03   -0.10547E-02   -0.53958E-03 12680   0.365E-01    0.335E-01
DAV:   3    -0.191450002128E+03    0.10193E-02   -0.26432E-03  9840   0.327E-01    0.924E-02
DAV:   4    -0.191449988256E+03    0.13872E-04   -0.41328E-04  8360   0.126E-01
  22 F= -.19144999E+03 E0= -.19134026E+03  d E =0.224319E-02
       N       E                     dE             d eps       ncg     rms          rms(c)
DAV:   1    -0.191474017822E+03   -0.24016E-01   -0.20524E+00  8160   0.305E+00    0.372E-01
DAV:   2    -0.191490154616E+03   -0.16137E-01   -0.89205E-02 13480   0.134E+00    0.116E+00
DAV:   3    -0.191478188281E+03    0.11966E-01   -0.37118E-02 12440   0.122E+00    0.357E-01
DAV:   4    -0.191477913582E+03    0.27470E-03   -0.50473E-03 11240   0.420E-01    0.322E-01
DAV:   5    -0.191476803227E+03    0.11104E-02   -0.24486E-03 10040   0.355E-01    0.128E-01
DAV:   6    -0.191476850651E+03   -0.47424E-04   -0.10687E-03 10560   0.182E-01    0.142E-01
DAV:   7    -0.191476927509E+03   -0.76858E-04   -0.13648E-03 10000   0.245E-01    0.175E-01
DAV:   8    -0.191476599956E+03    0.32755E-03   -0.54963E-04  8600   0.155E-01    0.194E-02
DAV:   9    -0.191476615368E+03   -0.15412E-04   -0.41525E-05  6240   0.243E-02
  23 F= -.19147662E+03 E0= -.19136514E+03  d E =-.266271E-01
       N       E                     dE             d eps       ncg     rms          rms(c)
DAV:   1    -0.191487050253E+03   -0.10450E-01   -0.38512E-01  8160   0.132E+00    0.190E-01
DAV:   2    -0.191491222095E+03   -0.41718E-02   -0.18035E-02 13600   0.755E-01    0.603E-01
DAV:   3    -0.191487313453E+03    0.39086E-02   -0.80877E-03 11440   0.626E-01    0.130E-01
DAV:   4    -0.191487665773E+03   -0.35232E-03   -0.16820E-03  9800   0.259E-01    0.236E-01
DAV:   5    -0.191487125815E+03    0.53996E-03   -0.11606E-03  9040   0.219E-01    0.601E-02
DAV:   6    -0.191487113053E+03    0.12762E-04   -0.17702E-04  5600   0.629E-02
  24 F= -.19148711E+03 E0= -.19137470E+03  d E =-.104977E-01
       N       E                     dE             d eps       ncg     rms          rms(c)
DAV:   1    -0.191500855354E+03   -0.13730E-01   -0.53973E-01  8160   0.158E+00    0.209E-01
DAV:   2    -0.191505475871E+03   -0.46205E-02   -0.23421E-02 12960   0.741E-01    0.642E-01
DAV:   3    -0.191501599212E+03    0.38767E-02   -0.10337E-02 10800   0.657E-01    0.190E-01
DAV:   4    -0.191501856825E+03   -0.25761E-03   -0.22038E-03  9640   0.309E-01    0.248E-01
DAV:   5    -0.191501198830E+03    0.65799E-03   -0.12462E-03  9520   0.242E-01    0.641E-02
DAV:   6    -0.191501210844E+03   -0.12013E-04   -0.28024E-04  6920   0.822E-02
  25 F= -.19150121E+03 E0= -.19138773E+03  d E =-.140978E-01
       N       E                     dE             d eps       ncg     rms          rms(c)
DAV:   1    -0.191510905977E+03   -0.97071E-02   -0.39288E-01  8160   0.133E+00    0.200E-01
DAV:   2    -0.191517879875E+03   -0.69739E-02   -0.22437E-02 13600   0.839E-01    0.824E-01
DAV:   3    -0.191511237746E+03    0.66421E-02   -0.13993E-02 11080   0.776E-01    0.143E-01
DAV:   4    -0.191511464661E+03   -0.22692E-03   -0.14807E-03 10040   0.244E-01    0.187E-01
DAV:   5    -0.191511071732E+03    0.39293E-03   -0.65948E-04  8200   0.177E-01    0.440E-02
DAV:   6    -0.191511108815E+03   -0.37083E-04   -0.17164E-04  6000   0.661E-02
  26 F= -.19151111E+03 E0= -.19139698E+03  d E =-.989797E-02
       N       E                     dE             d eps       ncg     rms          rms(c)
DAV:   1    -0.191502549487E+03    0.85222E-02   -0.24575E+00  8160   0.328E+00    0.415E-01
DAV:   2    -0.191522797754E+03   -0.20248E-01   -0.86631E-02 12560   0.172E+00    0.130E+00
DAV:   3    -0.191504713146E+03    0.18085E-01   -0.34051E-02 12080   0.133E+00    0.328E-01
DAV:   4    -0.191505448237E+03   -0.73509E-03   -0.75196E-03  9760   0.543E-01    0.438E-01
DAV:   5    -0.191503762494E+03    0.16857E-02   -0.49452E-03 10080   0.458E-01    0.173E-01
DAV:   6    -0.191503629456E+03    0.13304E-03   -0.15692E-03 10400   0.220E-01    0.152E-01
DAV:   7    -0.191503710925E+03   -0.81469E-04   -0.16344E-03  9960   0.257E-01    0.174E-01
DAV:   8    -0.191503397356E+03    0.31357E-03   -0.61514E-04  8320   0.152E-01    0.245E-02
DAV:   9    -0.191503405475E+03   -0.81186E-05   -0.43131E-05  6200   0.265E-02
  27 F= -.19150341E+03 E0= -.19139043E+03  d E =0.770334E-02
       N       E                     dE             d eps       ncg     rms          rms(c)
DAV:   1    -0.191501151762E+03    0.22456E-02   -0.97712E-01  8160   0.206E+00    0.206E-01
DAV:   2    -0.191504188730E+03   -0.30370E-02   -0.20327E-02 12440   0.558E-01    0.450E-01
DAV:   3    -0.191502261234E+03    0.19275E-02   -0.62902E-03 11480   0.563E-01    0.220E-01
DAV:   4    -0.191502254661E+03    0.65732E-05   -0.20043E-03  9560   0.273E-01    0.215E-01
DAV:   5    -0.191501834379E+03    0.42028E-03   -0.12378E-03  9560   0.239E-01    0.938E-02
DAV:   6    -0.191501808240E+03    0.26140E-04   -0.36605E-04  7720   0.107E-01
  28 F= -.19150181E+03 E0= -.19138942E+03  d E =0.159724E-02
       N       E                     dE             d eps       ncg     rms          rms(c)
DAV:   1    -0.191527663189E+03   -0.25829E-01   -0.18234E+00  8160   0.292E+00    0.367E-01
DAV:   2    -0.191538301170E+03   -0.10638E-01   -0.68017E-02 13280   0.112E+00    0.979E-01
DAV:   3    -0.191530172454E+03    0.81287E-02   -0.29400E-02 12320   0.108E+00    0.379E-01
DAV:   4    -0.191529384020E+03    0.78843E-03   -0.52840E-03 11360   0.419E-01    0.272E-01
DAV:   5    -0.191528822308E+03    0.56171E-03   -0.29651E-03 10920   0.386E-01    0.213E-01
DAV:   6    -0.191528458711E+03    0.36360E-03   -0.16557E-03  9720   0.254E-01    0.120E-01
DAV:   7    -0.191528588408E+03   -0.12970E-03   -0.11726E-03  9760   0.225E-01    0.174E-01
DAV:   8    -0.191528270181E+03    0.31823E-03   -0.58761E-04  8440   0.163E-01    0.274E-02
DAV:   9    -0.191528272706E+03   -0.25248E-05   -0.42007E-05  5920   0.288E-02
  29 F= -.19152827E+03 E0= -.19141495E+03  d E =-.264645E-01
       N       E                     dE             d eps       ncg     rms          rms(c)
DAV:   1    -0.191531124422E+03   -0.28542E-02   -0.25219E-02  8160   0.339E-01    0.392E-02
DAV:   2    -0.191531207118E+03   -0.82695E-04   -0.77422E-04 12240   0.105E-01
  30 F= -.19153121E+03 E0= -.19141751E+03  d E =-.293441E-02
       N       E                     dE             d eps       ncg     rms          rms(c)
DAV:   1    -0.191555189613E+03   -0.24065E-01   -0.13329E+00  8160   0.247E+00    0.281E-01
DAV:   2    -0.191558745321E+03   -0.35557E-02   -0.38793E-02 12080   0.653E-01    0.471E-01
DAV:   3    -0.191557962732E+03    0.78259E-03   -0.12513E-02 12680   0.707E-01    0.418E-01
DAV:   4    -0.191556575549E+03    0.13872E-02   -0.42957E-03 11000   0.387E-01    0.183E-01
DAV:   5    -0.191556360020E+03    0.21553E-03   -0.15652E-03 10200   0.270E-01    0.170E-01
DAV:   6    -0.191556192936E+03    0.16708E-03   -0.11709E-03 10360   0.232E-01    0.109E-01
DAV:   7    -0.191556202425E+03   -0.94891E-05   -0.60836E-04  8520   0.165E-01
  31 F= -.19155620E+03 E0= -.19144263E+03  d E =-.249953E-01
       N       E                     dE             d eps       ncg     rms          rms(c)
DAV:   1    -0.191530252427E+03    0.25941E-01   -0.13950E+00  8160   0.254E+00    0.269E-01
DAV:   2    -0.191533895212E+03   -0.36428E-02   -0.41559E-02 12280   0.648E-01    0.436E-01
DAV:   3    -0.191533583606E+03    0.31161E-03   -0.11174E-02 12400   0.664E-01    0.427E-01
DAV:   4    -0.191531945587E+03    0.16380E-02   -0.39256E-03 10880   0.374E-01    0.126E-01
DAV:   5    -0.191531747961E+03    0.19763E-03   -0.98855E-04 10080   0.162E-01    0.103E-01
DAV:   6    -0.191531950347E+03   -0.20239E-03   -0.10678E-03 11520   0.227E-01    0.168E-01
DAV:   7    -0.191531654341E+03    0.29601E-03   -0.62257E-04  8440   0.166E-01    0.614E-02
DAV:   8    -0.191531627757E+03    0.26584E-04   -0.12019E-04  5760   0.775E-02
  32 F= -.19153163E+03 E0= -.19141781E+03  d E =0.245747E-01
       N       E                     dE             d eps       ncg     rms          rms(c)
DAV:   1    -0.191500875841E+03    0.30778E-01   -0.37475E+00  8160   0.413E+00    0.447E-01
DAV:   2    -0.191516251394E+03   -0.15376E-01   -0.11534E-01 13520   0.135E+00    0.105E+00
DAV:   3    -0.191507739984E+03    0.85114E-02   -0.35921E-02 12320   0.125E+00    0.507E-01
DAV:   4    -0.191506406330E+03    0.13337E-02   -0.91504E-03 11200   0.563E-01    0.356E-01
DAV:   5    -0.191505233729E+03    0.11726E-02   -0.46783E-03 11320   0.471E-01    0.239E-01
DAV:   6    -0.191504852211E+03    0.38152E-03   -0.22331E-03 12200   0.284E-01    0.131E-01
DAV:   7    -0.191504863870E+03   -0.11659E-04   -0.12046E-03 10520   0.198E-01    0.169E-01
DAV:   8    -0.191504588386E+03    0.27548E-03   -0.62969E-04  8560   0.160E-01    0.353E-02
DAV:   9    -0.191504589612E+03   -0.12259E-05   -0.51807E-05  5800   0.342E-02
  33 F= -.19150459E+03 E0= -.19139057E+03  d E =0.270381E-01
       N       E                     dE             d eps       ncg     rms          rms(c)
DAV:   1    -0.191530803927E+03   -0.26216E-01   -0.18641E+00  8160   0.292E+00    0.352E-01
DAV:   2    -0.191540076192E+03   -0.92723E-02   -0.68655E-02 12360   0.106E+00    0.827E-01
DAV:   3    -0.191534562008E+03    0.55142E-02   -0.24418E-02 11960   0.994E-01    0.398E-01
DAV:   4    -0.191534412658E+03    0.14935E-03   -0.66809E-03 10840   0.515E-01    0.393E-01
DAV:   5    -0.191532823902E+03    0.15888E-02   -0.35062E-03 10080   0.407E-01    0.130E-01
DAV:   6    -0.191532729624E+03    0.94278E-04   -0.97086E-04 10160   0.147E-01
  34 F= -.19153273E+03 E0= -.19141759E+03  d E =-.281400E-01
       N       E                     dE             d eps       ncg     rms          rms(c)
DAV:   1    -0.191518632676E+03    0.14191E-01   -0.84592E-01  8160   0.194E+00    0.220E-01
DAV:   2    -0.191522614792E+03   -0.39821E-02   -0.25536E-02 13600   0.671E-01    0.515E-01
DAV:   3    -0.191519756769E+03    0.28580E-02   -0.83161E-03 11480   0.630E-01    0.207E-01
DAV:   4    -0.191519718544E+03    0.38225E-04   -0.20515E-03  9960   0.272E-01    0.209E-01
DAV:   5    -0.191519353362E+03    0.36518E-03   -0.12240E-03  9920   0.238E-01    0.105E-01
DAV:   6    -0.191519263862E+03    0.89499E-04   -0.40535E-04  8320   0.112E-01
  35 F= -.19151926E+03 E0= -.19140496E+03  d E =0.134658E-01
       N       E                     dE             d eps       ncg     rms          rms(c)
DAV:   1    -0.191465941096E+03    0.53412E-01   -0.98303E+00  8160   0.668E+00    0.759E-01
DAV:   2    -0.191507417962E+03   -0.41477E-01   -0.30373E-01 13320   0.218E+00    0.160E+00
DAV:   3    -0.191481752069E+03    0.25666E-01   -0.82094E-02 11640   0.204E+00    0.801E-01
DAV:   4    -0.191481451908E+03    0.30016E-03   -0.28558E-02 11920   0.104E+00    0.842E-01
DAV:   5    -0.191475044321E+03    0.64076E-02   -0.17803E-02 10600   0.868E-01    0.309E-01
DAV:   6    -0.191474674139E+03    0.37018E-03   -0.49814E-03 11120   0.361E-01    0.249E-01
DAV:   7    -0.191475416780E+03   -0.74264E-03   -0.55152E-03 12640   0.482E-01    0.405E-01
DAV:   8    -0.191473819218E+03    0.15976E-02   -0.27335E-03  9760   0.345E-01    0.450E-02
DAV:   9    -0.191473835760E+03   -0.16541E-04   -0.14649E-04  5640   0.499E-02
  36 F= -.19147384E+03 E0= -.19136314E+03  d E =0.454281E-01
       N       E                     dE             d eps       ncg     rms          rms(c)
DAV:   1    -0.191500457666E+03   -0.26638E-01   -0.20488E+00  8160   0.307E+00    0.368E-01
DAV:   2    -0.191512308861E+03   -0.11851E-01   -0.76924E-02 12600   0.117E+00    0.961E-01
DAV:   3    -0.191504455349E+03    0.78535E-02   -0.29306E-02 12240   0.109E+00    0.401E-01
DAV:   4    -0.191504510254E+03   -0.54905E-04   -0.70006E-03 11000   0.532E-01    0.411E-01
DAV:   5    -0.191502718335E+03    0.17919E-02   -0.35311E-03  9920   0.422E-01    0.132E-01
DAV:   6    -0.191502629066E+03    0.89269E-04   -0.98768E-04 10400   0.148E-01
  37 F= -.19150263E+03 E0= -.19139080E+03  d E =-.287933E-01
       N       E                     dE             d eps       ncg     rms          rms(c)
DAV:   1    -0.191469031930E+03    0.33686E-01   -0.26494E+00  8160   0.350E+00    0.424E-01
DAV:   2    -0.191484769512E+03   -0.15738E-01   -0.96440E-02 12760   0.132E+00    0.111E+00
DAV:   3    -0.191473233264E+03    0.11536E-01   -0.35473E-02 11920   0.125E+00    0.436E-01
DAV:   4    -0.191472681681E+03    0.55158E-03   -0.75282E-03 10000   0.534E-01    0.388E-01
DAV:   5    -0.191471271461E+03    0.14102E-02   -0.43481E-03 10560   0.468E-01    0.211E-01
DAV:   6    -0.191471093826E+03    0.17764E-03   -0.20714E-03 11160   0.272E-01    0.192E-01
DAV:   7    -0.191471120314E+03   -0.26488E-04   -0.19865E-03 10000   0.296E-01    0.192E-01
DAV:   8    -0.191470706701E+03    0.41361E-03   -0.67239E-04  8480   0.167E-01    0.232E-02
DAV:   9    -0.191470716682E+03   -0.99818E-05   -0.56333E-05  6280   0.280E-02
  38 F= -.19147072E+03 E0= -.19136020E+03  d E =0.319124E-01
       N       E                     dE             d eps       ncg     rms          rms(c)
DAV:   1    -0.191413467538E+03    0.57239E-01   -0.91957E+00  8160   0.654E+00    0.736E-01
DAV:   2    -0.191446206875E+03   -0.32739E-01   -0.29013E-01 12920   0.186E+00    0.143E+00
DAV:   3    -0.191432812252E+03    0.13395E-01   -0.85611E-02 12400   0.194E+00    0.995E-01
DAV:   4    -0.191425959714E+03    0.68525E-02   -0.25921E-02 12320   0.994E-01    0.577E-01
DAV:   5    -0.191423232120E+03    0.27276E-02   -0.12120E-02 10840   0.779E-01    0.415E-01
DAV:   6    -0.191421789425E+03    0.14427E-02   -0.60866E-03 11520   0.501E-01    0.235E-01
DAV:   7    -0.191422785078E+03   -0.99565E-03   -0.50082E-03 11600   0.472E-01    0.421E-01
DAV:   8    -0.191421064842E+03    0.17202E-02   -0.28295E-03  9920   0.372E-01    0.602E-02
DAV:   9    -0.191421048782E+03    0.16061E-04   -0.16074E-04  5760   0.571E-02
  39 F= -.19142105E+03 E0= -.19131197E+03  d E =0.496679E-01
       N       E                     dE             d eps       ncg     rms          rms(c)
DAV:   1    -0.191436171236E+03   -0.15106E-01   -0.10580E+00  8160   0.219E+00    0.294E-01
DAV:   2    -0.191449888281E+03   -0.13717E-01   -0.53536E-02 13440   0.114E+00    0.115E+00
DAV:   3    -0.191437961895E+03    0.11926E-01   -0.28788E-02 11520   0.108E+00    0.246E-01
DAV:   4    -0.191438123627E+03   -0.16173E-03   -0.29863E-03 11240   0.344E-01    0.273E-01
DAV:   5    -0.191437331327E+03    0.79230E-03   -0.15333E-03  9880   0.284E-01    0.929E-02
DAV:   6    -0.191437401407E+03   -0.70080E-04   -0.59878E-04  9200   0.152E-01
  40 F= -.19143740E+03 E0= -.19132790E+03  d E =-.163526E-01
       N       E                     dE             d eps       ncg     rms          rms(c)
DAV:   1    -0.191445498159E+03   -0.81668E-02   -0.24588E-01  8160   0.108E+00    0.194E-01
DAV:   2    -0.191451485516E+03   -0.59874E-02   -0.17761E-02 12040   0.811E-01    0.777E-01
DAV:   3    -0.191445617752E+03    0.58678E-02   -0.10998E-02 10240   0.716E-01    0.159E-01
DAV:   4    -0.191445730982E+03   -0.11323E-03   -0.13674E-03 10040   0.250E-01    0.173E-01
DAV:   5    -0.191445406786E+03    0.32420E-03   -0.59351E-04  8920   0.167E-01    0.496E-02
DAV:   6    -0.191445466976E+03   -0.60190E-04   -0.27539E-04  7120   0.102E-01
  41 F= -.19144547E+03 E0= -.19133561E+03  d E =-.806557E-02
       N       E                     dE             d eps       ncg     rms          rms(c)
DAV:   1    -0.191456357592E+03   -0.10951E-01   -0.46816E-01  8160   0.147E+00    0.203E-01
DAV:   2    -0.191461857267E+03   -0.54997E-02   -0.22851E-02 13000   0.757E-01    0.721E-01
DAV:   3    -0.191457028094E+03    0.48292E-02   -0.11708E-02 11400   0.700E-01    0.184E-01
DAV:   4    -0.191457126992E+03   -0.98897E-04   -0.17186E-03  9920   0.270E-01    0.201E-01
DAV:   5    -0.191456714802E+03    0.41219E-03   -0.91275E-04  9920   0.217E-01    0.741E-02
DAV:   6    -0.191456677776E+03    0.37026E-04   -0.24880E-04  7080   0.887E-02
  42 F= -.19145668E+03 E0= -.19134650E+03  d E =-.112108E-01
       N       E                     dE             d eps       ncg     rms          rms(c)
DAV:   1    -0.191455713627E+03    0.10012E-02   -0.34566E-02  8160   0.423E-01    0.144E-01
DAV:   2    -0.191461143578E+03   -0.54300E-02   -0.11696E-02 11720   0.761E-01    0.754E-01
DAV:   3    -0.191455471777E+03    0.56718E-02   -0.84240E-03 10280   0.649E-01    0.628E-02
DAV:   4    -0.191455548661E+03   -0.76885E-04   -0.27307E-04  7600   0.107E-01
  43 F= -.19145555E+03 E0= -.19134523E+03  d E =0.112911E-02
       N       E                     dE             d eps       ncg     rms          rms(c)
DAV:   1    -0.191442735021E+03    0.12737E-01   -0.80712E-01  8160   0.193E+00    0.232E-01
DAV:   2    -0.191445855693E+03   -0.31207E-02   -0.25459E-02 13440   0.632E-01    0.477E-01
DAV:   3    -0.191444048498E+03    0.18072E-02   -0.83777E-03 12200   0.613E-01    0.289E-01
DAV:   4    -0.191443645533E+03    0.40296E-03   -0.28897E-03 10760   0.335E-01    0.215E-01
DAV:   5    -0.191443309117E+03    0.33642E-03   -0.15674E-03  9600   0.273E-01    0.140E-01
DAV:   6    -0.191443108600E+03    0.20052E-03   -0.60601E-04  8520   0.154E-01    0.598E-02
DAV:   7    -0.191443209216E+03   -0.10062E-03   -0.43513E-04  9040   0.134E-01    0.119E-01
DAV:   8    -0.191443068631E+03    0.14058E-03   -0.25996E-04  6480   0.118E-01    0.243E-02
DAV:   9    -0.191443072749E+03   -0.41183E-05   -0.28556E-05  5600   0.263E-02
  44 F= -.19144307E+03 E0= -.19133281E+03  d E =0.124759E-01
       N       E                     dE             d eps       ncg     rms          rms(c)
DAV:   1    -0.191460480093E+03   -0.17411E-01   -0.13227E+00  8160   0.247E+00    0.363E-01
DAV:   2    -0.191480426819E+03   -0.19947E-01   -0.75339E-02 13000   0.148E+00    0.142E+00
DAV:   3    -0.191462114113E+03    0.18313E-01   -0.43043E-02 12080   0.132E+00    0.285E-01
DAV:   4    -0.191462453833E+03   -0.33972E-03   -0.47803E-03 11520   0.451E-01    0.348E-01
DAV:   5    -0.191461252028E+03    0.12018E-02   -0.29346E-03 10280   0.382E-01    0.146E-01
DAV:   6    -0.191461296198E+03   -0.44171E-04   -0.13204E-03 10040   0.225E-01    0.180E-01
DAV:   7    -0.191461087211E+03    0.20899E-03   -0.11389E-03  8960   0.230E-01    0.101E-01
DAV:   8    -0.191460964958E+03    0.12225E-03   -0.22233E-04  6360   0.928E-02    0.170E-02
DAV:   9    -0.191460967633E+03   -0.26745E-05   -0.49495E-05  7400   0.249E-02
  45 F= -.19146097E+03 E0= -.19135014E+03  d E =-.178949E-01
       N       E                     dE             d eps       ncg     rms          rms(c)
DAV:   1    -0.191467350463E+03   -0.63855E-02   -0.17124E-01  8160   0.884E-01    0.117E-01
DAV:   2    -0.191469296701E+03   -0.19462E-02   -0.81122E-03 13360   0.439E-01    0.433E-01
DAV:   3    -0.191467564985E+03    0.17317E-02   -0.41399E-03 11040   0.412E-01    0.979E-02
DAV:   4    -0.191467557608E+03    0.73764E-05   -0.37033E-04  8200   0.108E-01
  46 F= -.19146756E+03 E0= -.19135667E+03  d E =-.658998E-02
       N       E                     dE             d eps       ncg     rms          rms(c)
DAV:   1    -0.191422043217E+03    0.45522E-01   -0.72433E+00  8160   0.577E+00    0.729E-01
DAV:   2    -0.191493982596E+03   -0.71939E-01   -0.31534E-01 13600   0.270E+00    0.254E+00
DAV:   3    -0.191433881182E+03    0.60101E-01   -0.14860E-01 12480   0.252E+00    0.678E-01
DAV:   4    -0.191432437694E+03    0.14435E-02   -0.19569E-02 11280   0.885E-01    0.624E-01
DAV:   5    -0.191428526934E+03    0.39108E-02   -0.10539E-02 12360   0.750E-01    0.277E-01
DAV:   6    -0.191427476354E+03    0.10506E-02   -0.28506E-03 11720   0.295E-01    0.111E-01
DAV:   7    -0.191427425752E+03    0.50602E-04   -0.11645E-03 11560   0.135E-01    0.893E-02
DAV:   8    -0.191427350629E+03    0.75123E-04   -0.40789E-04  8640   0.127E-01
  47 F= -.19142735E+03 E0= -.19131702E+03  d E =0.402070E-01
       N       E                     dE             d eps       ncg     rms          rms(c)
DAV:   1    -0.191433031758E+03   -0.56060E-02   -0.30190E-01  8160   0.117E+00    0.155E-01
DAV:   2    -0.191435633959E+03   -0.26022E-02   -0.13047E-02 12720   0.490E-01    0.489E-01
DAV:   3    -0.191433478465E+03    0.21555E-02   -0.62061E-03 11520   0.502E-01    0.163E-01
DAV:   4    -0.191433382059E+03    0.96406E-04   -0.88687E-04  8760   0.173E-01
  48 F= -.19143338E+03 E0= -.19132291E+03  d E =-.603143E-02
       N       E                     dE             d eps       ncg     rms          rms(c)
DAV:   1    -0.191433800168E+03   -0.32170E-03   -0.32624E-01  8160   0.121E+00    0.167E-01
DAV:   2    -0.191435444309E+03   -0.16441E-02   -0.10790E-02 13160   0.433E-01    0.427E-01
DAV:   3    -0.191434046173E+03    0.13981E-02   -0.52801E-03 11400   0.461E-01    0.187E-01
DAV:   4    -0.191433746823E+03    0.29935E-03   -0.78694E-04  8960   0.145E-01    0.654E-02
DAV:   5    -0.191433757285E+03   -0.10462E-04   -0.37875E-04  8600   0.112E-01
  49 F= -.19143376E+03 E0= -.19132307E+03  d E =-.375226E-03
       N       E                     dE             d eps       ncg     rms          rms(c)
DAV:   1    -0.191443827236E+03   -0.10080E-01   -0.68852E-01  8160   0.179E+00    0.271E-01
DAV:   2    -0.191451773364E+03   -0.79461E-02   -0.34372E-02 13080   0.998E-01    0.892E-01
DAV:   3    -0.191444371801E+03    0.74016E-02   -0.18178E-02 11360   0.886E-01    0.259E-01
DAV:   4    -0.191444459003E+03   -0.87202E-04   -0.36167E-03 11240   0.390E-01    0.284E-01
DAV:   5    -0.191443695187E+03    0.76382E-03   -0.20647E-03  9560   0.310E-01    0.117E-01
DAV:   6    -0.191443539345E+03    0.15584E-03   -0.63461E-04 10160   0.133E-01    0.666E-02
DAV:   7    -0.191443614955E+03   -0.75609E-04   -0.48950E-04  9080   0.146E-01
  50 F= -.19144361E+03 E0= -.19133265E+03  d E =-.985767E-02
       N       E                     dE             d eps       ncg     rms          rms(c)
DAV:   1    -0.191454364997E+03   -0.10826E-01   -0.67324E-01  8160   0.176E+00    0.263E-01
DAV:   2    -0.191466322385E+03   -0.11957E-01   -0.41139E-02 13240   0.109E+00    0.110E+00
DAV:   3    -0.191455292166E+03    0.11030E-01   -0.24849E-02 11520   0.100E+00    0.213E-01
DAV:   4    -0.191455472013E+03   -0.17985E-03   -0.24905E-03 11320   0.318E-01    0.243E-01
DAV:   5    -0.191454887258E+03    0.58475E-03   -0.13319E-03  9880   0.257E-01    0.927E-02
DAV:   6    -0.191454911750E+03   -0.24492E-04   -0.52453E-04  8720   0.145E-01
  51 F= -.19145491E+03 E0= -.19134356E+03  d E =-.112968E-01
       N       E                     dE             d eps       ncg     rms          rms(c)
DAV:   1    -0.191452439111E+03    0.24481E-02   -0.42973E-02  8160   0.480E-01    0.113E-01
DAV:   2    -0.191455562552E+03   -0.31234E-02   -0.78647E-03 12760   0.557E-01    0.568E-01
DAV:   3    -0.191452361028E+03    0.32015E-02   -0.54411E-03 10000   0.496E-01    0.582E-02
DAV:   4    -0.191452376463E+03   -0.15435E-04   -0.18337E-04  5800   0.722E-02
  52 F= -.19145238E+03 E0= -.19134124E+03  d E =0.253529E-02
       N       E                     dE             d eps       ncg     rms          rms(c)
DAV:   1    -0.191458357984E+03   -0.59970E-02   -0.33845E-01  8160   0.126E+00    0.171E-01
DAV:   2    -0.191459126081E+03   -0.76810E-03   -0.11914E-02 12600   0.399E-01    0.271E-01
DAV:   3    -0.191458896089E+03    0.22999E-03   -0.37636E-03 12160   0.408E-01    0.248E-01
DAV:   4    -0.191458423482E+03    0.47261E-03   -0.16770E-03  9560   0.260E-01    0.135E-01
DAV:   5    -0.191458380932E+03    0.42551E-04   -0.90124E-04  9320   0.207E-01
  53 F= -.19145838E+03 E0= -.19134762E+03  d E =-.600447E-02
       N       E                     dE             d eps       ncg     rms          rms(c)
DAV:   1    -0.191453905927E+03    0.45176E-02   -0.21597E+00  8160   0.323E+00    0.516E-01
DAV:   2    -0.191473034006E+03   -0.19128E-01   -0.10447E-01 13520   0.161E+00    0.152E+00
DAV:   3    -0.191453894354E+03    0.19140E-01   -0.57411E-02 12040   0.155E+00    0.494E-01
DAV:   4    -0.191452816481E+03    0.10779E-02   -0.11179E-02 12240   0.653E-01    0.422E-01
DAV:   5    -0.191451667796E+03    0.11487E-02   -0.76386E-03 11360   0.621E-01    0.352E-01
DAV:   6    -0.191450210848E+03    0.14569E-02   -0.36650E-03 10960   0.376E-01    0.106E-01
DAV:   7    -0.191450102332E+03    0.10852E-03   -0.77160E-04 10280   0.124E-01    0.786E-02
DAV:   8    -0.191450127200E+03   -0.24868E-04   -0.46193E-04  8920   0.139E-01
  54 F= -.19145013E+03 E0= -.19133830E+03  d E =0.825373E-02
       N       E                     dE             d eps       ncg     rms          rms(c)
DAV:   1    -0.191450243287E+03   -0.14095E-03   -0.58187E-04  9680   0.989E-02    0.167E-02
DAV:   2    -0.191450255194E+03   -0.11907E-04   -0.35761E-05  5760   0.332E-02
  55 F= -.19145026E+03 E0= -.19133829E+03  d E =-.127994E-03
       N       E                     dE             d eps       ncg     rms          rms(c)
DAV:   1    -0.191460425133E+03   -0.10182E-01   -0.81810E-01  8160   0.193E+00    0.240E-01
DAV:   2    -0.191466033290E+03   -0.56082E-02   -0.33404E-02 13560   0.804E-01    0.648E-01
DAV:   3    -0.191462215621E+03    0.38177E-02   -0.12378E-02 11320   0.734E-01    0.281E-01
DAV:   4    -0.191461962186E+03    0.25344E-03   -0.29690E-03 10880   0.338E-01    0.240E-01
DAV:   5    -0.191461465627E+03    0.49656E-03   -0.15175E-03  9560   0.270E-01    0.110E-01
DAV:   6    -0.191461332441E+03    0.13319E-03   -0.39036E-04  7960   0.108E-01    0.519E-02
DAV:   7    -0.191461481408E+03   -0.14897E-03   -0.46670E-04  8880   0.138E-01    0.132E-01
DAV:   8    -0.191461308930E+03    0.17248E-03   -0.35453E-04  7280   0.129E-01    0.282E-02
DAV:   9    -0.191461310957E+03   -0.20271E-05   -0.33523E-05  5520   0.265E-02
  56 F= -.19146131E+03 E0= -.19134902E+03  d E =-.110558E-01
       N       E                     dE             d eps       ncg     rms          rms(c)
DAV:   1    -0.191467816303E+03   -0.65074E-02   -0.25334E-01  8160   0.108E+00    0.139E-01
DAV:   2    -0.191470000750E+03   -0.21844E-02   -0.10963E-02 13600   0.482E-01    0.441E-01
DAV:   3    -0.191468259774E+03    0.17410E-02   -0.49942E-03 11200   0.451E-01    0.151E-01
DAV:   4    -0.191468210624E+03    0.49150E-04   -0.84167E-04  8320   0.182E-01
  57 F= -.19146821E+03 E0= -.19135579E+03  d E =-.689967E-02
       N       E                     dE             d eps       ncg     rms          rms(c)
DAV:   1    -0.191430142198E+03    0.38118E-01   -0.67319E+00  8160   0.557E+00    0.641E-01
DAV:   2    -0.191463133393E+03   -0.32991E-01   -0.23234E-01 13480   0.186E+00    0.141E+00
DAV:   3    -0.191442837703E+03    0.20296E-01   -0.63397E-02 11960   0.175E+00    0.729E-01
DAV:   4    -0.191441218435E+03    0.16193E-02   -0.20856E-02 12280   0.877E-01    0.636E-01
DAV:   5    -0.191438066601E+03    0.31518E-02   -0.11831E-02 11160   0.734E-01    0.343E-01
DAV:   6    -0.191436689114E+03    0.13775E-02   -0.32381E-03 11320   0.329E-01    0.114E-01
DAV:   7    -0.191436682101E+03    0.70133E-05   -0.12311E-03 11440   0.125E-01    0.822E-02
DAV:   8    -0.191436503092E+03    0.17901E-03   -0.24267E-04  7560   0.667E-02    0.249E-02
DAV:   9    -0.191436542344E+03   -0.39252E-04   -0.13993E-04  6520   0.767E-02
  58 F= -.19143654E+03 E0= -.19132480E+03  d E =0.316683E-01
       N       E                     dE             d eps       ncg     rms          rms(c)
DAV:   1    -0.191434942384E+03    0.15607E-02   -0.23289E-01  8160   0.104E+00    0.120E-01
DAV:   2    -0.191435914652E+03   -0.97227E-03   -0.77076E-03 12680   0.319E-01    0.268E-01
DAV:   3    -0.191435401053E+03    0.51360E-03   -0.25494E-03 10240   0.326E-01    0.155E-01
DAV:   4    -0.191435234917E+03    0.16614E-03   -0.60516E-04  8320   0.140E-01    0.758E-02
DAV:   5    -0.191435200644E+03    0.34273E-04   -0.24926E-04  7480   0.106E-01
  59 F= -.19143520E+03 E0= -.19132352E+03  d E =0.134170E-02
       N       E                     dE             d eps       ncg     rms          rms(c)
DAV:   1    -0.191448057562E+03   -0.12823E-01   -0.13183E+00  8160   0.246E+00    0.323E-01
DAV:   2    -0.191457142467E+03   -0.90849E-02   -0.50708E-02 13480   0.956E-01    0.894E-01
DAV:   3    -0.191450147378E+03    0.69951E-02   -0.24884E-02 12160   0.102E+00    0.400E-01
DAV:   4    -0.191448908153E+03    0.12392E-02   -0.44123E-03 10960   0.377E-01    0.208E-01
DAV:   5    -0.191448754110E+03    0.15404E-03   -0.21107E-03 10120   0.326E-01    0.209E-01
DAV:   6    -0.191448366127E+03    0.38798E-03   -0.13403E-03  9560   0.238E-01    0.117E-01
DAV:   7    -0.191448483806E+03   -0.11768E-03   -0.96076E-04  9360   0.206E-01    0.158E-01
DAV:   8    -0.191448253975E+03    0.22983E-03   -0.47628E-04  8240   0.152E-01    0.340E-02
DAV:   9    -0.191448247351E+03    0.66244E-05   -0.49118E-05  5800   0.336E-02
  60 F= -.19144825E+03 E0= -.19133666E+03  d E =-.130467E-01
       N       E                     dE             d eps       ncg     rms          rms(c)
DAV:   1    -0.191453301137E+03   -0.50472E-02   -0.41092E-01  8160   0.136E+00    0.233E-01
DAV:   2    -0.191465310451E+03   -0.12009E-01   -0.33468E-02 13440   0.113E+00    0.113E+00
DAV:   3    -0.191453520784E+03    0.11790E-01   -0.21870E-02 11520   0.972E-01    0.142E-01
DAV:   4    -0.191453717509E+03   -0.19673E-03   -0.14577E-03 10120   0.237E-01    0.189E-01
DAV:   5    -0.191453416233E+03    0.30128E-03   -0.94203E-04  9560   0.206E-01    0.904E-02
DAV:   6    -0.191453406577E+03    0.96556E-05   -0.37490E-04  7240   0.128E-01
  61 F= -.19145341E+03 E0= -.19134165E+03  d E =-.515923E-02
       N       E                     dE             d eps       ncg     rms          rms(c)
DAV:   1    -0.191459450933E+03   -0.60347E-02   -0.31753E-01  8160   0.119E+00    0.211E-01
DAV:   2    -0.191468382943E+03   -0.89320E-02   -0.24086E-02 13600   0.957E-01    0.974E-01
DAV:   3    -0.191459481649E+03    0.89013E-02   -0.16529E-02 11360   0.855E-01    0.142E-01
DAV:   4    -0.191459647030E+03   -0.16538E-03   -0.12967E-03 10040   0.235E-01    0.176E-01
DAV:   5    -0.191459379132E+03    0.26790E-03   -0.79301E-04  9200   0.192E-01    0.826E-02
DAV:   6    -0.191459396128E+03   -0.16996E-04   -0.39177E-04  7080   0.131E-01
  62 F= -.19145940E+03 E0= -.19134760E+03  d E =-.598955E-02
       N       E                     dE             d eps       ncg     rms          rms(c)
DAV:   1    -0.191472866435E+03   -0.13487E-01   -0.13052E+00  8160   0.240E+00    0.411E-01
DAV:   2    -0.191507163036E+03   -0.34297E-01   -0.95959E-02 13600   0.187E+00    0.192E+00
DAV:   3    -0.191473524878E+03    0.33638E-01   -0.66936E-02 12120   0.170E+00    0.275E-01
DAV:   4    -0.191473888846E+03   -0.36397E-03   -0.50012E-03 11480   0.429E-01    0.350E-01
DAV:   5    -0.191472928712E+03    0.96013E-03   -0.33975E-03 11120   0.380E-01    0.167E-01
DAV:   6    -0.191472830719E+03    0.97993E-04   -0.12452E-03  9920   0.224E-01    0.159E-01
DAV:   7    -0.191472650640E+03    0.18008E-03   -0.84645E-04  8880   0.204E-01    0.780E-02
DAV:   8    -0.191472587157E+03    0.63482E-04   -0.14255E-04  6640   0.743E-02
  63 F= -.19147259E+03 E0= -.19136070E+03  d E =-.131910E-01
       N       E                     dE             d eps       ncg     rms          rms(c)
DAV:   1    -0.191478589267E+03   -0.59386E-02   -0.24131E-01  8160   0.104E+00    0.159E-01
DAV:   2    -0.191482587902E+03   -0.39986E-02   -0.13882E-02 13600   0.622E-01    0.633E-01
DAV:   3    -0.191478793663E+03    0.37942E-02   -0.83092E-03 11200   0.602E-01    0.132E-01
DAV:   4    -0.191478737188E+03    0.56475E-04   -0.71502E-04  9240   0.144E-01
  64 F= -.19147874E+03 E0= -.19136698E+03  d E =-.615003E-02
       N       E                     dE             d eps       ncg     rms          rms(c)
DAV:   1    -0.191464285899E+03    0.14508E-01   -0.16301E+00  8160   0.272E+00    0.397E-01
DAV:   2    -0.191489984133E+03   -0.25698E-01   -0.88074E-02 13600   0.162E+00    0.155E+00
DAV:   3    -0.191465535505E+03    0.24449E-01   -0.48995E-02 12160   0.150E+00    0.303E-01
DAV:   4    -0.191465210712E+03    0.32479E-03   -0.46060E-03 11240   0.399E-01    0.292E-01
DAV:   5    -0.191464629961E+03    0.58075E-03   -0.29895E-03 12120   0.374E-01    0.190E-01
DAV:   6    -0.191464505523E+03    0.12444E-03   -0.16223E-03  9680   0.249E-01    0.188E-01
DAV:   7    -0.191464246236E+03    0.25929E-03   -0.10342E-03  9520   0.217E-01    0.857E-02
DAV:   8    -0.191464175101E+03    0.71134E-04   -0.18229E-04  7280   0.844E-02
  65 F= -.19146418E+03 E0= -.19135215E+03  d E =0.145621E-01
       N       E                     dE             d eps       ncg     rms          rms(c)
DAV:   1    -0.191456412198E+03    0.78340E-02   -0.57656E-01  8160   0.161E+00    0.235E-01
DAV:   2    -0.191464446892E+03   -0.80347E-02   -0.29186E-02 13600   0.916E-01    0.872E-01
DAV:   3    -0.191456920892E+03    0.75260E-02   -0.16551E-02 11520   0.863E-01    0.202E-01
DAV:   4    -0.191456752800E+03    0.16809E-03   -0.17372E-03 10120   0.245E-01    0.167E-01
DAV:   5    -0.191456577530E+03    0.17527E-03   -0.10265E-03 10680   0.225E-01    0.117E-01
DAV:   6    -0.191456504254E+03    0.73276E-04   -0.52231E-04  8200   0.143E-01
  66 F= -.19145650E+03 E0= -.19134443E+03  d E =0.767085E-02
       N       E                     dE             d eps       ncg     rms          rms(c)
DAV:   1    -0.191462141190E+03   -0.55637E-02   -0.45361E-01  8160   0.144E+00    0.205E-01
DAV:   2    -0.191466530384E+03   -0.43892E-02   -0.20715E-02 12560   0.722E-01    0.672E-01
DAV:   3    -0.191462474529E+03    0.40559E-02   -0.10486E-02 11480   0.663E-01    0.202E-01
DAV:   4    -0.191462258175E+03    0.21635E-03   -0.14589E-03  9640   0.240E-01    0.151E-01
DAV:   5    -0.191462231247E+03    0.26927E-04   -0.12230E-03 10160   0.244E-01    0.154E-01
DAV:   6    -0.191462035850E+03    0.19540E-03   -0.69985E-04  8160   0.172E-01    0.954E-02
DAV:   7    -0.191461999317E+03    0.36533E-04   -0.37456E-04  7280   0.130E-01
  67 F= -.19146200E+03 E0= -.19135006E+03  d E =-.549506E-02
       N       E                     dE             d eps       ncg     rms          rms(c)
DAV:   1    -0.191461429364E+03    0.60649E-03   -0.17077E-01  8160   0.896E-01    0.128E-01
DAV:   2    -0.191462338527E+03   -0.90916E-03   -0.65829E-03 12920   0.351E-01    0.315E-01
DAV:   3    -0.191461611195E+03    0.72733E-03   -0.29974E-03 10400   0.356E-01    0.154E-01
DAV:   4    -0.191461384987E+03    0.22621E-03   -0.59481E-04  8160   0.136E-01    0.631E-02
DAV:   5    -0.191461456993E+03   -0.72007E-04   -0.42205E-04  8600   0.135E-01
  68 F= -.19146146E+03 E0= -.19134959E+03  d E =0.542323E-03
       N       E                     dE             d eps       ncg     rms          rms(c)
DAV:   1    -0.191460632846E+03    0.75214E-03   -0.56086E-02  8160   0.525E-01    0.842E-02
DAV:   2    -0.191462331745E+03   -0.16989E-02   -0.46359E-03 12600   0.395E-01    0.417E-01
DAV:   3    -0.191460649851E+03    0.16819E-02   -0.28179E-03 10080   0.355E-01    0.422E-02
DAV:   4    -0.191460673998E+03   -0.24147E-04   -0.10386E-04  5880   0.499E-02
  69 F= -.19146067E+03 E0= -.19134867E+03  d E =0.782996E-03
       N       E                     dE             d eps       ncg     rms          rms(c)
DAV:   1    -0.191470055756E+03   -0.94059E-02   -0.73346E-01  8160   0.181E+00    0.305E-01
DAV:   2    -0.191488114895E+03   -0.18059E-01   -0.52957E-02 13600   0.134E+00    0.135E+00
DAV:   3    -0.191470321703E+03    0.17793E-01   -0.33587E-02 11520   0.124E+00    0.194E-01
DAV:   4    -0.191469995554E+03    0.32615E-03   -0.17363E-03 11040   0.191E-01    0.108E-01
DAV:   5    -0.191470241317E+03   -0.24576E-03   -0.13342E-03 11360   0.233E-01    0.217E-01
DAV:   6    -0.191469799016E+03    0.44230E-03   -0.86248E-04  8400   0.190E-01    0.434E-02
DAV:   7    -0.191469840467E+03   -0.41450E-04   -0.13285E-04  5600   0.681E-02
  70 F= -.19146984E+03 E0= -.19135800E+03  d E =-.916647E-02
       N       E                     dE             d eps       ncg     rms          rms(c)
DAV:   1    -0.191472228763E+03   -0.24297E-02   -0.48373E-02  8160   0.467E-01    0.932E-02
DAV:   2    -0.191473752525E+03   -0.15238E-02   -0.44368E-03 12720   0.421E-01    0.397E-01
DAV:   3    -0.191472191999E+03    0.15605E-02   -0.28217E-03  9800   0.364E-01    0.697E-02
DAV:   4    -0.191472222046E+03   -0.30047E-04   -0.26220E-04  7080   0.108E-01
  71 F= -.19147222E+03 E0= -.19136045E+03  d E =-.238158E-02
       N       E                     dE             d eps       ncg     rms          rms(c)
DAV:   1    -0.191482690298E+03   -0.10498E-01   -0.91340E-01  8160   0.202E+00    0.332E-01
DAV:   2    -0.191502951263E+03   -0.20261E-01   -0.61587E-02 13600   0.143E+00    0.146E+00
DAV:   3    -0.191483251724E+03    0.19700E-01   -0.40368E-02 11640   0.133E+00    0.249E-01
DAV:   4    -0.191483044513E+03    0.20721E-03   -0.32075E-03 11480   0.307E-01    0.242E-01
DAV:   5    -0.191482761861E+03    0.28265E-03   -0.23450E-03 10000   0.308E-01    0.175E-01
DAV:   6    -0.191482446426E+03    0.31544E-03   -0.71665E-04  8480   0.157E-01    0.637E-02
DAV:   7    -0.191482574106E+03   -0.12768E-03   -0.45606E-04  9200   0.158E-01    0.113E-01
DAV:   8    -0.191482424364E+03    0.14974E-03   -0.22372E-04  7560   0.117E-01    0.130E-02
DAV:   9    -0.191482431426E+03   -0.70614E-05   -0.26997E-05  5880   0.193E-02
  72 F= -.19148243E+03 E0= -.19137078E+03  d E =-.102094E-01
       N       E                     dE             d eps       ncg     rms          rms(c)
DAV:   1    -0.191486622418E+03   -0.41981E-02   -0.14912E-01  8160   0.812E-01    0.133E-01
DAV:   2    -0.191490067451E+03   -0.34450E-02   -0.10390E-02 13600   0.598E-01    0.591E-01
DAV:   3    -0.191486668969E+03    0.33985E-02   -0.64387E-03 11240   0.543E-01    0.888E-02
DAV:   4    -0.191486674232E+03   -0.52630E-05   -0.39982E-04  8480   0.106E-01
  73 F= -.19148667E+03 E0= -.19137510E+03  d E =-.424281E-02
       N       E                     dE             d eps       ncg     rms          rms(c)
DAV:   1    -0.191463628832E+03    0.23040E-01   -0.53852E+00  8160   0.488E+00    0.792E-01
DAV:   2    -0.191589721707E+03   -0.12609E+00   -0.36815E-01 13600   0.358E+00    0.353E+00
DAV:   3    -0.191468741855E+03    0.12098E+00   -0.23868E-01 12320   0.327E+00    0.620E-01
DAV:   4    -0.191466305909E+03    0.24359E-02   -0.18599E-02 11160   0.878E-01    0.581E-01
DAV:   5    -0.191464116478E+03    0.21894E-02   -0.11512E-02 12280   0.701E-01    0.357E-01
DAV:   6    -0.191463945315E+03    0.17116E-03   -0.59439E-03 10640   0.502E-01    0.369E-01
DAV:   7    -0.191462625832E+03    0.13195E-02   -0.31139E-03 10760   0.379E-01    0.106E-01
DAV:   8    -0.191462550548E+03    0.75284E-04   -0.45869E-04 10400   0.100E-01
  74 F= -.19146255E+03 E0= -.19135063E+03  d E =0.241237E-01
       N       E                     dE             d eps       ncg     rms          rms(c)
DAV:   1    -0.191459815029E+03    0.28108E-02   -0.13653E-01  8160   0.784E-01    0.132E-01
DAV:   2    -0.191462779797E+03   -0.29648E-02   -0.94964E-03 13280   0.590E-01    0.537E-01
DAV:   3    -0.191459851229E+03    0.29286E-02   -0.54719E-03 10920   0.508E-01    0.919E-02
DAV:   4    -0.191459872725E+03   -0.21496E-04   -0.44059E-04  8200   0.135E-01
  75 F= -.19145987E+03 E0= -.19134789E+03  d E =0.267782E-02
       N       E                     dE             d eps       ncg     rms          rms(c)
DAV:   1    -0.191468350054E+03   -0.84988E-02   -0.73075E-01  8160   0.180E+00    0.271E-01
DAV:   2    -0.191482989385E+03   -0.14639E-01   -0.44228E-02 13520   0.123E+00    0.121E+00
DAV:   3    -0.191468810540E+03    0.14179E-01   -0.26894E-02 11520   0.111E+00    0.168E-01
DAV:   4    -0.191468788717E+03    0.21823E-04   -0.16501E-03 11200   0.221E-01    0.160E-01
DAV:   5    -0.191468652873E+03    0.13584E-03   -0.10534E-03 11000   0.222E-01    0.126E-01
DAV:   6    -0.191468546430E+03    0.10644E-03   -0.51896E-04  7960   0.143E-01    0.923E-02
DAV:   7    -0.191468525951E+03    0.20479E-04   -0.36288E-04  7720   0.132E-01
  76 F= -.19146853E+03 E0= -.19135683E+03  d E =-.865323E-02
       N       E                     dE             d eps       ncg     rms          rms(c)
DAV:   1    -0.191471091334E+03   -0.25449E-02   -0.63651E-02  8160   0.537E-01    0.874E-02
DAV:   2    -0.191472530203E+03   -0.14389E-02   -0.44223E-03 13600   0.379E-01    0.384E-01
DAV:   3    -0.191471108418E+03    0.14218E-02   -0.27300E-03  9720   0.348E-01    0.593E-02
DAV:   4    -0.191471128128E+03   -0.19709E-04   -0.15708E-04  5480   0.731E-02
  77 F= -.19147113E+03 E0= -.19135941E+03  d E =-.260218E-02
       N       E                     dE             d eps       ncg     rms          rms(c)
DAV:   1    -0.191477710180E+03   -0.66018E-02   -0.39543E-01  8160   0.133E+00    0.223E-01
DAV:   2    -0.191486765747E+03   -0.90556E-02   -0.27482E-02 13600   0.927E-01    0.983E-01
DAV:   3    -0.191477932633E+03    0.88331E-02   -0.18446E-02 11440   0.881E-01    0.176E-01
DAV:   4    -0.191477816626E+03    0.11601E-03   -0.14846E-03  9880   0.206E-01    0.160E-01
DAV:   5    -0.191477700937E+03    0.11569E-03   -0.10526E-03  9520   0.211E-01    0.121E-01
DAV:   6    -0.191477547216E+03    0.15372E-03   -0.31007E-04  6440   0.108E-01    0.328E-02
DAV:   7    -0.191477608170E+03   -0.60954E-04   -0.16707E-04  7560   0.887E-02
  78 F= -.19147761E+03 E0= -.19136615E+03  d E =-.648004E-02
       N       E                     dE             d eps       ncg     rms          rms(c)
DAV:   1    -0.191488245697E+03   -0.10698E-01   -0.11182E+00  8160   0.223E+00    0.361E-01
DAV:   2    -0.191514045267E+03   -0.25800E-01   -0.79175E-02 13600   0.162E+00    0.164E+00
DAV:   3    -0.191489391042E+03    0.24654E-01   -0.50162E-02 11760   0.147E+00    0.257E-01
DAV:   4    -0.191489497488E+03   -0.10645E-03   -0.41575E-03 11480   0.366E-01    0.305E-01
DAV:   5    -0.191488796966E+03    0.70052E-03   -0.26754E-03 10080   0.331E-01    0.141E-01
DAV:   6    -0.191488578651E+03    0.21832E-03   -0.59371E-04  8800   0.135E-01    0.624E-02
DAV:   7    -0.191488735570E+03   -0.15692E-03   -0.49122E-04 10080   0.163E-01    0.123E-01
DAV:   8    -0.191488557363E+03    0.17821E-03   -0.27962E-04  7800   0.130E-01    0.170E-02
DAV:   9    -0.191488563328E+03   -0.59652E-05   -0.32082E-05  6040   0.227E-02
  79 F= -.19148856E+03 E0= -.19137717E+03  d E =-.109552E-01
       N       E                     dE             d eps       ncg     rms          rms(c)
DAV:   1    -0.191488589444E+03   -0.32081E-04   -0.88391E-03  8160   0.201E-01    0.348E-02
DAV:   2    -0.191488836554E+03   -0.24711E-03   -0.73837E-04 11160   0.161E-01    0.162E-01
DAV:   3    -0.191488577633E+03    0.25892E-03   -0.45468E-04  7720   0.144E-01    0.191E-02
DAV:   4    -0.191488593830E+03   -0.16197E-04   -0.36537E-05  5720   0.347E-02
  80 F= -.19148859E+03 E0= -.19137720E+03  d E =-.305022E-04
       N       E                     dE             d eps       ncg     rms          rms(c)
DAV:   1    -0.191497076637E+03   -0.84990E-02   -0.69076E-01  8160   0.175E+00    0.277E-01
DAV:   2    -0.191511143829E+03   -0.14067E-01   -0.45154E-02 13600   0.122E+00    0.121E+00
DAV:   3    -0.191497724432E+03    0.13419E-01   -0.27832E-02 11640   0.110E+00    0.207E-01
DAV:   4    -0.191497676480E+03    0.47952E-04   -0.24023E-03 11480   0.276E-01    0.219E-01
DAV:   5    -0.191497353216E+03    0.32326E-03   -0.16169E-03  9880   0.256E-01    0.125E-01
DAV:   6    -0.191497211944E+03    0.14127E-03   -0.48532E-04  7920   0.132E-01    0.721E-02
DAV:   7    -0.191497241310E+03   -0.29366E-04   -0.35251E-04  9160   0.138E-01
  81 F= -.19149724E+03 E0= -.19138596E+03  d E =-.864748E-02
       N       E                     dE             d eps       ncg     rms          rms(c)
DAV:   1    -0.191502993378E+03   -0.57814E-02   -0.31620E-01  8160   0.119E+00    0.186E-01
DAV:   2    -0.191508915130E+03   -0.59218E-02   -0.19270E-02 13600   0.775E-01    0.768E-01
DAV:   3    -0.191503183171E+03    0.57320E-02   -0.11504E-02 11400   0.726E-01    0.136E-01
DAV:   4    -0.191503138132E+03    0.45039E-04   -0.88733E-04  9920   0.155E-01
  82 F= -.19150314E+03 E0= -.19139179E+03  d E =-.589682E-02
       N       E                     dE             d eps       ncg     rms          rms(c)
DAV:   1    -0.191503906961E+03   -0.72379E-03   -0.10718E-02  8160   0.282E-01    0.129E-01
DAV:   2    -0.191508380926E+03   -0.44740E-02   -0.10248E-02 11160   0.646E-01    0.718E-01
DAV:   3    -0.191503740696E+03    0.46402E-02   -0.81696E-03 10120   0.575E-01    0.666E-02
DAV:   4    -0.191503767238E+03   -0.26542E-04   -0.22263E-04  7080   0.926E-02
  83 F= -.19150377E+03 E0= -.19139233E+03  d E =-.629107E-03
       N       E                     dE             d eps       ncg     rms          rms(c)
DAV:   1    -0.191513345766E+03   -0.96051E-02   -0.71061E-01  8160   0.180E+00    0.342E-01
DAV:   2    -0.191533848719E+03   -0.20503E-01   -0.61619E-02 13560   0.151E+00    0.146E+00
DAV:   3    -0.191513234716E+03    0.20614E-01   -0.40334E-02 11840   0.137E+00    0.220E-01
DAV:   4    -0.191512737733E+03    0.49698E-03   -0.23343E-03 10920   0.228E-01    0.132E-01
DAV:   5    -0.191513077990E+03   -0.34026E-03   -0.19794E-03 11520   0.284E-01    0.258E-01
DAV:   6    -0.191512460057E+03    0.61793E-03   -0.14268E-03  9160   0.237E-01    0.691E-02
DAV:   7    -0.191512559894E+03   -0.99837E-04   -0.44214E-04  8080   0.143E-01
  84 F= -.19151256E+03 E0= -.19140134E+03  d E =-.879266E-02
       N       E                     dE             d eps       ncg     rms          rms(c)
DAV:   1    -0.191517180837E+03   -0.47208E-02   -0.18944E-01  8160   0.926E-01    0.148E-01
DAV:   2    -0.191520202191E+03   -0.30214E-02   -0.11233E-02 13400   0.561E-01    0.542E-01
DAV:   3    -0.191517301335E+03    0.29009E-02   -0.63194E-03 11320   0.540E-01    0.127E-01
DAV:   4    -0.191517223257E+03    0.78079E-04   -0.60041E-04  8280   0.141E-01
  85 F= -.19151722E+03 E0= -.19140575E+03  d E =-.466336E-02
       N       E                     dE             d eps       ncg     rms          rms(c)
DAV:   1    -0.191524273922E+03   -0.69726E-02   -0.39938E-01  8160   0.134E+00    0.234E-01
DAV:   2    -0.191533367171E+03   -0.90932E-02   -0.27931E-02 13600   0.939E-01    0.100E+00
DAV:   3    -0.191524495859E+03    0.88713E-02   -0.20082E-02 11040   0.902E-01    0.201E-01
DAV:   4    -0.191524323477E+03    0.17238E-03   -0.19070E-03 10040   0.231E-01    0.176E-01
DAV:   5    -0.191524158572E+03    0.16490E-03   -0.12404E-03  9880   0.224E-01    0.122E-01
DAV:   6    -0.191524015119E+03    0.14345E-03   -0.42263E-04  8320   0.121E-01    0.481E-02
DAV:   7    -0.191524066084E+03   -0.50965E-04   -0.23774E-04  8760   0.111E-01
  86 F= -.19152407E+03 E0= -.19141288E+03  d E =-.684283E-02
       N       E                     dE             d eps       ncg     rms          rms(c)
DAV:   1    -0.191529105349E+03   -0.50902E-02   -0.19014E-01  8160   0.948E-01    0.151E-01
DAV:   2    -0.191532028345E+03   -0.29230E-02   -0.11453E-02 13560   0.585E-01    0.540E-01
DAV:   3    -0.191529183855E+03    0.28445E-02   -0.64951E-03 11360   0.544E-01    0.116E-01
DAV:   4    -0.191529066923E+03    0.11693E-03   -0.51626E-04  9000   0.113E-01    0.557E-02
DAV:   5    -0.191529067238E+03   -0.31489E-06   -0.24425E-04  7480   0.969E-02
  87 F= -.19152907E+03 E0= -.19141768E+03  d E =-.500115E-02
       N       E                     dE             d eps       ncg     rms          rms(c)
DAV:   1    -0.191518288424E+03    0.10778E-01   -0.12652E+00  8160   0.244E+00    0.420E-01
DAV:   2    -0.191539771107E+03   -0.21483E-01   -0.80245E-02 12720   0.159E+00    0.148E+00
DAV:   3    -0.191517945835E+03    0.21825E-01   -0.45443E-02 12240   0.147E+00    0.318E-01
DAV:   4    -0.191517097072E+03    0.84876E-03   -0.45904E-03 10920   0.383E-01    0.226E-01
DAV:   5    -0.191517201200E+03   -0.10413E-03   -0.35516E-03 11040   0.412E-01    0.286E-01
DAV:   6    -0.191516420052E+03    0.78115E-03   -0.24627E-03 10280   0.317E-01    0.146E-01
DAV:   7    -0.191516373935E+03    0.46116E-04   -0.10704E-03  8480   0.213E-01    0.120E-01
DAV:   8    -0.191516240406E+03    0.13353E-03   -0.34397E-04  8200   0.123E-01    0.261E-02
DAV:   9    -0.191516238344E+03    0.20626E-05   -0.45446E-05  6720   0.299E-02
  88 F= -.19151624E+03 E0= -.19140530E+03  d E =0.128289E-01
       N       E                     dE             d eps       ncg     rms          rms(c)
DAV:   1    -0.191515110142E+03    0.11303E-02   -0.10730E-02  8160   0.222E-01    0.334E-02
DAV:   2    -0.191515245055E+03   -0.13491E-03   -0.50929E-04 10600   0.122E-01    0.116E-01
DAV:   3    -0.191515110994E+03    0.13406E-03   -0.30058E-04  7520   0.125E-01    0.267E-02
DAV:   4    -0.191515115862E+03   -0.48685E-05   -0.35960E-05  5680   0.323E-02
  89 F= -.19151512E+03 E0= -.19140425E+03  d E =0.112248E-02
       N       E                     dE             d eps       ncg     rms          rms(c)
DAV:   1    -0.191510673707E+03    0.44373E-02   -0.47286E-01  8160   0.148E+00    0.183E-01
DAV:   2    -0.191511866945E+03   -0.11932E-02   -0.14035E-02 12680   0.442E-01    0.294E-01
DAV:   3    -0.191511460877E+03    0.40607E-03   -0.47424E-03 12080   0.444E-01    0.273E-01
DAV:   4    -0.191510921514E+03    0.53936E-03   -0.23106E-03 10000   0.288E-01    0.145E-01
DAV:   5    -0.191510847526E+03    0.73988E-04   -0.96165E-04  9360   0.201E-01
  90 F= -.19151085E+03 E0= -.19140113E+03  d E =0.426834E-02
       N       E                     dE             d eps       ncg     rms          rms(c)
DAV:   1    -0.191514824287E+03   -0.39028E-02   -0.74478E-01  8160   0.183E+00    0.244E-01
DAV:   2    -0.191521271958E+03   -0.64477E-02   -0.29947E-02 13600   0.905E-01    0.784E-01
DAV:   3    -0.191515471297E+03    0.58007E-02   -0.14673E-02 11880   0.812E-01    0.209E-01
DAV:   4    -0.191515253513E+03    0.21778E-03   -0.18565E-03 10800   0.256E-01    0.169E-01
DAV:   5    -0.191515216383E+03    0.37130E-04   -0.14290E-03 10600   0.265E-01    0.174E-01
DAV:   6    -0.191514983448E+03    0.23294E-03   -0.97631E-04  8560   0.194E-01    0.107E-01
DAV:   7    -0.191514957679E+03    0.25769E-04   -0.54134E-04  8360   0.158E-01
  91 F= -.19151496E+03 E0= -.19140575E+03  d E =-.411015E-02
       N       E                     dE             d eps       ncg     rms          rms(c)
DAV:   1    -0.191517433148E+03   -0.24497E-02   -0.43213E-01  8160   0.141E+00    0.177E-01
DAV:   2    -0.191520195025E+03   -0.27619E-02   -0.15391E-02 13520   0.591E-01    0.489E-01
DAV:   3    -0.191517971744E+03    0.22233E-02   -0.65963E-03 11680   0.546E-01    0.179E-01
DAV:   4    -0.191517880269E+03    0.91475E-04   -0.12532E-03  9680   0.227E-01    0.152E-01
DAV:   5    -0.191517747121E+03    0.13315E-03   -0.81473E-04  9240   0.205E-01    0.114E-01
DAV:   6    -0.191517659227E+03    0.87894E-04   -0.46314E-04  7200   0.134E-01
  92 F= -.19151766E+03 E0= -.19140908E+03  d E =-.270155E-02
       N       E                     dE             d eps       ncg     rms          rms(c)
DAV:   1    -0.191518653618E+03   -0.90650E-03   -0.32607E+00  8160   0.388E+00    0.443E-01
DAV:   2    -0.191527854100E+03   -0.92005E-02   -0.89907E-02 13600   0.107E+00    0.794E-01
DAV:   3    -0.191523590734E+03    0.42634E-02   -0.33082E-02 11880   0.116E+00    0.603E-01
DAV:   4    -0.191520526491E+03    0.30642E-02   -0.99870E-03 12160   0.627E-01    0.251E-01
DAV:   5    -0.191519511760E+03    0.10147E-02   -0.25339E-03 10840   0.226E-01    0.143E-01
DAV:   6    -0.191520169063E+03   -0.65730E-03   -0.27671E-03 11640   0.347E-01    0.308E-01
DAV:   7    -0.191519395688E+03    0.77338E-03   -0.21475E-03  9760   0.296E-01    0.106E-01
DAV:   8    -0.191519325440E+03    0.70248E-04   -0.39476E-04  7760   0.134E-01
  93 F= -.19151933E+03 E0= -.19140825E+03  d E =-.166621E-02
       N       E                     dE             d eps       ncg     rms          rms(c)
DAV:   1    -0.191526106059E+03   -0.67104E-02   -0.37147E-01  8160   0.130E+00    0.186E-01
DAV:   2    -0.191530134033E+03   -0.40280E-02   -0.17158E-02 13560   0.682E-01    0.625E-01
DAV:   3    -0.191526350282E+03    0.37838E-02   -0.91389E-03 11400   0.647E-01    0.153E-01
DAV:   4    -0.191526164250E+03    0.18603E-03   -0.83800E-04 10040   0.150E-01    0.807E-02
DAV:   5    -0.191526207583E+03   -0.43333E-04   -0.54079E-04  9960   0.155E-01
  94 F= -.19152621E+03 E0= -.19141508E+03  d E =-.688214E-02
       N       E                     dE             d eps       ncg     rms          rms(c)
DAV:   1    -0.191511786128E+03    0.14378E-01   -0.21180E+00  8160   0.315E+00    0.447E-01
DAV:   2    -0.191534047093E+03   -0.22261E-01   -0.96989E-02 13560   0.156E+00    0.143E+00
DAV:   3    -0.191513550699E+03    0.20496E-01   -0.44505E-02 12240   0.146E+00    0.379E-01
DAV:   4    -0.191512505005E+03    0.10457E-02   -0.58490E-03 11000   0.434E-01    0.256E-01
DAV:   5    -0.191512279231E+03    0.22577E-03   -0.36156E-03 11200   0.418E-01    0.271E-01
DAV:   6    -0.191511603019E+03    0.67621E-03   -0.24226E-03 10040   0.324E-01    0.148E-01
DAV:   7    -0.191511741463E+03   -0.13844E-03   -0.16239E-03  9720   0.259E-01    0.183E-01
DAV:   8    -0.191511397772E+03    0.34369E-03   -0.69654E-04  8160   0.181E-01    0.359E-02
DAV:   9    -0.191511390356E+03    0.74159E-05   -0.60523E-05  6600   0.376E-02
  95 F= -.19151139E+03 E0= -.19140129E+03  d E =0.148172E-01
       N       E                     dE             d eps       ncg     rms          rms(c)
DAV:   1    -0.191533509042E+03   -0.22111E-01   -0.33274E+00  8160   0.395E+00    0.629E-01
DAV:   2    -0.191584206779E+03   -0.50698E-01   -0.18856E-01 13120   0.238E+00    0.237E+00
DAV:   3    -0.191535122976E+03    0.49084E-01   -0.12053E-01 12240   0.226E+00    0.504E-01
DAV:   4    -0.191534905138E+03    0.21784E-03   -0.15370E-02 12240   0.708E-01    0.596E-01
DAV:   5    -0.191532560523E+03    0.23446E-02   -0.12847E-02 10960   0.713E-01    0.365E-01
DAV:   6    -0.191531015115E+03    0.15454E-02   -0.43633E-03 11360   0.357E-01    0.134E-01
DAV:   7    -0.191531279408E+03   -0.26429E-03   -0.19014E-03 11880   0.280E-01    0.194E-01
DAV:   8    -0.191530828999E+03    0.45041E-03   -0.80434E-04  9400   0.217E-01    0.468E-02
DAV:   9    -0.191530800399E+03    0.28600E-04   -0.82385E-05  5960   0.511E-02
  96 F= -.19153080E+03 E0= -.19141971E+03  d E =-.194100E-01
       N       E                     dE             d eps       ncg     rms          rms(c)
DAV:   1    -0.191532057631E+03   -0.12286E-02   -0.77396E-02  8160   0.605E-01    0.104E-01
DAV:   2    -0.191532408259E+03   -0.35063E-03   -0.34312E-03 12720   0.268E-01    0.221E-01
DAV:   3    -0.191532023798E+03    0.38446E-03   -0.18715E-03  9920   0.278E-01    0.117E-01
DAV:   4    -0.191531918272E+03    0.10553E-03   -0.45467E-04  8160   0.129E-01    0.711E-02
DAV:   5    -0.191531948908E+03   -0.30636E-04   -0.37727E-04  7000   0.136E-01
  97 F= -.19153195E+03 E0= -.19142100E+03  d E =-.114851E-02
       N       E                     dE             d eps       ncg     rms          rms(c)
DAV:   1    -0.191541430445E+03   -0.95122E-02   -0.70432E-01  8160   0.179E+00    0.258E-01
DAV:   2    -0.191550770014E+03   -0.93396E-02   -0.35697E-02 13600   0.100E+00    0.943E-01
DAV:   3    -0.191542135006E+03    0.86350E-02   -0.19955E-02 11480   0.956E-01    0.202E-01
DAV:   4    -0.191541843404E+03    0.29160E-03   -0.14914E-03 10880   0.199E-01    0.121E-01
DAV:   5    -0.191541883079E+03   -0.39675E-04   -0.97457E-04 11120   0.215E-01
  98 F= -.19154188E+03 E0= -.19143110E+03  d E =-.993417E-02
       N       E                     dE             d eps       ncg     rms          rms(c)
DAV:   1    -0.191537064272E+03    0.47791E-02   -0.14777E-01  8160   0.861E-01    0.152E-01
DAV:   2    -0.191540709787E+03   -0.36455E-02   -0.12153E-02 11000   0.625E-01    0.604E-01
DAV:   3    -0.191537050061E+03    0.36597E-02   -0.67920E-03 10240   0.552E-01    0.117E-01
DAV:   4    -0.191537032177E+03    0.17885E-04   -0.74783E-04  8360   0.169E-01
  99 F= -.19153703E+03 E0= -.19142612E+03  d E =0.485090E-02
       N       E                     dE             d eps       ncg     rms          rms(c)
DAV:   1    -0.191520244326E+03    0.16806E-01   -0.32912E+00  8160   0.390E+00    0.630E-01
DAV:   2    -0.191560441872E+03   -0.40198E-01   -0.16750E-01 13600   0.222E+00    0.198E+00
DAV:   3    -0.191520464699E+03    0.39977E-01   -0.90003E-02 12240   0.210E+00    0.536E-01
DAV:   4    -0.191517961030E+03    0.25037E-02   -0.11274E-02 10400   0.630E-01    0.360E-01
DAV:   5    -0.191518043127E+03   -0.82097E-04   -0.81217E-03 11560   0.650E-01    0.424E-01
DAV:   6    -0.191516159482E+03    0.18836E-02   -0.53333E-03 11440   0.480E-01    0.210E-01
DAV:   7    -0.191516221102E+03   -0.61620E-04   -0.28000E-03 10280   0.333E-01    0.215E-01
DAV:   8    -0.191515792944E+03    0.42816E-03   -0.96272E-04  8640   0.202E-01    0.439E-02
DAV:   9    -0.191515772813E+03    0.20131E-04   -0.90923E-05  6560   0.433E-02
 100 F= -.19151577E+03 E0= -.19140574E+03  d E =0.212594E-01
