<?xml version="1.0" encoding="ISO-8859-1"?>
<modeling>
 <generator>
  <i name="program" type="string">vasp </i>
  <i name="version" type="string">5.4.1  </i>
  <i name="subversion" type="string">05Feb16 (build Jul 05 2020 17:13:04) complex                          parallel </i>
  <i name="platform" type="string">IFC91_ompi </i>
  <i name="date" type="string">2024 04 28 </i>
  <i name="time" type="string">22:20:21 </i>
 </generator>
 <incar>
  <i type="int" name="ISTART">     0</i>
  <i type="string" name="PREC">normal</i>
  <i type="string" name="ALGO"> Normal</i>
  <i type="int" name="ISPIN">     1</i>
  <i type="int" name="ICHARG">     2</i>
  <i type="int" name="IBRION">     1</i>
  <i type="int" name="NSW">   100</i>
  <i type="int" name="ISIF">     3</i>
  <i type="int" name="ISYM">     0</i>
  <i name="SYMPREC">      0.00000001</i>
  <i name="POTIM">      0.50000000</i>
  <i type="logical" name="LREAL"> F  </i>
  <i type="logical" name="LPLANE"> F  </i>
  <i type="int" name="ISMEAR">     0</i>
  <i type="logical" name="LWAVE"> F  </i>
  <i type="logical" name="LCHARG"> F  </i>
  <v type="int" name="KPOINT_BSE">    -1     0     0     0</v>
 </incar>
 <kpoints>
  <generation param="Gamma">
   <v type="int" name="divisions">       8        8        1 </v>
   <v name="usershift">      0.00000000       0.00000000       0.00000000 </v>
   <v name="genvec1">      0.12500000       0.00000000       0.00000000 </v>
   <v name="genvec2">     -0.00000000       0.12500000       0.00000000 </v>
   <v name="genvec3">      0.00000000       0.00000000       1.00000000 </v>
   <v name="shift">      0.00000000       0.00000000       0.00000000 </v>
  </generation>
  <varray name="kpointlist" >
   <v>       0.00000000       0.00000000       0.00000000 </v>
   <v>       0.12500000       0.00000000       0.00000000 </v>
   <v>       0.25000000       0.00000000       0.00000000 </v>
   <v>       0.37500000       0.00000000       0.00000000 </v>
   <v>       0.50000000       0.00000000       0.00000000 </v>
   <v>       0.00000000       0.12500000       0.00000000 </v>
   <v>       0.12500000       0.12500000       0.00000000 </v>
   <v>       0.25000000       0.12500000       0.00000000 </v>
   <v>       0.37500000       0.12500000       0.00000000 </v>
   <v>       0.50000000       0.12500000       0.00000000 </v>
   <v>      -0.37500000       0.12500000       0.00000000 </v>
   <v>      -0.25000000       0.12500000       0.00000000 </v>
   <v>      -0.12500000       0.12500000       0.00000000 </v>
   <v>       0.00000000       0.25000000       0.00000000 </v>
   <v>       0.12500000       0.25000000       0.00000000 </v>
   <v>       0.25000000       0.25000000       0.00000000 </v>
   <v>       0.37500000       0.25000000       0.00000000 </v>
   <v>       0.50000000       0.25000000       0.00000000 </v>
   <v>      -0.37500000       0.25000000       0.00000000 </v>
   <v>      -0.25000000       0.25000000       0.00000000 </v>
   <v>      -0.12500000       0.25000000       0.00000000 </v>
   <v>      -0.00000000       0.37500000       0.00000000 </v>
   <v>       0.12500000       0.37500000       0.00000000 </v>
   <v>       0.25000000       0.37500000       0.00000000 </v>
   <v>       0.37500000       0.37500000       0.00000000 </v>
   <v>       0.50000000       0.37500000       0.00000000 </v>
   <v>      -0.37500000       0.37500000       0.00000000 </v>
   <v>      -0.25000000       0.37500000       0.00000000 </v>
   <v>      -0.12500000       0.37500000       0.00000000 </v>
   <v>       0.00000000       0.50000000       0.00000000 </v>
   <v>       0.12500000       0.50000000       0.00000000 </v>
   <v>       0.25000000       0.50000000       0.00000000 </v>
   <v>       0.37500000       0.50000000       0.00000000 </v>
   <v>       0.50000000       0.50000000       0.00000000 </v>
  </varray>
  <varray name="weights" >
   <v>       0.01562500 </v>
   <v>       0.03125000 </v>
   <v>       0.03125000 </v>
   <v>       0.03125000 </v>
   <v>       0.01562500 </v>
   <v>       0.03125000 </v>
   <v>       0.03125000 </v>
   <v>       0.03125000 </v>
   <v>       0.03125000 </v>
   <v>       0.03125000 </v>
   <v>       0.03125000 </v>
   <v>       0.03125000 </v>
   <v>       0.03125000 </v>
   <v>       0.03125000 </v>
   <v>       0.03125000 </v>
   <v>       0.03125000 </v>
   <v>       0.03125000 </v>
   <v>       0.03125000 </v>
   <v>       0.03125000 </v>
   <v>       0.03125000 </v>
   <v>       0.03125000 </v>
   <v>       0.03125000 </v>
   <v>       0.03125000 </v>
   <v>       0.03125000 </v>
   <v>       0.03125000 </v>
   <v>       0.03125000 </v>
   <v>       0.03125000 </v>
   <v>       0.03125000 </v>
   <v>       0.03125000 </v>
   <v>       0.01562500 </v>
   <v>       0.03125000 </v>
   <v>       0.03125000 </v>
   <v>       0.03125000 </v>
   <v>       0.01562500 </v>
  </varray>
 </kpoints>
 <parameters>
  <separator name="general" >
   <i type="string" name="SYSTEM">unknown system</i>
   <i type="logical" name="LCOMPAT"> F  </i>
  </separator>
  <separator name="electronic" >
   <i type="string" name="PREC">normal</i>
   <i name="ENMAX">    280.00000000</i>
   <i name="ENAUG">    373.43800000</i>
   <i name="EDIFF">      0.00010000</i>
   <i type="int" name="IALGO">    38</i>
   <i type="int" name="IWAVPR">    11</i>
   <i type="int" name="NBANDS">   120</i>
   <i name="NELECT">    159.00000000</i>
   <i type="int" name="TURBO">     0</i>
   <i type="int" name="IRESTART">     0</i>
   <i type="int" name="NREBOOT">     0</i>
   <i type="int" name="NMIN">     0</i>
   <i name="EREF">      0.00000000</i>
   <separator name="electronic smearing" >
    <i type="int" name="ISMEAR">     0</i>
    <i name="SIGMA">      0.20000000</i>
    <i name="KSPACING">      0.50000000</i>
    <i type="logical" name="KGAMMA"> T  </i>
   </separator>
   <separator name="electronic projectors" >
    <i type="logical" name="LREAL"> F  </i>
    <v name="ROPT">      0.00000000      0.00000000      0.00000000      0.00000000</v>
    <i type="int" name="LMAXPAW">  -100</i>
    <i type="int" name="LMAXMIX">     2</i>
    <i type="logical" name="NLSPLINE"> F  </i>
   </separator>
   <separator name="electronic startup" >
    <i type="int" name="ISTART">     0</i>
    <i type="int" name="ICHARG">     2</i>
    <i type="int" name="INIWAV">     1</i>
   </separator>
   <separator name="electronic spin" >
    <i type="int" name="ISPIN">     1</i>
    <i type="logical" name="LNONCOLLINEAR"> F  </i>
    <v name="MAGMOM">      1.00000000      1.00000000      1.00000000      1.00000000      1.00000000      1.00000000      1.00000000      1.00000000      1.00000000      1.00000000      1.00000000      1.00000000      1.00000000      1.00000000      1.00000000      1.00000000      1.00000000      1.00000000      1.00000000      1.00000000
      1.00000000      1.00000000      1.00000000      1.00000000      1.00000000      1.00000000      1.00000000</v>
    <i name="NUPDOWN">     -1.00000000</i>
    <i type="logical" name="LSORBIT"> F  </i>
    <v name="SAXIS">      0.00000000      0.00000000      1.00000000</v>
    <i type="logical" name="LSPIRAL"> F  </i>
    <v name="QSPIRAL">      0.00000000      0.00000000      0.00000000</v>
    <i type="logical" name="LZEROZ"> F  </i>
   </separator>
   <separator name="electronic exchange-correlation" >
    <i type="logical" name="LASPH"> F  </i>
    <i type="logical" name="LMETAGGA"> F  </i>
   </separator>
   <separator name="electronic convergence" >
    <i type="int" name="NELM">    60</i>
    <i type="int" name="NELMDL">    -5</i>
    <i type="int" name="NELMIN">     2</i>
    <i name="ENINI">    280.00000000</i>
    <separator name="electronic convergence detail" >
     <i type="logical" name="LDIAG"> T  </i>
     <i type="logical" name="LSUBROT"> F  </i>
     <i name="WEIMIN">      0.00100000</i>
     <i name="EBREAK">      0.00000021</i>
     <i name="DEPER">      0.30000000</i>
     <i type="int" name="NRMM">     4</i>
     <i name="TIME">      0.40000000</i>
    </separator>
   </separator>
   <separator name="electronic mixer" >
    <i name="AMIX">      0.40000000</i>
    <i name="BMIX">      1.00000000</i>
    <i name="AMIN">      0.10000000</i>
    <i name="AMIX_MAG">      1.60000000</i>
    <i name="BMIX_MAG">      1.00000000</i>
    <separator name="electronic mixer details" >
     <i type="int" name="IMIX">     4</i>
     <i type="logical" name="MIXFIRST"> F  </i>
     <i type="int" name="MAXMIX">   -45</i>
     <i name="WC">    100.00000000</i>
     <i type="int" name="INIMIX">     1</i>
     <i type="int" name="MIXPRE">     1</i>
     <i type="int" name="MREMOVE">     5</i>
    </separator>
   </separator>
   <separator name="electronic dipolcorrection" >
    <i type="logical" name="LDIPOL"> F  </i>
    <i type="logical" name="LMONO"> F  </i>
    <i type="int" name="IDIPOL">     0</i>
    <i name="EPSILON">      1.00000000</i>
    <v name="DIPOL">   -100.00000000   -100.00000000   -100.00000000</v>
    <i name="EFIELD">      0.00000000</i>
   </separator>
  </separator>
  <separator name="grids" >
   <i type="int" name="NGX">    42</i>
   <i type="int" name="NGY">    42</i>
   <i type="int" name="NGZ">   126</i>
   <i type="int" name="NGXF">    84</i>
   <i type="int" name="NGYF">    84</i>
   <i type="int" name="NGZF">   252</i>
   <i type="logical" name="ADDGRID"> F  </i>
  </separator>
  <separator name="ionic" >
   <i type="int" name="NSW">   100</i>
   <i type="int" name="IBRION">     1</i>
   <i type="int" name="ISIF">     3</i>
   <i name="PSTRESS">      0.00000000</i>
   <i name="EDIFFG">      0.00100000</i>
   <i type="int" name="NFREE">     0</i>
   <i name="POTIM">      0.50000000</i>
   <i name="SMASS">     -3.00000000</i>
   <i name="SCALEE">      1.00000000</i>
  </separator>
  <separator name="ionic md" >
   <i name="TEBEG">      0.00010000</i>
   <i name="TEEND">      0.00010000</i>
   <i type="int" name="NBLOCK">     1</i>
   <i type="int" name="KBLOCK">   100</i>
   <i type="int" name="NPACO">   256</i>
   <i name="APACO">     16.00000000</i>
  </separator>
  <separator name="symmetry" >
   <i type="int" name="ISYM">     0</i>
   <i name="SYMPREC">      0.00000001</i>
  </separator>
  <separator name="dos" >
   <i type="logical" name="LORBIT"> F  </i>
   <v name="RWIGS">     -1.00000000     -1.00000000     -1.00000000     -1.00000000</v>
   <i type="int" name="NEDOS">   301</i>
   <i name="EMIN">     10.00000000</i>
   <i name="EMAX">    -10.00000000</i>
   <i name="EFERMI">      0.00000000</i>
  </separator>
  <separator name="writing" >
   <i type="int" name="NWRITE">     2</i>
   <i type="logical" name="LWAVE"> F  </i>
   <i type="logical" name="LCHARG"> F  </i>
   <i type="logical" name="LPARD"> F  </i>
   <i type="logical" name="LVTOT"> F  </i>
   <i type="logical" name="LVHAR"> F  </i>
   <i type="logical" name="LELF"> F  </i>
   <i type="logical" name="LOPTICS"> F  </i>
   <v name="STM">      0.00000000      0.00000000      0.00000000      0.00000000      0.00000000      0.00000000      0.00000000</v>
  </separator>
  <separator name="performance" >
   <i type="int" name="NPAR">    40</i>
   <i type="int" name="NSIM">     4</i>
   <i type="int" name="NBLK">    -1</i>
   <i type="logical" name="LPLANE"> F  </i>
   <i type="logical" name="LSCALAPACK"> T  </i>
   <i type="logical" name="LSCAAWARE"> F  </i>
   <i type="logical" name="LSCALU"> F  </i>
   <i type="logical" name="LASYNC"> F  </i>
   <i type="logical" name="LORBITALREAL"> F  </i>
  </separator>
  <separator name="miscellaneous" >
   <i type="int" name="IDIOT">     3</i>
   <i type="logical" name="LMUSIC"> F  </i>
   <v name="POMASS">     50.94100000     95.94000000    183.85000000     32.06600000</v>
   <v name="DARWINR">      0.00000000      0.00000000      0.00000000      0.00000000</v>
   <v name="DARWINV">      1.00000000      1.00000000      1.00000000      1.00000000</v>
   <i type="logical" name="LCORR"> T  </i>
  </separator>
  <i type="logical" name="GGA_COMPAT"> T  </i>
  <i type="logical" name="LBERRY"> F  </i>
  <i type="int" name="ICORELEVEL">     0</i>
  <i type="logical" name="LDAU"> F  </i>
  <i type="int" name="I_CONSTRAINED_M">     0</i>
  <separator name="electronic exchange-correlation" >
   <i type="string" name="GGA">--</i>
   <i type="int" name="VOSKOWN">     0</i>
   <i type="logical" name="LHFCALC"> F  </i>
   <i type="string" name="PRECFOCK"></i>
   <i type="logical" name="LSYMGRAD"> F  </i>
   <i type="logical" name="LHFONE"> F  </i>
   <i type="logical" name="LRHFCALC"> F  </i>
   <i type="logical" name="LTHOMAS"> F  </i>
   <i type="logical" name="LMODELHF"> F  </i>
   <i name="ENCUT4O">     -1.00000000</i>
   <i type="int" name="EXXOEP">     0</i>
   <i type="int" name="FOURORBIT">     0</i>
   <i name="AEXX">      0.00000000</i>
   <i name="HFALPHA">      0.00000000</i>
   <i name="MCALPHA">      0.00000000</i>
   <i name="ALDAX">      1.00000000</i>
   <i name="AGGAX">      1.00000000</i>
   <i name="ALDAC">      1.00000000</i>
   <i name="AGGAC">      1.00000000</i>
   <i type="int" name="NKREDX">     1</i>
   <i type="int" name="NKREDY">     1</i>
   <i type="int" name="NKREDZ">     1</i>
   <i type="logical" name="SHIFTRED"> F  </i>
   <i type="logical" name="ODDONLY"> F  </i>
   <i type="logical" name="EVENONLY"> F  </i>
   <i type="int" name="LMAXFOCK">     0</i>
   <i type="int" name="NMAXFOCKAE">     0</i>
   <i type="logical" name="LFOCKAEDFT"> F  </i>
   <i name="HFSCREEN">      0.00000000</i>
   <i name="HFSCREENC">      0.00000000</i>
   <i type="int" name="NBANDSGWLOW">     0</i>
  </separator>
  <separator name="vdW DFT" >
   <i type="logical" name="LUSE_VDW"> F  </i>
   <i name="Zab_VDW">     -0.84910000</i>
   <i name="PARAM1">      0.12340000</i>
   <i name="PARAM2">      1.00000000</i>
   <i name="PARAM3">      0.00000000</i>
  </separator>
  <separator name="model GW" >
   <i type="int" name="MODEL_GW">     0</i>
   <i name="MODEL_EPS0">     58.26239943</i>
   <i name="MODEL_ALPHA">      1.00000000</i>
  </separator>
  <separator name="linear response parameters" >
   <i type="logical" name="LEPSILON"> F  </i>
   <i type="logical" name="LRPA"> F  </i>
   <i type="logical" name="LNABLA"> F  </i>
   <i type="logical" name="LVEL"> F  </i>
   <i type="int" name="KINTER">     0</i>
   <i name="CSHIFT">      0.10000000</i>
   <i name="OMEGAMAX">     -1.00000000</i>
   <i name="DEG_THRESHOLD">      0.00200000</i>
  </separator>
  <separator name="orbital magnetization" >
   <i type="logical" name="NUCIND"> F  </i>
   <v name="MAGPOS">      0.00000000      0.00000000      0.00000000</v>
   <i type="logical" name="LNICSALL"> T  </i>
   <i type="logical" name="ORBITALMAG"> F  </i>
   <i type="logical" name="LMAGBLOCH"> F  </i>
   <i type="logical" name="LCHIMAG"> F  </i>
   <i type="logical" name="LGAUGE"> T  </i>
   <i type="int" name="MAGATOM">     0</i>
   <v name="MAGDIPOL">      0.00000000      0.00000000      0.00000000</v>
   <v name="AVECCONST">      0.00000000      0.00000000      0.00000000</v>
  </separator>
  <separator name="response functions" >
   <i type="logical" name="LADDER"> F  </i>
   <i type="logical" name="LFXC"> F  </i>
   <i type="logical" name="LHARTREE"> T  </i>
   <i type="int" name="IBSE">     0</i>
   <v type="int" name="KPOINT">    -1     0     0     0</v>
   <i type="logical" name="LTCTE"> F  </i>
   <i type="logical" name="LTETE"> F  </i>
   <i type="logical" name="LTRIPLET"> F  </i>
   <i type="logical" name="LFXCEPS"> F  </i>
   <i type="logical" name="LFXHEG"> F  </i>
   <i type="int" name="NATURALO">     0</i>
   <i type="logical" name="L2ORDER"> F  </i>
   <i type="logical" name="LUSEW"> F  </i>
   <i name="ENCUTGW">     -2.00000000</i>
   <i name="ENCUTGWSOFT">     -2.00000000</i>
   <i name="ENCUTLF">     -1.00000000</i>
   <i type="int" name="LMAXMP2">    -1</i>
   <i name="SCISSOR">      0.00000000</i>
   <i type="int" name="NOMEGA">     0</i>
   <i type="int" name="NOMEGAR">     0</i>
   <i type="int" name="NBANDSGW">    -1</i>
   <i type="int" name="NBANDSO">    -1</i>
   <i type="int" name="NBANDSV">    -1</i>
   <i type="int" name="NELM">     1</i>
   <i type="int" name="NELMHF">     1</i>
   <i type="int" name="DIM">     3</i>
   <i type="int" name="ANTIRES">     0</i>
   <i name="OMEGAMAX">    -30.00000000</i>
   <i name="OMEGAMIN">    -30.00000000</i>
   <i name="OMEGATL">   -200.00000000</i>
   <i type="int" name="OMEGAGRID">     0</i>
   <i name="CSHIFT">     -0.10000000</i>
   <i type="logical" name="SELFENERGY"> F  </i>
   <i type="logical" name="LSPECTRAL"> F  </i>
   <i type="logical" name="LSPECTRALGW"> F  </i>
   <i type="logical" name="LSINGLES"> F  </i>
   <i type="logical" name="LFERMIGW"> F  </i>
   <i type="logical" name="ODDONLYGW"> F  </i>
   <i type="logical" name="EVENONLYGW"> F  </i>
   <i type="int" name="NKREDLFX">     1</i>
   <i type="int" name="NKREDLFY">     1</i>
   <i type="int" name="NKREDLFZ">     1</i>
   <i type="int" name="MAXMEM">  1800</i>
   <i type="int" name="TELESCOPE">     0</i>
   <i type="int" name="TAUPAR">     1</i>
   <i type="int" name="OMEGAPAR">    -1</i>
   <i name="LAMBDA">      1.00000000</i>
  </separator>
  <separator name="External order field" >
   <i name="OFIELD_KAPPA">      0.00000000</i>
   <v name="OFIELD_K">      0.00000000      0.00000000      0.00000000</v>
   <i name="OFIELD_Q6_NEAR">      0.00000000</i>
   <i name="OFIELD_Q6_FAR">      0.00000000</i>
   <i name="OFIELD_A">      0.00000000</i>
  </separator>
 </parameters>
 <atominfo>
  <atoms>      27 </atoms>
  <types>       4 </types>
  <array name="atoms" >
   <dimension dim="1">ion</dimension>
   <field type="string">element</field>
   <field type="int">atomtype</field>
   <set>
    <rc><c>V </c><c>   1</c></rc>
    <rc><c>V </c><c>   1</c></rc>
    <rc><c>V </c><c>   1</c></rc>
    <rc><c>Mo</c><c>   2</c></rc>
    <rc><c>Mo</c><c>   2</c></rc>
    <rc><c>Mo</c><c>   2</c></rc>
    <rc><c>W </c><c>   3</c></rc>
    <rc><c>W </c><c>   3</c></rc>
    <rc><c>W </c><c>   3</c></rc>
    <rc><c>S </c><c>   4</c></rc>
    <rc><c>S </c><c>   4</c></rc>
    <rc><c>S </c><c>   4</c></rc>
    <rc><c>S </c><c>   4</c></rc>
    <rc><c>S </c><c>   4</c></rc>
    <rc><c>S </c><c>   4</c></rc>
    <rc><c>S </c><c>   4</c></rc>
    <rc><c>S </c><c>   4</c></rc>
    <rc><c>S </c><c>   4</c></rc>
    <rc><c>S </c><c>   4</c></rc>
    <rc><c>S </c><c>   4</c></rc>
    <rc><c>S </c><c>   4</c></rc>
    <rc><c>S </c><c>   4</c></rc>
    <rc><c>S </c><c>   4</c></rc>
    <rc><c>S </c><c>   4</c></rc>
    <rc><c>S </c><c>   4</c></rc>
    <rc><c>S </c><c>   4</c></rc>
    <rc><c>S </c><c>   4</c></rc>
   </set>
  </array>
  <array name="atomtypes" >
   <dimension dim="1">type</dimension>
   <field type="int">atomspertype</field>
   <field type="string">element</field>
   <field>mass</field>
   <field>valence</field>
   <field type="string">pseudopotential</field>
   <set>
    <rc><c>   3</c><c>V </c><c>     50.94100000</c><c>      5.00000000</c><c> PAW_PBE V 08Apr2002                    </c></rc>
    <rc><c>   3</c><c>Mo</c><c>     95.94000000</c><c>      6.00000000</c><c> PAW_PBE Mo 08Apr2002                   </c></rc>
    <rc><c>   3</c><c>W </c><c>    183.85000000</c><c>      6.00000000</c><c> PAW_PBE W 08Apr2002                    </c></rc>
    <rc><c>  18</c><c>S </c><c>     32.06600000</c><c>      6.00000000</c><c>  PAW_PBE S 17Jan2003                   </c></rc>
   </set>
  </array>
 </atominfo>
 <structure name="initialpos" >
  <crystal>
   <varray name="basis" >
    <v>       8.66999996       5.03999989       0.00000000 </v>
    <v>      -8.66999982       5.04000013       0.00000000 </v>
    <v>       0.00000000       0.00000000      30.00000000 </v>
   </varray>
   <i name="volume">   2621.80797419 </i>
   <varray name="rec_basis" >
    <v>       0.05767013       0.09920635       0.00000000 </v>
    <v>      -0.05767013       0.09920635       0.00000000 </v>
    <v>       0.00000000       0.00000000       0.03333333 </v>
   </varray>
  </crystal>
  <varray name="positions" >
   <v>       0.66666669       0.66666669       0.00000000 </v>
   <v>       0.33333334       0.00000000       0.00000000 </v>
   <v>       0.33333334       0.33333334       0.00000000 </v>
   <v>       0.66666669       0.00000000       0.00000000 </v>
   <v>       0.00000000       0.00000000       0.00000000 </v>
   <v>       1.00000000       0.33333334       0.00000000 </v>
   <v>       0.00000000       0.66666669       0.00000000 </v>
   <v>       0.33333334       0.66666669       0.00000000 </v>
   <v>       0.66666669       0.33333334       0.00000000 </v>
   <v>       0.11068511       0.22244981       0.95539999 </v>
   <v>       0.22244981       0.11068511       0.04460000 </v>
   <v>       0.11068511       0.55578315       0.95539999 </v>
   <v>       0.22244981       0.44401845       0.04460000 </v>
   <v>       0.11068511       0.88911647       0.95539999 </v>
   <v>       0.22244981       0.77735180       0.04460000 </v>
   <v>       0.44401845       0.22244981       0.95539999 </v>
   <v>       0.55578315       0.11068511       0.04460000 </v>
   <v>       0.44401845       0.55578315       0.95539999 </v>
   <v>       0.55578315       0.44401845       0.04460000 </v>
   <v>       0.44401845       0.88911647       0.95539999 </v>
   <v>       0.55578315       0.77735180       0.04460000 </v>
   <v>       0.77735180       0.22244981       0.95539999 </v>
   <v>       0.88911647       0.11068511       0.04460000 </v>
   <v>       0.77735180       0.55578315       0.95539999 </v>
   <v>       0.88911647       0.44401845       0.04460000 </v>
   <v>       0.77735180       0.88911647       0.95539999 </v>
   <v>       0.88911647       0.77735180       0.04460000 </v>
  </varray>
 </structure>
 <calculation>
  <scstep>
   <time name="dav">   22.08   22.13</time>
   <time name="total">   22.12   22.18</time>
   <energy>
    <i name="alphaZ">     81.65567618 </i>
    <i name="ewald">  41890.23011082 </i>
    <i name="hartreedc"> -47722.85866989 </i>
    <i name="XCdc">   -242.92972248 </i>
    <i name="pawpsdc">   3467.42045192 </i>
    <i name="pawaedc">  -2871.19716117 </i>
    <i name="eentropy">     -0.53437810 </i>
    <i name="bandstr">   -238.89339412 </i>
    <i name="atom">   6761.44252427 </i>
    <i name="e_fr_energy">   1124.33543743 </i>
    <i name="e_wo_entrp">   1124.86981553 </i>
    <i name="e_0_energy">   1124.60262648 </i>
   </energy>
  </scstep>
  <scstep>
   <time name="dav">   28.68   28.74</time>
   <time name="total">   28.68   28.75</time>
   <energy>
    <i name="e_fr_energy">     -4.39887184 </i>
    <i name="e_wo_entrp">     -4.21234212 </i>
    <i name="e_0_energy">     -4.30560698 </i>
   </energy>
  </scstep>
  <scstep>
   <time name="dav">   27.91   27.98</time>
   <time name="total">   27.91   27.99</time>
   <energy>
    <i name="e_fr_energy">   -199.72383958 </i>
    <i name="e_wo_entrp">   -199.45722978 </i>
    <i name="e_0_energy">   -199.59053468 </i>
   </energy>
  </scstep>
  <scstep>
   <time name="dav">   30.40   30.47</time>
   <time name="total">   30.40   30.48</time>
   <energy>
    <i name="e_fr_energy">   -208.90739181 </i>
    <i name="e_wo_entrp">   -208.59905918 </i>
    <i name="e_0_energy">   -208.75322549 </i>
   </energy>
  </scstep>
  <scstep>
   <time name="dav">   29.19   29.26</time>
   <time name="total">   29.66   29.74</time>
   <energy>
    <i name="e_fr_energy">   -209.24769188 </i>
    <i name="e_wo_entrp">   -208.94252117 </i>
    <i name="e_0_energy">   -209.09510652 </i>
   </energy>
  </scstep>
  <scstep>
   <time name="dav">   32.13   32.20</time>
   <time name="total">   32.63   32.72</time>
   <energy>
    <i name="e_fr_energy">   -236.66719262 </i>
    <i name="e_wo_entrp">   -236.39242216 </i>
    <i name="e_0_energy">   -236.52980739 </i>
   </energy>
  </scstep>
  <scstep>
   <time name="dav">   32.17   32.25</time>
   <time name="total">   32.68   32.77</time>
   <energy>
    <i name="e_fr_energy">   -196.77256568 </i>
    <i name="e_wo_entrp">   -196.43155068 </i>
    <i name="e_0_energy">   -196.60205818 </i>
   </energy>
  </scstep>
  <scstep>
   <time name="dav">   29.61   29.68</time>
   <time name="total">   30.12   30.20</time>
   <energy>
    <i name="e_fr_energy">   -190.25974434 </i>
    <i name="e_wo_entrp">   -189.99249272 </i>
    <i name="e_0_energy">   -190.12611853 </i>
   </energy>
  </scstep>
  <scstep>
   <time name="dav">   29.73   29.80</time>
   <time name="total">   30.25   30.33</time>
   <energy>
    <i name="e_fr_energy">   -188.30911158 </i>
    <i name="e_wo_entrp">   -187.98001460 </i>
    <i name="e_0_energy">   -188.14456309 </i>
   </energy>
  </scstep>
  <scstep>
   <time name="dav">   32.96   33.04</time>
   <time name="total">   33.49   33.58</time>
   <energy>
    <i name="e_fr_energy">   -187.16727697 </i>
    <i name="e_wo_entrp">   -186.82524378 </i>
    <i name="e_0_energy">   -186.99626037 </i>
   </energy>
  </scstep>
  <scstep>
   <time name="dav">   31.68   31.75</time>
   <time name="total">   32.21   32.30</time>
   <energy>
    <i name="e_fr_energy">   -187.00239646 </i>
    <i name="e_wo_entrp">   -186.65353491 </i>
    <i name="e_0_energy">   -186.82796569 </i>
   </energy>
  </scstep>
  <scstep>
   <time name="dav">   33.08   33.15</time>
   <time name="total">   33.61   33.70</time>
   <energy>
    <i name="e_fr_energy">   -187.08863553 </i>
    <i name="e_wo_entrp">   -186.75541281 </i>
    <i name="e_0_energy">   -186.92202417 </i>
   </energy>
  </scstep>
  <scstep>
   <time name="dav">   32.67   32.75</time>
   <time name="total">   33.22   33.30</time>
   <energy>
    <i name="e_fr_energy">   -186.93923741 </i>
    <i name="e_wo_entrp">   -186.60347453 </i>
    <i name="e_0_energy">   -186.77135597 </i>
   </energy>
  </scstep>
  <scstep>
   <time name="dav">   33.30   33.38</time>
   <time name="total">   33.83   33.93</time>
   <energy>
    <i name="e_fr_energy">   -186.90545062 </i>
    <i name="e_wo_entrp">   -186.56479833 </i>
    <i name="e_0_energy">   -186.73512447 </i>
   </energy>
  </scstep>
  <scstep>
   <time name="dav">   32.52   32.60</time>
   <time name="total">   33.06   33.15</time>
   <energy>
    <i name="e_fr_energy">   -186.89844291 </i>
    <i name="e_wo_entrp">   -186.55538970 </i>
    <i name="e_0_energy">   -186.72691630 </i>
   </energy>
  </scstep>
  <scstep>
   <time name="dav">   32.58   32.65</time>
   <time name="total">   33.11   33.20</time>
   <energy>
    <i name="e_fr_energy">   -186.89085055 </i>
    <i name="e_wo_entrp">   -186.54733388 </i>
    <i name="e_0_energy">   -186.71909221 </i>
   </energy>
  </scstep>
  <scstep>
   <time name="dav">   32.56   32.64</time>
   <time name="total">   33.10   33.19</time>
   <energy>
    <i name="e_fr_energy">   -186.88865724 </i>
    <i name="e_wo_entrp">   -186.54620856 </i>
    <i name="e_0_energy">   -186.71743290 </i>
   </energy>
  </scstep>
  <scstep>
   <time name="dav">   32.30   32.38</time>
   <time name="total">   32.84   32.92</time>
   <energy>
    <i name="e_fr_energy">   -186.88764499 </i>
    <i name="e_wo_entrp">   -186.54626072 </i>
    <i name="e_0_energy">   -186.71695285 </i>
   </energy>
  </scstep>
  <scstep>
   <time name="dav">   29.59   29.66</time>
   <time name="total">   30.13   30.21</time>
   <energy>
    <i name="e_fr_energy">   -186.88733173 </i>
    <i name="e_wo_entrp">   -186.54535154 </i>
    <i name="e_0_energy">   -186.71634163 </i>
   </energy>
  </scstep>
  <scstep>
   <time name="dav">   23.97   24.03</time>
   <time name="total">   24.51   24.58</time>
   <energy>
    <i name="e_fr_energy">   -186.88809243 </i>
    <i name="e_wo_entrp">   -186.54644569 </i>
    <i name="e_0_energy">   -186.71726906 </i>
   </energy>
  </scstep>
  <scstep>
   <time name="dav">   22.57   22.62</time>
   <time name="total">   23.10   23.17</time>
   <energy>
    <i name="e_fr_energy">   -186.88865815 </i>
    <i name="e_wo_entrp">   -186.54694937 </i>
    <i name="e_0_energy">   -186.71780376 </i>
   </energy>
  </scstep>
  <scstep>
   <time name="dav">   20.76   20.81</time>
   <time name="total">   21.30   21.36</time>
   <energy>
    <i name="e_fr_energy">   -186.88979228 </i>
    <i name="e_wo_entrp">   -186.54803792 </i>
    <i name="e_0_energy">   -186.71891510 </i>
   </energy>
  </scstep>
  <scstep>
   <time name="dav">   20.64   20.69</time>
   <time name="total">   21.18   21.24</time>
   <energy>
    <i name="e_fr_energy">   -186.89104245 </i>
    <i name="e_wo_entrp">   -186.54940575 </i>
    <i name="e_0_energy">   -186.72022410 </i>
   </energy>
  </scstep>
  <scstep>
   <time name="dav">   19.46   19.51</time>
   <time name="total">   20.00   20.05</time>
   <energy>
    <i name="e_fr_energy">   -186.89161191 </i>
    <i name="e_wo_entrp">   -186.54993622 </i>
    <i name="e_0_energy">   -186.72077406 </i>
   </energy>
  </scstep>
  <scstep>
   <time name="dav">   16.55   16.59</time>
   <time name="total">   17.09   17.14</time>
   <energy>
    <i name="e_fr_energy">   -186.89200005 </i>
    <i name="e_wo_entrp">   -186.55028925 </i>
    <i name="e_0_energy">   -186.72114465 </i>
   </energy>
  </scstep>
  <scstep>
   <time name="dav">   19.39   19.44</time>
   <time name="total">   19.93   19.98</time>
   <energy>
    <i name="e_fr_energy">   -186.89224251 </i>
    <i name="e_wo_entrp">   -186.55054814 </i>
    <i name="e_0_energy">   -186.72139532 </i>
   </energy>
  </scstep>
  <scstep>
   <time name="dav">   20.45   20.50</time>
   <time name="total">   20.49   20.54</time>
   <energy>
    <i name="alphaZ">     81.65567618 </i>
    <i name="ewald">  41890.23011082 </i>
    <i name="hartreedc"> -47833.16506110 </i>
    <i name="XCdc">   -231.59854130 </i>
    <i name="pawpsdc">   4192.18471299 </i>
    <i name="pawaedc">  -3610.20931452 </i>
    <i name="eentropy">     -0.34169508 </i>
    <i name="bandstr">  -1437.09075423 </i>
    <i name="atom">   6761.44252427 </i>
    <i name="e_fr_energy">   -186.89234199 </i>
    <i name="e_wo_entrp">   -186.55064690 </i>
    <i name="e_0_energy">   -186.72149444 </i>
   </energy>
  </scstep>
  <structure>
   <crystal>
    <varray name="basis" >
     <v>       8.66999996       5.03999989       0.00000000 </v>
     <v>      -8.66999982       5.04000013       0.00000000 </v>
     <v>       0.00000000       0.00000000      30.00000000 </v>
    </varray>
    <i name="volume">   2621.80797419 </i>
    <varray name="rec_basis" >
     <v>       0.05767013       0.09920635       0.00000000 </v>
     <v>      -0.05767013       0.09920635       0.00000000 </v>
     <v>       0.00000000       0.00000000       0.03333333 </v>
    </varray>
   </crystal>
   <varray name="positions" >
    <v>       0.66666669       0.66666669       0.00000000 </v>
    <v>       0.33333334       0.00000000       0.00000000 </v>
    <v>       0.33333334       0.33333334       0.00000000 </v>
    <v>       0.66666669       0.00000000       0.00000000 </v>
    <v>       0.00000000       0.00000000       0.00000000 </v>
    <v>       1.00000000       0.33333334       0.00000000 </v>
    <v>       0.00000000       0.66666669       0.00000000 </v>
    <v>       0.33333334       0.66666669       0.00000000 </v>
    <v>       0.66666669       0.33333334       0.00000000 </v>
    <v>       0.11068511       0.22244981       0.95539999 </v>
    <v>       0.22244981       0.11068511       0.04460000 </v>
    <v>       0.11068511       0.55578315       0.95539999 </v>
    <v>       0.22244981       0.44401845       0.04460000 </v>
    <v>       0.11068511       0.88911647       0.95539999 </v>
    <v>       0.22244981       0.77735180       0.04460000 </v>
    <v>       0.44401845       0.22244981       0.95539999 </v>
    <v>       0.55578315       0.11068511       0.04460000 </v>
    <v>       0.44401845       0.55578315       0.95539999 </v>
    <v>       0.55578315       0.44401845       0.04460000 </v>
    <v>       0.44401845       0.88911647       0.95539999 </v>
    <v>       0.55578315       0.77735180       0.04460000 </v>
    <v>       0.77735180       0.22244981       0.95539999 </v>
    <v>       0.88911647       0.11068511       0.04460000 </v>
    <v>       0.77735180       0.55578315       0.95539999 </v>
    <v>       0.88911647       0.44401845       0.04460000 </v>
    <v>       0.77735180       0.88911647       0.95539999 </v>
    <v>       0.88911647       0.77735180       0.04460000 </v>
   </varray>
  </structure>
  <varray name="forces" >
   <v>      -0.20260772       0.28161122      -0.06907169 </v>
   <v>      -0.07042178       0.02794263       0.09412651 </v>
   <v>      -0.14142135      -0.32607618       0.04169204 </v>
   <v>       0.27386661       0.43413950      -0.14343343 </v>
   <v>      -0.50688396       0.04187631      -0.00271053 </v>
   <v>       0.26050564      -0.44302153      -0.02715503 </v>
   <v>      -0.05400176       0.01024661       0.09981083 </v>
   <v>       0.10623599       0.03550158      -0.05756226 </v>
   <v>       0.39539384      -0.08272244       0.06456902 </v>
   <v>       0.52070090       0.69632561      -2.17391617 </v>
   <v>       0.34475497       0.67648857       1.42252062 </v>
   <v>       0.07614303       0.11258347      -2.85778270 </v>
   <v>       0.64806273       0.14334001       2.10474566 </v>
   <v>       0.60901275       0.55186001      -2.11429565 </v>
   <v>      -0.49114463       0.58161382       2.22108954 </v>
   <v>      -0.24039675      -0.52588071      -1.41197577 </v>
   <v>      -0.64697134      -0.56740477       2.14582455 </v>
   <v>       0.73726938       0.01910495      -1.48680398 </v>
   <v>      -0.73878915       0.00464836       1.40936159 </v>
   <v>      -0.64693609      -0.14166983      -2.06717088 </v>
   <v>       0.65080893      -0.15423840       2.09157827 </v>
   <v>      -0.03533209      -0.00532799      -2.93897079 </v>
   <v>      -0.11126419       0.02064651       2.94262830 </v>
   <v>      -0.63680575      -0.00129984      -2.13597561 </v>
   <v>      -0.27090889       0.02922214       2.90230046 </v>
   <v>       0.51833645      -0.72231058      -2.18968878 </v>
   <v>      -0.34720577      -0.69719901       2.13626591 </v>
  </varray>
  <varray name="stress" >
   <v>       7.34138946       0.09125730      -1.52161482 </v>
   <v>       0.09125729       4.43525696       0.04390171 </v>
   <v>      -1.52161484       0.04390162      30.27611166 </v>
  </varray>
  <energy>
   <i name="e_fr_energy">   -186.89234199 </i>
   <i name="e_wo_entrp">   -186.72149444 </i>
   <i name="e_0_energy">     -0.34169508 </i>
  </energy>
  <time name="totalsc">  804.05  806.20</time>
 </calculation>
 <calculation>
  <scstep>
   <time name="dav">   22.03   22.09</time>
   <time name="total">   22.58   22.64</time>
   <energy>
    <i name="alphaZ">     78.91635922 </i>
    <i name="ewald">  39378.03239526 </i>
    <i name="hartreedc"> -45335.60039221 </i>
    <i name="XCdc">   -239.05556893 </i>
    <i name="pawpsdc">   4192.16318229 </i>
    <i name="pawaedc">  -3610.18807820 </i>
    <i name="eentropy">     -0.28017261 </i>
    <i name="bandstr">  -1412.96263657 </i>
    <i name="atom">   6761.44252427 </i>
    <i name="e_fr_energy">   -187.53238747 </i>
    <i name="e_wo_entrp">   -187.25221486 </i>
    <i name="e_0_energy">   -187.39230116 </i>
   </energy>
  </scstep>
  <scstep>
   <time name="dav">   30.89   30.97</time>
   <time name="total">   31.43   31.51</time>
   <energy>
    <i name="e_fr_energy">   -189.53521946 </i>
    <i name="e_wo_entrp">   -189.20302535 </i>
    <i name="e_0_energy">   -189.36912241 </i>
   </energy>
  </scstep>
  <scstep>
   <time name="dav">   30.92   30.99</time>
   <time name="total">   31.47   31.55</time>
   <energy>
    <i name="e_fr_energy">   -189.35365568 </i>
    <i name="e_wo_entrp">   -189.08252238 </i>
    <i name="e_0_energy">   -189.21808903 </i>
   </energy>
  </scstep>
  <scstep>
   <time name="dav">   31.35   31.42</time>
   <time name="total">   31.92   32.01</time>
   <energy>
    <i name="e_fr_energy">   -188.78843986 </i>
    <i name="e_wo_entrp">   -188.50796364 </i>
    <i name="e_0_energy">   -188.64820175 </i>
   </energy>
  </scstep>
  <scstep>
   <time name="dav">   28.75   28.82</time>
   <time name="total">   29.29   29.37</time>
   <energy>
    <i name="e_fr_energy">   -188.85795599 </i>
    <i name="e_wo_entrp">   -188.57257005 </i>
    <i name="e_0_energy">   -188.71526302 </i>
   </energy>
  </scstep>
  <scstep>
   <time name="dav">   32.01   32.09</time>
   <time name="total">   32.56   32.65</time>
   <energy>
    <i name="e_fr_energy">   -188.77213709 </i>
    <i name="e_wo_entrp">   -188.49263973 </i>
    <i name="e_0_energy">   -188.63238841 </i>
   </energy>
  </scstep>
  <scstep>
   <time name="dav">   30.92   31.00</time>
   <time name="total">   31.47   31.56</time>
   <energy>
    <i name="e_fr_energy">   -188.72823080 </i>
    <i name="e_wo_entrp">   -188.44787107 </i>
    <i name="e_0_energy">   -188.58805093 </i>
   </energy>
  </scstep>
  <scstep>
   <time name="dav">   32.11   32.19</time>
   <time name="total">   32.66   32.74</time>
   <energy>
    <i name="e_fr_energy">   -188.71167705 </i>
    <i name="e_wo_entrp">   -188.43202350 </i>
    <i name="e_0_energy">   -188.57185027 </i>
   </energy>
  </scstep>
  <scstep>
   <time name="dav">   30.10   30.17</time>
   <time name="total">   30.64   30.73</time>
   <energy>
    <i name="e_fr_energy">   -188.70166534 </i>
    <i name="e_wo_entrp">   -188.42300280 </i>
    <i name="e_0_energy">   -188.56233407 </i>
   </energy>
  </scstep>
  <scstep>
   <time name="dav">   29.76   29.83</time>
   <time name="total">   30.31   30.39</time>
   <energy>
    <i name="e_fr_energy">   -188.70056716 </i>
    <i name="e_wo_entrp">   -188.42230695 </i>
    <i name="e_0_energy">   -188.56143705 </i>
   </energy>
  </scstep>
  <scstep>
   <time name="dav">   30.55   30.62</time>
   <time name="total">   31.10   31.18</time>
   <energy>
    <i name="e_fr_energy">   -188.70012894 </i>
    <i name="e_wo_entrp">   -188.42209938 </i>
    <i name="e_0_energy">   -188.56111416 </i>
   </energy>
  </scstep>
  <scstep>
   <time name="dav">   29.29   29.36</time>
   <time name="total">   29.84   29.92</time>
   <energy>
    <i name="e_fr_energy">   -188.70022921 </i>
    <i name="e_wo_entrp">   -188.42233626 </i>
    <i name="e_0_energy">   -188.56128273 </i>
   </energy>
  </scstep>
  <scstep>
   <time name="dav">   21.44   21.50</time>
   <time name="total">   21.48   21.54</time>
   <energy>
    <i name="alphaZ">     78.91635922 </i>
    <i name="ewald">  39378.03239526 </i>
    <i name="hartreedc"> -45346.32750075 </i>
    <i name="XCdc">   -237.96917259 </i>
    <i name="pawpsdc">   3950.51431329 </i>
    <i name="pawaedc">  -3365.03440940 </i>
    <i name="eentropy">     -0.27799481 </i>
    <i name="bandstr">  -1407.99669137 </i>
    <i name="atom">   6761.44252427 </i>
    <i name="e_fr_energy">   -188.70017688 </i>
    <i name="e_wo_entrp">   -188.42218207 </i>
    <i name="e_0_energy">   -188.56117947 </i>
   </energy>
  </scstep>
  <structure>
   <crystal>
    <varray name="basis" >
     <v>       8.85744848       5.10767251       0.00000000 </v>
     <v>      -8.85475875       5.10304602       0.00000000 </v>
     <v>       0.00000000       0.00000000      30.00000000 </v>
    </varray>
    <i name="volume">   2712.81525214 </i>
    <varray name="rec_basis" >
     <v>       0.05643266       0.09792144       0.00000000 </v>
     <v>      -0.05648382       0.09795118       0.00000000 </v>
     <v>       0.00000000       0.00000000       0.03333333 </v>
    </varray>
   </crystal>
   <varray name="positions" >
    <v>       0.66745078       0.66857816      -0.00011107 </v>
    <v>       0.33327115       0.00032966       0.00015136 </v>
    <v>       0.33137929       0.33216621       0.00006704 </v>
    <v>       0.66950641       0.00131584      -0.00023065 </v>
    <v>      -0.00120981       0.00161065      -0.00000436 </v>
    <v>       0.99860448       0.33048828      -0.00004367 </v>
    <v>      -0.00010120       0.66686597       0.00016050 </v>
    <v>       0.33379882       0.66654103      -0.00009257 </v>
    <v>       0.66737083       0.33183739       0.00010383 </v>
    <v>       0.11546638       0.22433373       0.95190414 </v>
    <v>       0.22664663       0.11296361       0.04688754 </v>
    <v>       0.11143577       0.55611013       0.95080442 </v>
    <v>       0.22493885       0.44290146       0.04798462 </v>
    <v>       0.11502067       0.89006328       0.95200002 </v>
    <v>       0.22386696       0.78150183       0.04817171 </v>
    <v>       0.44083278       0.22060178       0.95312941 </v>
    <v>       0.55126759       0.10976950       0.04805067 </v>
    <v>       0.44616109       0.55382339       0.95300908 </v>
    <v>       0.55374997       0.44609613       0.04686638 </v>
    <v>       0.44154054       0.89023832       0.95207580 </v>
    <v>       0.55685563       0.77480296       0.04796344 </v>
    <v>       0.77722800       0.22252261       0.95067387 </v>
    <v>       0.88890573       0.11109348       0.04933201 </v>
    <v>       0.77557388       0.55754863       0.95196515 </v>
    <v>       0.88850261       0.44491202       0.04926715 </v>
    <v>       0.77533693       0.88421741       0.95187878 </v>
    <v>       0.88481371       0.77498100       0.04803530 </v>
   </varray>
  </structure>
  <varray name="forces" >
   <v>      -0.17189918       0.25332946       0.05357741 </v>
   <v>      -0.00837078      -0.06685869      -0.03410358 </v>
   <v>      -0.14818746      -0.25596243       0.09582157 </v>
   <v>       0.23067283       0.61952891      -0.03609657 </v>
   <v>      -0.59339609      -0.03047972      -0.00568636 </v>
   <v>       0.09395664      -0.56887514      -0.00237921 </v>
   <v>       0.09865310       0.00383029      -0.05776235 </v>
   <v>      -0.07965542      -0.04271618      -0.08485529 </v>
   <v>       0.52241011       0.08998174       0.10028070 </v>
   <v>       0.03945060       0.06651731      -0.15519416 </v>
   <v>      -0.01472884       0.04172887      -0.05106039 </v>
   <v>      -0.06835384       0.08501923       0.10841181 </v>
   <v>      -0.02090445       0.10226961      -0.03733479 </v>
   <v>       0.06706520      -0.05154299       0.16152614 </v>
   <v>       0.04433049      -0.04443935      -0.01954899 </v>
   <v>       0.05653274       0.08023146       0.16316032 </v>
   <v>      -0.06278724       0.05296295      -0.02756751 </v>
   <v>      -0.09823957       0.00135816       0.13077472 </v>
   <v>       0.11178682      -0.00203727      -0.33600129 </v>
   <v>       0.02898825      -0.09843922       0.11041747 </v>
   <v>      -0.02745339      -0.10108465      -0.06396238 </v>
   <v>      -0.12504933      -0.00424123      -0.26882654 </v>
   <v>       0.00775506      -0.00695306       0.34929370 </v>
   <v>       0.07933683      -0.01401342       0.12380690 </v>
   <v>      -0.08301003       0.00413214       0.03701436 </v>
   <v>       0.02332278      -0.06122124      -0.20467068 </v>
   <v>       0.09777417      -0.05202554      -0.04903499 </v>
  </varray>
  <varray name="stress" >
   <v>     -19.90056257      -0.01645066       0.04263383 </v>
   <v>      -0.01645070     -19.46631444      -0.01594585 </v>
   <v>       0.04263370      -0.01594567      -1.75465644 </v>
  </varray>
  <energy>
   <i name="e_fr_energy">   -188.70017688 </i>
   <i name="e_wo_entrp">   -188.56117947 </i>
   <i name="e_0_energy">     -0.27799481 </i>
  </energy>
  <time name="totalsc">  429.67  430.82</time>
 </calculation>
 <calculation>
  <scstep>
   <time name="dav">   23.70   23.76</time>
   <time name="total">   24.24   24.30</time>
   <energy>
    <i name="alphaZ">     82.33632817 </i>
    <i name="ewald">  41299.01046388 </i>
    <i name="hartreedc"> -47297.74533021 </i>
    <i name="XCdc">   -233.85170483 </i>
    <i name="pawpsdc">   3949.79317852 </i>
    <i name="pawaedc">  -3364.30694534 </i>
    <i name="eentropy">     -0.23491963 </i>
    <i name="bandstr">  -1387.06652389 </i>
    <i name="atom">   6761.44252427 </i>
    <i name="e_fr_energy">   -190.62292906 </i>
    <i name="e_wo_entrp">   -190.38800943 </i>
    <i name="e_0_energy">   -190.50546924 </i>
   </energy>
  </scstep>
  <scstep>
   <time name="dav">   28.58   28.65</time>
   <time name="total">   29.11   29.19</time>
   <energy>
    <i name="e_fr_energy">   -190.57181806 </i>
    <i name="e_wo_entrp">   -190.33770014 </i>
    <i name="e_0_energy">   -190.45475910 </i>
   </energy>
  </scstep>
  <scstep>
   <time name="dav">   30.80   30.88</time>
   <time name="total">   31.33   31.42</time>
   <energy>
    <i name="e_fr_energy">   -190.10662331 </i>
    <i name="e_wo_entrp">   -189.85628403 </i>
    <i name="e_0_energy">   -189.98145367 </i>
   </energy>
  </scstep>
  <scstep>
   <time name="dav">   31.76   31.84</time>
   <time name="total">   32.30   32.39</time>
   <energy>
    <i name="e_fr_energy">   -189.89847675 </i>
    <i name="e_wo_entrp">   -189.66496894 </i>
    <i name="e_0_energy">   -189.78172285 </i>
   </energy>
  </scstep>
  <scstep>
   <time name="dav">   30.61   30.69</time>
   <time name="total">   31.15   31.23</time>
   <energy>
    <i name="e_fr_energy">   -189.87669075 </i>
    <i name="e_wo_entrp">   -189.63810105 </i>
    <i name="e_0_energy">   -189.75739590 </i>
   </energy>
  </scstep>
  <scstep>
   <time name="dav">   31.18   31.26</time>
   <time name="total">   31.72   31.80</time>
   <energy>
    <i name="e_fr_energy">   -189.80053079 </i>
    <i name="e_wo_entrp">   -189.56321042 </i>
    <i name="e_0_energy">   -189.68187061 </i>
   </energy>
  </scstep>
  <scstep>
   <time name="dav">   29.30   29.37</time>
   <time name="total">   29.83   29.91</time>
   <energy>
    <i name="e_fr_energy">   -189.79363736 </i>
    <i name="e_wo_entrp">   -189.55704989 </i>
    <i name="e_0_energy">   -189.67534362 </i>
   </energy>
  </scstep>
  <scstep>
   <time name="dav">   28.37   28.44</time>
   <time name="total">   28.91   28.99</time>
   <energy>
    <i name="e_fr_energy">   -189.79374072 </i>
    <i name="e_wo_entrp">   -189.55703200 </i>
    <i name="e_0_energy">   -189.67538636 </i>
   </energy>
  </scstep>
  <scstep>
   <time name="dav">   27.37   27.43</time>
   <time name="total">   27.90   27.98</time>
   <energy>
    <i name="e_fr_energy">   -189.79392752 </i>
    <i name="e_wo_entrp">   -189.55723529 </i>
    <i name="e_0_energy">   -189.67558141 </i>
   </energy>
  </scstep>
  <scstep>
   <time name="dav">   25.76   25.82</time>
   <time name="total">   26.29   26.37</time>
   <energy>
    <i name="e_fr_energy">   -189.79405512 </i>
    <i name="e_wo_entrp">   -189.55738896 </i>
    <i name="e_0_energy">   -189.67572204 </i>
   </energy>
  </scstep>
  <scstep>
   <time name="dav">   24.67   24.73</time>
   <time name="total">   25.21   25.28</time>
   <energy>
    <i name="e_fr_energy">   -189.79368663 </i>
    <i name="e_wo_entrp">   -189.55690243 </i>
    <i name="e_0_energy">   -189.67529453 </i>
   </energy>
  </scstep>
  <scstep>
   <time name="dav">   19.01   19.06</time>
   <time name="total">   19.05   19.10</time>
   <energy>
    <i name="alphaZ">     82.33632817 </i>
    <i name="ewald">  41299.01046388 </i>
    <i name="hartreedc"> -47271.30065302 </i>
    <i name="XCdc">   -235.24072540 </i>
    <i name="pawpsdc">   4038.90498164 </i>
    <i name="pawaedc">  -3454.61995994 </i>
    <i name="eentropy">     -0.23677847 </i>
    <i name="bandstr">  -1410.08989639 </i>
    <i name="atom">   6761.44252427 </i>
    <i name="e_fr_energy">   -189.79371526 </i>
    <i name="e_wo_entrp">   -189.55693678 </i>
    <i name="e_0_energy">   -189.67532602 </i>
   </energy>
  </scstep>
  <structure>
   <crystal>
    <varray name="basis" >
     <v>       8.66940349       5.00149718       0.00000000 </v>
     <v>      -8.66694995       4.99727742       0.00000000 </v>
     <v>       0.00000000       0.00000000      30.00000000 </v>
    </varray>
    <i name="volume">   2600.13420200 </i>
    <varray name="rec_basis" >
     <v>       0.05765792       0.09999811       0.00000000 </v>
     <v>      -0.05770660       0.10002642       0.00000000 </v>
     <v>       0.00000000       0.00000000       0.03333333 </v>
    </varray>
   </crystal>
   <varray name="positions" >
    <v>       0.66770763       0.66916517      -0.00008071 </v>
    <v>       0.33315180       0.00022634       0.00013203 </v>
    <v>       0.33081092       0.33188222       0.00012135 </v>
    <v>       0.67075926       0.00212612      -0.00025111 </v>
    <v>      -0.00182995       0.00212979      -0.00000758 </v>
    <v>       0.99774746       0.32945058      -0.00004502 </v>
    <v>      -0.00000016       0.66677760       0.00012777 </v>
    <v>       0.33365126       0.66654639      -0.00014066 </v>
    <v>       0.66802192       0.33148552       0.00016067 </v>
    <v>       0.11561499       0.22440663       0.95181618 </v>
    <v>       0.22670198       0.11304725       0.04685860 </v>
    <v>       0.11151174       0.55631738       0.95086587 </v>
    <v>       0.22508907       0.44309187       0.04796346 </v>
    <v>       0.11499920       0.88991303       0.95209157 </v>
    <v>       0.22383550       0.78138524       0.04816063 </v>
    <v>       0.44102061       0.22068111       0.95322188 </v>
    <v>       0.55129552       0.10991801       0.04803505 </v>
    <v>       0.44606909       0.55392000       0.95308320 </v>
    <v>       0.55385384       0.44598538       0.04667594 </v>
    <v>       0.44140446       0.89004653       0.95213838 </v>
    <v>       0.55666098       0.77466097       0.04792719 </v>
    <v>       0.77710095       0.22263564       0.95052150 </v>
    <v>       0.88890159       0.11107445       0.04952998 </v>
    <v>       0.77562668       0.55744909       0.95203532 </v>
    <v>       0.88842984       0.44499863       0.04928813 </v>
    <v>       0.77525738       0.88409305       0.95176277 </v>
    <v>       0.88482090       0.77480045       0.04800751 </v>
   </varray>
  </structure>
  <varray name="forces" >
   <v>      -0.16120521       0.26473147       0.07194707 </v>
   <v>       0.03003069      -0.11548872      -0.05509163 </v>
   <v>      -0.16280536      -0.24153095       0.08627967 </v>
   <v>       0.21474105       0.65775849      -0.00157957 </v>
   <v>      -0.59992299      -0.06236762      -0.01004296 </v>
   <v>       0.03010443      -0.59470197       0.00329481 </v>
   <v>       0.15169561      -0.00346893      -0.07737807 </v>
   <v>      -0.14725578      -0.06497620      -0.06234466 </v>
   <v>       0.56288206       0.14932713       0.08273383 </v>
   <v>       0.07493085       0.12748341      -0.65507035 </v>
   <v>       0.01388003       0.08518735       0.39543519 </v>
   <v>      -0.01974478       0.00231298      -0.43368881 </v>
   <v>       0.07505635       0.02391563       0.44842455 </v>
   <v>       0.03746130       0.07761908      -0.31384883 </v>
   <v>      -0.02567345       0.08268289       0.50362674 </v>
   <v>      -0.01815140      -0.03515732      -0.27997689 </v>
   <v>      -0.03349628      -0.08514867       0.47058951 </v>
   <v>       0.07330428      -0.00307722      -0.33025252 </v>
   <v>      -0.03370790      -0.00043292       0.09719933 </v>
   <v>      -0.07359447      -0.00633510      -0.36814960 </v>
   <v>       0.06565100      -0.02038624       0.41355580 </v>
   <v>      -0.04296471      -0.00284124      -0.85493002 </v>
   <v>       0.00635766      -0.01033265       0.91660050 </v>
   <v>      -0.06088702      -0.02758525      -0.37051227 </v>
   <v>       0.00554138       0.01420790       0.60236523 </v>
   <v>       0.06296869      -0.11553847      -0.71819947 </v>
   <v>      -0.02519601      -0.09585688       0.43901339 </v>
  </varray>
  <varray name="stress" >
   <v>     -10.14857679      -0.01588005       0.01869903 </v>
   <v>      -0.01587997      -9.81657111      -0.02799428 </v>
   <v>       0.01869895      -0.02799439       6.47765187 </v>
  </varray>
  <energy>
   <i name="e_fr_energy">   -189.79371526 </i>
   <i name="e_wo_entrp">   -189.67532602 </i>
   <i name="e_0_energy">     -0.23677847 </i>
  </energy>
  <time name="totalsc">  379.89  380.91</time>
 </calculation>
 <calculation>
  <scstep>
   <time name="dav">   22.02   22.07</time>
   <time name="total">   22.54   22.60</time>
   <energy>
    <i name="alphaZ">     85.80730813 </i>
    <i name="ewald">  42827.97186992 </i>
    <i name="hartreedc"> -48844.59354891 </i>
    <i name="XCdc">   -232.95580565 </i>
    <i name="pawpsdc">   4038.94983668 </i>
    <i name="pawaedc">  -3454.66283648 </i>
    <i name="eentropy">     -0.20509660 </i>
    <i name="bandstr">  -1373.12122455 </i>
    <i name="atom">   6761.44252427 </i>
    <i name="e_fr_energy">   -191.36697319 </i>
    <i name="e_wo_entrp">   -191.16187659 </i>
    <i name="e_0_energy">   -191.26442489 </i>
   </energy>
  </scstep>
  <scstep>
   <time name="dav">   32.70   32.78</time>
   <time name="total">   33.21   33.30</time>
   <energy>
    <i name="e_fr_energy">   -191.20416152 </i>
    <i name="e_wo_entrp">   -190.99907117 </i>
    <i name="e_0_energy">   -191.10161635 </i>
   </energy>
  </scstep>
  <scstep>
   <time name="dav">   30.47   30.54</time>
   <time name="total">   30.98   31.06</time>
   <energy>
    <i name="e_fr_energy">   -191.30966883 </i>
    <i name="e_wo_entrp">   -191.08148740 </i>
    <i name="e_0_energy">   -191.19557812 </i>
   </energy>
  </scstep>
  <scstep>
   <time name="dav">   31.05   31.13</time>
   <time name="total">   31.57   31.66</time>
   <energy>
    <i name="e_fr_energy">   -190.93614605 </i>
    <i name="e_wo_entrp">   -190.72792873 </i>
    <i name="e_0_energy">   -190.83203739 </i>
   </energy>
  </scstep>
  <scstep>
   <time name="dav">   31.03   31.10</time>
   <time name="total">   31.55   31.64</time>
   <energy>
    <i name="e_fr_energy">   -190.88669708 </i>
    <i name="e_wo_entrp">   -190.67961827 </i>
    <i name="e_0_energy">   -190.78315767 </i>
   </energy>
  </scstep>
  <scstep>
   <time name="dav">   30.58   30.66</time>
   <time name="total">   31.10   31.18</time>
   <energy>
    <i name="e_fr_energy">   -190.80517689 </i>
    <i name="e_wo_entrp">   -190.59441194 </i>
    <i name="e_0_energy">   -190.69979442 </i>
   </energy>
  </scstep>
  <scstep>
   <time name="dav">   31.55   31.62</time>
   <time name="total">   32.07   32.15</time>
   <energy>
    <i name="e_fr_energy">   -190.79011580 </i>
    <i name="e_wo_entrp">   -190.58025814 </i>
    <i name="e_0_energy">   -190.68518697 </i>
   </energy>
  </scstep>
  <scstep>
   <time name="dav">   26.25   26.31</time>
   <time name="total">   26.76   26.84</time>
   <energy>
    <i name="e_fr_energy">   -190.78752651 </i>
    <i name="e_wo_entrp">   -190.57782321 </i>
    <i name="e_0_energy">   -190.68267486 </i>
   </energy>
  </scstep>
  <scstep>
   <time name="dav">   29.41   29.48</time>
   <time name="total">   29.93   30.01</time>
   <energy>
    <i name="e_fr_energy">   -190.78791461 </i>
    <i name="e_wo_entrp">   -190.57819291 </i>
    <i name="e_0_energy">   -190.68305376 </i>
   </energy>
  </scstep>
  <scstep>
   <time name="dav">   27.95   28.02</time>
   <time name="total">   28.47   28.55</time>
   <energy>
    <i name="e_fr_energy">   -190.78764758 </i>
    <i name="e_wo_entrp">   -190.57792110 </i>
    <i name="e_0_energy">   -190.68278434 </i>
   </energy>
  </scstep>
  <scstep>
   <time name="dav">   24.14   24.20</time>
   <time name="total">   24.67   24.73</time>
   <energy>
    <i name="e_fr_energy">   -190.78754235 </i>
    <i name="e_wo_entrp">   -190.57781471 </i>
    <i name="e_0_energy">   -190.68267853 </i>
   </energy>
  </scstep>
  <scstep>
   <time name="dav">   20.42   20.47</time>
   <time name="total">   20.46   20.51</time>
   <energy>
    <i name="alphaZ">     85.80730813 </i>
    <i name="ewald">  42827.97186992 </i>
    <i name="hartreedc"> -48816.09434837 </i>
    <i name="XCdc">   -234.28221710 </i>
    <i name="pawpsdc">   4064.14595345 </i>
    <i name="pawaedc">  -3480.04234449 </i>
    <i name="eentropy">     -0.20976920 </i>
    <i name="bandstr">  -1399.52651635 </i>
    <i name="atom">   6761.44252427 </i>
    <i name="e_fr_energy">   -190.78753974 </i>
    <i name="e_wo_entrp">   -190.57777053 </i>
    <i name="e_0_energy">   -190.68265513 </i>
   </energy>
  </scstep>
  <structure>
   <crystal>
    <varray name="basis" >
     <v>       8.48753268       4.90136989       0.00000000 </v>
     <v>      -8.48569221       4.89820807       0.00000000 </v>
     <v>       0.00000000       0.00000000      30.00000000 </v>
    </varray>
    <i name="volume">   2494.95652057 </i>
    <varray name="rec_basis" >
     <v>       0.05889732       0.10203415       0.00000000 </v>
     <v>      -0.05893533       0.10205628       0.00000000 </v>
     <v>       0.00000000       0.00000000       0.03333333 </v>
    </varray>
   </crystal>
   <varray name="positions" >
    <v>       0.66882724       0.67141952       0.00008383 </v>
    <v>       0.33247085      -0.00078231       0.00000017 </v>
    <v>       0.32872508       0.33101461       0.00029187 </v>
    <v>       0.67572706       0.00558896      -0.00022508 </v>
    <v>      -0.00447642       0.00383762      -0.00003207 </v>
    <v>       0.99397525       0.32564339      -0.00003338 </v>
    <v>       0.00058407       0.66611298      -0.00004907 </v>
    <v>       0.33255974       0.66671336      -0.00025061 </v>
    <v>       0.67119651       0.33047606       0.00031705 </v>
    <v>       0.11688714       0.22503548       0.95003572 </v>
    <v>       0.22743516       0.11359803       0.04805626 </v>
    <v>       0.11131851       0.55612700       0.94950786 </v>
    <v>       0.22545247       0.44263686       0.04930414 </v>
    <v>       0.11590023       0.89062869       0.95103829 </v>
    <v>       0.22447705       0.78241388       0.04964736 </v>
    <v>       0.44033974       0.22034605       0.95226609 </v>
    <v>       0.55033889       0.10911898       0.04943215 </v>
    <v>       0.44655008       0.55337789       0.95200814 </v>
    <v>       0.55352427       0.44631782       0.04724492 </v>
    <v>       0.44118122       0.89065021       0.95096998 </v>
    <v>       0.55710549       0.77436330       0.04918870 </v>
    <v>       0.77704943       0.22265857       0.94825410 </v>
    <v>       0.88884940       0.11098031       0.05190909 </v>
    <v>       0.77499860       0.55766424       0.95084866 </v>
    <v>       0.88869124       0.44496536       0.05101507 </v>
    <v>       0.77468270       0.88294904       0.94984003 </v>
    <v>       0.88384347       0.77435854       0.04933066 </v>
   </varray>
  </structure>
  <varray name="forces" >
   <v>      -0.17193889       0.25692638       0.07273306 </v>
   <v>       0.05159603      -0.18360298      -0.06162528 </v>
   <v>      -0.15931733      -0.20083814       0.03768938 </v>
   <v>       0.18634840       0.64395289       0.03093984 </v>
   <v>      -0.56345504      -0.07336059      -0.02774269 </v>
   <v>      -0.04944071      -0.57598370       0.00548847 </v>
   <v>       0.20877704       0.00200456      -0.05006339 </v>
   <v>      -0.19430792      -0.07057080      -0.01254538 </v>
   <v>       0.57617159       0.16279158       0.02860449 </v>
   <v>      -0.00613166      -0.00136631      -0.46023089 </v>
   <v>      -0.04746089      -0.03172534       0.30828612 </v>
   <v>       0.06618859      -0.09116496      -0.30133757 </v>
   <v>      -0.01801649      -0.05666729       0.27456601 </v>
   <v>      -0.08818934       0.02221105      -0.17920640 </v>
   <v>      -0.03342975       0.04120775       0.39330917 </v>
   <v>       0.02185572       0.02575428      -0.14034111 </v>
   <v>       0.06429158      -0.00833275       0.30137387 </v>
   <v>       0.03875793      -0.00954802      -0.23343276 </v>
   <v>       0.04072640       0.00456047       0.02277375 </v>
   <v>       0.03430092       0.08858653      -0.21221205 </v>
   <v>      -0.03418427       0.05193242       0.21499739 </v>
   <v>       0.04869181      -0.01248884      -0.68145145 </v>
   <v>       0.00113680       0.00560020       0.71393849 </v>
   <v>      -0.00664074      -0.04122766      -0.21039720 </v>
   <v>       0.07900250       0.02568189       0.46034806 </v>
   <v>      -0.01295289       0.00148107      -0.55752479 </v>
   <v>      -0.03237942       0.02418633       0.26306287 </v>
  </varray>
  <varray name="stress" >
   <v>      -5.71984764       0.07328671      -0.07236903 </v>
   <v>       0.07328673      -5.65951451       0.07631924 </v>
   <v>      -0.07236916       0.07631935       4.48063226 </v>
  </varray>
  <energy>
   <i name="e_fr_energy">   -190.78753974 </i>
   <i name="e_wo_entrp">   -190.68265513 </i>
   <i name="e_0_energy">     -0.20976920 </i>
  </energy>
  <time name="totalsc">  386.29  387.31</time>
 </calculation>
 <calculation>
  <scstep>
   <time name="dav">   22.01   22.07</time>
   <time name="total">   22.52   22.58</time>
   <energy>
    <i name="alphaZ">     90.07668299 </i>
    <i name="ewald">  44620.43903572 </i>
    <i name="hartreedc"> -50662.91895818 </i>
    <i name="XCdc">   -231.89099518 </i>
    <i name="pawpsdc">   4064.09144203 </i>
    <i name="pawaedc">  -3479.98393158 </i>
    <i name="eentropy">     -0.20286861 </i>
    <i name="bandstr">  -1353.15367676 </i>
    <i name="atom">   6761.44252427 </i>
    <i name="e_fr_energy">   -192.10074531 </i>
    <i name="e_wo_entrp">   -191.89787669 </i>
    <i name="e_0_energy">   -191.99931100 </i>
   </energy>
  </scstep>
  <scstep>
   <time name="dav">   28.93   29.00</time>
   <time name="total">   29.43   29.51</time>
   <energy>
    <i name="e_fr_energy">   -191.86499686 </i>
    <i name="e_wo_entrp">   -191.65638769 </i>
    <i name="e_0_energy">   -191.76069228 </i>
   </energy>
  </scstep>
  <scstep>
   <time name="dav">   28.29   28.36</time>
   <time name="total">   28.80   28.87</time>
   <energy>
    <i name="e_fr_energy">   -192.06235966 </i>
    <i name="e_wo_entrp">   -191.84243174 </i>
    <i name="e_0_energy">   -191.95239570 </i>
   </energy>
  </scstep>
  <scstep>
   <time name="dav">   28.88   28.95</time>
   <time name="total">   29.39   29.46</time>
   <energy>
    <i name="e_fr_energy">   -191.74990521 </i>
    <i name="e_wo_entrp">   -191.53510747 </i>
    <i name="e_0_energy">   -191.64250634 </i>
   </energy>
  </scstep>
  <scstep>
   <time name="dav">   30.77   30.84</time>
   <time name="total">   31.28   31.36</time>
   <energy>
    <i name="e_fr_energy">   -191.57304886 </i>
    <i name="e_wo_entrp">   -191.37343914 </i>
    <i name="e_0_energy">   -191.47324400 </i>
   </energy>
  </scstep>
  <scstep>
   <time name="dav">   30.59   30.67</time>
   <time name="total">   31.10   31.18</time>
   <energy>
    <i name="e_fr_energy">   -191.44738322 </i>
    <i name="e_wo_entrp">   -191.23496773 </i>
    <i name="e_0_energy">   -191.34117548 </i>
   </energy>
  </scstep>
  <scstep>
   <time name="dav">   30.57   30.64</time>
   <time name="total">   31.08   31.16</time>
   <energy>
    <i name="e_fr_energy">   -191.43314519 </i>
    <i name="e_wo_entrp">   -191.22258639 </i>
    <i name="e_0_energy">   -191.32786579 </i>
   </energy>
  </scstep>
  <scstep>
   <time name="dav">   27.42   27.49</time>
   <time name="total">   27.93   28.01</time>
   <energy>
    <i name="e_fr_energy">   -191.42901630 </i>
    <i name="e_wo_entrp">   -191.21865072 </i>
    <i name="e_0_energy">   -191.32383351 </i>
   </energy>
  </scstep>
  <scstep>
   <time name="dav">   31.26   31.34</time>
   <time name="total">   31.77   31.85</time>
   <energy>
    <i name="e_fr_energy">   -191.43023057 </i>
    <i name="e_wo_entrp">   -191.22008553 </i>
    <i name="e_0_energy">   -191.32515805 </i>
   </energy>
  </scstep>
  <scstep>
   <time name="dav">   28.62   28.69</time>
   <time name="total">   29.13   29.21</time>
   <energy>
    <i name="e_fr_energy">   -191.42887712 </i>
    <i name="e_wo_entrp">   -191.21831253 </i>
    <i name="e_0_energy">   -191.32359482 </i>
   </energy>
  </scstep>
  <scstep>
   <time name="dav">   23.90   23.95</time>
   <time name="total">   23.93   24.00</time>
   <energy>
    <i name="alphaZ">     90.07668299 </i>
    <i name="ewald">  44620.43903572 </i>
    <i name="hartreedc"> -50629.69113573 </i>
    <i name="XCdc">   -233.38240702 </i>
    <i name="pawpsdc">   4085.23398898 </i>
    <i name="pawaedc">  -3501.22117439 </i>
    <i name="eentropy">     -0.21051719 </i>
    <i name="bandstr">  -1384.11594166 </i>
    <i name="atom">   6761.44252427 </i>
    <i name="e_fr_energy">   -191.42894403 </i>
    <i name="e_wo_entrp">   -191.21842684 </i>
    <i name="e_0_energy">   -191.32368543 </i>
   </energy>
  </scstep>
  <structure>
   <crystal>
    <varray name="basis" >
     <v>       8.28425054       4.78844768       0.00000000 </v>
     <v>      -8.27828440       4.77813824       0.00000000 </v>
     <v>       0.00000000       0.00000000      30.00000000 </v>
    </varray>
    <i name="volume">   2376.70278076 </i>
    <varray name="rec_basis" >
     <v>       0.06031219       0.10449289       0.00000000 </v>
     <v>      -0.06044232       0.10456819       0.00000000 </v>
     <v>       0.00000000       0.00000000       0.03333333 </v>
    </varray>
   </crystal>
   <varray name="positions" >
    <v>       0.67082197       0.67577932       0.00039014 </v>
    <v>       0.33061222      -0.00345280      -0.00026152 </v>
    <v>       0.32510360       0.32968943       0.00045797 </v>
    <v>       0.68501830       0.01225778      -0.00008588 </v>
    <v>      -0.00945223       0.00688222      -0.00013715 </v>
    <v>       0.98647413       0.31889527      -0.00000723 </v>
    <v>       0.00208031       0.66460502      -0.00028136 </v>
    <v>       0.33021226       0.66723306      -0.00030490 </v>
    <v>       0.67743435       0.32849773       0.00044222 </v>
    <v>       0.11734785       0.22531226       0.94762014 </v>
    <v>       0.22713569       0.11375616       0.04975970 </v>
    <v>       0.11058944       0.55446954       0.94771547 </v>
    <v>       0.22479017       0.44173618       0.05095746 </v>
    <v>       0.11608003       0.89190865       0.94979452 </v>
    <v>       0.22506675       0.78368950       0.05177509 </v>
    <v>       0.44021811       0.22023795       0.95120533 </v>
    <v>       0.55012536       0.10808979       0.05120152 </v>
    <v>       0.44701869       0.55267207       0.95058284 </v>
    <v>       0.55355331       0.44639275       0.04779463 </v>
    <v>       0.44233775       0.89186591       0.94958077 </v>
    <v>       0.55785641       0.77510030       0.05061044 </v>
    <v>       0.77730739       0.22213557       0.94488745 </v>
    <v>       0.88889250       0.11100210       0.05540196 </v>
    <v>       0.77415160       0.55747403       0.94944919 </v>
    <v>       0.88964549       0.44465639       0.05346672 </v>
    <v>       0.77439969       0.88257398       0.94704278 </v>
    <v>       0.88339332       0.77475430       0.05094161 </v>
   </varray>
  </structure>
  <varray name="forces" >
   <v>      -0.21077092       0.22576382      -0.02391376 </v>
   <v>       0.01340213      -0.25931354       0.01429241 </v>
   <v>      -0.14873643      -0.17033094       0.00305940 </v>
   <v>       0.05834855       0.08372127      -0.02554801 </v>
   <v>      -0.15943026      -0.00677057       0.03663388 </v>
   <v>      -0.12593059      -0.00018095       0.05148112 </v>
   <v>       0.32404509       0.00057122       0.02600606 </v>
   <v>      -0.20072471      -0.11799243      -0.00863551 </v>
   <v>       0.35594743       0.13443446      -0.06454237 </v>
   <v>      -0.12865223      -0.11871168      -0.08494535 </v>
   <v>      -0.06702525      -0.14228585      -0.00880279 </v>
   <v>       0.12512243      -0.16186544      -0.07908563 </v>
   <v>      -0.13687015      -0.11462707      -0.02029034 </v>
   <v>      -0.20415945      -0.09286119       0.05764484 </v>
   <v>      -0.03347647      -0.02394954       0.14329111 </v>
   <v>       0.07564450       0.09165340       0.13264141 </v>
   <v>       0.15840401       0.08826814      -0.03002620 </v>
   <v>      -0.04139019       0.00230590       0.03597728 </v>
   <v>       0.17821786       0.02768196      -0.19611312 </v>
   <v>       0.15132393       0.16472668       0.09429517 </v>
   <v>      -0.17176349       0.12250375      -0.06842648 </v>
   <v>       0.08214586      -0.03579408      -0.25466918 </v>
   <v>      -0.00102236       0.06121065       0.24936220 </v>
   <v>       0.07735261      -0.03167218       0.07066697 </v>
   <v>       0.11996965       0.04568076       0.17419826 </v>
   <v>      -0.10339596       0.07979759      -0.14460665 </v>
   <v>       0.01342444       0.14803587      -0.07994471 </v>
  </varray>
  <varray name="stress" >
   <v>       0.01940542       0.24360926       0.02298817 </v>
   <v>       0.24360908       0.27480868       0.34837668 </v>
   <v>       0.02298816       0.34837647      -0.71648397 </v>
  </varray>
  <energy>
   <i name="e_fr_energy">   -191.42894403 </i>
   <i name="e_wo_entrp">   -191.32368543 </i>
   <i name="e_0_energy">     -0.21051719 </i>
  </energy>
  <time name="totalsc">  359.09  360.05</time>
 </calculation>
 <calculation>
  <scstep>
   <time name="dav">   22.01   22.06</time>
   <time name="total">   22.52   22.57</time>
   <energy>
    <i name="alphaZ">     89.98681513 </i>
    <i name="ewald">  44566.62214137 </i>
    <i name="hartreedc"> -50575.47834926 </i>
    <i name="XCdc">   -233.50024214 </i>
    <i name="pawpsdc">   4085.39419165 </i>
    <i name="pawaedc">  -3501.37867911 </i>
    <i name="eentropy">     -0.21356531 </i>
    <i name="bandstr">  -1384.35288579 </i>
    <i name="atom">   6761.44252427 </i>
    <i name="e_fr_energy">   -191.47804919 </i>
    <i name="e_wo_entrp">   -191.26448389 </i>
    <i name="e_0_energy">   -191.37126654 </i>
   </energy>
  </scstep>
  <scstep>
   <time name="dav">   32.28   32.35</time>
   <time name="total">   32.79   32.87</time>
   <energy>
    <i name="e_fr_energy">   -191.53096377 </i>
    <i name="e_wo_entrp">   -191.30755997 </i>
    <i name="e_0_energy">   -191.41926187 </i>
   </energy>
  </scstep>
  <scstep>
   <time name="dav">   30.92   31.00</time>
   <time name="total">   31.44   31.74</time>
   <energy>
    <i name="e_fr_energy">   -191.48878730 </i>
    <i name="e_wo_entrp">   -191.27472340 </i>
    <i name="e_0_energy">   -191.38175535 </i>
   </energy>
  </scstep>
  <scstep>
   <time name="dav">   28.62   28.69</time>
   <time name="total">   29.13   29.21</time>
   <energy>
    <i name="e_fr_energy">   -191.49038206 </i>
    <i name="e_wo_entrp">   -191.27484377 </i>
    <i name="e_0_energy">   -191.38261292 </i>
   </energy>
  </scstep>
  <scstep>
   <time name="dav">   26.31   26.37</time>
   <time name="total">   26.81   26.88</time>
   <energy>
    <i name="e_fr_energy">   -191.48700059 </i>
    <i name="e_wo_entrp">   -191.27182305 </i>
    <i name="e_0_energy">   -191.37941182 </i>
   </energy>
  </scstep>
  <scstep>
   <time name="dav">   26.88   26.95</time>
   <time name="total">   27.39   27.47</time>
   <energy>
    <i name="e_fr_energy">   -191.48697035 </i>
    <i name="e_wo_entrp">   -191.27165301 </i>
    <i name="e_0_energy">   -191.37931168 </i>
   </energy>
  </scstep>
  <scstep>
   <time name="dav">   26.23   26.29</time>
   <time name="total">   26.73   26.80</time>
   <energy>
    <i name="e_fr_energy">   -191.48666171 </i>
    <i name="e_wo_entrp">   -191.27160712 </i>
    <i name="e_0_energy">   -191.37913442 </i>
   </energy>
  </scstep>
  <scstep>
   <time name="dav">   21.09   21.14</time>
   <time name="total">   21.13   21.19</time>
   <energy>
    <i name="alphaZ">     89.98681513 </i>
    <i name="ewald">  44566.62214137 </i>
    <i name="hartreedc"> -50577.09530779 </i>
    <i name="XCdc">   -233.45705197 </i>
    <i name="pawpsdc">   4082.50370025 </i>
    <i name="pawaedc">  -3498.44450852 </i>
    <i name="eentropy">     -0.21513791 </i>
    <i name="bandstr">  -1382.82984735 </i>
    <i name="atom">   6761.44252427 </i>
    <i name="e_fr_energy">   -191.48667251 </i>
    <i name="e_wo_entrp">   -191.27153461 </i>
    <i name="e_0_energy">   -191.37910356 </i>
   </energy>
  </scstep>
  <structure>
   <crystal>
    <varray name="basis" >
     <v>       8.28867192       4.79767842       0.00000000 </v>
     <v>      -8.27664303       4.77686575       0.00000000 </v>
     <v>       0.00000000       0.00000000      30.00000000 </v>
    </varray>
    <i name="volume">   2379.07634177 </i>
    <varray name="rec_basis" >
     <v>       0.06023597       0.10436794       0.00000000 </v>
     <v>      -0.06049842       0.10451962       0.00000000 </v>
     <v>       0.00000000       0.00000000       0.03333333 </v>
    </varray>
   </crystal>
   <varray name="positions" >
    <v>       0.67132280       0.67747284       0.00034961 </v>
    <v>       0.32937660      -0.00475922      -0.00023662 </v>
    <v>       0.32385995       0.32928058       0.00046137 </v>
    <v>       0.68552506       0.01245112      -0.00012762 </v>
    <v>      -0.00990194       0.00728221      -0.00007822 </v>
    <v>       0.98617410       0.31931226       0.00007418 </v>
    <v>       0.00300074       0.66368869      -0.00023803 </v>
    <v>       0.32906956       0.66721894      -0.00031813 </v>
    <v>       0.67907189       0.32815864       0.00033877 </v>
    <v>       0.11638181       0.22508796       0.94750846 </v>
    <v>       0.22623607       0.11323854       0.04972913 </v>
    <v>       0.11015019       0.55331842       0.94760803 </v>
    <v>       0.22383209       0.44156875       0.05090862 </v>
    <v>       0.11502809       0.89202111       0.94989908 </v>
    <v>       0.22484499       0.78365317       0.05198178 </v>
    <v>       0.44089512       0.22047879       0.95142718 </v>
    <v>       0.55102364       0.10808449       0.05113623 </v>
    <v>       0.44690580       0.55281012       0.95065434 </v>
    <v>       0.55420385       0.44601565       0.04747655 </v>
    <v>       0.44358239       0.89223823       0.94974474 </v>
    <v>       0.55796442       0.77619846       0.05048712 </v>
    <v>       0.77736267       0.22172569       0.94451479 </v>
    <v>       0.88919371       0.11130961       0.05576519 </v>
    <v>       0.77422470       0.55709408       0.94957586 </v>
    <v>       0.89020857       0.44454156       0.05371945 </v>
    <v>       0.77450320       0.88327410       0.94683958 </v>
    <v>       0.88417440       0.77544967       0.05079848 </v>
   </varray>
  </structure>
  <varray name="forces" >
   <v>      -0.25830508       0.22156964       0.00444930 </v>
   <v>      -0.01342001      -0.24975547      -0.01987660 </v>
   <v>      -0.16040401      -0.20059400      -0.01110294 </v>
   <v>       0.12889410       0.18621280       0.03885721 </v>
   <v>      -0.24329092       0.01846226       0.03385267 </v>
   <v>      -0.12224846      -0.04369536       0.01991772 </v>
   <v>       0.38945633      -0.01686101       0.00076914 </v>
   <v>      -0.19449717      -0.14473550      -0.02725476 </v>
   <v>       0.36534513       0.14462426      -0.02507797 </v>
   <v>      -0.07886046      -0.06837265      -0.05526177 </v>
   <v>      -0.03550331      -0.08823453      -0.00994863 </v>
   <v>       0.08482158      -0.07978090      -0.11383117 </v>
   <v>      -0.08073815      -0.04791001       0.01786671 </v>
   <v>      -0.10925243      -0.08122456       0.08282921 </v>
   <v>      -0.01954554      -0.01896013       0.14492604 </v>
   <v>       0.06041842       0.05328251       0.16919349 </v>
   <v>       0.08981483       0.05034264      -0.05460780 </v>
   <v>      -0.03450530       0.00040989       0.06145259 </v>
   <v>       0.11427393       0.02201243      -0.24691678 </v>
   <v>       0.07714444       0.08178754       0.09492603 </v>
   <v>      -0.12497154       0.05209941      -0.05969274 </v>
   <v>       0.08261746      -0.00826181      -0.17626668 </v>
   <v>      -0.01956446       0.03380998       0.12065412 </v>
   <v>       0.06755684       0.00480923       0.08453786 </v>
   <v>       0.05275325       0.02978586       0.16305556 </v>
   <v>      -0.04439028       0.05833806      -0.13270928 </v>
   <v>       0.02640083       0.09083943      -0.10474053 </v>
  </varray>
  <varray name="stress" >
   <v>      -0.06248540       0.01575557      -0.12085861 </v>
   <v>       0.01575560      -0.19331957       0.17040594 </v>
   <v>      -0.12085865       0.17040585      -1.23007666 </v>
  </varray>
  <energy>
   <i name="e_fr_energy">   -191.48667251 </i>
   <i name="e_wo_entrp">   -191.37910356 </i>
   <i name="e_0_energy">     -0.21513791 </i>
  </energy>
  <time name="totalsc">  261.16  262.07</time>
 </calculation>
 <calculation>
  <scstep>
   <time name="dav">   22.03   22.08</time>
   <time name="total">   22.54   22.59</time>
   <energy>
    <i name="alphaZ">     90.07228656 </i>
    <i name="ewald">  44607.02182359 </i>
    <i name="hartreedc"> -50618.32701227 </i>
    <i name="XCdc">   -233.39609477 </i>
    <i name="pawpsdc">   4082.41164782 </i>
    <i name="pawaedc">  -3498.35127873 </i>
    <i name="eentropy">     -0.21677871 </i>
    <i name="bandstr">  -1382.19715467 </i>
    <i name="atom">   6761.44252427 </i>
    <i name="e_fr_energy">   -191.54003691 </i>
    <i name="e_wo_entrp">   -191.32325819 </i>
    <i name="e_0_energy">   -191.43164755 </i>
   </energy>
  </scstep>
  <scstep>
   <time name="dav">   33.55   33.63</time>
   <time name="total">   34.05   34.14</time>
   <energy>
    <i name="e_fr_energy">   -191.57457338 </i>
    <i name="e_wo_entrp">   -191.34658826 </i>
    <i name="e_0_energy">   -191.46058082 </i>
   </energy>
  </scstep>
  <scstep>
   <time name="dav">   31.04   31.11</time>
   <time name="total">   31.55   31.63</time>
   <energy>
    <i name="e_fr_energy">   -191.54678090 </i>
    <i name="e_wo_entrp">   -191.32994874 </i>
    <i name="e_0_energy">   -191.43836482 </i>
   </energy>
  </scstep>
  <scstep>
   <time name="dav">   28.31   28.38</time>
   <time name="total">   28.81   28.89</time>
   <energy>
    <i name="e_fr_energy">   -191.54637730 </i>
    <i name="e_wo_entrp">   -191.32741337 </i>
    <i name="e_0_energy">   -191.43689534 </i>
   </energy>
  </scstep>
  <scstep>
   <time name="dav">   27.20   27.26</time>
   <time name="total">   27.70   27.78</time>
   <energy>
    <i name="e_fr_energy">   -191.54511828 </i>
    <i name="e_wo_entrp">   -191.32689923 </i>
    <i name="e_0_energy">   -191.43600876 </i>
   </energy>
  </scstep>
  <scstep>
   <time name="dav">   25.84   25.90</time>
   <time name="total">   26.35   26.42</time>
   <energy>
    <i name="e_fr_energy">   -191.54447394 </i>
    <i name="e_wo_entrp">   -191.32558203 </i>
    <i name="e_0_energy">   -191.43502798 </i>
   </energy>
  </scstep>
  <scstep>
   <time name="dav">   27.01   27.07</time>
   <time name="total">   27.51   27.59</time>
   <energy>
    <i name="e_fr_energy">   -191.54430870 </i>
    <i name="e_wo_entrp">   -191.32538865 </i>
    <i name="e_0_energy">   -191.43484868 </i>
   </energy>
  </scstep>
  <scstep>
   <time name="dav">   22.07   22.12</time>
   <time name="total">   22.10   22.17</time>
   <energy>
    <i name="alphaZ">     90.07228656 </i>
    <i name="ewald">  44607.02182359 </i>
    <i name="hartreedc"> -50618.16817021 </i>
    <i name="XCdc">   -233.41131864 </i>
    <i name="pawpsdc">   4084.49806168 </i>
    <i name="pawaedc">  -3500.46465889 </i>
    <i name="eentropy">     -0.21880913 </i>
    <i name="bandstr">  -1382.31605646 </i>
    <i name="atom">   6761.44252427 </i>
    <i name="e_fr_energy">   -191.54431723 </i>
    <i name="e_wo_entrp">   -191.32550810 </i>
[...]
      <set comment="kpoint 31">
       <r>  -17.5168    1.0000 </r>
       <r>  -17.2528    1.0000 </r>
       <r>  -16.8971    1.0000 </r>
       <r>  -16.4961    1.0000 </r>
       <r>  -16.4468    1.0000 </r>
       <r>  -16.4220    1.0000 </r>
       <r>  -16.2752    1.0000 </r>
       <r>  -16.1614    1.0000 </r>
       <r>  -16.0957    1.0000 </r>
       <r>  -16.0198    1.0000 </r>
       <r>  -15.9373    1.0000 </r>
       <r>  -15.8433    1.0000 </r>
       <r>  -15.7691    1.0000 </r>
       <r>  -15.7113    1.0000 </r>
       <r>  -15.6363    1.0000 </r>
       <r>  -15.5706    1.0000 </r>
       <r>  -15.4881    1.0000 </r>
       <r>  -15.4446    1.0000 </r>
       <r>   -9.7638    1.0000 </r>
       <r>   -9.4503    1.0000 </r>
       <r>   -9.3174    1.0000 </r>
       <r>   -8.9076    1.0000 </r>
       <r>   -8.7987    1.0000 </r>
       <r>   -8.7324    1.0000 </r>
       <r>   -8.5690    1.0000 </r>
       <r>   -8.5181    1.0000 </r>
       <r>   -8.4126    1.0000 </r>
       <r>   -8.3356    1.0000 </r>
       <r>   -8.2326    1.0000 </r>
       <r>   -8.1906    1.0000 </r>
       <r>   -8.1071    1.0000 </r>
       <r>   -8.0304    1.0000 </r>
       <r>   -7.9654    1.0000 </r>
       <r>   -7.9309    1.0000 </r>
       <r>   -7.7865    1.0000 </r>
       <r>   -7.5711    1.0000 </r>
       <r>   -7.5102    1.0000 </r>
       <r>   -7.4508    1.0000 </r>
       <r>   -7.3051    1.0000 </r>
       <r>   -7.2581    1.0000 </r>
       <r>   -7.0476    1.0000 </r>
       <r>   -7.0330    1.0000 </r>
       <r>   -6.9508    1.0000 </r>
       <r>   -6.8963    1.0000 </r>
       <r>   -6.7969    1.0000 </r>
       <r>   -6.7665    1.0000 </r>
       <r>   -6.7238    1.0000 </r>
       <r>   -6.6579    1.0000 </r>
       <r>   -6.5869    1.0000 </r>
       <r>   -6.4994    1.0000 </r>
       <r>   -6.3997    1.0000 </r>
       <r>   -6.3337    1.0000 </r>
       <r>   -6.2611    1.0000 </r>
       <r>   -6.1885    1.0000 </r>
       <r>   -6.0903    1.0000 </r>
       <r>   -6.0615    1.0000 </r>
       <r>   -5.9346    1.0000 </r>
       <r>   -5.8617    1.0000 </r>
       <r>   -5.8501    1.0000 </r>
       <r>   -5.7818    1.0000 </r>
       <r>   -5.7147    1.0000 </r>
       <r>   -5.6746    1.0000 </r>
       <r>   -5.5892    1.0000 </r>
       <r>   -5.5384    1.0000 </r>
       <r>   -5.2822    1.0000 </r>
       <r>   -5.1242    1.0000 </r>
       <r>   -5.0115    1.0000 </r>
       <r>   -4.9454    1.0000 </r>
       <r>   -4.8398    1.0000 </r>
       <r>   -4.7705    1.0000 </r>
       <r>   -4.5217    1.0000 </r>
       <r>   -4.4108    1.0000 </r>
       <r>   -4.3232    1.0000 </r>
       <r>   -4.1459    1.0000 </r>
       <r>   -3.8595    1.0000 </r>
       <r>   -3.7635    1.0000 </r>
       <r>   -3.6276    1.0000 </r>
       <r>   -3.4573    0.9979 </r>
       <r>   -3.2744    0.9420 </r>
       <r>   -2.9947    0.3423 </r>
       <r>   -2.9380    0.2099 </r>
       <r>   -2.7578    0.0187 </r>
       <r>   -2.7095    0.0077 </r>
       <r>   -2.6246    0.0013 </r>
       <r>   -2.5466    0.0002 </r>
       <r>   -2.4875    0.0000 </r>
       <r>   -2.3543    0.0000 </r>
       <r>   -2.2356    0.0000 </r>
       <r>   -2.1428    0.0000 </r>
       <r>   -2.0749    0.0000 </r>
       <r>   -1.7455    0.0000 </r>
       <r>   -1.5349    0.0000 </r>
       <r>   -1.4369    0.0000 </r>
       <r>   -1.3126    0.0000 </r>
       <r>   -1.1718    0.0000 </r>
       <r>   -1.0957    0.0000 </r>
       <r>   -1.0493    0.0000 </r>
       <r>   -0.9835    0.0000 </r>
       <r>   -0.9134    0.0000 </r>
       <r>   -0.8137    0.0000 </r>
       <r>   -0.7214    0.0000 </r>
       <r>   -0.6902    0.0000 </r>
       <r>   -0.6605    0.0000 </r>
       <r>   -0.5316    0.0000 </r>
       <r>   -0.4930    0.0000 </r>
       <r>   -0.3535    0.0000 </r>
       <r>   -0.2024    0.0000 </r>
       <r>   -0.0701    0.0000 </r>
       <r>    0.1501    0.0000 </r>
       <r>    0.3021    0.0000 </r>
       <r>    0.5134    0.0000 </r>
       <r>    0.6664    0.0000 </r>
       <r>    0.9466    0.0000 </r>
       <r>    1.1212    0.0000 </r>
       <r>    1.2312    0.0000 </r>
       <r>    1.3669    0.0000 </r>
       <r>    1.4754    0.0000 </r>
       <r>    2.1722    0.0000 </r>
       <r>    2.3011    0.0000 </r>
       <r>    2.4327    0.0000 </r>
      </set>
      <set comment="kpoint 32">
       <r>  -17.5353    1.0000 </r>
       <r>  -17.1211    1.0000 </r>
       <r>  -17.0693    1.0000 </r>
       <r>  -16.5077    1.0000 </r>
       <r>  -16.3944    1.0000 </r>
       <r>  -16.3110    1.0000 </r>
       <r>  -16.2722    1.0000 </r>
       <r>  -16.2049    1.0000 </r>
       <r>  -16.1049    1.0000 </r>
       <r>  -16.0233    1.0000 </r>
       <r>  -15.9446    1.0000 </r>
       <r>  -15.8961    1.0000 </r>
       <r>  -15.7724    1.0000 </r>
       <r>  -15.7169    1.0000 </r>
       <r>  -15.6535    1.0000 </r>
       <r>  -15.5547    1.0000 </r>
       <r>  -15.4838    1.0000 </r>
       <r>  -15.4185    1.0000 </r>
       <r>   -9.6585    1.0000 </r>
       <r>   -9.5959    1.0000 </r>
       <r>   -9.3769    1.0000 </r>
       <r>   -8.9076    1.0000 </r>
       <r>   -8.7246    1.0000 </r>
       <r>   -8.5921    1.0000 </r>
       <r>   -8.5246    1.0000 </r>
       <r>   -8.4033    1.0000 </r>
       <r>   -8.3635    1.0000 </r>
       <r>   -8.3359    1.0000 </r>
       <r>   -8.2786    1.0000 </r>
       <r>   -8.2313    1.0000 </r>
       <r>   -8.2086    1.0000 </r>
       <r>   -8.1512    1.0000 </r>
       <r>   -8.0782    1.0000 </r>
       <r>   -7.9690    1.0000 </r>
       <r>   -7.7590    1.0000 </r>
       <r>   -7.5341    1.0000 </r>
       <r>   -7.4359    1.0000 </r>
       <r>   -7.4025    1.0000 </r>
       <r>   -7.3079    1.0000 </r>
       <r>   -7.2477    1.0000 </r>
       <r>   -7.1337    1.0000 </r>
       <r>   -7.0702    1.0000 </r>
       <r>   -6.9891    1.0000 </r>
       <r>   -6.8897    1.0000 </r>
       <r>   -6.8170    1.0000 </r>
       <r>   -6.7624    1.0000 </r>
       <r>   -6.7321    1.0000 </r>
       <r>   -6.5937    1.0000 </r>
       <r>   -6.5408    1.0000 </r>
       <r>   -6.5053    1.0000 </r>
       <r>   -6.4308    1.0000 </r>
       <r>   -6.3842    1.0000 </r>
       <r>   -6.3006    1.0000 </r>
       <r>   -6.1938    1.0000 </r>
       <r>   -6.0865    1.0000 </r>
       <r>   -6.0159    1.0000 </r>
       <r>   -5.9438    1.0000 </r>
       <r>   -5.8637    1.0000 </r>
       <r>   -5.8302    1.0000 </r>
       <r>   -5.7319    1.0000 </r>
       <r>   -5.6727    1.0000 </r>
       <r>   -5.5378    1.0000 </r>
       <r>   -5.4731    1.0000 </r>
       <r>   -5.4060    1.0000 </r>
       <r>   -5.3398    1.0000 </r>
       <r>   -5.2781    1.0000 </r>
       <r>   -5.1322    1.0000 </r>
       <r>   -5.0050    1.0000 </r>
       <r>   -4.9528    1.0000 </r>
       <r>   -4.7398    1.0000 </r>
       <r>   -4.5166    1.0000 </r>
       <r>   -4.4524    1.0000 </r>
       <r>   -4.2496    1.0000 </r>
       <r>   -4.1311    1.0000 </r>
       <r>   -3.8197    1.0000 </r>
       <r>   -3.7392    1.0000 </r>
       <r>   -3.6200    1.0000 </r>
       <r>   -3.5041    0.9993 </r>
       <r>   -3.2313    0.8973 </r>
       <r>   -2.9977    0.3502 </r>
       <r>   -2.9066    0.1517 </r>
       <r>   -2.7624    0.0202 </r>
       <r>   -2.7109    0.0079 </r>
       <r>   -2.6264    0.0013 </r>
       <r>   -2.5568    0.0002 </r>
       <r>   -2.4801    0.0000 </r>
       <r>   -2.3721    0.0000 </r>
       <r>   -2.2826    0.0000 </r>
       <r>   -2.1441    0.0000 </r>
       <r>   -2.0693    0.0000 </r>
       <r>   -1.7271    0.0000 </r>
       <r>   -1.5229    0.0000 </r>
       <r>   -1.4530    0.0000 </r>
       <r>   -1.3025    0.0000 </r>
       <r>   -1.1761    0.0000 </r>
       <r>   -1.1116    0.0000 </r>
       <r>   -1.0683    0.0000 </r>
       <r>   -0.9966    0.0000 </r>
       <r>   -0.9017    0.0000 </r>
       <r>   -0.8276    0.0000 </r>
       <r>   -0.7646    0.0000 </r>
       <r>   -0.6960    0.0000 </r>
       <r>   -0.5999    0.0000 </r>
       <r>   -0.5403    0.0000 </r>
       <r>   -0.3994    0.0000 </r>
       <r>   -0.3180    0.0000 </r>
       <r>   -0.2069    0.0000 </r>
       <r>   -0.1181    0.0000 </r>
       <r>    0.0518    0.0000 </r>
       <r>    0.2601    0.0000 </r>
       <r>    0.4540    0.0000 </r>
       <r>    0.7021    0.0000 </r>
       <r>    0.9669    0.0000 </r>
       <r>    1.0966    0.0000 </r>
       <r>    1.2938    0.0000 </r>
       <r>    1.4050    0.0000 </r>
       <r>    1.4512    0.0000 </r>
       <r>    2.1390    0.0000 </r>
       <r>    2.2715    0.0000 </r>
       <r>    2.6053    0.0000 </r>
      </set>
      <set comment="kpoint 33">
       <r>  -17.5251    1.0000 </r>
       <r>  -17.2308    1.0000 </r>
       <r>  -16.9119    1.0000 </r>
       <r>  -16.5132    1.0000 </r>
       <r>  -16.4647    1.0000 </r>
       <r>  -16.3874    1.0000 </r>
       <r>  -16.2902    1.0000 </r>
       <r>  -16.1432    1.0000 </r>
       <r>  -16.0646    1.0000 </r>
       <r>  -16.0161    1.0000 </r>
       <r>  -15.9453    1.0000 </r>
       <r>  -15.8460    1.0000 </r>
       <r>  -15.8044    1.0000 </r>
       <r>  -15.7192    1.0000 </r>
       <r>  -15.6255    1.0000 </r>
       <r>  -15.5895    1.0000 </r>
       <r>  -15.4737    1.0000 </r>
       <r>  -15.4349    1.0000 </r>
       <r>   -9.7480    1.0000 </r>
       <r>   -9.4313    1.0000 </r>
       <r>   -9.3064    1.0000 </r>
       <r>   -8.9409    1.0000 </r>
       <r>   -8.8393    1.0000 </r>
       <r>   -8.7793    1.0000 </r>
       <r>   -8.5191    1.0000 </r>
       <r>   -8.4511    1.0000 </r>
       <r>   -8.3924    1.0000 </r>
       <r>   -8.3065    1.0000 </r>
       <r>   -8.2342    1.0000 </r>
       <r>   -8.2055    1.0000 </r>
       <r>   -8.1661    1.0000 </r>
       <r>   -8.0998    1.0000 </r>
       <r>   -7.9957    1.0000 </r>
       <r>   -7.8874    1.0000 </r>
       <r>   -7.7040    1.0000 </r>
       <r>   -7.6182    1.0000 </r>
       <r>   -7.5456    1.0000 </r>
       <r>   -7.4310    1.0000 </r>
       <r>   -7.3160    1.0000 </r>
       <r>   -7.2003    1.0000 </r>
       <r>   -7.0804    1.0000 </r>
       <r>   -7.0284    1.0000 </r>
       <r>   -6.9893    1.0000 </r>
       <r>   -6.9102    1.0000 </r>
       <r>   -6.8255    1.0000 </r>
       <r>   -6.7437    1.0000 </r>
       <r>   -6.7051    1.0000 </r>
       <r>   -6.6506    1.0000 </r>
       <r>   -6.5763    1.0000 </r>
       <r>   -6.4964    1.0000 </r>
       <r>   -6.4092    1.0000 </r>
       <r>   -6.3676    1.0000 </r>
       <r>   -6.2446    1.0000 </r>
       <r>   -6.1371    1.0000 </r>
       <r>   -6.0928    1.0000 </r>
       <r>   -5.9790    1.0000 </r>
       <r>   -5.9513    1.0000 </r>
       <r>   -5.8810    1.0000 </r>
       <r>   -5.8567    1.0000 </r>
       <r>   -5.8184    1.0000 </r>
       <r>   -5.7146    1.0000 </r>
       <r>   -5.6646    1.0000 </r>
       <r>   -5.5705    1.0000 </r>
       <r>   -5.5575    1.0000 </r>
       <r>   -5.2953    1.0000 </r>
       <r>   -5.1235    1.0000 </r>
       <r>   -5.0555    1.0000 </r>
       <r>   -4.9213    1.0000 </r>
       <r>   -4.8415    1.0000 </r>
       <r>   -4.7658    1.0000 </r>
       <r>   -4.5513    1.0000 </r>
       <r>   -4.4081    1.0000 </r>
       <r>   -4.3494    1.0000 </r>
       <r>   -4.0142    1.0000 </r>
       <r>   -3.8477    1.0000 </r>
       <r>   -3.7130    1.0000 </r>
       <r>   -3.6436    1.0000 </r>
       <r>   -3.5101    0.9994 </r>
       <r>   -3.2385    0.9061 </r>
       <r>   -3.0374    0.4584 </r>
       <r>   -2.9185    0.1723 </r>
       <r>   -2.8165    0.0479 </r>
       <r>   -2.7400    0.0136 </r>
       <r>   -2.5794    0.0004 </r>
       <r>   -2.5171    0.0001 </r>
       <r>   -2.4477    0.0000 </r>
       <r>   -2.3652    0.0000 </r>
       <r>   -2.3161    0.0000 </r>
       <r>   -2.1404    0.0000 </r>
       <r>   -2.0638    0.0000 </r>
       <r>   -1.6951    0.0000 </r>
       <r>   -1.5218    0.0000 </r>
       <r>   -1.4558    0.0000 </r>
       <r>   -1.3198    0.0000 </r>
       <r>   -1.1605    0.0000 </r>
       <r>   -1.1282    0.0000 </r>
       <r>   -1.0767    0.0000 </r>
       <r>   -1.0047    0.0000 </r>
       <r>   -0.9256    0.0000 </r>
       <r>   -0.7896    0.0000 </r>
       <r>   -0.7398    0.0000 </r>
       <r>   -0.6786    0.0000 </r>
       <r>   -0.6177    0.0000 </r>
       <r>   -0.5936    0.0000 </r>
       <r>   -0.4083    0.0000 </r>
       <r>   -0.3309    0.0000 </r>
       <r>   -0.2428    0.0000 </r>
       <r>   -0.1254    0.0000 </r>
       <r>   -0.0066    0.0000 </r>
       <r>    0.1946    0.0000 </r>
       <r>    0.5109    0.0000 </r>
       <r>    0.6955    0.0000 </r>
       <r>    1.0067    0.0000 </r>
       <r>    1.1068    0.0000 </r>
       <r>    1.2883    0.0000 </r>
       <r>    1.4386    0.0000 </r>
       <r>    1.5425    0.0000 </r>
       <r>    2.1703    0.0000 </r>
       <r>    2.3064    0.0000 </r>
       <r>    2.4296    0.0000 </r>
      </set>
      <set comment="kpoint 34">
       <r>  -17.5099    1.0000 </r>
       <r>  -17.2902    1.0000 </r>
       <r>  -16.7276    1.0000 </r>
       <r>  -16.6578    1.0000 </r>
       <r>  -16.5108    1.0000 </r>
       <r>  -16.3951    1.0000 </r>
       <r>  -16.2752    1.0000 </r>
       <r>  -16.1468    1.0000 </r>
       <r>  -16.0577    1.0000 </r>
       <r>  -16.0131    1.0000 </r>
       <r>  -15.8958    1.0000 </r>
       <r>  -15.8517    1.0000 </r>
       <r>  -15.7724    1.0000 </r>
       <r>  -15.7238    1.0000 </r>
       <r>  -15.6407    1.0000 </r>
       <r>  -15.5827    1.0000 </r>
       <r>  -15.4901    1.0000 </r>
       <r>  -15.4449    1.0000 </r>
       <r>   -9.7894    1.0000 </r>
       <r>   -9.2697    1.0000 </r>
       <r>   -9.1725    1.0000 </r>
       <r>   -9.0606    1.0000 </r>
       <r>   -9.0019    1.0000 </r>
       <r>   -8.8772    1.0000 </r>
       <r>   -8.5172    1.0000 </r>
       <r>   -8.4764    1.0000 </r>
       <r>   -8.4001    1.0000 </r>
       <r>   -8.3130    1.0000 </r>
       <r>   -8.2307    1.0000 </r>
       <r>   -8.1867    1.0000 </r>
       <r>   -8.1482    1.0000 </r>
       <r>   -8.0197    1.0000 </r>
       <r>   -7.9476    1.0000 </r>
       <r>   -7.7882    1.0000 </r>
       <r>   -7.7264    1.0000 </r>
       <r>   -7.6326    1.0000 </r>
       <r>   -7.5308    1.0000 </r>
       <r>   -7.4427    1.0000 </r>
       <r>   -7.3404    1.0000 </r>
       <r>   -7.2835    1.0000 </r>
       <r>   -7.0936    1.0000 </r>
       <r>   -7.0318    1.0000 </r>
       <r>   -6.9416    1.0000 </r>
       <r>   -6.9023    1.0000 </r>
       <r>   -6.8240    1.0000 </r>
       <r>   -6.7248    1.0000 </r>
       <r>   -6.6860    1.0000 </r>
       <r>   -6.6144    1.0000 </r>
       <r>   -6.5255    1.0000 </r>
       <r>   -6.5045    1.0000 </r>
       <r>   -6.4172    1.0000 </r>
       <r>   -6.3493    1.0000 </r>
       <r>   -6.2259    1.0000 </r>
       <r>   -6.1267    1.0000 </r>
       <r>   -6.0927    1.0000 </r>
       <r>   -6.0814    1.0000 </r>
       <r>   -6.0244    1.0000 </r>
       <r>   -5.8948    1.0000 </r>
       <r>   -5.8656    1.0000 </r>
       <r>   -5.7694    1.0000 </r>
       <r>   -5.7444    1.0000 </r>
       <r>   -5.6861    1.0000 </r>
       <r>   -5.6435    1.0000 </r>
       <r>   -5.5572    1.0000 </r>
       <r>   -5.4529    1.0000 </r>
       <r>   -5.0354    1.0000 </r>
       <r>   -4.9292    1.0000 </r>
       <r>   -4.8931    1.0000 </r>
       <r>   -4.7334    1.0000 </r>
       <r>   -4.6378    1.0000 </r>
       <r>   -4.6157    1.0000 </r>
       <r>   -4.5824    1.0000 </r>
       <r>   -4.2691    1.0000 </r>
       <r>   -3.9881    1.0000 </r>
       <r>   -3.8820    1.0000 </r>
       <r>   -3.7026    1.0000 </r>
       <r>   -3.6449    1.0000 </r>
       <r>   -3.5173    0.9995 </r>
       <r>   -3.2521    0.9213 </r>
       <r>   -3.0515    0.4983 </r>
       <r>   -2.9589    0.2549 </r>
       <r>   -2.8304    0.0585 </r>
       <r>   -2.7657    0.0214 </r>
       <r>   -2.5288    0.0001 </r>
       <r>   -2.5045    0.0001 </r>
       <r>   -2.4248    0.0000 </r>
       <r>   -2.3723    0.0000 </r>
       <r>   -2.3147    0.0000 </r>
       <r>   -2.1403    0.0000 </r>
       <r>   -2.0631    0.0000 </r>
       <r>   -1.6758    0.0000 </r>
       <r>   -1.5256    0.0000 </r>
       <r>   -1.4524    0.0000 </r>
       <r>   -1.3316    0.0000 </r>
       <r>   -1.1568    0.0000 </r>
       <r>   -1.1353    0.0000 </r>
       <r>   -1.0714    0.0000 </r>
       <r>   -1.0070    0.0000 </r>
       <r>   -0.9413    0.0000 </r>
       <r>   -0.7466    0.0000 </r>
       <r>   -0.7152    0.0000 </r>
       <r>   -0.6645    0.0000 </r>
       <r>   -0.6321    0.0000 </r>
       <r>   -0.6000    0.0000 </r>
       <r>   -0.5093    0.0000 </r>
       <r>   -0.3931    0.0000 </r>
       <r>   -0.2360    0.0000 </r>
       <r>   -0.1113    0.0000 </r>
       <r>    0.0166    0.0000 </r>
       <r>    0.1687    0.0000 </r>
       <r>    0.5234    0.0000 </r>
       <r>    0.6985    0.0000 </r>
       <r>    1.0246    0.0000 </r>
       <r>    1.1254    0.0000 </r>
       <r>    1.2761    0.0000 </r>
       <r>    1.4656    0.0000 </r>
       <r>    1.5925    0.0000 </r>
       <r>    2.2630    0.0000 </r>
       <r>    2.2705    0.0000 </r>
       <r>    2.3975    0.0000 </r>
      </set>
     </set>
    </set>
   </array>
  </eigenvalues>
  <separator name="orbital magnetization" >
   <v name="MAGDIPOLOUT">      0.00000000      0.00000000      0.00000000</v>
  </separator>
 </calculation>
 <structure name="finalpos" >
  <crystal>
   <varray name="basis" >
    <v>       8.29005841       4.80207445       0.00000000 </v>
    <v>      -8.28373078       4.79105839       0.00000000 </v>
    <v>       0.00000000       0.00000000      30.00000000 </v>
   </varray>
   <i name="volume">   2384.91737608 </i>
   <varray name="rec_basis" >
    <v>       0.06026697       0.10420148       0.00000000 </v>
    <v>      -0.06040554       0.10428108       0.00000000 </v>
    <v>       0.00000000       0.00000000       0.03333333 </v>
   </varray>
  </crystal>
  <varray name="positions" >
   <v>       0.67678911       0.67456743      -0.00032988 </v>
   <v>       0.33008575      -0.01441056      -0.00004544 </v>
   <v>       0.33439730       0.33368693       0.00091703 </v>
   <v>       0.68389268       0.01505271      -0.00020987 </v>
   <v>      -0.01797181       0.00407799       0.00020272 </v>
   <v>       0.97624299       0.30606082       0.00026478 </v>
   <v>       0.00718759       0.67409925      -0.00012090 </v>
   <v>       0.33241199       0.68087188      -0.00002816 </v>
   <v>       0.68147186       0.32678231      -0.00018189 </v>
   <v>       0.11342492       0.22343900       0.94855385 </v>
   <v>       0.22429701       0.11134673       0.04809264 </v>
   <v>       0.10857666       0.54962054       0.95001242 </v>
   <v>       0.22042104       0.44206365       0.04845720 </v>
   <v>       0.11452017       0.89555530       0.95009632 </v>
   <v>       0.22410757       0.78518468       0.05388017 </v>
   <v>       0.44201980       0.21900949       0.95179773 </v>
   <v>       0.55167031       0.10949517       0.05128823 </v>
   <v>       0.44747856       0.55548751       0.95145295 </v>
   <v>       0.55865939       0.44657461       0.04746882 </v>
   <v>       0.44449029       0.89362108       0.94786441 </v>
   <v>       0.55769225       0.77611504       0.04989324 </v>
   <v>       0.77686437       0.22007499       0.94312030 </v>
   <v>       0.88474902       0.10841685       0.05710513 </v>
   <v>       0.77699797       0.55744390       0.94927599 </v>
   <v>       0.89241549       0.44492828       0.05293340 </v>
   <v>       0.77182933       0.88356381       0.94649027 </v>
   <v>       0.88349284       0.77548506       0.05174844 </v>
  </varray>
 </structure>
</modeling>
