unknown system                          
           1
     8.857448    5.107673    0.000000
    -8.854759    5.103046    0.000000
     0.000000    0.000000   30.000000
   V    Mo   W    S 
   3   3   3  18
Direct configuration=     1
   0.66666669  0.66666669  0.00000000
   0.33333334  0.00000000  0.00000000
   0.33333334  0.33333334  0.00000000
   0.66666669  0.00000000  0.00000000
   0.00000000  0.00000000  0.00000000
   1.00000000  0.33333334  0.00000000
   0.00000000  0.66666669  0.00000000
   0.33333334  0.66666669  0.00000000
   0.66666669  0.33333334  0.00000000
   0.11068511  0.22244981  0.95539999
   0.22244981  0.11068511  0.04460000
   0.11068511  0.55578315  0.95539999
   0.22244981  0.44401845  0.04460000
   0.11068511  0.88911647  0.95539999
   0.22244981  0.77735180  0.04460000
   0.44401845  0.22244981  0.95539999
   0.55578315  0.11068511  0.04460000
   0.44401845  0.55578315  0.95539999
   0.55578315  0.44401845  0.04460000
   0.44401845  0.88911647  0.95539999
   0.55578315  0.77735180  0.04460000
   0.77735180  0.22244981  0.95539999
   0.88911647  0.11068511  0.04460000
   0.77735180  0.55578315  0.95539999
   0.88911647  0.44401845  0.04460000
   0.77735180  0.88911647  0.95539999
   0.88911647  0.77735180  0.04460000
unknown system                          
           1
     8.669403    5.001497    0.000000
    -8.666950    4.997277    0.000000
     0.000000    0.000000   30.000000
   V    Mo   W    S 
   3   3   3  18
Direct configuration=     2
   0.66745078  0.66857816 -0.00011107
   0.33327115  0.00032966  0.00015136
   0.33137929  0.33216621  0.00006704
   0.66950641  0.00131584 -0.00023065
  -0.00120981  0.00161065 -0.00000436
   0.99860448  0.33048828 -0.00004367
  -0.00010120  0.66686597  0.00016050
   0.33379882  0.66654103 -0.00009257
   0.66737083  0.33183739  0.00010383
   0.11546638  0.22433373  0.95190414
   0.22664663  0.11296361  0.04688754
   0.11143577  0.55611013  0.95080442
   0.22493885  0.44290146  0.04798462
   0.11502067  0.89006328  0.95200002
   0.22386696  0.78150183  0.04817171
   0.44083278  0.22060178  0.95312941
   0.55126759  0.10976950  0.04805067
   0.44616109  0.55382339  0.95300908
   0.55374997  0.44609613  0.04686638
   0.44154054  0.89023832  0.95207580
   0.55685563  0.77480296  0.04796344
   0.77722800  0.22252261  0.95067387
   0.88890573  0.11109348  0.04933201
   0.77557388  0.55754863  0.95196515
   0.88850261  0.44491202  0.04926715
   0.77533693  0.88421741  0.95187878
   0.88481371  0.77498100  0.04803530
unknown system                          
           1
     8.487533    4.901370    0.000000
    -8.485692    4.898208    0.000000
     0.000000    0.000000   30.000000
   V    Mo   W    S 
   3   3   3  18
Direct configuration=     3
   0.66770763  0.66916517 -0.00008071
   0.33315180  0.00022634  0.00013203
   0.33081092  0.33188222  0.00012135
   0.67075926  0.00212612 -0.00025111
  -0.00182995  0.00212979 -0.00000758
   0.99774746  0.32945058 -0.00004502
  -0.00000016  0.66677760  0.00012777
   0.33365126  0.66654639 -0.00014066
   0.66802192  0.33148552  0.00016067
   0.11561499  0.22440663  0.95181618
   0.22670198  0.11304725  0.04685860
   0.11151174  0.55631738  0.95086587
   0.22508907  0.44309187  0.04796346
   0.11499920  0.88991303  0.95209157
   0.22383550  0.78138524  0.04816063
   0.44102061  0.22068111  0.95322188
   0.55129552  0.10991801  0.04803505
   0.44606909  0.55392000  0.95308320
   0.55385384  0.44598538  0.04667594
   0.44140446  0.89004653  0.95213838
   0.55666098  0.77466097  0.04792719
   0.77710095  0.22263564  0.95052150
   0.88890159  0.11107445  0.04952998
   0.77562668  0.55744909  0.95203532
   0.88842984  0.44499863  0.04928813
   0.77525738  0.88409305  0.95176277
   0.88482090  0.77480045  0.04800751
unknown system                          
           1
     8.284251    4.788448    0.000000
    -8.278284    4.778138    0.000000
     0.000000    0.000000   30.000000
   V    Mo   W    S 
   3   3   3  18
Direct configuration=     4
   0.66882724  0.67141952  0.00008383
   0.33247085 -0.00078231  0.00000017
   0.32872508  0.33101461  0.00029187
   0.67572706  0.00558896 -0.00022508
  -0.00447642  0.00383762 -0.00003207
   0.99397525  0.32564339 -0.00003338
   0.00058407  0.66611298 -0.00004907
   0.33255974  0.66671336 -0.00025061
   0.67119651  0.33047606  0.00031705
   0.11688714  0.22503548  0.95003572
   0.22743516  0.11359803  0.04805626
   0.11131851  0.55612700  0.94950786
   0.22545247  0.44263686  0.04930414
   0.11590023  0.89062869  0.95103829
   0.22447705  0.78241388  0.04964736
   0.44033974  0.22034605  0.95226609
   0.55033889  0.10911898  0.04943215
   0.44655008  0.55337789  0.95200814
   0.55352427  0.44631782  0.04724492
   0.44118122  0.89065021  0.95096998
   0.55710549  0.77436330  0.04918870
   0.77704943  0.22265857  0.94825410
   0.88884940  0.11098031  0.05190909
   0.77499860  0.55766424  0.95084866
   0.88869124  0.44496536  0.05101507
   0.77468270  0.88294904  0.94984003
   0.88384347  0.77435854  0.04933066
unknown system                          
           1
     8.288672    4.797678    0.000000
    -8.276643    4.776866    0.000000
     0.000000    0.000000   30.000000
   V    Mo   W    S 
   3   3   3  18
Direct configuration=     5
   0.67082197  0.67577932  0.00039014
   0.33061222 -0.00345280 -0.00026152
   0.32510360  0.32968943  0.00045797
   0.68501830  0.01225778 -0.00008588
  -0.00945223  0.00688222 -0.00013715
   0.98647413  0.31889527 -0.00000723
   0.00208031  0.66460502 -0.00028136
   0.33021226  0.66723306 -0.00030490
   0.67743435  0.32849773  0.00044222
   0.11734785  0.22531226  0.94762014
   0.22713569  0.11375616  0.04975970
   0.11058944  0.55446954  0.94771547
   0.22479017  0.44173618  0.05095746
   0.11608003  0.89190865  0.94979452
   0.22506675  0.78368950  0.05177509
   0.44021811  0.22023795  0.95120533
   0.55012536  0.10808979  0.05120152
   0.44701869  0.55267207  0.95058284
   0.55355331  0.44639275  0.04779463
   0.44233775  0.89186591  0.94958077
   0.55785641  0.77510030  0.05061044
   0.77730739  0.22213557  0.94488745
   0.88889250  0.11100210  0.05540196
   0.77415160  0.55747403  0.94944919
   0.88964549  0.44465639  0.05346672
   0.77439969  0.88257398  0.94704278
   0.88339332  0.77475430  0.05094161
unknown system                          
           1
     8.286365    4.795088    0.000000
    -8.273797    4.773349    0.000000
     0.000000    0.000000   30.000000
   V    Mo   W    S 
   3   3   3  18
Direct configuration=     6
   0.67132280  0.67747284  0.00034961
   0.32937660 -0.00475922 -0.00023662
   0.32385995  0.32928058  0.00046137
   0.68552506  0.01245112 -0.00012762
  -0.00990194  0.00728221 -0.00007822
   0.98617410  0.31931226  0.00007418
   0.00300074  0.66368869 -0.00023803
   0.32906956  0.66721894 -0.00031813
   0.67907189  0.32815864  0.00033877
   0.11638181  0.22508796  0.94750846
   0.22623607  0.11323854  0.04972913
   0.11015019  0.55331842  0.94760803
   0.22383209  0.44156875  0.05090862
   0.11502809  0.89202111  0.94989908
   0.22484499  0.78365317  0.05198178
   0.44089512  0.22047879  0.95142718
   0.55102364  0.10808449  0.05113623
   0.44690580  0.55281012  0.95065434
   0.55420385  0.44601565  0.04747655
   0.44358239  0.89223823  0.94974474
   0.55796442  0.77619846  0.05048712
   0.77736267  0.22172569  0.94451479
   0.88919371  0.11130961  0.05576519
   0.77422470  0.55709408  0.94957586
   0.89020857  0.44454156  0.05371945
   0.77450320  0.88327410  0.94683958
   0.88417440  0.77544967  0.05079848
unknown system                          
           1
     8.288470    4.796334    0.000000
    -8.275730    4.774298    0.000000
     0.000000    0.000000   30.000000
   V    Mo   W    S 
   3   3   3  18
Direct configuration=     7
   0.67171413  0.67939908  0.00035931
   0.32805325 -0.00601751 -0.00027066
   0.32233977  0.32872216  0.00044564
   0.68693045  0.01308229 -0.00006500
  -0.01057040  0.00811538 -0.00002442
   0.98551987  0.31938284  0.00010759
   0.00406795  0.66244812 -0.00023873
   0.32774426  0.66706393 -0.00036230
   0.68093792  0.32779915  0.00029846
   0.11580630  0.22497539  0.94738896
   0.22567870  0.11289509  0.04973415
   0.10998065  0.55263743  0.94740198
   0.22333874  0.44154800  0.05095761
   0.11429685  0.89194971  0.95001572
   0.22469904  0.78363171  0.05224235
   0.44134048  0.22057129  0.95168535
   0.55154195  0.10806194  0.05107099
   0.44681387  0.55290447  0.95073473
   0.55465137  0.44579192  0.04708739
   0.44424430  0.89244549  0.94988002
   0.55787711  0.77684511  0.05040907
   0.77756311  0.22143310  0.94418772
   0.88931137  0.11154004  0.05600497
   0.77443299  0.55691627  0.94969374
   0.89052909  0.44453206  0.05401349
   0.77466344  0.88369804  0.94659132
   0.88470788  0.77584196  0.05065043
unknown system                          
           1
     8.273993    4.789745    0.000000
    -8.262217    4.769367    0.000000
     0.000000    0.000000   30.000000
   V    Mo   W    S 
   3   3   3  18
Direct configuration=     8
   0.67170248  0.67948919  0.00035925
   0.32798566 -0.00605816 -0.00027169
   0.32228087  0.32870483  0.00044563
   0.68690588  0.01301106 -0.00007023
  -0.01056096  0.00812943 -0.00002310
   0.98560351  0.31950602  0.00010891
   0.00412608  0.66236374 -0.00023597
   0.32768262  0.66703378 -0.00036401
   0.68097281  0.32781980  0.00029675
   0.11578802  0.22497153  0.94740628
   0.22567192  0.11288401  0.04971704
   0.10999032  0.55264028  0.94740062
   0.22335234  0.44156886  0.05094724
   0.11425924  0.89190931  0.95003974
   0.22468997  0.78361033  0.05223227
   0.44135528  0.22057090  0.95171523
   0.55155161  0.10807144  0.05104557
   0.44680911  0.55291883  0.95075674
   0.55467023  0.44579503  0.04705056
   0.44423723  0.89243256  0.94990672
   0.55785755  0.77684747  0.05039024
   0.77756840  0.22141989  0.94421270
   0.88932614  0.11156575  0.05598007
   0.77445528  0.55691675  0.94972090
   0.89052856  0.44454503  0.05400492
   0.77467337  0.88370719  0.94661162
   0.88473092  0.77583959  0.05061591
unknown system                          
           1
     8.281731    4.795361    0.000000
    -8.267152    4.770135    0.000000
     0.000000    0.000000   30.000000
   V    Mo   W    S 
   3   3   3  18
Direct configuration=     9
   0.67209053  0.67934966  0.00035557
   0.32851258 -0.00579785 -0.00025738
   0.32311806  0.32910765  0.00044690
   0.68668184  0.01268876 -0.00008454
  -0.01109898  0.00718579 -0.00004004
   0.98528577  0.31900826  0.00011061
   0.00342773  0.66309117 -0.00025582
   0.32856868  0.66741739 -0.00034973
   0.68059348  0.32794382  0.00029963
   0.11576129  0.22494791  0.94732861
   0.22568371  0.11285187  0.04979804
   0.10987571  0.55259034  0.94747470
   0.22314100  0.44148848  0.05098804
   0.11447561  0.89216801  0.94991557
   0.22470761  0.78372886  0.05225345
   0.44127543  0.22047882  0.95152636
   0.55147935  0.10804961  0.05118861
   0.44706027  0.55301232  0.95068458
   0.55478237  0.44603454  0.04722957
   0.44427415  0.89249791  0.94976682
   0.55812824  0.77674039  0.05041121
   0.77749832  0.22148901  0.94410327
   0.88926071  0.11141258  0.05610584
   0.77422297  0.55698064  0.94961510
   0.89057634  0.44449057  0.05401081
   0.77448196  0.88346789  0.94660749
   0.88434970  0.77579006  0.05076665
unknown system                          
           1
     8.292829    4.799960    0.000000
    -8.276174    4.771157    0.000000
     0.000000    0.000000   30.000000
   V    Mo   W    S 
   3   3   3  18
Direct configuration=    10
   0.67246932  0.68132247  0.00036550
   0.32726468 -0.00694232 -0.00028458
   0.32176440  0.32865994  0.00045713
   0.68773038  0.01286754 -0.00009607
  -0.01177752  0.00774567 -0.00000700
   0.98501891  0.31943880  0.00014323
   0.00439573  0.66186290 -0.00025160
   0.32739646  0.66724320 -0.00038484
   0.68222001  0.32778096  0.00026868
   0.11532073  0.22485592  0.94719333
   0.22529557  0.11258319  0.04981775
   0.10975584  0.55207232  0.94723085
   0.22285891  0.44152738  0.05107267
   0.11384627  0.89200348  0.95001384
   0.22460875  0.78369331  0.05249146
   0.44159417  0.22050042  0.95175019
   0.55182426  0.10801412  0.05113901
   0.44707209  0.55312641  0.95074960
   0.55520146  0.44599469  0.04684611
   0.44471955  0.89265350  0.94988270
   0.55807145  0.77718894  0.05037708
   0.77762472  0.22116869  0.94382590
   0.88944755  0.11170785  0.05636311
   0.77436106  0.55687802  0.94972759
   0.89085758  0.44455623  0.05430650
   0.77455891  0.88368580  0.94637937
   0.88471323  0.77602503  0.05062240
unknown system                          
           1
     8.292301    4.799577    0.000000
    -8.275113    4.769855    0.000000
     0.000000    0.000000   30.000000
   V    Mo   W    S 
   3   3   3  18
Direct configuration=    11
   0.67248360  0.68257655  0.00034790
   0.32617915 -0.00779218 -0.00029017
   0.32035545  0.32808811  0.00046416
   0.68842821  0.01318864 -0.00005408
  -0.01173498  0.00875910  0.00004250
   0.98512887  0.31999702  0.00015146
   0.00541656  0.66069824 -0.00023699
   0.32612455  0.66689270 -0.00042711
   0.68338806  0.32757392  0.00025917
   0.11509110  0.22476200  0.94723155
   0.22505848  0.11245530  0.04972680
   0.10982669  0.55189990  0.94709441
   0.22290707  0.44164566  0.05106581
   0.11336592  0.89170562  0.95016322
   0.22451200  0.78355038  0.05257345
   0.44182812  0.22056253  0.95203097
   0.55210471  0.10804698  0.05096412
   0.44692812  0.55314603  0.95085428
   0.55537790  0.44585874  0.04648748
   0.44489323  0.89268418  0.95004346
   0.55782959  0.77750546  0.05037148
   0.77772508  0.22091884  0.94380615
   0.88956105  0.11195176  0.05634739
   0.77460079  0.55678368  0.94987076
   0.89095453  0.44467621  0.05443549
   0.77472170  0.88392015  0.94620862
   0.88515890  0.77615893  0.05046764
unknown system                          
           1
     8.290982    4.800660    0.000000
    -8.278479    4.779016    0.000000
     0.000000    0.000000   30.000000
   V    Mo   W    S 
   3   3   3  18
Direct configuration=    12
   0.67254966  0.68314165  0.00035273
   0.32579948 -0.00811242 -0.00029949
   0.31992565  0.32794043  0.00046692
   0.68873093  0.01322241 -0.00004677
  -0.01189879  0.00897344  0.00005413
   0.98511850  0.32017432  0.00016001
   0.00573370  0.66030212 -0.00023495
   0.32575001  0.66680366 -0.00044093
   0.68383198  0.32753954  0.00025453
   0.11499103  0.22473703  0.94720740
   0.22496574  0.11239043  0.04972101
   0.10982383  0.55179969  0.94702750
   0.22288006  0.44167743  0.05108568
   0.11319246  0.89162271  0.95020659
   0.22448348  0.78351565  0.05262376
   0.44191410  0.22056856  0.95211200
   0.55219448  0.10804759  0.05092701
   0.44692393  0.55317811  0.95088490
   0.55547814  0.44585448  0.04636400
   0.44497595  0.89270672  0.95009267
   0.55779290  0.77760838  0.05035511
   0.77776283  0.22084027  0.94375745
   0.88960892  0.11204291  0.05638618
   0.77465811  0.55675819  0.94992030
   0.89100801  0.44470113  0.05450350
   0.77475712  0.88397447  0.94615397
   0.88526223  0.77620557  0.05040469
unknown system                          
           1
     8.291719    4.803226    0.000000
    -8.281109    4.784833    0.000000
     0.000000    0.000000   30.000000
   V    Mo   W    S 
   3   3   3  18
Direct configuration=    13
   0.67242084  0.68073701  0.00037988
   0.32781752 -0.00632750 -0.00027646
   0.32230156  0.32872317  0.00046671
   0.68743623  0.01292000 -0.00006805
  -0.01153160  0.00754743  0.00000140
   0.98457321  0.31887741  0.00015244
   0.00383881  0.66227969 -0.00028173
   0.32814407  0.66752413 -0.00036128
   0.68173342  0.32756441  0.00029357
   0.11536674  0.22479716  0.94743949
   0.22540009  0.11266696  0.04964287
   0.10984865  0.55238320  0.94746668
   0.22295571  0.44157487  0.05085521
   0.11411473  0.89212771  0.95012063
   0.22459692  0.78368347  0.05229113
   0.44157743  0.22048405  0.95179618
   0.55193774  0.10822202  0.05100180
   0.44697542  0.55315650  0.95085471
   0.55520642  0.44594730  0.04683021
   0.44452790  0.89251372  0.94996059
   0.55806865  0.77706588  0.05027058
   0.77748121  0.22126631  0.94405621
   0.88930686  0.11147857  0.05609425
   0.77430459  0.55676132  0.94978805
   0.89059139  0.44447460  0.05407775
   0.77456871  0.88368754  0.94654101
   0.88465120  0.77607752  0.05060606
unknown system                          
           1
     8.287333    4.800788    0.000000
    -8.274519    4.778589    0.000000
     0.000000    0.000000   30.000000
   V    Mo   W    S 
   3   3   3  18
Direct configuration=    14
   0.67255289  0.67735362  0.00031411
   0.33052371 -0.00410286 -0.00016225
   0.32567756  0.32964209  0.00048590
   0.68577278  0.01291432 -0.00012656
  -0.01094993  0.00575383 -0.00007633
   0.98328516  0.31666423  0.00009089
   0.00129158  0.66525750 -0.00035164
   0.33146543  0.66895180 -0.00027084
   0.67903988  0.32734790  0.00033931
   0.11565960  0.22479590  0.94778719
   0.22591265  0.11296625  0.04953002
   0.10977764  0.55301078  0.94825767
   0.22271739  0.44133869  0.05047807
   0.11540725  0.89295251  0.94993914
   0.22467914  0.78404986  0.05179335
   0.44112733  0.22033269  0.95127605
   0.55165191  0.10835300  0.05117368
   0.44712918  0.55314801  0.95077104
   0.55499223  0.44610468  0.04752487
   0.44408457  0.89238806  0.94967994
   0.55849643  0.77655299  0.05030900
   0.77704171  0.22162687  0.94432555
   0.88886528  0.11060874  0.05585533
   0.77368725  0.55673227  0.94952889
   0.89021554  0.44428474  0.05353424
   0.77422020  0.88322239  0.94690347
   0.88389010  0.77596358  0.05108981
unknown system                          
           1
     8.290131    4.805055    0.000000
    -8.278856    4.785498    0.000000
     0.000000    0.000000   30.000000
   V    Mo   W    S 
   3   3   3  18
Direct configuration=    15
   0.67320381  0.67738166  0.00024309
   0.33051683 -0.00445806 -0.00015871
   0.32582744  0.32947773  0.00052395
   0.68585605  0.01350705 -0.00013060
  -0.01126451  0.00546735 -0.00006564
   0.98212021  0.31505516  0.00014776
   0.00085332  0.66646102 -0.00031409
   0.33240373  0.67006140 -0.00026117
   0.67938080  0.32699833  0.00030051
   0.11535526  0.22478791  0.94784789
   0.22573755  0.11288985  0.04950881
   0.10953661  0.55256164  0.94859319
   0.22220731  0.44128653  0.05022135
   0.11532339  0.89306700  0.94987915
   0.22445901  0.78413087  0.05178808
   0.44137692  0.22046440  0.95128773
   0.55189806  0.10826681  0.05126394
   0.44722251  0.55320878  0.95080936
   0.55524693  0.44592648  0.04746594
   0.44438601  0.89266113  0.94957975
   0.55859476  0.77683591  0.05040062
   0.77693715  0.22131445  0.94405838
   0.88875134  0.11048026  0.05598739
   0.77365444  0.55661014  0.94947795
   0.89053983  0.44451142  0.05348466
   0.77421374  0.88340157  0.94676227
   0.88387594  0.77585764  0.05129833
unknown system                          
           1
     8.288975    4.803712    0.000000
    -8.276215    4.781596    0.000000
     0.000000    0.000000   30.000000
   V    Mo   W    S 
   3   3   3  18
Direct configuration=    16
   0.67396985  0.67601662  0.00015718
   0.33158956 -0.00404299 -0.00009924
   0.32726567  0.32963084  0.00056929
   0.68495845  0.01385394 -0.00016032
  -0.01129792  0.00412997 -0.00007828
   0.98035275  0.31229106  0.00012389
  -0.00074070  0.66932293 -0.00034726
   0.33523246  0.67216989 -0.00023308
   0.67860416  0.32650830  0.00028554
   0.11523536  0.22477960  0.94800285
   0.22581846  0.11289480  0.04947138
   0.10926686  0.55243837  0.94931982
   0.22160111  0.44114043  0.04983932
   0.11591109  0.89370790  0.94966402
   0.22440610  0.78449984  0.05163428
   0.44136387  0.22047794  0.95105268
   0.55193120  0.10826494  0.05143646
   0.44744861  0.55334068  0.95081092
   0.55540981  0.44583014  0.04770884
   0.44441528  0.89295349  0.94928856
   0.55894224  0.77676220  0.05050635
   0.77672649  0.22126522  0.94392666
   0.88835245  0.10978862  0.05606535
   0.77335620  0.55654566  0.94927341
   0.89068819  0.44454663  0.05319280
   0.77403838  0.88337395  0.94681013
   0.88336851  0.77572349  0.05177834
unknown system                          
           1
     8.290732    4.805588    0.000000
    -8.277766    4.783112    0.000000
     0.000000    0.000000   30.000000
   V    Mo   W    S 
   3   3   3  18
Direct configuration=    17
   0.67417948  0.67782366  0.00014201
   0.33010033 -0.00548060 -0.00012525
   0.32532415  0.32896212  0.00059703
   0.68562586  0.01399209 -0.00014940
  -0.01169577  0.00468655 -0.00003814
   0.98045064  0.31241455  0.00013456
   0.00027607  0.66879020 -0.00032816
   0.33464723  0.67237597 -0.00030785
   0.68018159  0.32632821  0.00027059
   0.11496872  0.22468117  0.94785463
   0.22553568  0.11268300  0.04948769
   0.10923066  0.55205635  0.94921833
   0.22154099  0.44132547  0.04988640
   0.11529177  0.89340780  0.94971210
   0.22435570  0.78441770  0.05184192
   0.44164024  0.22054071  0.95135990
   0.55210140  0.10825654  0.05132803
   0.44747841  0.55348293  0.95091287
   0.55564968  0.44571735  0.04726403
   0.44463602  0.89311844  0.94937263
   0.55876634  0.77700327  0.05052764
   0.77694906  0.22098642  0.94375141
   0.88841569  0.10998767  0.05623303
   0.77369489  0.55656028  0.94941795
   0.89102305  0.44469812  0.05335293
   0.77419140  0.88363602  0.94664792
   0.88365520  0.77576248  0.05163510
unknown system                          
           1
     8.289453    4.804122    0.000000
    -8.276876    4.782320    0.000000
     0.000000    0.000000   30.000000
   V    Mo   W    S 
   3   3   3  18
Direct configuration=    18
   0.67450468  0.67852625  0.00012021
   0.32950547 -0.00616034 -0.00012488
   0.32449709  0.32857710  0.00062667
   0.68566219  0.01396094 -0.00013573
  -0.01182232  0.00458460 -0.00000540
   0.98009221  0.31174077  0.00015684
   0.00039121  0.66932410 -0.00032842
   0.33521753  0.67313195 -0.00033826
   0.68078929  0.32614715  0.00025965
   0.11482616  0.22460648  0.94780200
   0.22540731  0.11257147  0.04949515
   0.10919198  0.55187389  0.94936567
   0.22136574  0.44141102  0.04981853
   0.11517478  0.89346244  0.94966170
   0.22434535  0.78445154  0.05191253
   0.44176306  0.22057064  0.95147130
   0.55217631  0.10826473  0.05130171
   0.44755531  0.55359891  0.95097038
   0.55581237  0.44564668  0.04706095
   0.44471967  0.89330793  0.94932032
   0.55879219  0.77707590  0.05057431
   0.77702293  0.22084273  0.94363996
   0.88833271  0.10988332  0.05631177
   0.77376510  0.55654624  0.94945409
   0.89126725  0.44475378  0.05334751
   0.77422630  0.88375403  0.94657425
   0.88363259  0.77576023  0.05168710
unknown system                          
           1
     8.286564    4.801990    0.000000
    -8.274571    4.781198    0.000000
     0.000000    0.000000   30.000000
   V    Mo   W    S 
   3   3   3  18
Direct configuration=    19
   0.67412777  0.67740545  0.00015066
   0.33044714 -0.00520959 -0.00011892
   0.32587834  0.32917543  0.00059154
   0.68564516  0.01413289 -0.00014139
  -0.01176564  0.00464766 -0.00003817
   0.98041762  0.31242047  0.00014520
   0.00015176  0.66879297 -0.00032204
   0.33451827  0.67218855 -0.00027982
   0.67989226  0.32633362  0.00026986
   0.11500509  0.22472240  0.94788099
   0.22558964  0.11272119  0.04947257
   0.10918034  0.55207004  0.94918660
   0.22154358  0.44125399  0.04988185
   0.11535315  0.89345072  0.94971895
   0.22434334  0.78444269  0.05181937
   0.44160058  0.22052154  0.95128722
   0.55208431  0.10824187  0.05136721
   0.44746964  0.55342894  0.95087821
   0.55562115  0.44572716  0.04738399
   0.44464884  0.89308015  0.94937047
   0.55878806  0.77701156  0.05050226
   0.77688937  0.22104461  0.94374401
   0.88842279  0.11000545  0.05621383
   0.77364868  0.55654224  0.94937370
   0.89093316  0.44469261  0.05334475
   0.77414778  0.88360697  0.94666981
   0.88363227  0.77576292  0.05164720
unknown system                          
           1
     8.286450    4.801898    0.000000
    -8.274560    4.781284    0.000000
     0.000000    0.000000   30.000000
   V    Mo   W    S 
   3   3   3  18
Direct configuration=    20
   0.67357342  0.67584134  0.00020956
   0.33182614 -0.00395447 -0.00013091
   0.32819423  0.33034638  0.00052459
   0.68619186  0.01476314 -0.00017549
  -0.01214512  0.00511715 -0.00009876
   0.98097993  0.31381289  0.00009000
   0.00017186  0.66733800 -0.00032323
   0.33235533  0.67006692 -0.00019153
   0.67889758  0.32663878  0.00024615
   0.11518456  0.22492909  0.94803290
   0.22579060  0.11295160  0.04938901
   0.10904884  0.55217213  0.94874693
   0.22180303  0.44092730  0.05001384
   0.11530070  0.89336576  0.94989424
   0.22425075  0.78433457  0.05178344
   0.44144611  0.22045972  0.95103500
   0.55206474  0.10820157  0.05150484
   0.44729195  0.55311523  0.95075136
   0.55545495  0.44581356  0.04786057
   0.44476801  0.89266791  0.94952610
   0.55871076  0.77709699  0.05027855
   0.77674747  0.22132981  0.94383778
   0.88863484  0.11040396  0.05617408
   0.77356360  0.55650440  0.94926958
   0.89039704  0.44464376  0.05344662
   0.77397911  0.88349961  0.94680832
   0.88373214  0.77582736  0.05149637
unknown system                          
           1
     8.289080    4.803615    0.000000
    -8.277125    4.782889    0.000000
     0.000000    0.000000   30.000000
   V    Mo   W    S 
   3   3   3  18
Direct configuration=    21
   0.67356263  0.67580742  0.00020686
   0.33185022 -0.00390280 -0.00012948
   0.32818546  0.33033326  0.00052431
   0.68614309  0.01472776 -0.00017929
  -0.01210740  0.00508250 -0.00010322
   0.98097278  0.31375503  0.00008607
   0.00010373  0.66741011 -0.00032378
   0.33249629  0.67012105 -0.00019255
   0.67885540  0.32663404  0.00024652
   0.11519765  0.22492961  0.94803603
   0.22580463  0.11296350  0.04939420
   0.10905575  0.55219178  0.94876462
   0.22180771  0.44092956  0.05000944
   0.11533000  0.89337256  0.94988382
   0.22425537  0.78433792  0.05177318
   0.44143037  0.22046354  0.95102617
   0.55204763  0.10819652  0.05150892
   0.44729478  0.55310869  0.95074848
   0.55543317  0.44581752  0.04787074
   0.44475594  0.89267261  0.94951771
   0.55872424  0.77708104  0.05029096
   0.77673899  0.22133506  0.94384877
   0.88862736  0.11037916  0.05616533
   0.77355063  0.55650998  0.94926647
   0.89039492  0.44464553  0.05343650
   0.77398567  0.88349254  0.94681669
   0.88371743  0.77581894  0.05150643
unknown system                          
           1
     8.287391    4.803002    0.000000
    -8.274137    4.780033    0.000000
     0.000000    0.000000   30.000000
   V    Mo   W    S 
   3   3   3  18
Direct configuration=    22
   0.67353756  0.67566644  0.00021891
   0.33205012 -0.00370909 -0.00013192
   0.32854322  0.33052749  0.00051313
   0.68625286  0.01477813 -0.00018579
  -0.01221458  0.00514245 -0.00011186
   0.98109893  0.31403428  0.00008007
   0.00009852  0.66711346 -0.00032223
   0.33208515  0.66972947 -0.00017816
   0.67870643  0.32670370  0.00024022
   0.11523432  0.22495546  0.94806478
   0.22583714  0.11299978  0.04937757
   0.10903998  0.55220103  0.94868772
   0.22185734  0.44087738  0.05002970
   0.11532173  0.89336926  0.94991308
   0.22424669  0.78433041  0.05176960
   0.44140119  0.22044758  0.95099735
   0.55203963  0.10819020  0.05152403
   0.44728477  0.55307165  0.95074151
   0.55541768  0.44585156  0.04792227
   0.44477280  0.89262205  0.94953987
   0.55872648  0.77708012  0.05024746
   0.77671488  0.22136617  0.94386624
   0.88865684  0.11043742  0.05615943
   0.77352502  0.55651855  0.94925681
   0.89032077  0.44463824  0.05345792
   0.77395180  0.88344811  0.94684541
   0.88370717  0.77582317  0.05147677
unknown system                          
           1
     8.290866    4.805266    0.000000
    -8.277050    4.781324    0.000000
     0.000000    0.000000   30.000000
   V    Mo   W    S 
   3   3   3  18
Direct configuration=    23
   0.67396539  0.67713295  0.00020333
   0.33071366 -0.00529165 -0.00014451
   0.32689145  0.32981890  0.00056350
   0.68650765  0.01485435 -0.00012407
  -0.01238359  0.00532128 -0.00002163
   0.98073462  0.31364285  0.00014968
   0.00097898  0.66731893 -0.00032051
   0.33196994  0.67063289 -0.00023635
   0.68004299  0.32649742  0.00024606
   0.11491666  0.22481398  0.94791083
   0.22550563  0.11269542  0.04937994
   0.10902858  0.55186188  0.94878145
   0.22159897  0.44107909  0.04999591
   0.11493921  0.89331536  0.94991541
   0.22423359  0.78432888  0.05194226
   0.44172380  0.22046898  0.95127955
   0.55228041  0.10826830  0.05139636
   0.44734187  0.55333919  0.95085045
   0.55579437  0.44569772  0.04747712
   0.44488618  0.89284592  0.94954129
   0.55859288  0.77727119  0.05026685
   0.77694058  0.22110647  0.94365067
   0.88861252  0.11048216  0.05631725
   0.77378133  0.55645438  0.94936644
   0.89073045  0.44466996  0.05352092
   0.77401384  0.88369148  0.94663153
   0.88387250  0.77589617  0.05146016
unknown system                          
           1
     8.293010    4.806759    0.000000
    -8.278874    4.782264    0.000000
     0.000000    0.000000   30.000000
   V    Mo   W    S 
   3   3   3  18
Direct configuration=    24
   0.67416940  0.67775994  0.00020172
   0.33028659 -0.00578962 -0.00015795
   0.32645655  0.32968202  0.00055936
   0.68678960  0.01486254 -0.00012985
  -0.01259402  0.00549720 -0.00001037
   0.98073328  0.31378931  0.00015481
   0.00139958  0.66702549 -0.00031735
   0.33143602  0.67059729 -0.00024908
   0.68052364  0.32649204  0.00021914
   0.11482709  0.22476970  0.94789406
   0.22540609  0.11260673  0.04937019
   0.10901666  0.55174855  0.94871577
   0.22158303  0.44112673  0.05001726
   0.11477166  0.89327342  0.94995158
   0.22421634  0.78430314  0.05202124
   0.44181809  0.22045791  0.95137658
   0.55234373  0.10828417  0.05135613
   0.44734212  0.55341403  0.95090236
   0.55592651  0.44569949  0.04733511
   0.44493699  0.89287931  0.94957059