   27   27  100    1
  0.9710400E+02  0.1002848E-08  0.1002848E-08  0.3000000E-08  0.5000000E-15
  1.000000000000000E-004
  CAR 
 unknown system                          
    159     34    120
 
  0.0000000E+00  0.0000000E+00  0.0000000E+00  0.1562500E-01
    1      -17.785752   1.000000
    2      -16.665002   1.000000
    3      -16.602172   1.000000
    4      -16.561163   1.000000
    5      -16.503387   1.000000
    6      -16.453288   1.000000
    7      -16.428790   1.000000
    8      -16.349032   1.000000
    9      -16.150802   1.000000
   10      -16.120870   1.000000
   11      -16.040255   1.000000
   12      -15.980046   1.000000
   13      -15.887238   1.000000
   14      -15.746814   1.000000
   15      -15.626488   1.000000
   16      -15.533188   1.000000
   17      -15.391332   1.000000
   18      -15.288577   1.000000
   19       -9.220519   1.000000
   20       -8.925389   1.000000
   21       -8.847289   1.000000
   22       -8.826205   1.000000
   23       -8.729431   1.000000
   24       -8.706583   1.000000
   25       -8.676734   1.000000
   26       -8.610972   1.000000
   27       -8.543854   1.000000
   28       -8.452569   1.000000
   29       -8.438090   1.000000
   30       -8.350564   1.000000
   31       -8.292336   1.000000
   32       -8.185091   1.000000
   33       -8.085285   1.000000
   34       -7.955831   1.000000
   35       -7.840308   1.000000
   36       -7.814212   1.000000
   37       -7.745616   1.000000
   38       -7.544998   1.000000
   39       -7.450638   1.000000
   40       -7.390419   1.000000
   41       -7.297969   1.000000
   42       -7.269253   1.000000
   43       -7.144202   1.000000
   44       -6.955748   1.000000
   45       -6.796198   1.000000
   46       -6.775856   1.000000
   47       -6.734897   1.000000
   48       -6.649144   1.000000
   49       -6.533638   1.000000
   50       -6.458546   1.000000
   51       -6.445066   1.000000
   52       -6.382978   1.000000
   53       -6.326167   1.000000
   54       -6.230126   1.000000
   55       -6.206138   1.000000
   56       -6.161070   1.000000
   57       -6.069162   1.000000
   58       -5.851600   1.000000
   59       -5.733312   1.000000
   60       -5.549698   1.000000
   61       -5.503847   1.000000
   62       -5.477552   1.000000
   63       -5.337544   1.000000
   64       -5.166877   1.000000
   65       -5.122086   1.000000
   66       -5.018585   1.000000
   67       -4.927448   1.000000
   68       -4.910928   1.000000
   69       -4.808006   1.000000
   70       -4.773108   1.000000
   71       -4.654927   1.000000
   72       -4.606365   1.000000
   73       -4.556655   1.000000
   74       -4.274248   1.000000
   75       -4.145435   1.000000
   76       -3.967730   0.999999
   77       -3.732719   0.999297
   78       -3.670123   0.997028
   79       -3.497853   0.937326
   80       -3.446897   0.879481
   81       -3.284405   0.509335
   82       -2.745933   0.000077
   83       -2.674293   0.000009
   84       -2.643629   0.000003
   85       -2.469598   0.000000
   86       -2.373647   0.000000
   87       -2.279360   0.000000
   88       -2.260028   0.000000
   89       -2.188153   0.000000
   90       -2.074900   0.000000
   91       -1.879395   0.000000
   92       -1.856450   0.000000
   93       -1.485943   0.000000
   94       -1.339438   0.000000
   95       -1.236442   0.000000
   96       -1.151992   0.000000
   97       -0.919691   0.000000
   98       -0.827962   0.000000
   99       -0.705177   0.000000
  100       -0.661020   0.000000
  101       -0.572219   0.000000
  102       -0.503211   0.000000
  103       -0.450942   0.000000
  104       -0.410710   0.000000
  105       -0.330438   0.000000
  106       -0.130201   0.000000
  107       -0.021339   0.000000
  108       -0.010189   0.000000
  109        0.061034   0.000000
  110        0.248867   0.000000
  111        0.357515   0.000000
  112        0.400509   0.000000
  113        0.674222   0.000000
  114        0.834627   0.000000
  115        0.894686   0.000000
  116        1.172250   0.000000
  117        1.321666   0.000000
  118        1.638620   0.000000
  119        1.830843   0.000000
  120        2.142257   0.000000
 
  0.1250000E+00  0.2775558E-16  0.0000000E+00  0.3125000E-01
    1      -17.760241   1.000000
    2      -16.756618   1.000000
    3      -16.657012   1.000000
    4      -16.570455   1.000000
    5      -16.549434   1.000000
    6      -16.445374   1.000000
    7      -16.351874   1.000000
    8      -16.290785   1.000000
    9      -16.177222   1.000000
   10      -16.095435   1.000000
   11      -16.031646   1.000000
   12      -15.959646   1.000000
   13      -15.838375   1.000000
   14      -15.749137   1.000000
   15      -15.627294   1.000000
   16      -15.541836   1.000000
   17      -15.403530   1.000000
   18      -15.296745   1.000000
   19       -9.209932   1.000000
   20       -9.110352   1.000000
   21       -8.995814   1.000000
   22       -8.927676   1.000000
   23       -8.776814   1.000000
   24       -8.718469   1.000000
   25       -8.643014   1.000000
   26       -8.593849   1.000000
   27       -8.507270   1.000000
   28       -8.421882   1.000000
   29       -8.372456   1.000000
   30       -8.302546   1.000000
   31       -8.246718   1.000000
   32       -8.017064   1.000000
   33       -7.993065   1.000000
   34       -7.935263   1.000000
   35       -7.844461   1.000000
   36       -7.742129   1.000000
   37       -7.688227   1.000000
   38       -7.552049   1.000000
   39       -7.487091   1.000000
   40       -7.401958   1.000000
   41       -7.303563   1.000000
   42       -7.244833   1.000000
   43       -7.135369   1.000000
   44       -6.958152   1.000000
   45       -6.890427   1.000000
   46       -6.811160   1.000000
   47       -6.749444   1.000000
   48       -6.632354   1.000000
   49       -6.525822   1.000000
   50       -6.464310   1.000000
   51       -6.416645   1.000000
   52       -6.386188   1.000000
   53       -6.303434   1.000000
   54       -6.240116   1.000000
   55       -6.217430   1.000000
   56       -6.147223   1.000000
   57       -6.063402   1.000000
   58       -5.862364   1.000000
   59       -5.684358   1.000000
   60       -5.558014   1.000000
   61       -5.490508   1.000000
   62       -5.468033   1.000000
   63       -5.387443   1.000000
   64       -5.228031   1.000000
   65       -5.169159   1.000000
   66       -5.094607   1.000000
   67       -4.964888   1.000000
   68       -4.923686   1.000000
   69       -4.799222   1.000000
   70       -4.747744   1.000000
   71       -4.663922   1.000000
   72       -4.573793   1.000000
   73       -4.503797   1.000000
   74       -4.257557   1.000000
   75       -4.076986   1.000000
   76       -3.920604   0.999997
   77       -3.832899   0.999952
   78       -3.705150   0.998644
   79       -3.644377   0.994897
   80       -3.372965   0.742030
   81       -3.158744   0.193476
   82       -2.759861   0.000114
   83       -2.688892   0.000014
   84       -2.630875   0.000002
   85       -2.460731   0.000000
   86       -2.364880   0.000000
   87       -2.269716   0.000000
   88       -2.246159   0.000000
   89       -2.153649   0.000000
   90       -2.074430   0.000000
   91       -1.912020   0.000000
   92       -1.823426   0.000000
   93       -1.473600   0.000000
   94       -1.340336   0.000000
   95       -1.227324   0.000000
   96       -1.138028   0.000000
   97       -0.945979   0.000000
   98       -0.839030   0.000000
   99       -0.744893   0.000000
  100       -0.703364   0.000000
  101       -0.628109   0.000000
  102       -0.577681   0.000000
  103       -0.515532   0.000000
  104       -0.424650   0.000000
  105       -0.298682   0.000000
  106       -0.241663   0.000000
  107       -0.092430   0.000000
  108       -0.010317   0.000000
  109        0.076599   0.000000
  110        0.286308   0.000000
  111        0.393544   0.000000
  112        0.510533   0.000000
  113        0.699986   0.000000
  114        0.815714   0.000000
  115        0.899462   0.000000
  116        1.181647   0.000000
  117        1.289067   0.000000
  118        1.683562   0.000000
  119        1.868446   0.000000
  120        2.177478   0.000000
 
  0.2500000E+00  0.5551115E-16  0.0000000E+00  0.3125000E-01
    1      -17.684673   1.000000
    2      -16.970946   1.000000
    3      -16.682112   1.000000
    4      -16.634709   1.000000
    5      -16.581204   1.000000
    6      -16.418154   1.000000
    7      -16.270584   1.000000
    8      -16.233696   1.000000
    9      -16.154577   1.000000
   10      -16.106809   1.000000
   11      -15.997257   1.000000
   12      -15.895247   1.000000
   13      -15.765535   1.000000
   14      -15.745106   1.000000
   15      -15.617496   1.000000
   16      -15.564615   1.000000
   17      -15.438745   1.000000
   18      -15.313020   1.000000
   19       -9.461904   1.000000
   20       -9.191406   1.000000
   21       -9.103618   1.000000
   22       -9.031391   1.000000
   23       -8.841885   1.000000
   24       -8.808964   1.000000
   25       -8.670660   1.000000
   26       -8.535680   1.000000
   27       -8.469052   1.000000
   28       -8.382237   1.000000
   29       -8.271867   1.000000
   30       -8.168334   1.000000
   31       -8.099887   1.000000
   32       -8.029216   1.000000
   33       -7.909226   1.000000
   34       -7.878305   1.000000
   35       -7.746677   1.000000
   36       -7.694549   1.000000
   37       -7.564083   1.000000
   38       -7.541870   1.000000
   39       -7.433349   1.000000
   40       -7.345463   1.000000
   41       -7.297557   1.000000
   42       -7.222099   1.000000
   43       -7.087588   1.000000
   44       -6.988304   1.000000
   45       -6.910510   1.000000
   46       -6.847067   1.000000
   47       -6.740863   1.000000
   48       -6.646450   1.000000
   49       -6.596354   1.000000
   50       -6.488454   1.000000
   51       -6.413359   1.000000
   52       -6.370089   1.000000
   53       -6.258426   1.000000
   54       -6.212416   1.000000
   55       -6.172746   1.000000
   56       -6.128005   1.000000
   57       -6.040658   1.000000
   58       -5.878437   1.000000
   59       -5.722466   1.000000
   60       -5.634881   1.000000
   61       -5.560902   1.000000
   62       -5.530636   1.000000
   63       -5.467288   1.000000
   64       -5.321875   1.000000
   65       -5.269497   1.000000
   66       -5.081300   1.000000
   67       -5.032310   1.000000
   68       -4.876051   1.000000
   69       -4.842826   1.000000
   70       -4.752791   1.000000
   71       -4.559920   1.000000
   72       -4.500024   1.000000
   73       -4.412541   1.000000
   74       -4.238452   1.000000
   75       -4.171907   1.000000
   76       -4.039255   1.000000
   77       -3.924022   0.999997
   78       -3.716740   0.998967
   79       -3.547421   0.970164
   80       -3.274578   0.481620
   81       -3.041505   0.045117
   82       -2.785280   0.000227
   83       -2.716431   0.000033
   84       -2.599699   0.000001
   85       -2.473742   0.000000
   86       -2.360805   0.000000
   87       -2.279524   0.000000
   88       -2.160178   0.000000
   89       -2.099440   0.000000
   90       -2.058793   0.000000
   91       -1.922187   0.000000
   92       -1.779991   0.000000
   93       -1.452904   0.000000
   94       -1.340949   0.000000
   95       -1.206127   0.000000
   96       -1.127521   0.000000
   97       -1.026757   0.000000
   98       -0.899293   0.000000
   99       -0.849650   0.000000
  100       -0.798517   0.000000
  101       -0.737351   0.000000
  102       -0.650710   0.000000
  103       -0.596492   0.000000
  104       -0.472042   0.000000
  105       -0.415307   0.000000
  106       -0.280274   0.000000
  107       -0.170212   0.000000
  108       -0.091497   0.000000
  109        0.076917   0.000000
  110        0.297426   0.000000
  111        0.446857   0.000000
  112        0.622654   0.000000
  113        0.779519   0.000000
  114        0.843786   0.000000
  115        0.943550   0.000000
  116        1.198338   0.000000
  117        1.245052   0.000000
  118        1.807894   0.000000
  119        1.977324   0.000000
  120        2.281970   0.000000
 
  0.3750000E+00  0.0000000E+00  0.0000000E+00  0.3125000E-01
    1      -17.562442   1.000000
    2      -17.190784   1.000000
    3      -16.720796   1.000000
    4      -16.669856   1.000000
    5      -16.579311   1.000000
    6      -16.423546   1.000000
    7      -16.232902   1.000000
    8      -16.206620   1.000000
    9      -16.135315   1.000000
   10      -16.074189   1.000000
   11      -15.938304   1.000000
   12      -15.846577   1.000000
   13      -15.767798   1.000000
   14      -15.708396   1.000000
   15      -15.627623   1.000000
   16      -15.569415   1.000000
   17      -15.466452   1.000000
   18      -15.325197   1.000000
   19       -9.686622   1.000000
   20       -9.312315   1.000000
   21       -9.138624   1.000000
   22       -9.042209   1.000000
   23       -8.892206   1.000000
   24       -8.823059   1.000000
   25       -8.650241   1.000000
   26       -8.506048   1.000000
   27       -8.432874   1.000000
   28       -8.293303   1.000000
   29       -8.249230   1.000000
   30       -8.212302   1.000000
   31       -8.037892   1.000000
   32       -7.979746   1.000000
   33       -7.877153   1.000000
   34       -7.862801   1.000000
   35       -7.798696   1.000000
   36       -7.683641   1.000000
   37       -7.539539   1.000000
   38       -7.458641   1.000000
   39       -7.375417   1.000000
   40       -7.303882   1.000000
   41       -7.213533   1.000000
   42       -7.152372   1.000000
   43       -7.046847   1.000000
   44       -6.926046   1.000000
   45       -6.855854   1.000000
   46       -6.770757   1.000000
   47       -6.688820   1.000000
   48       -6.638900   1.000000
   49       -6.608818   1.000000
   50       -6.498587   1.000000
   51       -6.381649   1.000000
   52       -6.347753   1.000000
   53       -6.260663   1.000000
   54       -6.210670   1.000000
   55       -6.118058   1.000000
   56       -6.076551   1.000000
   57       -6.036389   1.000000
   58       -5.967395   1.000000
   59       -5.861476   1.000000
   60       -5.813059   1.000000
   61       -5.722449   1.000000
   62       -5.604401   1.000000
   63       -5.517495   1.000000
   64       -5.362663   1.000000
   65       -5.242043   1.000000
   66       -5.110576   1.000000
   67       -5.015404   1.000000
   68       -4.879093   1.000000
   69       -4.788552   1.000000
   70       -4.736106   1.000000
   71       -4.655947   1.000000
   72       -4.507929   1.000000
   73       -4.390930   1.000000
   74       -4.261068   1.000000
   75       -4.223538   1.000000
   76       -4.096656   1.000000
   77       -3.877104   0.999987
   78       -3.695623   0.998311
   79       -3.406894   0.813141
   80       -3.181590   0.240837
   81       -2.994850   0.021482
   82       -2.784217   0.000221
   83       -2.743512   0.000072
   84       -2.589295   0.000000
   85       -2.498493   0.000000
   86       -2.377668   0.000000
   87       -2.272679   0.000000
   88       -2.109477   0.000000
   89       -2.066799   0.000000
   90       -2.018250   0.000000
   91       -1.899813   0.000000
   92       -1.708628   0.000000
   93       -1.436305   0.000000
   94       -1.354595   0.000000
   95       -1.231901   0.000000
   96       -1.153431   0.000000
   97       -1.095122   0.000000
   98       -0.996047   0.000000
   99       -0.913269   0.000000
  100       -0.878796   0.000000
  101       -0.817694   0.000000
  102       -0.708793   0.000000
  103       -0.619992   0.000000
  104       -0.545803   0.000000
  105       -0.449459   0.000000
  106       -0.383962   0.000000
  107       -0.207291   0.000000
  108       -0.149730   0.000000
  109        0.036802   0.000000
  110        0.259483   0.000000
  111        0.458460   0.000000
  112        0.685716   0.000000
  113        0.788974   0.000000
  114        0.937966   0.000000
  115        1.046449   0.000000
  116        1.156197   0.000000
  117        1.287915   0.000000
  118        1.992884   0.000000
  119        2.149727   0.000000
  120        2.453123   0.000000
 
  0.5000000E+00  0.1110223E-15  0.0000000E+00  0.1562500E-01
    1      -17.424874   1.000000
    2      -17.362723   1.000000
    3      -16.736407   1.000000
    4      -16.681926   1.000000
    5      -16.573627   1.000000
    6      -16.430862   1.000000
    7      -16.227721   1.000000
    8      -16.196983   1.000000
    9      -16.128683   1.000000
   10      -16.052261   1.000000
   11      -15.907075   1.000000
   12      -15.819788   1.000000
   13      -15.759733   1.000000
   14      -15.712877   1.000000
   15      -15.654735   1.000000
   16      -15.572252   1.000000
   17      -15.461833   1.000000
   18      -15.328956   1.000000
   19       -9.766974   1.000000
   20       -9.355469   1.000000
   21       -9.172240   1.000000
   22       -9.047936   1.000000
   23       -8.905902   1.000000
   24       -8.731418   1.000000
   25       -8.648330   1.000000
   26       -8.598181   1.000000
   27       -8.382509   1.000000
   28       -8.312750   1.000000
   29       -8.211267   1.000000
   30       -8.136385   1.000000
   31       -8.088589   1.000000
   32       -7.979206   1.000000
   33       -7.871068   1.000000
   34       -7.867231   1.000000
   35       -7.794070   1.000000
   36       -7.687505   1.000000
   37       -7.603673   1.000000
   38       -7.435464   1.000000
   39       -7.390279   1.000000
   40       -7.301612   1.000000
   41       -7.116897   1.000000
   42       -7.062674   1.000000
   43       -6.982043   1.000000
   44       -6.885410   1.000000
   45       -6.828082   1.000000
   46       -6.713181   1.000000
   47       -6.692099   1.000000
   48       -6.623995   1.000000
   49       -6.586295   1.000000
   50       -6.513196   1.000000
   51       -6.435862   1.000000
   52       -6.330476   1.000000
   53       -6.252942   1.000000
   54       -6.204071   1.000000
   55       -6.156749   1.000000
   56       -6.069894   1.000000
   57       -6.038285   1.000000
   58       -5.967326   1.000000
   59       -5.893547   1.000000
   60       -5.789588   1.000000
   61       -5.760234   1.000000
   62       -5.688121   1.000000
   63       -5.483925   1.000000
   64       -5.390792   1.000000
   65       -5.358753   1.000000
   66       -5.130026   1.000000
   67       -5.071619   1.000000
   68       -4.887699   1.000000
   69       -4.820113   1.000000
   70       -4.671444   1.000000
   71       -4.633588   1.000000
   72       -4.509577   1.000000
   73       -4.420894   1.000000
   74       -4.310846   1.000000
   75       -4.206562   1.000000
   76       -4.045214   1.000000
   77       -3.862756   0.999980
   78       -3.700706   0.998497
   79       -3.339642   0.660557
   80       -3.140646   0.160324
   81       -2.991854   0.020415
   82       -2.772282   0.000160
   83       -2.757555   0.000107
   84       -2.589666   0.000001
   85       -2.514264   0.000000
   86       -2.387165   0.000000
   87       -2.265345   0.000000
   88       -2.118331   0.000000
   89       -2.033759   0.000000
   90       -1.994516   0.000000
   91       -1.887085   0.000000
   92       -1.676436   0.000000
   93       -1.415659   0.000000
   94       -1.358710   0.000000
   95       -1.288833   0.000000
   96       -1.160093   0.000000
   97       -1.124289   0.000000
   98       -1.026672   0.000000
   99       -0.960537   0.000000
  100       -0.886285   0.000000
  101       -0.840136   0.000000
  102       -0.732565   0.000000
  103       -0.621685   0.000000
  104       -0.567855   0.000000
  105       -0.471558   0.000000
  106       -0.424432   0.000000
  107       -0.221976   0.000000
  108       -0.172539   0.000000
  109        0.014497   0.000000
  110        0.240341   0.000000
  111        0.456410   0.000000
  112        0.707628   0.000000
  113        0.794403   0.000000
  114        0.973270   0.000000
  115        1.091112   0.000000
  116        1.135909   0.000000
  117        1.314505   0.000000
  118        2.210841   0.000000
  119        2.245850   0.000000
  120        2.362861   0.000000
 
  0.0000000E+00  0.1250000E+00  0.0000000E+00  0.3125000E-01
    1      -17.760681   1.000000
    2      -16.747055   1.000000
    3      -16.649528   1.000000
    4      -16.618889   1.000000
    5      -16.523380   1.000000
    6      -16.427613   1.000000
    7      -16.375593   1.000000
    8      -16.277790   1.000000
    9      -16.177166   1.000000
   10      -16.107387   1.000000
   11      -15.991762   1.000000
   12      -15.958503   1.000000
   13      -15.872767   1.000000
   14      -15.743393   1.000000
   15      -15.636482   1.000000
   16      -15.541333   1.000000
   17      -15.399592   1.000000
   18      -15.294522   1.000000
   19       -9.213208   1.000000
   20       -9.088242   1.000000
   21       -8.982429   1.000000
   22       -8.921137   1.000000
   23       -8.773560   1.000000
   24       -8.710723   1.000000
   25       -8.641908   1.000000
   26       -8.607191   1.000000
   27       -8.517295   1.000000
   28       -8.474414   1.000000
   29       -8.389285   1.000000
   30       -8.290108   1.000000
   31       -8.196743   1.000000
   32       -8.061180   1.000000
   33       -7.991984   1.000000
   34       -7.904187   1.000000
   35       -7.854077   1.000000
   36       -7.741462   1.000000
   37       -7.686265   1.000000
   38       -7.573049   1.000000
   39       -7.485238   1.000000
   40       -7.355013   1.000000
   41       -7.335934   1.000000
   42       -7.224019   1.000000
   43       -7.166998   1.000000
   44       -6.997414   1.000000
   45       -6.846554   1.000000
   46       -6.810471   1.000000
   47       -6.721123   1.000000
   48       -6.655826   1.000000
   49       -6.516831   1.000000
   50       -6.471919   1.000000
   51       -6.428529   1.000000
   52       -6.383188   1.000000
   53       -6.334358   1.000000
   54       -6.225066   1.000000
   55       -6.182042   1.000000
   56       -6.145494   1.000000
   57       -6.060615   1.000000
   58       -5.877821   1.000000
   59       -5.714196   1.000000
   60       -5.530554   1.000000
   61       -5.481190   1.000000
   62       -5.465747   1.000000
   63       -5.385762   1.000000
   64       -5.248119   1.000000
   65       -5.176109   1.000000
   66       -5.065709   1.000000
   67       -5.024108   1.000000
   68       -4.926464   1.000000
   69       -4.841010   1.000000
   70       -4.712537   1.000000
   71       -4.600476   1.000000
   72       -4.558184   1.000000
   73       -4.497485   1.000000
   74       -4.215735   1.000000
   75       -4.124702   1.000000
   76       -3.937499   0.999998
   77       -3.795919   0.999864
   78       -3.741347   0.999432
   79       -3.565744   0.977930
   80       -3.471016   0.910354
   81       -3.144394   0.166865
   82       -2.754619   0.000099
   83       -2.677395   0.000010
   84       -2.616593   0.000001
   85       -2.477859   0.000000
   86       -2.348289   0.000000
   87       -2.275858   0.000000
   88       -2.254533   0.000000
   89       -2.159526   0.000000
   90       -2.079974   0.000000
   91       -1.889899   0.000000
   92       -1.841633   0.000000
   93       -1.484242   0.000000
   94       -1.333133   0.000000
   95       -1.224254   0.000000
   96       -1.138576   0.000000
   97       -0.947107   0.000000
   98       -0.839131   0.000000
   99       -0.775359   0.000000
  100       -0.685104   0.000000
  101       -0.628465   0.000000
  102       -0.573005   0.000000
  103       -0.480477   0.000000
  104       -0.450786   0.000000
  105       -0.315792   0.000000
  106       -0.252514   0.000000
  107       -0.100502   0.000000
  108        0.022628   0.000000
  109        0.124592   0.000000
  110        0.299390   0.000000
  111        0.340091   0.000000
  112        0.386838   0.000000
  113        0.658852   0.000000
  114        0.844243   0.000000
  115        0.909155   0.000000
  116        1.246068   0.000000
  117        1.344020   0.000000
  118        1.682590   0.000000
  119        1.870600   0.000000
  120        2.177358   0.000000
 
  0.1250000E+00  0.1250000E+00  0.0000000E+00  0.3125000E-01
    1      -17.709830   1.000000
    2      -16.890570   1.000000
    3      -16.743055   1.000000
    4      -16.622815   1.000000
    5      -16.497026   1.000000
    6      -16.421426   1.000000
    7      -16.327517   1.000000
    8      -16.240788   1.000000
    9      -16.153751   1.000000
   10      -16.104186   1.000000
   11      -16.030185   1.000000
   12      -15.875954   1.000000
   13      -15.802121   1.000000
   14      -15.745990   1.000000
   15      -15.633740   1.000000
   16      -15.547386   1.000000
   17      -15.425386   1.000000
   18      -15.311737   1.000000
   19       -9.340969   1.000000
   20       -9.235192   1.000000
   21       -9.097989   1.000000
   22       -8.973786   1.000000
   23       -8.834845   1.000000
   24       -8.734102   1.000000
   25       -8.634118   1.000000
   26       -8.556642   1.000000
   27       -8.453001   1.000000
   28       -8.425434   1.000000
   29       -8.339961   1.000000
   30       -8.276161   1.000000
   31       -8.124959   1.000000
   32       -8.067187   1.000000
   33       -7.939010   1.000000
   34       -7.845444   1.000000
   35       -7.709014   1.000000
   36       -7.663774   1.000000
   37       -7.641335   1.000000
   38       -7.539152   1.000000
   39       -7.407887   1.000000
   40       -7.355594   1.000000
   41       -7.288600   1.000000
   42       -7.266917   1.000000
   43       -7.135840   1.000000
   44       -7.006302   1.000000
   45       -6.932490   1.000000
   46       -6.810127   1.000000
   47       -6.766286   1.000000
   48       -6.658789   1.000000
   49       -6.564406   1.000000
   50       -6.492581   1.000000
   51       -6.428010   1.000000
   52       -6.364336   1.000000
   53       -6.286031   1.000000
   54       -6.219585   1.000000
   55       -6.150784   1.000000
   56       -6.127947   1.000000
   57       -6.028537   1.000000
   58       -5.887557   1.000000
   59       -5.688402   1.000000
   60       -5.621756   1.000000
   61       -5.525792   1.000000
   62       -5.470099   1.000000
   63       -5.415333   1.000000
   64       -5.347744   1.000000
   65       -5.232832   1.000000
   66       -5.122191   1.000000
   67       -5.053464   1.000000
   68       -4.914840   1.000000
   69       -4.834279   1.000000
   70       -4.697484   1.000000
   71       -4.627448   1.000000
   72       -4.474987   1.000000
   73       -4.407784   1.000000
   74       -4.187306   1.000000
   75       -4.121426   1.000000
   76       -4.009304   1.000000
   77       -3.942471   0.999999
   78       -3.715378   0.998933
   79       -3.546996   0.969960
   80       -3.404120   0.807827
   81       -3.031845   0.038995
   82       -2.785754   0.000230
   83       -2.718034   0.000034
   84       -2.587020   0.000000
   85       -2.475288   0.000000
   86       -2.351257   0.000000
   87       -2.291872   0.000000
   88       -2.196243   0.000000
   89       -2.123579   0.000000
   90       -2.051161   0.000000
   91       -1.925263   0.000000
   92       -1.802705   0.000000
   93       -1.462055   0.000000
   94       -1.325301   0.000000
   95       -1.204429   0.000000
   96       -1.124103   0.000000
   97       -1.021790   0.000000
   98       -0.886388   0.000000
   99       -0.839957   0.000000
  100       -0.749095   0.000000
  101       -0.709458   0.000000
  102       -0.643583   0.000000
  103       -0.521553   0.000000
  104       -0.459272   0.000000
  105       -0.430695   0.000000
  106       -0.242576   0.000000
  107       -0.163880   0.000000
  108       -0.043322   0.000000
  109        0.075185   0.000000
  110        0.277089   0.000000
  111        0.376616   0.000000
  112        0.522202   0.000000
  113        0.696468   0.000000
  114        0.873074   0.000000
  115        0.911994   0.000000
  116        1.289926   0.000000
  117        1.338507   0.000000
  118        1.769107   0.000000
  119        1.942268   0.000000
  120        2.247555   0.000000
 
  0.2500000E+00  0.1250000E+00  0.0000000E+00  0.3125000E-01
    1      -17.610550   1.000000
    2      -17.080988   1.000000
    3      -16.855470   1.000000
    4      -16.602759   1.000000
    5      -16.479952   1.000000
    6      -16.423592   1.000000
    7      -16.274714   1.000000
    8      -16.218571   1.000000
    9      -16.125700   1.000000
   10      -16.083225   1.000000
   11      -16.005601   1.000000
   12      -15.841053   1.000000
   13      -15.773361   1.000000
   14      -15.721414   1.000000
   15      -15.620336   1.000000
   16      -15.548926   1.000000
   17      -15.461380   1.000000
   18      -15.327023   1.000000
   19       -9.578273   1.000000
   20       -9.389777   1.000000
   21       -9.153834   1.000000
   22       -8.994912   1.000000
   23       -8.819823   1.000000
   24       -8.764447   1.000000
   25       -8.636968   1.000000
   26       -8.501282   1.000000
   27       -8.412792   1.000000
   28       -8.335423   1.000000
   29       -8.278980   1.000000
   30       -8.227073   1.000000
   31       -8.075224   1.000000
   32       -8.043222   1.000000
   33       -7.974901   1.000000
   34       -7.908064   1.000000
   35       -7.779253   1.000000
   36       -7.636594   1.000000
   37       -7.495766   1.000000
   38       -7.436088   1.000000
   39       -7.363837   1.000000
   40       -7.318402   1.000000
   41       -7.240826   1.000000
   42       -7.160342   1.000000
   43       -7.036389   1.000000
   44       -6.981088   1.000000
   45       -6.888261   1.000000
   46       -6.821044   1.000000
   47       -6.707210   1.000000