       N       E                     dE             d eps       ncg     rms          rms(c)
DAV:   1     0.112353369289E+04    0.11235E+04   -0.35865E+04  8160   0.577E+02
DAV:   2    -0.294245096716E+01   -0.11265E+04   -0.10839E+04 11240   0.173E+02
DAV:   3    -0.199831608030E+03   -0.19689E+03   -0.18913E+03 10920   0.820E+01
DAV:   4    -0.208866603932E+03   -0.90350E+01   -0.87533E+01 11840   0.260E+01
DAV:   5    -0.209222220674E+03   -0.35562E+00   -0.35473E+00 11480   0.386E+00    0.274E+01
DAV:   6    -0.236359278272E+03   -0.27137E+02   -0.11175E+02 12800   0.602E+01    0.592E+01
DAV:   7    -0.196828885356E+03    0.39530E+02   -0.17548E+02 13200   0.151E+02    0.206E+01
DAV:   8    -0.190317980155E+03    0.65109E+01   -0.21315E+01 11920   0.135E+01    0.140E+01
DAV:   9    -0.188295930458E+03    0.20220E+01   -0.37373E+00 12040   0.644E+00    0.935E+00
DAV:  10    -0.187109496501E+03    0.11864E+01   -0.17579E+00 13360   0.766E+00    0.334E+00
DAV:  11    -0.187010185272E+03    0.99311E-01   -0.66405E-01 12360   0.241E+00    0.241E+00
DAV:  12    -0.186999787420E+03    0.10398E-01   -0.42377E-01 13000   0.299E+00    0.313E+00
DAV:  13    -0.186924248140E+03    0.75539E-01   -0.21994E-01 13200   0.300E+00    0.188E+00
DAV:  14    -0.186890283605E+03    0.33965E-01   -0.87038E-02 12840   0.173E+00    0.594E-01
DAV:  15    -0.186886055136E+03    0.42285E-02   -0.14877E-02 12160   0.426E-01    0.472E-01
DAV:  16    -0.186885813347E+03    0.24179E-03   -0.10045E-02 13040   0.520E-01    0.569E-01
DAV:  17    -0.186883765002E+03    0.20483E-02   -0.97251E-03 12800   0.529E-01    0.313E-01
DAV:  18    -0.186882617090E+03    0.11479E-02   -0.29142E-03 12280   0.219E-01    0.181E-01
DAV:  19    -0.186882439692E+03    0.17740E-03   -0.85437E-04 11120   0.144E-01    0.468E-02
DAV:  20    -0.186883299551E+03   -0.85986E-03   -0.83114E-04  9160   0.557E-02    0.424E-02
DAV:  21    -0.186884033021E+03   -0.73347E-03   -0.21586E-04  8120   0.496E-02    0.323E-02
DAV:  22    -0.186884913320E+03   -0.88030E-03   -0.12302E-04  7400   0.321E-02    0.375E-02
DAV:  23    -0.186886150295E+03   -0.12370E-02   -0.15074E-04  7520   0.476E-02    0.215E-02
DAV:  24    -0.186886687289E+03   -0.53699E-03   -0.29242E-05  6760   0.229E-02    0.528E-03
DAV:  25    -0.186887094587E+03   -0.40730E-03   -0.20328E-05  5520   0.102E-02    0.482E-03
DAV:  26    -0.186887330782E+03   -0.23620E-03   -0.91127E-06  6840   0.796E-03    0.158E-03
DAV:  27    -0.186887413483E+03   -0.82701E-04   -0.31227E-06  7240   0.386E-03
   1 F= -.18688741E+03 E0= -.18671598E+03  d E =-.186887E+03
       N       E                     dE             d eps       ncg     rms          rms(c)
DAV:   1    -0.187543679962E+03   -0.65635E+00   -0.27372E+02  8160   0.352E+01    0.470E+00
DAV:   2    -0.189651797484E+03   -0.21081E+01   -0.20606E+01 12320   0.160E+01    0.103E+01
DAV:   3    -0.189343477874E+03    0.30832E+00   -0.45430E+00 12400   0.126E+01    0.622E+00
DAV:   4    -0.188805429103E+03    0.53805E+00   -0.58523E-01 12520   0.432E+00    0.187E+00
DAV:   5    -0.188968158620E+03   -0.16273E+00   -0.53325E-01 12560   0.377E+00    0.609E+00
DAV:   6    -0.188771690765E+03    0.19647E+00   -0.87464E-01 12720   0.451E+00    0.195E+00
DAV:   7    -0.188755489202E+03    0.16202E-01   -0.16995E-01 11560   0.191E+00    0.195E+00
DAV:   8    -0.188734233648E+03    0.21256E-01   -0.11046E-01 13400   0.195E+00    0.146E+00
DAV:   9    -0.188715674287E+03    0.18559E-01   -0.32633E-02 12280   0.949E-01    0.306E-01
DAV:  10    -0.188715445296E+03    0.22899E-03   -0.42205E-03 10640   0.212E-01    0.226E-01
DAV:  11    -0.188714662423E+03    0.78287E-03   -0.24123E-03 11520   0.161E-01    0.933E-02
DAV:  12    -0.188714824742E+03   -0.16232E-03   -0.80548E-04 10840   0.843E-02    0.700E-02
DAV:  13    -0.188714789542E+03    0.35200E-04   -0.22068E-04  8360   0.521E-02
   2 F= -.18871479E+03 E0= -.18857525E+03  d E =-.182738E+01
       N       E                     dE             d eps       ncg     rms          rms(c)
DAV:   1    -0.190649256295E+03   -0.19344E+01   -0.31778E+01  9040   0.143E+01    0.443E+00
DAV:   2    -0.190568251313E+03    0.81005E-01   -0.27575E+00 11120   0.929E+00    0.705E+00
DAV:   3    -0.190137332892E+03    0.43092E+00   -0.13669E+00 12320   0.857E+00    0.427E+00
DAV:   4    -0.189923198600E+03    0.21413E+00   -0.76188E-01 12760   0.437E+00    0.252E+00
DAV:   5    -0.189903716553E+03    0.19482E-01   -0.38319E-01 12240   0.316E+00    0.288E+00
DAV:   6    -0.189825059850E+03    0.78657E-01   -0.15356E-01 12520   0.251E+00    0.748E-01
DAV:   7    -0.189818155005E+03    0.69048E-02   -0.15061E-02 11600   0.550E-01    0.236E-01
DAV:   8    -0.189819134404E+03   -0.97940E-03   -0.46701E-03 12280   0.381E-01    0.399E-01
DAV:   9    -0.189817982971E+03    0.11514E-02   -0.25393E-03 10680   0.324E-01    0.122E-01
DAV:  10    -0.189818269033E+03   -0.28606E-03   -0.71278E-04  9680   0.104E-01    0.103E-01
DAV:  11    -0.189818085241E+03    0.18379E-03   -0.34239E-04  8800   0.636E-02    0.254E-02
DAV:  12    -0.189818102171E+03   -0.16930E-04   -0.66397E-05  7280   0.276E-02
   3 F= -.18981810E+03 E0= -.18969872E+03  d E =-.110331E+01
       N       E                     dE             d eps       ncg     rms          rms(c)
DAV:   1    -0.191410247374E+03   -0.15922E+01   -0.82408E+01  8160   0.206E+01    0.458E+00
DAV:   2    -0.191222267149E+03    0.18798E+00   -0.54451E+00 13160   0.747E+00    0.437E+00
DAV:   3    -0.191374186618E+03   -0.15192E+00   -0.15949E+00 12240   0.893E+00    0.656E+00
DAV:   4    -0.190996182144E+03    0.37800E+00   -0.13867E+00 12360   0.776E+00    0.297E+00
DAV:   5    -0.190916746628E+03    0.79436E-01   -0.38441E-01 12360   0.337E+00    0.246E+00
DAV:   6    -0.190869263173E+03    0.47483E-01   -0.20840E-01 12400   0.303E+00    0.162E+00
DAV:   7    -0.190845851118E+03    0.23412E-01   -0.61309E-02 12640   0.139E+00    0.415E-01
DAV:   8    -0.190843971164E+03    0.18800E-02   -0.82844E-03 11400   0.437E-01    0.326E-01
DAV:   9    -0.190843313914E+03    0.65725E-03   -0.26266E-03 10960   0.340E-01    0.181E-01
DAV:  10    -0.190843514114E+03   -0.20020E-03   -0.13805E-03 11280   0.166E-01    0.114E-01
DAV:  11    -0.190843324336E+03    0.18978E-03   -0.61154E-04 10320   0.903E-02    0.437E-02
DAV:  12    -0.190843332039E+03   -0.77029E-05   -0.10371E-04  7000   0.395E-02
   4 F= -.19084333E+03 E0= -.19073543E+03  d E =-.102523E+01
       N       E                     dE             d eps       ncg     rms          rms(c)
DAV:   1    -0.192161147035E+03   -0.13178E+01   -0.17316E+02  8160   0.292E+01    0.551E+00
DAV:   2    -0.191931560604E+03    0.22959E+00   -0.92011E+00 10920   0.775E+00    0.345E+00
DAV:   3    -0.191808226442E+03    0.12333E+00   -0.14934E+00 11880   0.622E+00    0.378E+00
DAV:   4    -0.191827846585E+03   -0.19620E-01   -0.11133E+00 12280   0.770E+00    0.439E+00
DAV:   5    -0.191552260478E+03    0.27559E+00   -0.44824E-01 12360   0.456E+00    0.810E-01
DAV:   6    -0.191543131327E+03    0.91292E-02   -0.82806E-02 11720   0.119E+00    0.595E-01
DAV:   7    -0.191548578615E+03   -0.54473E-02   -0.43945E-02 11960   0.129E+00    0.104E+00
DAV:   8    -0.191537801850E+03    0.10777E-01   -0.19647E-02 11520   0.907E-01    0.160E-01
DAV:   9    -0.191538296080E+03   -0.49423E-03   -0.25075E-03 11480   0.212E-01    0.203E-01
DAV:  10    -0.191538349958E+03   -0.53878E-04   -0.25381E-03 11880   0.317E-01    0.233E-01
DAV:  11    -0.191537921905E+03    0.42805E-03   -0.11866E-03 10000   0.205E-01    0.578E-02
DAV:  12    -0.191537889904E+03    0.32001E-04   -0.11514E-04  6080   0.474E-02
   5 F= -.19153789E+03 E0= -.19142743E+03  d E =-.694558E+00
       N       E                     dE             d eps       ncg     rms          rms(c)
DAV:   1    -0.191610611154E+03   -0.72689E-01   -0.50636E+00  8160   0.477E+00    0.660E-01
DAV:   2    -0.191662245450E+03   -0.51634E-01   -0.27968E-01 13120   0.274E+00    0.208E+00
DAV:   3    -0.191620503879E+03    0.41742E-01   -0.10014E-01 12520   0.209E+00    0.469E-01
DAV:   4    -0.191623890794E+03   -0.33869E-02   -0.23554E-02 10280   0.964E-01    0.816E-01
DAV:   5    -0.191617253342E+03    0.66375E-02   -0.15424E-02 11240   0.796E-01    0.252E-01
DAV:   6    -0.191618012858E+03   -0.75952E-03   -0.60179E-03 11120   0.418E-01    0.406E-01
DAV:   7    -0.191616854450E+03    0.11584E-02   -0.49282E-03 11160   0.455E-01    0.207E-01
DAV:   8    -0.191616406437E+03    0.44801E-03   -0.93455E-04  9840   0.166E-01    0.357E-02
DAV:   9    -0.191616408137E+03   -0.17000E-05   -0.97137E-05  6560   0.358E-02
   6 F= -.19161641E+03 E0= -.19150501E+03  d E =-.785182E-01
       N       E                     dE             d eps       ncg     rms          rms(c)
DAV:   1    -0.191685440614E+03   -0.69034E-01   -0.46603E+00  8160   0.454E+00    0.502E-01
DAV:   2    -0.191714123247E+03   -0.28683E-01   -0.15243E-01 13040   0.170E+00    0.154E+00
DAV:   3    -0.191691687951E+03    0.22435E-01   -0.65608E-02 12480   0.163E+00    0.465E-01
DAV:   4    -0.191692116581E+03   -0.42863E-03   -0.13513E-02 10840   0.693E-01    0.524E-01
DAV:   5    -0.191689329913E+03    0.27867E-02   -0.69530E-03 11120   0.566E-01    0.190E-01
DAV:   6    -0.191689360659E+03   -0.30746E-04   -0.26191E-03 11360   0.268E-01    0.234E-01
DAV:   7    -0.191689403550E+03   -0.42891E-04   -0.29887E-03 10200   0.351E-01    0.250E-01
DAV:   8    -0.191688794044E+03    0.60951E-03   -0.10934E-03  8480   0.202E-01    0.271E-02
DAV:   9    -0.191688817746E+03   -0.23701E-04   -0.82250E-05  5920   0.327E-02
   7 F= -.19168882E+03 E0= -.19157749E+03  d E =-.724096E-01
       N       E                     dE             d eps       ncg     rms          rms(c)
DAV:   1    -0.191750131947E+03   -0.61338E-01   -0.35254E+00  8160   0.397E+00    0.484E-01
DAV:   2    -0.191784407075E+03   -0.34275E-01   -0.15157E-01 12040   0.207E+00    0.179E+00
DAV:   3    -0.191754757581E+03    0.29649E-01   -0.72549E-02 12400   0.170E+00    0.357E-01
DAV:   4    -0.191755871894E+03   -0.11143E-02   -0.10682E-02 11320   0.660E-01    0.499E-01
DAV:   5    -0.191753292957E+03    0.25789E-02   -0.62301E-03 11040   0.532E-01    0.191E-01
DAV:   6    -0.191753836004E+03   -0.54305E-03   -0.33378E-03 11720   0.342E-01    0.332E-01
DAV:   7    -0.191753081919E+03    0.75409E-03   -0.28684E-03 10160   0.347E-01    0.141E-01
DAV:   8    -0.191752817209E+03    0.26471E-03   -0.50150E-04  8760   0.115E-01    0.183E-02
DAV:   9    -0.191752831037E+03   -0.13828E-04   -0.60775E-05  6800   0.264E-02
   8 F= -.19175283E+03 E0= -.19164254E+03  d E =-.640133E-01
       N       E                     dE             d eps       ncg     rms          rms(c)
DAV:   1    -0.191901364897E+03   -0.14855E+00   -0.39451E+01  8160   0.134E+01    0.154E+00
DAV:   2    -0.192234323077E+03   -0.33296E+00   -0.15633E+00 11440   0.619E+00    0.582E+00
DAV:   3    -0.191964921198E+03    0.26940E+00   -0.84877E-01 12320   0.555E+00    0.121E+00
DAV:   4    -0.191979173856E+03   -0.14253E-01   -0.11118E-01 12240   0.221E+00    0.189E+00
DAV:   5    -0.191944644811E+03    0.34529E-01   -0.77343E-02 11560   0.184E+00    0.713E-01
DAV:   6    -0.191947225832E+03   -0.25810E-02   -0.28120E-02 11880   0.117E+00    0.920E-01
DAV:   7    -0.191940473363E+03    0.67525E-02   -0.23627E-02 11720   0.113E+00    0.378E-01
DAV:   8    -0.191937895995E+03    0.25774E-02   -0.43111E-03 10720   0.345E-01    0.664E-02
DAV:   9    -0.191937921420E+03   -0.25425E-04   -0.64202E-04 10440   0.769E-02
   9 F= -.19193792E+03 E0= -.19183417E+03  d E =-.185090E+00
       N       E                     dE             d eps       ncg     rms          rms(c)
DAV:   1    -0.191987846785E+03   -0.49951E-01   -0.46127E+00  8160   0.457E+00    0.605E-01
DAV:   2    -0.192027128660E+03   -0.39282E-01   -0.21567E-01 12240   0.224E+00    0.191E+00
DAV:   3    -0.191995894158E+03    0.31235E-01   -0.82669E-02 12320   0.189E+00    0.463E-01
DAV:   4    -0.191997897893E+03   -0.20037E-02   -0.14966E-02 12240   0.834E-01    0.717E-01
DAV:   5    -0.191993445444E+03    0.44524E-02   -0.12382E-02 11040   0.762E-01    0.343E-01
DAV:   6    -0.191994072110E+03   -0.62667E-03   -0.53494E-03 11400   0.527E-01    0.411E-01
DAV:   7    -0.191992422929E+03    0.16492E-02   -0.35474E-03 11480   0.438E-01    0.896E-02
DAV:   8    -0.191992280929E+03    0.14200E-03   -0.32089E-04  7640   0.859E-02    0.252E-02
DAV:   9    -0.191992278160E+03    0.27689E-05   -0.72623E-05  8160   0.310E-02
  10 F= -.19199228E+03 E0= -.19189021E+03  d E =-.543567E-01
       N       E                     dE             d eps       ncg     rms          rms(c)
DAV:   1    -0.192038075334E+03   -0.45794E-01   -0.54742E+00  8160   0.492E+00    0.519E-01
DAV:   2    -0.192067977149E+03   -0.29902E-01   -0.16871E-01 11760   0.183E+00    0.157E+00
DAV:   3    -0.192046485419E+03    0.21492E-01   -0.57863E-02 12480   0.162E+00    0.436E-01
DAV:   4    -0.192047741386E+03   -0.12560E-02   -0.98721E-03 11400   0.644E-01    0.624E-01
DAV:   5    -0.192044428910E+03    0.33125E-02   -0.75949E-03 10720   0.616E-01    0.235E-01
DAV:   6    -0.192044345251E+03    0.83659E-04   -0.22233E-03 12280   0.249E-01    0.171E-01
DAV:   7    -0.192044118385E+03    0.22687E-03   -0.13750E-03 10760   0.280E-01    0.135E-01
DAV:   8    -0.192043890751E+03    0.22763E-03   -0.41019E-04  8720   0.153E-01    0.251E-02
DAV:   9    -0.192043889030E+03    0.17210E-05   -0.58866E-05  6800   0.320E-02
  11 F= -.19204389E+03 E0= -.19194414E+03  d E =-.516109E-01
       N       E                     dE             d eps       ncg     rms          rms(c)
DAV:   1    -0.192057365486E+03   -0.13475E-01   -0.42808E-01  8160   0.139E+00    0.159E-01
DAV:   2    -0.192058191784E+03   -0.82630E-03   -0.11670E-02 13480   0.402E-01    0.241E-01
DAV:   3    -0.192057870756E+03    0.32103E-03   -0.24093E-03 11960   0.355E-01    0.178E-01
DAV:   4    -0.192057673292E+03    0.19746E-03   -0.10859E-03 10080   0.225E-01    0.145E-01
DAV:   5    -0.192057569469E+03    0.10382E-03   -0.78832E-04  8920   0.211E-01    0.116E-01
DAV:   6    -0.192057508967E+03    0.60502E-04   -0.48066E-04  8640   0.144E-01
  12 F= -.19205751E+03 E0= -.19195825E+03  d E =-.136199E-01
       N       E                     dE             d eps       ncg     rms          rms(c)
DAV:   1    -0.192047307417E+03    0.10262E-01   -0.19914E-01  8160   0.950E-01    0.114E-01
DAV:   2    -0.192049295302E+03   -0.19879E-02   -0.71393E-03 13280   0.447E-01    0.435E-01
DAV:   3    -0.192047465264E+03    0.18300E-02   -0.27500E-03 11520   0.395E-01    0.771E-02
DAV:   4    -0.192047578878E+03   -0.11361E-03   -0.50646E-04  8600   0.140E-01    0.131E-01
DAV:   5    -0.192047432261E+03    0.14662E-03   -0.37404E-04  7760   0.136E-01    0.513E-02
DAV:   6    -0.192047418243E+03    0.14018E-04   -0.10903E-04  5920   0.620E-02
  13 F= -.19204742E+03 E0= -.19194754E+03  d E =0.100907E-01
       N       E                     dE             d eps       ncg     rms          rms(c)
DAV:   1    -0.192013178515E+03    0.34254E-01   -0.28878E+00  8160   0.364E+00    0.432E-01
DAV:   2    -0.192027873860E+03   -0.14695E-01   -0.96931E-02 12040   0.138E+00    0.109E+00
DAV:   3    -0.192017063338E+03    0.10811E-01   -0.23422E-02 11960   0.113E+00    0.355E-01
DAV:   4    -0.192017454595E+03   -0.39126E-03   -0.66578E-03 11360   0.517E-01    0.480E-01
DAV:   5    -0.192015753383E+03    0.17012E-02   -0.60654E-03 10200   0.505E-01    0.230E-01
DAV:   6    -0.192015960345E+03   -0.20696E-03   -0.27070E-03 11360   0.343E-01    0.244E-01
DAV:   7    -0.192015337777E+03    0.62257E-03   -0.15646E-03 10280   0.304E-01    0.886E-02
DAV:   8    -0.192015229395E+03    0.10838E-03   -0.22217E-04  7400   0.914E-02    0.208E-02
DAV:   9    -0.192015230781E+03   -0.13857E-05   -0.45616E-05  7480   0.248E-02
  14 F= -.19201523E+03 E0= -.19191410E+03  d E =0.321875E-01
       N       E                     dE             d eps       ncg     rms          rms(c)
DAV:   1    -0.192007430224E+03    0.77992E-02   -0.33879E-01  8160   0.124E+00    0.125E-01
DAV:   2    -0.192008047488E+03   -0.61726E-03   -0.77467E-03 12200   0.284E-01    0.177E-01
DAV:   3    -0.192008013051E+03    0.34437E-04   -0.17008E-03 10920   0.294E-01    0.175E-01
DAV:   4    -0.192007715372E+03    0.29768E-03   -0.59957E-04  8160   0.167E-01    0.649E-02
DAV:   5    -0.192007784397E+03   -0.69025E-04   -0.35366E-04  7760   0.130E-01
  15 F= -.19200778E+03 E0= -.19190610E+03  d E =0.744638E-02
       N       E                     dE             d eps       ncg     rms          rms(c)
DAV:   1    -0.192028213359E+03   -0.20498E-01   -0.19824E+00  8160   0.307E+00    0.414E-01
DAV:   2    -0.192037376747E+03   -0.91634E-02   -0.67342E-02 11520   0.118E+00    0.962E-01
DAV:   3    -0.192029686516E+03    0.76902E-02   -0.22388E-02 12120   0.107E+00    0.365E-01
DAV:   4    -0.192030200246E+03   -0.51373E-03   -0.68246E-03 11600   0.591E-01    0.493E-01
DAV:   5    -0.192028099530E+03    0.21007E-02   -0.57960E-03 11000   0.536E-01    0.229E-01
DAV:   6    -0.192028490811E+03   -0.39128E-03   -0.36690E-03 11320   0.388E-01    0.299E-01
DAV:   7    -0.192027600150E+03    0.89066E-03   -0.19648E-03  9840   0.319E-01    0.675E-02
DAV:   8    -0.192027539330E+03    0.60819E-04   -0.14512E-04  6120   0.689E-02
  16 F= -.19202754E+03 E0= -.19192663E+03  d E =-.197549E-01
       N       E                     dE             d eps       ncg     rms          rms(c)
DAV:   1    -0.192052092802E+03   -0.24493E-01   -0.19728E+00  8160   0.295E+00    0.296E-01
DAV:   2    -0.192059649747E+03   -0.75569E-02   -0.55763E-02 11840   0.943E-01    0.725E-01
DAV:   3    -0.192055414875E+03    0.42349E-02   -0.16973E-02 12280   0.844E-01    0.306E-01
DAV:   4    -0.192055136303E+03    0.27857E-03   -0.30487E-03 11280   0.344E-01    0.282E-01
DAV:   5    -0.192054553409E+03    0.58289E-03   -0.21254E-03  9880   0.327E-01    0.162E-01
DAV:   6    -0.192054549961E+03    0.34474E-05   -0.96997E-04 10720   0.199E-01
  17 F= -.19205455E+03 E0= -.19195429E+03  d E =-.270106E-01
       N       E                     dE             d eps       ncg     rms          rms(c)
DAV:   1    -0.192063679099E+03   -0.91257E-02   -0.22356E-01  8160   0.103E+00    0.149E-01
DAV:   2    -0.192065377529E+03   -0.16984E-02   -0.89005E-03 12240   0.508E-01    0.375E-01
DAV:   3    -0.192063739235E+03    0.16383E-02   -0.32343E-03 11480   0.439E-01    0.853E-02
DAV:   4    -0.192063808060E+03   -0.68824E-04   -0.48919E-04  8680   0.136E-01
  18 F= -.19206381E+03 E0= -.19196409E+03  d E =-.925810E-02
       N       E                     dE             d eps       ncg     rms          rms(c)
DAV:   1    -0.192071164636E+03   -0.74254E-02   -0.14439E-01  8160   0.831E-01    0.124E-01
DAV:   2    -0.192072848441E+03   -0.16838E-02   -0.62077E-03 13240   0.401E-01    0.433E-01
DAV:   3    -0.192071178954E+03    0.16695E-02   -0.31160E-03 10520   0.380E-01    0.865E-02
DAV:   4    -0.192071244748E+03   -0.65794E-04   -0.43855E-04  8600   0.127E-01
  19 F= -.19207124E+03 E0= -.19197238E+03  d E =-.743669E-02
       N       E                     dE             d eps       ncg     rms          rms(c)
DAV:   1    -0.192105531624E+03   -0.34353E-01   -0.33490E+00  8160   0.392E+00    0.409E-01
DAV:   2    -0.192112672396E+03   -0.71408E-02   -0.86630E-02 13320   0.105E+00    0.606E-01
DAV:   3    -0.192111136474E+03    0.15359E-02   -0.16898E-02 11800   0.929E-01    0.491E-01
DAV:   4    -0.192109956962E+03    0.11795E-02   -0.72493E-03 11960   0.600E-01    0.419E-01
DAV:   5    -0.192108586516E+03    0.13704E-02   -0.46907E-03 11640   0.516E-01    0.236E-01
DAV:   6    -0.192108613231E+03   -0.26715E-04   -0.29802E-03 11200   0.328E-01    0.233E-01
DAV:   7    -0.192108270044E+03    0.34319E-03   -0.19579E-03 10480   0.328E-01    0.153E-01
DAV:   8    -0.192107966392E+03    0.30365E-03   -0.45528E-04  8440   0.144E-01    0.220E-02
DAV:   9    -0.192107967625E+03   -0.12325E-05   -0.53559E-05  6760   0.268E-02
  20 F= -.19210797E+03 E0= -.19201022E+03  d E =-.367229E-01
       N       E                     dE             d eps       ncg     rms          rms(c)
DAV:   1    -0.192160633391E+03   -0.52667E-01   -0.94358E+00  8160   0.662E+00    0.680E-01
DAV:   2    -0.192183059872E+03   -0.22426E-01   -0.25698E-01 13360   0.179E+00    0.109E+00
DAV:   3    -0.192177842374E+03    0.52175E-02   -0.51448E-02 11360   0.160E+00    0.811E-01
DAV:   4    -0.192174126757E+03    0.37156E-02   -0.19032E-02 12240   0.989E-01    0.651E-01
DAV:   5    -0.192170250830E+03    0.38759E-02   -0.10840E-02 11480   0.821E-01    0.332E-01
DAV:   6    -0.192170701267E+03   -0.45044E-03   -0.68830E-03 11880   0.525E-01    0.385E-01
DAV:   7    -0.192169403937E+03    0.12973E-02   -0.43350E-03 11480   0.512E-01    0.191E-01
DAV:   8    -0.192168895724E+03    0.50821E-03   -0.79790E-04  9840   0.179E-01    0.333E-02
DAV:   9    -0.192168889277E+03    0.64472E-05   -0.11261E-04  6800   0.375E-02
  21 F= -.19216889E+03 E0= -.19207353E+03  d E =-.609217E-01
       N       E                     dE             d eps       ncg     rms          rms(c)
DAV:   1    -0.192207230158E+03   -0.38334E-01   -0.50817E+00  8160   0.487E+00    0.518E-01
DAV:   2    -0.192220902725E+03   -0.13673E-01   -0.14877E-01 12760   0.137E+00    0.895E-01
DAV:   3    -0.192216831741E+03    0.40710E-02   -0.31948E-02 12240   0.125E+00    0.617E-01
DAV:   4    -0.192213834795E+03    0.29969E-02   -0.90396E-03 12360   0.674E-01    0.377E-01
DAV:   5    -0.192212728623E+03    0.11062E-02   -0.48862E-03 11560   0.577E-01    0.263E-01
DAV:   6    -0.192212351962E+03    0.37666E-03   -0.29322E-03 11920   0.340E-01    0.176E-01
DAV:   7    -0.192212114357E+03    0.23761E-03   -0.13995E-03 10680   0.282E-01    0.154E-01
DAV:   8    -0.192211844213E+03    0.27014E-03   -0.40646E-04  8320   0.158E-01    0.268E-02
DAV:   9    -0.192211842987E+03    0.12262E-05   -0.57484E-05  5920   0.305E-02
  22 F= -.19221184E+03 E0= -.19211835E+03  d E =-.429537E-01
       N       E                     dE             d eps       ncg     rms          rms(c)
DAV:   1    -0.192241201562E+03   -0.29357E-01   -0.29033E+00  8160   0.370E+00    0.433E-01
DAV:   2    -0.192251107696E+03   -0.99061E-02   -0.10164E-01 13320   0.118E+00    0.792E-01
DAV:   3    -0.192247068263E+03    0.40394E-02   -0.21827E-02 12280   0.108E+00    0.485E-01
DAV:   4    -0.192244601566E+03    0.24667E-02   -0.50680E-03 12280   0.480E-01    0.209E-01
DAV:   5    -0.192244846359E+03   -0.24479E-03   -0.29494E-03 11120   0.433E-01    0.284E-01
DAV:   6    -0.192244257557E+03    0.58880E-03   -0.23399E-03 11560   0.378E-01    0.160E-01
DAV:   7    -0.192244008755E+03    0.24880E-03   -0.79727E-04  9000   0.224E-01    0.110E-01
DAV:   8    -0.192243874333E+03    0.13442E-03   -0.26638E-04  8000   0.124E-01    0.254E-02
DAV:   9    -0.192243868079E+03    0.62543E-05   -0.38930E-05  6720   0.302E-02
  23 F= -.19224387E+03 E0= -.19215179E+03  d E =-.320251E-01
       N       E                     dE             d eps       ncg     rms          rms(c)
DAV:   1    -0.192273246741E+03   -0.29372E-01   -0.39086E+00  8160   0.426E+00    0.476E-01
DAV:   2    -0.192285537664E+03   -0.12291E-01   -0.12677E-01 12480   0.126E+00    0.819E-01
DAV:   3    -0.192281503236E+03    0.40344E-02   -0.24149E-02 12320   0.118E+00    0.551E-01
DAV:   4    -0.192278193037E+03    0.33102E-02   -0.59230E-03 12040   0.525E-01    0.200E-01
DAV:   5    -0.192278666862E+03   -0.47382E-03   -0.31663E-03 12040   0.421E-01    0.305E-01
DAV:   6    -0.192278018242E+03    0.64862E-03   -0.28459E-03 11600   0.432E-01    0.185E-01
DAV:   7    -0.192277621660E+03    0.39658E-03   -0.90592E-04  9840   0.225E-01    0.957E-02
DAV:   8    -0.192277523878E+03    0.97782E-04   -0.22192E-04  8760   0.115E-01
  24 F= -.19227752E+03 E0= -.19218737E+03  d E =-.336558E-01
       N       E                     dE             d eps       ncg     rms          rms(c)
DAV:   1    -0.192289376107E+03   -0.11754E-01   -0.55671E-01  8160   0.161E+00    0.215E-01
DAV:   2    -0.192291580904E+03   -0.22048E-02   -0.24380E-02 11680   0.567E-01    0.365E-01
DAV:   3    -0.192290814063E+03    0.76684E-03   -0.51808E-03 12320   0.550E-01    0.254E-01
DAV:   4    -0.192290084035E+03    0.73003E-03   -0.12907E-03  9760   0.250E-01    0.858E-02
DAV:   5    -0.192290227830E+03   -0.14380E-03   -0.64722E-04  9600   0.195E-01    0.155E-01
DAV:   6    -0.192290019780E+03    0.20805E-03   -0.55117E-04  8360   0.196E-01    0.668E-02
DAV:   7    -0.192289968909E+03    0.50871E-04   -0.12118E-04  5800   0.792E-02
  25 F= -.19228997E+03 E0= -.19220053E+03  d E =-.124450E-01
       N       E                     dE             d eps       ncg     rms          rms(c)
DAV:   1    -0.192301106303E+03   -0.11087E-01   -0.57564E-01  8160   0.162E+00    0.204E-01
DAV:   2    -0.192303828424E+03   -0.27221E-02   -0.21998E-02 11360   0.618E-01    0.406E-01
DAV:   3    -0.192302276757E+03    0.15517E-02   -0.45290E-03 11560   0.546E-01    0.190E-01
DAV:   4    -0.192302187302E+03    0.89455E-04   -0.13633E-03 10040   0.277E-01    0.178E-01
DAV:   5    -0.192301870185E+03    0.31712E-03   -0.81941E-04  9120   0.231E-01    0.802E-02
DAV:   6    -0.192301869462E+03    0.72262E-06   -0.35034E-04  8840   0.115E-01
  26 F= -.19230187E+03 E0= -.19221317E+03  d E =-.119006E-01
       N       E                     dE             d eps       ncg     rms          rms(c)
DAV:   1    -0.192309324654E+03   -0.74545E-02   -0.25291E-01  8160   0.109E+00    0.161E-01
DAV:   2    -0.192310940132E+03   -0.16155E-02   -0.11079E-02 11760   0.472E-01    0.369E-01
DAV:   3    -0.192309692500E+03    0.12476E-02   -0.31522E-03 11680   0.455E-01    0.144E-01
DAV:   4    -0.192309548978E+03    0.14352E-03   -0.61648E-04  8800   0.162E-01    0.101E-01
DAV:   5    -0.192309459516E+03    0.89462E-04   -0.38849E-04  9560   0.162E-01
  27 F= -.19230946E+03 E0= -.19222133E+03  d E =-.759005E-02
       N       E                     dE             d eps       ncg     rms          rms(c)
DAV:   1    -0.192323255404E+03   -0.13706E-01   -0.12562E+00  8160   0.240E+00    0.283E-01
DAV:   2    -0.192326578160E+03   -0.33228E-02   -0.42676E-02 11760   0.662E-01    0.373E-01
DAV:   3    -0.192326588287E+03   -0.10126E-04   -0.71321E-03 12160   0.680E-01    0.392E-01
DAV:   4    -0.192325028031E+03    0.15603E-02   -0.27835E-03 12160   0.404E-01    0.139E-01
DAV:   5    -0.192324993065E+03    0.34966E-04   -0.10649E-03 10120   0.252E-01    0.144E-01
DAV:   6    -0.192324877781E+03    0.11528E-03   -0.83477E-04 10000   0.223E-01    0.928E-02
DAV:   7    -0.192324744992E+03    0.13279E-03   -0.26017E-04  8160   0.106E-01    0.398E-02
DAV:   8    -0.192324734973E+03    0.10019E-04   -0.53846E-05  6680   0.601E-02
  28 F= -.19232473E+03 E0= -.19223752E+03  d E =-.152755E-01
       N       E                     dE             d eps       ncg     rms          rms(c)
DAV:   1    -0.192339849292E+03   -0.15104E-01   -0.35918E+00  8160   0.407E+00    0.486E-01
DAV:   2    -0.192350062974E+03   -0.10214E-01   -0.13739E-01 12240   0.111E+00    0.566E-01
DAV:   3    -0.192351416516E+03   -0.13535E-02   -0.19974E-02 11840   0.116E+00    0.716E-01
DAV:   4    -0.192345968861E+03    0.54477E-02   -0.88792E-03 12080   0.747E-01    0.229E-01
DAV:   5    -0.192346055212E+03   -0.86351E-04   -0.33167E-03 11560   0.451E-01    0.265E-01
DAV:   6    -0.192345407367E+03    0.64784E-03   -0.23168E-03 11680   0.363E-01    0.128E-01
DAV:   7    -0.192345184106E+03    0.22326E-03   -0.71407E-04 10440   0.172E-01    0.845E-02
DAV:   8    -0.192345122607E+03    0.61499E-04   -0.19156E-04  8520   0.109E-01
  29 F= -.19234512E+03 E0= -.19225891E+03  d E =-.203876E-01
       N       E                     dE             d eps       ncg     rms          rms(c)
DAV:   1    -0.192349160018E+03   -0.39759E-02   -0.54478E+00  8160   0.497E+00    0.570E-01
DAV:   2    -0.192365819874E+03   -0.16660E-01   -0.20081E-01 12240   0.139E+00    0.707E-01
DAV:   3    -0.192364931786E+03    0.88809E-03   -0.26679E-02 11760   0.136E+00    0.709E-01
DAV:   4    -0.192360024502E+03    0.49073E-02   -0.10692E-02 11680   0.840E-01    0.361E-01
DAV:   5    -0.192359144522E+03    0.87998E-03   -0.47565E-03 11480   0.572E-01    0.265E-01
DAV:   6    -0.192358618028E+03    0.52649E-03   -0.26254E-03 12280   0.331E-01    0.131E-01
DAV:   7    -0.192358234968E+03    0.38306E-03   -0.70911E-04 10240   0.122E-01    0.354E-02
DAV:   8    -0.192358248777E+03   -0.13809E-04   -0.10440E-04  7440   0.721E-02
  30 F= -.19235825E+03 E0= -.19227321E+03  d E =-.131262E-01
       N       E                     dE             d eps       ncg     rms          rms(c)
DAV:   1    -0.192358607109E+03   -0.37214E-03   -0.19289E-01  8160   0.949E-01    0.118E-01
DAV:   2    -0.192359629388E+03   -0.10223E-02   -0.61832E-03 11360   0.400E-01    0.271E-01
DAV:   3    -0.192358797938E+03    0.83145E-03   -0.16571E-03 11840   0.344E-01    0.856E-02
DAV:   4    -0.192358822084E+03   -0.24146E-04   -0.36125E-04  8640   0.152E-01
  31 F= -.19235882E+03 E0= -.19227353E+03  d E =-.573307E-03
       N       E                     dE             d eps       ncg     rms          rms(c)
DAV:   1    -0.192359744498E+03   -0.94656E-03   -0.83354E-02  8160   0.623E-01    0.759E-02
DAV:   2    -0.192360223687E+03   -0.47919E-03   -0.40493E-03 12720   0.230E-01    0.141E-01
DAV:   3    -0.192360003222E+03    0.22047E-03   -0.70126E-04  9320   0.203E-01    0.652E-02
DAV:   4    -0.192359982914E+03    0.20308E-04   -0.14557E-04  7160   0.895E-02
  32 F= -.19235998E+03 E0= -.19227459E+03  d E =-.116083E-02
       N       E                     dE             d eps       ncg     rms          rms(c)
DAV:   1    -0.192360716515E+03   -0.71329E-03   -0.35950E-02  8160   0.413E-01    0.615E-02
DAV:   2    -0.192361095480E+03   -0.37897E-03   -0.17590E-03 12440   0.213E-01    0.173E-01
DAV:   3    -0.192360772592E+03    0.32289E-03   -0.52879E-04  8760   0.197E-01    0.423E-02
DAV:   4    -0.192360770002E+03    0.25894E-05   -0.60105E-05  5840   0.531E-02
  33 F= -.19236077E+03 E0= -.19227542E+03  d E =-.787088E-03
       N       E                     dE             d eps       ncg     rms          rms(c)
DAV:   1    -0.192362196346E+03   -0.14238E-02   -0.22744E-01  8160   0.102E+00    0.123E-01
DAV:   2    -0.192363188864E+03   -0.99252E-03   -0.95249E-03 11600   0.339E-01    0.209E-01
DAV:   3    -0.192362841288E+03    0.34758E-03   -0.16961E-03 11880   0.321E-01    0.131E-01
DAV:   4    -0.192362710110E+03    0.13118E-03   -0.38158E-04  8360   0.161E-01    0.823E-02
DAV:   5    -0.192362656563E+03    0.53547E-04   -0.20572E-04  8680   0.126E-01
  34 F= -.19236266E+03 E0= -.19227730E+03  d E =-.188656E-02
       N       E                     dE             d eps       ncg     rms          rms(c)
DAV:   1    -0.192363946679E+03   -0.12366E-02   -0.63471E-01  8160   0.170E+00    0.191E-01
DAV:   2    -0.192365838709E+03   -0.18920E-02   -0.24132E-02 11720   0.474E-01    0.222E-01
DAV:   3    -0.192366064277E+03   -0.22557E-03   -0.33556E-03 12480   0.462E-01    0.272E-01
DAV:   4    -0.192365243679E+03    0.82060E-03   -0.11445E-03 10280   0.286E-01    0.855E-02
DAV:   5    -0.192365317790E+03   -0.74112E-04   -0.47985E-04  9080   0.188E-01
  35 F= -.19236532E+03 E0= -.19228005E+03  d E =-.266123E-02
       N       E                     dE             d eps       ncg     rms          rms(c)
DAV:   1    -0.192365921928E+03   -0.67825E-03   -0.15897E-01  8160   0.859E-01    0.103E-01
DAV:   2    -0.192366353161E+03   -0.43123E-03   -0.60319E-03 11560   0.241E-01    0.120E-01
DAV:   3    -0.192366409187E+03   -0.56026E-04   -0.94985E-04 11000   0.248E-01
  36 F= -.19236641E+03 E0= -.19228069E+03  d E =-.109140E-02
       N       E                     dE             d eps       ncg     rms          rms(c)
DAV:   1    -0.192365981148E+03    0.37201E-03   -0.14221E-02 10880   0.297E-01    0.545E-02
DAV:   2    -0.192366475382E+03   -0.49423E-03   -0.12086E-03 11520   0.258E-01    0.202E-01
DAV:   3    -0.192365993321E+03    0.48206E-03   -0.55254E-04  8720   0.217E-01    0.274E-02
DAV:   4    -0.192366009862E+03   -0.16542E-04   -0.53548E-05  5640   0.578E-02
  37 F= -.19236601E+03 E0= -.19228027E+03  d E =0.399325E-03
