<?xml version="1.0" encoding="ISO-8859-1"?>
<modeling>
 <generator>
  <i name="program" type="string">vasp </i>
  <i name="version" type="string">5.4.1  </i>
  <i name="subversion" type="string">05Feb16 (build Jul 05 2020 17:13:04) complex                          parallel </i>
  <i name="platform" type="string">IFC91_ompi </i>
  <i name="date" type="string">2024 04 29 </i>
  <i name="time" type="string">13:31:15 </i>
 </generator>
 <incar>
  <i type="int" name="ISTART">     0</i>
  <i type="string" name="PREC">normal</i>
  <i type="string" name="ALGO"> Normal</i>
  <i type="int" name="ISPIN">     1</i>
  <i type="int" name="ICHARG">     2</i>
  <i type="int" name="IBRION">     1</i>
  <i type="int" name="NSW">   100</i>
  <i type="int" name="ISIF">     3</i>
  <i type="int" name="ISYM">     0</i>
  <i name="SYMPREC">      0.00000001</i>
  <i name="POTIM">      0.50000000</i>
  <i type="logical" name="LREAL"> F  </i>
  <i type="logical" name="LPLANE"> F  </i>
  <i type="int" name="ISMEAR">     0</i>
  <i type="logical" name="LWAVE"> F  </i>
  <i type="logical" name="LCHARG"> F  </i>
  <v type="int" name="KPOINT_BSE">    -1     0     0     0</v>
 </incar>
 <kpoints>
  <generation param="Gamma">
   <v type="int" name="divisions">       8        8        1 </v>
   <v name="usershift">      0.00000000       0.00000000       0.00000000 </v>
   <v name="genvec1">      0.12500000       0.00000000       0.00000000 </v>
   <v name="genvec2">     -0.00000000       0.12500000       0.00000000 </v>
   <v name="genvec3">      0.00000000       0.00000000       1.00000000 </v>
   <v name="shift">      0.00000000       0.00000000       0.00000000 </v>
  </generation>
  <varray name="kpointlist" >
   <v>       0.00000000       0.00000000       0.00000000 </v>
   <v>       0.12500000       0.00000000       0.00000000 </v>
   <v>       0.25000000       0.00000000       0.00000000 </v>
   <v>       0.37500000       0.00000000       0.00000000 </v>
   <v>       0.50000000       0.00000000       0.00000000 </v>
   <v>       0.00000000       0.12500000       0.00000000 </v>
   <v>       0.12500000       0.12500000       0.00000000 </v>
   <v>       0.25000000       0.12500000       0.00000000 </v>
   <v>       0.37500000       0.12500000       0.00000000 </v>
   <v>       0.50000000       0.12500000       0.00000000 </v>
   <v>      -0.37500000       0.12500000       0.00000000 </v>
   <v>      -0.25000000       0.12500000       0.00000000 </v>
   <v>      -0.12500000       0.12500000       0.00000000 </v>
   <v>       0.00000000       0.25000000       0.00000000 </v>
   <v>       0.12500000       0.25000000       0.00000000 </v>
   <v>       0.25000000       0.25000000       0.00000000 </v>
   <v>       0.37500000       0.25000000       0.00000000 </v>
   <v>       0.50000000       0.25000000       0.00000000 </v>
   <v>      -0.37500000       0.25000000       0.00000000 </v>
   <v>      -0.25000000       0.25000000       0.00000000 </v>
   <v>      -0.12500000       0.25000000       0.00000000 </v>
   <v>      -0.00000000       0.37500000       0.00000000 </v>
   <v>       0.12500000       0.37500000       0.00000000 </v>
   <v>       0.25000000       0.37500000       0.00000000 </v>
   <v>       0.37500000       0.37500000       0.00000000 </v>
   <v>       0.50000000       0.37500000       0.00000000 </v>
   <v>      -0.37500000       0.37500000       0.00000000 </v>
   <v>      -0.25000000       0.37500000       0.00000000 </v>
   <v>      -0.12500000       0.37500000       0.00000000 </v>
   <v>       0.00000000       0.50000000       0.00000000 </v>
   <v>       0.12500000       0.50000000       0.00000000 </v>
   <v>       0.25000000       0.50000000       0.00000000 </v>
   <v>       0.37500000       0.50000000       0.00000000 </v>
   <v>       0.50000000       0.50000000       0.00000000 </v>
  </varray>
  <varray name="weights" >
   <v>       0.01562500 </v>
   <v>       0.03125000 </v>
   <v>       0.03125000 </v>
   <v>       0.03125000 </v>
   <v>       0.01562500 </v>
   <v>       0.03125000 </v>
   <v>       0.03125000 </v>
   <v>       0.03125000 </v>
   <v>       0.03125000 </v>
   <v>       0.03125000 </v>
   <v>       0.03125000 </v>
   <v>       0.03125000 </v>
   <v>       0.03125000 </v>
   <v>       0.03125000 </v>
   <v>       0.03125000 </v>
   <v>       0.03125000 </v>
   <v>       0.03125000 </v>
   <v>       0.03125000 </v>
   <v>       0.03125000 </v>
   <v>       0.03125000 </v>
   <v>       0.03125000 </v>
   <v>       0.03125000 </v>
   <v>       0.03125000 </v>
   <v>       0.03125000 </v>
   <v>       0.03125000 </v>
   <v>       0.03125000 </v>
   <v>       0.03125000 </v>
   <v>       0.03125000 </v>
   <v>       0.03125000 </v>
   <v>       0.01562500 </v>
   <v>       0.03125000 </v>
   <v>       0.03125000 </v>
   <v>       0.03125000 </v>
   <v>       0.01562500 </v>
  </varray>
 </kpoints>
 <parameters>
  <separator name="general" >
   <i type="string" name="SYSTEM">unknown system</i>
   <i type="logical" name="LCOMPAT"> F  </i>
  </separator>
  <separator name="electronic" >
   <i type="string" name="PREC">normal</i>
   <i name="ENMAX">    280.00000000</i>
   <i name="ENAUG">    373.43800000</i>
   <i name="EDIFF">      0.00010000</i>
   <i type="int" name="IALGO">    38</i>
   <i type="int" name="IWAVPR">    11</i>
   <i type="int" name="NBANDS">   120</i>
   <i name="NELECT">    159.00000000</i>
   <i type="int" name="TURBO">     0</i>
   <i type="int" name="IRESTART">     0</i>
   <i type="int" name="NREBOOT">     0</i>
   <i type="int" name="NMIN">     0</i>
   <i name="EREF">      0.00000000</i>
   <separator name="electronic smearing" >
    <i type="int" name="ISMEAR">     0</i>
    <i name="SIGMA">      0.20000000</i>
    <i name="KSPACING">      0.50000000</i>
    <i type="logical" name="KGAMMA"> T  </i>
   </separator>
   <separator name="electronic projectors" >
    <i type="logical" name="LREAL"> F  </i>
    <v name="ROPT">      0.00000000      0.00000000      0.00000000      0.00000000</v>
    <i type="int" name="LMAXPAW">  -100</i>
    <i type="int" name="LMAXMIX">     2</i>
    <i type="logical" name="NLSPLINE"> F  </i>
   </separator>
   <separator name="electronic startup" >
    <i type="int" name="ISTART">     0</i>
    <i type="int" name="ICHARG">     2</i>
    <i type="int" name="INIWAV">     1</i>
   </separator>
   <separator name="electronic spin" >
    <i type="int" name="ISPIN">     1</i>
    <i type="logical" name="LNONCOLLINEAR"> F  </i>
    <v name="MAGMOM">      1.00000000      1.00000000      1.00000000      1.00000000      1.00000000      1.00000000      1.00000000      1.00000000      1.00000000      1.00000000      1.00000000      1.00000000      1.00000000      1.00000000      1.00000000      1.00000000      1.00000000      1.00000000      1.00000000      1.00000000
      1.00000000      1.00000000      1.00000000      1.00000000      1.00000000      1.00000000      1.00000000</v>
    <i name="NUPDOWN">     -1.00000000</i>
    <i type="logical" name="LSORBIT"> F  </i>
    <v name="SAXIS">      0.00000000      0.00000000      1.00000000</v>
    <i type="logical" name="LSPIRAL"> F  </i>
    <v name="QSPIRAL">      0.00000000      0.00000000      0.00000000</v>
    <i type="logical" name="LZEROZ"> F  </i>
   </separator>
   <separator name="electronic exchange-correlation" >
    <i type="logical" name="LASPH"> F  </i>
    <i type="logical" name="LMETAGGA"> F  </i>
   </separator>
   <separator name="electronic convergence" >
    <i type="int" name="NELM">    60</i>
    <i type="int" name="NELMDL">    -5</i>
    <i type="int" name="NELMIN">     2</i>
    <i name="ENINI">    280.00000000</i>
    <separator name="electronic convergence detail" >
     <i type="logical" name="LDIAG"> T  </i>
     <i type="logical" name="LSUBROT"> F  </i>
     <i name="WEIMIN">      0.00100000</i>
     <i name="EBREAK">      0.00000021</i>
     <i name="DEPER">      0.30000000</i>
     <i type="int" name="NRMM">     4</i>
     <i name="TIME">      0.40000000</i>
    </separator>
   </separator>
   <separator name="electronic mixer" >
    <i name="AMIX">      0.40000000</i>
    <i name="BMIX">      1.00000000</i>
    <i name="AMIN">      0.10000000</i>
    <i name="AMIX_MAG">      1.60000000</i>
    <i name="BMIX_MAG">      1.00000000</i>
    <separator name="electronic mixer details" >
     <i type="int" name="IMIX">     4</i>
     <i type="logical" name="MIXFIRST"> F  </i>
     <i type="int" name="MAXMIX">   -45</i>
     <i name="WC">    100.00000000</i>
     <i type="int" name="INIMIX">     1</i>
     <i type="int" name="MIXPRE">     1</i>
     <i type="int" name="MREMOVE">     5</i>
    </separator>
   </separator>
   <separator name="electronic dipolcorrection" >
    <i type="logical" name="LDIPOL"> F  </i>
    <i type="logical" name="LMONO"> F  </i>
    <i type="int" name="IDIPOL">     0</i>
    <i name="EPSILON">      1.00000000</i>
    <v name="DIPOL">   -100.00000000   -100.00000000   -100.00000000</v>
    <i name="EFIELD">      0.00000000</i>
   </separator>
  </separator>
  <separator name="grids" >
   <i type="int" name="NGX">    42</i>
   <i type="int" name="NGY">    42</i>
   <i type="int" name="NGZ">   126</i>
   <i type="int" name="NGXF">    84</i>
   <i type="int" name="NGYF">    84</i>
   <i type="int" name="NGZF">   252</i>
   <i type="logical" name="ADDGRID"> F  </i>
  </separator>
  <separator name="ionic" >
   <i type="int" name="NSW">   100</i>
   <i type="int" name="IBRION">     1</i>
   <i type="int" name="ISIF">     3</i>
   <i name="PSTRESS">      0.00000000</i>
   <i name="EDIFFG">      0.00100000</i>
   <i type="int" name="NFREE">     0</i>
   <i name="POTIM">      0.50000000</i>
   <i name="SMASS">     -3.00000000</i>
   <i name="SCALEE">      1.00000000</i>
  </separator>
  <separator name="ionic md" >
   <i name="TEBEG">      0.00010000</i>
   <i name="TEEND">      0.00010000</i>
   <i type="int" name="NBLOCK">     1</i>
   <i type="int" name="KBLOCK">   100</i>
   <i type="int" name="NPACO">   256</i>
   <i name="APACO">     16.00000000</i>
  </separator>
  <separator name="symmetry" >
   <i type="int" name="ISYM">     0</i>
   <i name="SYMPREC">      0.00000001</i>
  </separator>
  <separator name="dos" >
   <i type="logical" name="LORBIT"> F  </i>
   <v name="RWIGS">     -1.00000000     -1.00000000     -1.00000000     -1.00000000</v>
   <i type="int" name="NEDOS">   301</i>
   <i name="EMIN">     10.00000000</i>
   <i name="EMAX">    -10.00000000</i>
   <i name="EFERMI">      0.00000000</i>
  </separator>
  <separator name="writing" >
   <i type="int" name="NWRITE">     2</i>
   <i type="logical" name="LWAVE"> F  </i>
   <i type="logical" name="LCHARG"> F  </i>
   <i type="logical" name="LPARD"> F  </i>
   <i type="logical" name="LVTOT"> F  </i>
   <i type="logical" name="LVHAR"> F  </i>
   <i type="logical" name="LELF"> F  </i>
   <i type="logical" name="LOPTICS"> F  </i>
   <v name="STM">      0.00000000      0.00000000      0.00000000      0.00000000      0.00000000      0.00000000      0.00000000</v>
  </separator>
  <separator name="performance" >
   <i type="int" name="NPAR">    40</i>
   <i type="int" name="NSIM">     4</i>
   <i type="int" name="NBLK">    -1</i>
   <i type="logical" name="LPLANE"> F  </i>
   <i type="logical" name="LSCALAPACK"> T  </i>
   <i type="logical" name="LSCAAWARE"> F  </i>
   <i type="logical" name="LSCALU"> F  </i>
   <i type="logical" name="LASYNC"> F  </i>
   <i type="logical" name="LORBITALREAL"> F  </i>
  </separator>
  <separator name="miscellaneous" >
   <i type="int" name="IDIOT">     3</i>
   <i type="logical" name="LMUSIC"> F  </i>
   <v name="POMASS">     50.94100000     95.94000000    183.85000000     32.06600000</v>
   <v name="DARWINR">      0.00000000      0.00000000      0.00000000      0.00000000</v>
   <v name="DARWINV">      1.00000000      1.00000000      1.00000000      1.00000000</v>
   <i type="logical" name="LCORR"> T  </i>
  </separator>
  <i type="logical" name="GGA_COMPAT"> T  </i>
  <i type="logical" name="LBERRY"> F  </i>
  <i type="int" name="ICORELEVEL">     0</i>
  <i type="logical" name="LDAU"> F  </i>
  <i type="int" name="I_CONSTRAINED_M">     0</i>
  <separator name="electronic exchange-correlation" >
   <i type="string" name="GGA">--</i>
   <i type="int" name="VOSKOWN">     0</i>
   <i type="logical" name="LHFCALC"> F  </i>
   <i type="string" name="PRECFOCK"></i>
   <i type="logical" name="LSYMGRAD"> F  </i>
   <i type="logical" name="LHFONE"> F  </i>
   <i type="logical" name="LRHFCALC"> F  </i>
   <i type="logical" name="LTHOMAS"> F  </i>
   <i type="logical" name="LMODELHF"> F  </i>
   <i name="ENCUT4O">     -1.00000000</i>
   <i type="int" name="EXXOEP">     0</i>
   <i type="int" name="FOURORBIT">     0</i>
   <i name="AEXX">      0.00000000</i>
   <i name="HFALPHA">      0.00000000</i>
   <i name="MCALPHA">      0.00000000</i>
   <i name="ALDAX">      1.00000000</i>
   <i name="AGGAX">      1.00000000</i>
   <i name="ALDAC">      1.00000000</i>
   <i name="AGGAC">      1.00000000</i>
   <i type="int" name="NKREDX">     1</i>
   <i type="int" name="NKREDY">     1</i>
   <i type="int" name="NKREDZ">     1</i>
   <i type="logical" name="SHIFTRED"> F  </i>
   <i type="logical" name="ODDONLY"> F  </i>
   <i type="logical" name="EVENONLY"> F  </i>
   <i type="int" name="LMAXFOCK">     0</i>
   <i type="int" name="NMAXFOCKAE">     0</i>
   <i type="logical" name="LFOCKAEDFT"> F  </i>
   <i name="HFSCREEN">      0.00000000</i>
   <i name="HFSCREENC">      0.00000000</i>
   <i type="int" name="NBANDSGWLOW">     0</i>
  </separator>
  <separator name="vdW DFT" >
   <i type="logical" name="LUSE_VDW"> F  </i>
   <i name="Zab_VDW">     -0.84910000</i>
   <i name="PARAM1">      0.12340000</i>
   <i name="PARAM2">      1.00000000</i>
   <i name="PARAM3">      0.00000000</i>
  </separator>
  <separator name="model GW" >
   <i type="int" name="MODEL_GW">     0</i>
   <i name="MODEL_EPS0">     58.26239943</i>
   <i name="MODEL_ALPHA">      1.00000000</i>
  </separator>
  <separator name="linear response parameters" >
   <i type="logical" name="LEPSILON"> F  </i>
   <i type="logical" name="LRPA"> F  </i>
   <i type="logical" name="LNABLA"> F  </i>
   <i type="logical" name="LVEL"> F  </i>
   <i type="int" name="KINTER">     0</i>
   <i name="CSHIFT">      0.10000000</i>
   <i name="OMEGAMAX">     -1.00000000</i>
   <i name="DEG_THRESHOLD">      0.00200000</i>
  </separator>
  <separator name="orbital magnetization" >
   <i type="logical" name="NUCIND"> F  </i>
   <v name="MAGPOS">      0.00000000      0.00000000      0.00000000</v>
   <i type="logical" name="LNICSALL"> T  </i>
   <i type="logical" name="ORBITALMAG"> F  </i>
   <i type="logical" name="LMAGBLOCH"> F  </i>
   <i type="logical" name="LCHIMAG"> F  </i>
   <i type="logical" name="LGAUGE"> T  </i>
   <i type="int" name="MAGATOM">     0</i>
   <v name="MAGDIPOL">      0.00000000      0.00000000      0.00000000</v>
   <v name="AVECCONST">      0.00000000      0.00000000      0.00000000</v>
  </separator>
  <separator name="response functions" >
   <i type="logical" name="LADDER"> F  </i>
   <i type="logical" name="LFXC"> F  </i>
   <i type="logical" name="LHARTREE"> T  </i>
   <i type="int" name="IBSE">     0</i>
   <v type="int" name="KPOINT">    -1     0     0     0</v>
   <i type="logical" name="LTCTE"> F  </i>
   <i type="logical" name="LTETE"> F  </i>
   <i type="logical" name="LTRIPLET"> F  </i>
   <i type="logical" name="LFXCEPS"> F  </i>
   <i type="logical" name="LFXHEG"> F  </i>
   <i type="int" name="NATURALO">     0</i>
   <i type="logical" name="L2ORDER"> F  </i>
   <i type="logical" name="LUSEW"> F  </i>
   <i name="ENCUTGW">     -2.00000000</i>
   <i name="ENCUTGWSOFT">     -2.00000000</i>
   <i name="ENCUTLF">     -1.00000000</i>
   <i type="int" name="LMAXMP2">    -1</i>
   <i name="SCISSOR">      0.00000000</i>
   <i type="int" name="NOMEGA">     0</i>
   <i type="int" name="NOMEGAR">     0</i>
   <i type="int" name="NBANDSGW">    -1</i>
   <i type="int" name="NBANDSO">    -1</i>
   <i type="int" name="NBANDSV">    -1</i>
   <i type="int" name="NELM">     1</i>
   <i type="int" name="NELMHF">     1</i>
   <i type="int" name="DIM">     3</i>
   <i type="int" name="ANTIRES">     0</i>
   <i name="OMEGAMAX">    -30.00000000</i>
   <i name="OMEGAMIN">    -30.00000000</i>
   <i name="OMEGATL">   -200.00000000</i>
   <i type="int" name="OMEGAGRID">     0</i>
   <i name="CSHIFT">     -0.10000000</i>
   <i type="logical" name="SELFENERGY"> F  </i>
   <i type="logical" name="LSPECTRAL"> F  </i>
   <i type="logical" name="LSPECTRALGW"> F  </i>
   <i type="logical" name="LSINGLES"> F  </i>
   <i type="logical" name="LFERMIGW"> F  </i>
   <i type="logical" name="ODDONLYGW"> F  </i>
   <i type="logical" name="EVENONLYGW"> F  </i>
   <i type="int" name="NKREDLFX">     1</i>
   <i type="int" name="NKREDLFY">     1</i>
   <i type="int" name="NKREDLFZ">     1</i>
   <i type="int" name="MAXMEM">  1800</i>
   <i type="int" name="TELESCOPE">     0</i>
   <i type="int" name="TAUPAR">     1</i>
   <i type="int" name="OMEGAPAR">    -1</i>
   <i name="LAMBDA">      1.00000000</i>
  </separator>
  <separator name="External order field" >
   <i name="OFIELD_KAPPA">      0.00000000</i>
   <v name="OFIELD_K">      0.00000000      0.00000000      0.00000000</v>
   <i name="OFIELD_Q6_NEAR">      0.00000000</i>
   <i name="OFIELD_Q6_FAR">      0.00000000</i>
   <i name="OFIELD_A">      0.00000000</i>
  </separator>
 </parameters>
 <atominfo>
  <atoms>      27 </atoms>
  <types>       4 </types>
  <array name="atoms" >
   <dimension dim="1">ion</dimension>
   <field type="string">element</field>
   <field type="int">atomtype</field>
   <set>
    <rc><c>V </c><c>   1</c></rc>
    <rc><c>V </c><c>   1</c></rc>
    <rc><c>V </c><c>   1</c></rc>
    <rc><c>Mo</c><c>   2</c></rc>
    <rc><c>Mo</c><c>   2</c></rc>
    <rc><c>Mo</c><c>   2</c></rc>
    <rc><c>W </c><c>   3</c></rc>
    <rc><c>W </c><c>   3</c></rc>
    <rc><c>W </c><c>   3</c></rc>
    <rc><c>S </c><c>   4</c></rc>
    <rc><c>S </c><c>   4</c></rc>
    <rc><c>S </c><c>   4</c></rc>
    <rc><c>S </c><c>   4</c></rc>
    <rc><c>S </c><c>   4</c></rc>
    <rc><c>S </c><c>   4</c></rc>
    <rc><c>S </c><c>   4</c></rc>
    <rc><c>S </c><c>   4</c></rc>
    <rc><c>S </c><c>   4</c></rc>
    <rc><c>S </c><c>   4</c></rc>
    <rc><c>S </c><c>   4</c></rc>
    <rc><c>S </c><c>   4</c></rc>
    <rc><c>S </c><c>   4</c></rc>
    <rc><c>S </c><c>   4</c></rc>
    <rc><c>S </c><c>   4</c></rc>
    <rc><c>S </c><c>   4</c></rc>
    <rc><c>S </c><c>   4</c></rc>
    <rc><c>S </c><c>   4</c></rc>
   </set>
  </array>
  <array name="atomtypes" >
   <dimension dim="1">type</dimension>
   <field type="int">atomspertype</field>
   <field type="string">element</field>
   <field>mass</field>
   <field>valence</field>
   <field type="string">pseudopotential</field>
   <set>
    <rc><c>   3</c><c>V </c><c>     50.94100000</c><c>      5.00000000</c><c> PAW_PBE V 08Apr2002                    </c></rc>
    <rc><c>   3</c><c>Mo</c><c>     95.94000000</c><c>      6.00000000</c><c> PAW_PBE Mo 08Apr2002                   </c></rc>
    <rc><c>   3</c><c>W </c><c>    183.85000000</c><c>      6.00000000</c><c> PAW_PBE W 08Apr2002                    </c></rc>
    <rc><c>  18</c><c>S </c><c>     32.06600000</c><c>      6.00000000</c><c>  PAW_PBE S 17Jan2003                   </c></rc>
   </set>
  </array>
 </atominfo>
 <structure name="initialpos" >
  <crystal>
   <varray name="basis" >
    <v>       8.66999996       5.03999989       0.00000000 </v>
    <v>      -8.66999982       5.04000013       0.00000000 </v>
    <v>       0.00000000       0.00000000      30.00000000 </v>
   </varray>
   <i name="volume">   2621.80797419 </i>
   <varray name="rec_basis" >
    <v>       0.05767013       0.09920635       0.00000000 </v>
    <v>      -0.05767013       0.09920635       0.00000000 </v>
    <v>       0.00000000       0.00000000       0.03333333 </v>
   </varray>
  </crystal>
  <varray name="positions" >
   <v>       0.00000000       0.66666669       0.00000000 </v>
   <v>       0.33333334       0.33333334       0.00000000 </v>
   <v>       0.66666669       0.66666669       0.00000000 </v>
   <v>       1.00000000       0.33333334       0.00000000 </v>
   <v>       0.66666669       0.33333334       0.00000000 </v>
   <v>       0.66666669       0.00000000       0.00000000 </v>
   <v>       0.00000000       0.00000000       0.00000000 </v>
   <v>       0.33333334       0.00000000       0.00000000 </v>
   <v>       0.33333334       0.66666669       0.00000000 </v>
   <v>       0.11068511       0.22244981       0.95539999 </v>
   <v>       0.22244981       0.11068511       0.04460000 </v>
   <v>       0.11068511       0.55578315       0.95539999 </v>
   <v>       0.22244981       0.44401845       0.04460000 </v>
   <v>       0.11068511       0.88911647       0.95539999 </v>
   <v>       0.22244981       0.77735180       0.04460000 </v>
   <v>       0.44401845       0.22244981       0.95539999 </v>
   <v>       0.55578315       0.11068511       0.04460000 </v>
   <v>       0.44401845       0.55578315       0.95539999 </v>
   <v>       0.55578315       0.44401845       0.04460000 </v>
   <v>       0.44401845       0.88911647       0.95539999 </v>
   <v>       0.55578315       0.77735180       0.04460000 </v>
   <v>       0.77735180       0.22244981       0.95539999 </v>
   <v>       0.88911647       0.11068511       0.04460000 </v>
   <v>       0.77735180       0.55578315       0.95539999 </v>
   <v>       0.88911647       0.44401845       0.04460000 </v>
   <v>       0.77735180       0.88911647       0.95539999 </v>
   <v>       0.88911647       0.77735180       0.04460000 </v>
  </varray>
 </structure>
 <calculation>
  <scstep>
   <time name="dav">   22.05   22.11</time>
   <time name="total">   22.10   22.16</time>
   <energy>
    <i name="alphaZ">     81.65567618 </i>
    <i name="ewald">  41890.23010383 </i>
    <i name="hartreedc"> -47722.85855704 </i>
    <i name="XCdc">   -242.92965114 </i>
    <i name="pawpsdc">   3467.42045192 </i>
    <i name="pawaedc">  -2871.19716117 </i>
    <i name="eentropy">     -0.51801692 </i>
    <i name="bandstr">   -239.71167705 </i>
    <i name="atom">   6761.44252427 </i>
    <i name="e_fr_energy">   1123.53369289 </i>
    <i name="e_wo_entrp">   1124.05170980 </i>
    <i name="e_0_energy">   1123.79270134 </i>
   </energy>
  </scstep>
  <scstep>
   <time name="dav">   28.64   28.71</time>
   <time name="total">   28.65   28.72</time>
   <energy>
    <i name="e_fr_energy">     -2.94245097 </i>
    <i name="e_wo_entrp">     -2.74299640 </i>
    <i name="e_0_energy">     -2.84272368 </i>
   </energy>
  </scstep>
  <scstep>
   <time name="dav">   28.03   28.10</time>
   <time name="total">   28.03   28.10</time>
   <energy>
    <i name="e_fr_energy">   -199.83160803 </i>
    <i name="e_wo_entrp">   -199.54700781 </i>
    <i name="e_0_energy">   -199.68930792 </i>
   </energy>
  </scstep>
  <scstep>
   <time name="dav">   29.89   29.96</time>
   <time name="total">   29.89   29.97</time>
   <energy>
    <i name="e_fr_energy">   -208.86660393 </i>
    <i name="e_wo_entrp">   -208.54410360 </i>
    <i name="e_0_energy">   -208.70535377 </i>
   </energy>
  </scstep>
  <scstep>
   <time name="dav">   29.06   29.13</time>
   <time name="total">   29.53   29.61</time>
   <energy>
    <i name="e_fr_energy">   -209.22222067 </i>
    <i name="e_wo_entrp">   -208.90318800 </i>
    <i name="e_0_energy">   -209.06270434 </i>
   </energy>
  </scstep>
  <scstep>
   <time name="dav">   31.90   31.97</time>
   <time name="total">   32.39   32.48</time>
   <energy>
    <i name="e_fr_energy">   -236.35927827 </i>
    <i name="e_wo_entrp">   -236.08165941 </i>
    <i name="e_0_energy">   -236.22046884 </i>
   </energy>
  </scstep>
  <scstep>
   <time name="dav">   32.69   32.76</time>
   <time name="total">   33.19   33.28</time>
   <energy>
    <i name="e_fr_energy">   -196.82888536 </i>
    <i name="e_wo_entrp">   -196.49598916 </i>
    <i name="e_0_energy">   -196.66243726 </i>
   </energy>
  </scstep>
  <scstep>
   <time name="dav">   30.03   30.11</time>
   <time name="total">   30.55   30.63</time>
   <energy>
    <i name="e_fr_energy">   -190.31798016 </i>
    <i name="e_wo_entrp">   -190.05093555 </i>
    <i name="e_0_energy">   -190.18445785 </i>
   </energy>
  </scstep>
  <scstep>
   <time name="dav">   30.28   30.36</time>
   <time name="total">   30.81   30.89</time>
   <energy>
    <i name="e_fr_energy">   -188.29593046 </i>
    <i name="e_wo_entrp">   -187.96119622 </i>
    <i name="e_0_energy">   -188.12856334 </i>
   </energy>
  </scstep>
  <scstep>
   <time name="dav">   33.05   33.13</time>
   <time name="total">   33.58   33.67</time>
   <energy>
    <i name="e_fr_energy">   -187.10949650 </i>
    <i name="e_wo_entrp">   -186.76306734 </i>
    <i name="e_0_energy">   -186.93628192 </i>
   </energy>
  </scstep>
  <scstep>
   <time name="dav">   30.94   31.02</time>
   <time name="total">   31.48   31.56</time>
   <energy>
    <i name="e_fr_energy">   -187.01018527 </i>
    <i name="e_wo_entrp">   -186.66326679 </i>
    <i name="e_0_energy">   -186.83672603 </i>
   </energy>
  </scstep>
  <scstep>
   <time name="dav">   32.33   32.40</time>
   <time name="total">   32.86   32.95</time>
   <energy>
    <i name="e_fr_energy">   -186.99978742 </i>
    <i name="e_wo_entrp">   -186.66333911 </i>
    <i name="e_0_energy">   -186.83156327 </i>
   </energy>
  </scstep>
  <scstep>
   <time name="dav">   32.71   32.79</time>
   <time name="total">   33.25   33.34</time>
   <energy>
    <i name="e_fr_energy">   -186.92424814 </i>
    <i name="e_wo_entrp">   -186.58563762 </i>
    <i name="e_0_energy">   -186.75494288 </i>
   </energy>
  </scstep>
  <scstep>
   <time name="dav">   31.97   32.04</time>
   <time name="total">   32.50   32.59</time>
   <energy>
    <i name="e_fr_energy">   -186.89028360 </i>
    <i name="e_wo_entrp">   -186.54648092 </i>
    <i name="e_0_energy">   -186.71838226 </i>
   </energy>
  </scstep>
  <scstep>
   <time name="dav">   30.50   30.57</time>
   <time name="total">   31.04   31.12</time>
   <energy>
    <i name="e_fr_energy">   -186.88605514 </i>
    <i name="e_wo_entrp">   -186.54166873 </i>
    <i name="e_0_energy">   -186.71386193 </i>
   </energy>
  </scstep>
  <scstep>
   <time name="dav">   32.38   32.46</time>
   <time name="total">   32.91   33.00</time>
   <energy>
    <i name="e_fr_energy">   -186.88581335 </i>
    <i name="e_wo_entrp">   -186.54189373 </i>
    <i name="e_0_energy">   -186.71385354 </i>
   </energy>
  </scstep>
  <scstep>
   <time name="dav">   31.78   31.86</time>
   <time name="total">   32.32   32.40</time>
   <energy>
    <i name="e_fr_energy">   -186.88376500 </i>
    <i name="e_wo_entrp">   -186.54071131 </i>
    <i name="e_0_energy">   -186.71223815 </i>
   </energy>
  </scstep>
  <scstep>
   <time name="dav">   30.68   30.75</time>
   <time name="total">   31.21   31.29</time>
   <energy>
    <i name="e_fr_energy">   -186.88261709 </i>
    <i name="e_wo_entrp">   -186.53995603 </i>
    <i name="e_0_energy">   -186.71128656 </i>
   </energy>
  </scstep>
  <scstep>
   <time name="dav">   28.20   28.27</time>
   <time name="total">   28.74   28.82</time>
   <energy>
    <i name="e_fr_energy">   -186.88243969 </i>
    <i name="e_wo_entrp">   -186.53929310 </i>
    <i name="e_0_energy">   -186.71086640 </i>
   </energy>
  </scstep>
  <scstep>
   <time name="dav">   24.04   24.10</time>
   <time name="total">   24.58   24.65</time>
   <energy>
    <i name="e_fr_energy">   -186.88329955 </i>
    <i name="e_wo_entrp">   -186.54045313 </i>
    <i name="e_0_energy">   -186.71187634 </i>
   </energy>
  </scstep>
  <scstep>
   <time name="dav">   21.96   22.01</time>
   <time name="total">   22.49   22.56</time>
   <energy>
    <i name="e_fr_energy">   -186.88403302 </i>
    <i name="e_wo_entrp">   -186.54110498 </i>
    <i name="e_0_energy">   -186.71256900 </i>
   </energy>
  </scstep>
  <scstep>
   <time name="dav">   20.49   20.54</time>
   <time name="total">   21.02   21.08</time>
   <energy>
    <i name="e_fr_energy">   -186.88491332 </i>
    <i name="e_wo_entrp">   -186.54199001 </i>
    <i name="e_0_energy">   -186.71345167 </i>
   </energy>
  </scstep>
  <scstep>
   <time name="dav">   20.70   20.75</time>
   <time name="total">   21.24   21.30</time>
   <energy>
    <i name="e_fr_energy">   -186.88615030 </i>
    <i name="e_wo_entrp">   -186.54335411 </i>
    <i name="e_0_energy">   -186.71475220 </i>
   </energy>
  </scstep>
  <scstep>
   <time name="dav">   19.26   19.31</time>
   <time name="total">   19.80   19.85</time>
   <energy>
    <i name="e_fr_energy">   -186.88668729 </i>
    <i name="e_wo_entrp">   -186.54382104 </i>
    <i name="e_0_energy">   -186.71525417 </i>
   </energy>
  </scstep>
  <scstep>
   <time name="dav">   16.64   16.68</time>
   <time name="total">   17.18   17.23</time>
   <energy>
    <i name="e_fr_energy">   -186.88709459 </i>
    <i name="e_wo_entrp">   -186.54421147 </i>
    <i name="e_0_energy">   -186.71565303 </i>
   </energy>
  </scstep>
  <scstep>
   <time name="dav">   19.43   19.48</time>
   <time name="total">   19.96   20.02</time>
   <energy>
    <i name="e_fr_energy">   -186.88733078 </i>
    <i name="e_wo_entrp">   -186.54446446 </i>
    <i name="e_0_energy">   -186.71589762 </i>
   </energy>
  </scstep>
  <scstep>
   <time name="dav">   20.31   20.36</time>
   <time name="total">   20.35   20.40</time>
   <energy>
    <i name="alphaZ">     81.65567618 </i>
    <i name="ewald">  41890.23010383 </i>
    <i name="hartreedc"> -47833.12231519 </i>
    <i name="XCdc">   -231.59846019 </i>
    <i name="pawpsdc">   4192.18061190 </i>
    <i name="pawaedc">  -3610.20586864 </i>
    <i name="eentropy">     -0.34286764 </i>
    <i name="bandstr">  -1437.12681801 </i>
    <i name="atom">   6761.44252427 </i>
    <i name="e_fr_energy">   -186.88741348 </i>
    <i name="e_wo_entrp">   -186.54454585 </i>
    <i name="e_0_energy">   -186.71597967 </i>
   </energy>
  </scstep>
  <structure>
   <crystal>
    <varray name="basis" >
     <v>       8.66999996       5.03999989       0.00000000 </v>
     <v>      -8.66999982       5.04000013       0.00000000 </v>
     <v>       0.00000000       0.00000000      30.00000000 </v>
    </varray>
    <i name="volume">   2621.80797419 </i>
    <varray name="rec_basis" >
     <v>       0.05767013       0.09920635       0.00000000 </v>
     <v>      -0.05767013       0.09920635       0.00000000 </v>
     <v>       0.00000000       0.00000000       0.03333333 </v>
    </varray>
   </crystal>
   <varray name="positions" >
    <v>       0.00000000       0.66666669       0.00000000 </v>
    <v>       0.33333334       0.33333334       0.00000000 </v>
    <v>       0.66666669       0.66666669       0.00000000 </v>
    <v>       1.00000000       0.33333334       0.00000000 </v>
    <v>       0.66666669       0.33333334       0.00000000 </v>
    <v>       0.66666669       0.00000000       0.00000000 </v>
    <v>       0.00000000       0.00000000       0.00000000 </v>
    <v>       0.33333334       0.00000000       0.00000000 </v>
    <v>       0.33333334       0.66666669       0.00000000 </v>
    <v>       0.11068511       0.22244981       0.95539999 </v>
    <v>       0.22244981       0.11068511       0.04460000 </v>
    <v>       0.11068511       0.55578315       0.95539999 </v>
    <v>       0.22244981       0.44401845       0.04460000 </v>
    <v>       0.11068511       0.88911647       0.95539999 </v>
    <v>       0.22244981       0.77735180       0.04460000 </v>
    <v>       0.44401845       0.22244981       0.95539999 </v>
    <v>       0.55578315       0.11068511       0.04460000 </v>
    <v>       0.44401845       0.55578315       0.95539999 </v>
    <v>       0.55578315       0.44401845       0.04460000 </v>
    <v>       0.44401845       0.88911647       0.95539999 </v>
    <v>       0.55578315       0.77735180       0.04460000 </v>
    <v>       0.77735180       0.22244981       0.95539999 </v>
    <v>       0.88911647       0.11068511       0.04460000 </v>
    <v>       0.77735180       0.55578315       0.95539999 </v>
    <v>       0.88911647       0.44401845       0.04460000 </v>
    <v>       0.77735180       0.88911647       0.95539999 </v>
    <v>       0.88911647       0.77735180       0.04460000 </v>
   </varray>
  </structure>
  <varray name="forces" >
   <v>       0.15050104      -0.39510191       0.06179945 </v>
   <v>       0.01316367       0.06984916      -0.05727900 </v>
   <v>       0.08671888      -0.03008990       0.02295868 </v>
   <v>      -0.25788097      -0.43420651      -0.09082005 </v>
   <v>       0.43019601       0.03827800       0.03398555 </v>
   <v>      -0.26961178       0.42077496       0.00223161 </v>
   <v>      -0.53240373      -0.06105470      -0.03044797 </v>
   <v>       0.25442231       0.47352679       0.07605105 </v>
   <v>       0.07060542      -0.02431312       0.00938583 </v>
   <v>       0.62412133       0.56469396      -2.17789214 </v>
   <v>      -0.44387666       0.56002315       2.14785684 </v>
   <v>      -0.64437291       0.14053786      -2.09997671 </v>
   <v>       0.65512983       0.15587485       2.05954626 </v>
   <v>       0.46966367      -0.57398512      -2.08089979 </v>
   <v>      -0.48683095      -0.58712584       2.19753871 </v>
   <v>      -0.69774751      -0.15115407      -2.12546302 </v>
   <v>      -0.20436383      -0.17902567       2.93337706 </v>
   <v>       0.75322020      -0.02423657      -1.49966130 </v>
   <v>      -0.89763493      -0.00197542       1.42954299 </v>
   <v>       0.08497750      -0.12052516      -2.90075488 </v>
   <v>       0.64716259      -0.14287630       2.07362772 </v>
   <v>       0.13180412       0.01296052      -2.94720899 </v>
   <v>       0.05501699      -0.02063389       2.92078567 </v>
   <v>      -0.32573363       0.66801145      -1.41872086 </v>
   <v>      -0.54795958       0.71448686       2.17792031 </v>
   <v>       0.61711550      -0.54480238      -2.14607278 </v>
   <v>       0.26459740      -0.52791101       1.42858979 </v>
  </varray>
  <varray name="stress" >
   <v>       7.43196079      -0.05403545      -1.60914452 </v>
   <v>      -0.05403565       4.34399049      -0.00049403 </v>
   <v>      -1.60914453      -0.00049393      30.28318650 </v>
  </varray>
  <energy>
   <i name="e_fr_energy">   -186.88741348 </i>
   <i name="e_wo_entrp">   -186.71597967 </i>
   <i name="e_0_energy">     -0.34286764 </i>
  </energy>
  <time name="totalsc">  794.07  796.21</time>
 </calculation>
 <calculation>
  <scstep>
   <time name="dav">   21.98   22.03</time>
   <time name="total">   22.52   22.58</time>
   <energy>
    <i name="alphaZ">     78.91669102 </i>
    <i name="ewald">  39377.98958481 </i>
    <i name="hartreedc"> -45335.54567449 </i>
    <i name="XCdc">   -239.05673431 </i>
    <i name="pawpsdc">   4192.16934831 </i>
    <i name="pawaedc">  -3610.19463796 </i>
    <i name="eentropy">     -0.28143666 </i>
    <i name="bandstr">  -1412.98334495 </i>
    <i name="atom">   6761.44252427 </i>
    <i name="e_fr_energy">   -187.54367996 </i>
    <i name="e_wo_entrp">   -187.26224330 </i>
    <i name="e_0_energy">   -187.40296163 </i>
   </energy>
  </scstep>
  <scstep>
   <time name="dav">   30.84   30.92</time>
   <time name="total">   31.38   31.46</time>
   <energy>
    <i name="e_fr_energy">   -189.65179748 </i>
    <i name="e_wo_entrp">   -189.31129096 </i>
    <i name="e_0_energy">   -189.48154422 </i>
   </energy>
  </scstep>
  <scstep>
   <time name="dav">   30.83   30.90</time>
   <time name="total">   31.38   31.46</time>
   <energy>
    <i name="e_fr_energy">   -189.34347787 </i>
    <i name="e_wo_entrp">   -189.06923779 </i>
    <i name="e_0_energy">   -189.20635783 </i>
   </energy>
  </scstep>
  <scstep>
   <time name="dav">   31.12   31.19</time>
   <time name="total">   31.66   31.75</time>
   <energy>
    <i name="e_fr_energy">   -188.80542910 </i>
    <i name="e_wo_entrp">   -188.52466652 </i>
    <i name="e_0_energy">   -188.66504781 </i>
   </energy>
  </scstep>
  <scstep>
   <time name="dav">   31.22   31.29</time>
   <time name="total">   31.76   31.85</time>
   <energy>
    <i name="e_fr_energy">   -188.96815862 </i>
    <i name="e_wo_entrp">   -188.67394930 </i>
    <i name="e_0_energy">   -188.82105396 </i>
   </energy>
  </scstep>
  <scstep>
   <time name="dav">   31.52   31.59</time>
   <time name="total">   32.07   32.15</time>
   <energy>
    <i name="e_fr_energy">   -188.77169076 </i>
    <i name="e_wo_entrp">   -188.49200899 </i>
    <i name="e_0_energy">   -188.63184988 </i>
   </energy>
  </scstep>
  <scstep>
   <time name="dav">   29.12   29.19</time>
   <time name="total">   29.67   29.75</time>
   <energy>
    <i name="e_fr_energy">   -188.75548920 </i>
    <i name="e_wo_entrp">   -188.47495992 </i>
    <i name="e_0_energy">   -188.61522456 </i>
   </energy>
  </scstep>
  <scstep>
   <time name="dav">   33.04   33.11</time>
   <time name="total">   33.58   33.67</time>
   <energy>
    <i name="e_fr_energy">   -188.73423365 </i>
    <i name="e_wo_entrp">   -188.45380550 </i>
    <i name="e_0_energy">   -188.59401958 </i>
   </energy>
  </scstep>
  <scstep>
   <time name="dav">   30.70   30.78</time>
   <time name="total">   31.25   31.33</time>
   <energy>
    <i name="e_fr_energy">   -188.71567429 </i>
    <i name="e_wo_entrp">   -188.43605482 </i>
    <i name="e_0_energy">   -188.57586455 </i>
   </energy>
  </scstep>
  <scstep>
   <time name="dav">   27.11   27.18</time>
   <time name="total">   27.66   27.74</time>
   <energy>
    <i name="e_fr_energy">   -188.71544530 </i>
    <i name="e_wo_entrp">   -188.43594881 </i>
    <i name="e_0_energy">   -188.57569706 </i>
   </energy>
  </scstep>
  <scstep>
   <time name="dav">   29.09   29.16</time>
   <time name="total">   29.64   29.71</time>
   <energy>
    <i name="e_fr_energy">   -188.71466242 </i>
    <i name="e_wo_entrp">   -188.43565822 </i>
    <i name="e_0_energy">   -188.57516032 </i>
   </energy>
  </scstep>
  <scstep>
   <time name="dav">   27.67   27.74</time>
   <time name="total">   28.22   28.30</time>
   <energy>
    <i name="e_fr_energy">   -188.71482474 </i>
    <i name="e_wo_entrp">   -188.43575241 </i>
    <i name="e_0_energy">   -188.57528858 </i>
   </energy>
  </scstep>
  <scstep>
   <time name="dav">   22.80   22.85</time>
   <time name="total">   22.84   22.91</time>
   <energy>
    <i name="alphaZ">     78.91669102 </i>
    <i name="ewald">  39377.98958481 </i>
    <i name="hartreedc"> -45346.27045873 </i>
    <i name="XCdc">   -237.96818567 </i>
    <i name="pawpsdc">   3950.47314434 </i>
    <i name="pawaedc">  -3364.99428319 </i>
    <i name="eentropy">     -0.27908285 </i>
    <i name="bandstr">  -1408.02472355 </i>
    <i name="atom">   6761.44252427 </i>
    <i name="e_fr_energy">   -188.71478954 </i>
    <i name="e_wo_entrp">   -188.43570669 </i>
    <i name="e_0_energy">   -188.57524811 </i>
   </energy>
  </scstep>
  <structure>
   <crystal>
    <varray name="basis" >
     <v>       8.85760339       5.10264442       0.00000000 </v>
     <v>      -8.85919582       5.10538425       0.00000000 </v>
     <v>       0.00000000       0.00000000      30.00000000 </v>
    </varray>
    <i name="volume">   2712.80384620 </i>
    <varray name="rec_basis" >
     <v>       0.05645875       0.09797091       0.00000000 </v>
     <v>      -0.05642846       0.09795330       0.00000000 </v>
     <v>       0.00000000       0.00000000       0.03333333 </v>
    </varray>
   </crystal>
   <varray name="positions" >
    <v>      -0.00147223       0.66435702       0.00009938 </v>
    <v>       0.33370426       0.33363102      -0.00009211 </v>
    <v>       0.66676394       0.66628141       0.00003692 </v>
    <v>       0.99720443       0.33197271      -0.00014605 </v>
    <v>       0.66804676       0.33231967       0.00005465 </v>
    <v>       0.66793040       0.00276392       0.00000359 </v>
    <v>      -0.00177344       0.00118903      -0.00004896 </v>
    <v>       0.33630748       0.00155845       0.00012230 </v>
    <v>       0.33341342       0.66635389       0.00001509 </v>
    <v>       0.11512413       0.22341602       0.95189775 </v>
    <v>       0.22389513       0.11460030       0.04805394 </v>
    <v>       0.10956497       0.55824851       0.95202304 </v>
    <v>       0.22501850       0.44294179       0.04791193 </v>
    <v>       0.10924471       0.88506271       0.95205372 </v>
    <v>       0.21828540       0.77589627       0.04813384 </v>
    <v>       0.44135379       0.22366763       0.95198206 </v>
    <v>       0.55435777       0.11039687       0.04931713 </v>
    <v>       0.44599804       0.55357158       0.95298840 </v>
    <v>       0.55327633       0.44650636       0.04689883 </v>
    <v>       0.44367804       0.88830321       0.95073532 </v>
    <v>       0.55689986       0.77486748       0.04793458 </v>
    <v>       0.77778053       0.22214514       0.95066062 </v>
    <v>       0.88917078       0.11043329       0.04929688 </v>
    <v>       0.77964264       0.55988648       0.95311856 </v>
    <v>       0.89101147       0.44896248       0.04810229 </v>
    <v>       0.77646130       0.88479214       0.95194892 </v>
    <v>       0.88732605       0.77408907       0.04689730 </v>
   </varray>
  </structure>
  <varray name="forces" >
   <v>       0.16519062      -0.29641636      -0.06071856 </v>
   <v>      -0.00832943       0.03252242       0.07176802 </v>
   <v>       0.04999432      -0.03272868       0.08606595 </v>
   <v>      -0.16847386      -0.58989048      -0.03042742 </v>
   <v>       0.62630061      -0.15668612      -0.00241656 </v>
   <v>      -0.37909943       0.50274015      -0.00644824 </v>
   <v>      -0.55619270      -0.00009208      -0.11359550 </v>
   <v>       0.38157684       0.43133918      -0.07134201 </v>
   <v>      -0.07720160       0.04568622       0.11064686 </v>
   <v>       0.06576229      -0.05804267      -0.00870420 </v>
   <v>       0.05886082      -0.06599533      -0.17224810 </v>
   <v>       0.02404615       0.09939740       0.02602424 </v>
   <v>      -0.03413342       0.09868693      -0.14871264 </v>
   <v>      -0.05613985       0.07231902       0.38445706 </v>
   <v>       0.04792672       0.05954855      -0.11664983 </v>
   <v>       0.02850118      -0.09327863       0.00997085 </v>
   <v>      -0.04296631      -0.10140306       0.28775032 </v>
   <v>      -0.09157657      -0.00527629       0.06299011 </v>
   <v>      -0.02251100       0.01167790      -0.17637845 </v>
   <v>      -0.06403954      -0.08470238       0.00403556 </v>
   <v>      -0.03195847      -0.10372112      -0.12431573 </v>
   <v>      -0.01401522       0.01060735      -0.39810578 </v>
   <v>       0.12379406      -0.00208488       0.23186148 </v>
   <v>      -0.00345682       0.02972788       0.08173860 </v>
   <v>      -0.02902047       0.06753862       0.16784712 </v>
   <v>       0.06988881       0.05715814       0.03433490 </v>
   <v>      -0.06272774       0.07136834      -0.12942805 </v>
  </varray>
  <varray name="stress" >
   <v>     -19.91269252       0.00687331       0.04824335 </v>
   <v>       0.00687349     -19.44987944       0.01167173 </v>
   <v>       0.04824331       0.01167172      -1.75672914 </v>
  </varray>
  <energy>
   <i name="e_fr_energy">   -188.71478954 </i>
   <i name="e_wo_entrp">   -188.57524811 </i>
   <i name="e_0_energy">     -0.27908285 </i>
  </energy>
  <time name="totalsc">  426.10  427.24</time>
 </calculation>
 <calculation>
  <scstep>
   <time name="dav">   23.76   23.82</time>
   <time name="total">   24.30   24.36</time>
   <energy>
    <i name="alphaZ">     82.34381616 </i>
    <i name="ewald">  41303.07744787 </i>
    <i name="hartreedc"> -47301.76768109 </i>
    <i name="XCdc">   -233.84268336 </i>
    <i name="pawpsdc">   3949.59285472 </i>
    <i name="pawaedc">  -3364.10690573 </i>
    <i name="eentropy">     -0.23644036 </i>
    <i name="bandstr">  -1387.15218877 </i>
    <i name="atom">   6761.44252427 </i>
    <i name="e_fr_energy">   -190.64925629 </i>
    <i name="e_wo_entrp">   -190.41281593 </i>
    <i name="e_0_energy">   -190.53103611 </i>
   </energy>
  </scstep>
  <scstep>
   <time name="dav">   28.16   28.23</time>
   <time name="total">   28.69   28.76</time>
   <energy>
    <i name="e_fr_energy">   -190.56825131 </i>
    <i name="e_wo_entrp">   -190.33090241 </i>
    <i name="e_0_energy">   -190.44957686 </i>
   </energy>
  </scstep>
  <scstep>
   <time name="dav">   30.64   30.72</time>
   <time name="total">   31.17   31.26</time>
   <energy>
    <i name="e_fr_energy">   -190.13733289 </i>
    <i name="e_wo_entrp">   -189.88536353 </i>
    <i name="e_0_energy">   -190.01134821 </i>
   </energy>
  </scstep>
  <scstep>
   <time name="dav">   31.63   31.71</time>
   <time name="total">   32.17   32.25</time>
   <energy>
    <i name="e_fr_energy">   -189.92319860 </i>
    <i name="e_wo_entrp">   -189.68731960 </i>
    <i name="e_0_energy">   -189.80525910 </i>
   </energy>
  </scstep>
  <scstep>
   <time name="dav">   30.45   30.52</time>
   <time name="total">   30.98   31.06</time>
   <energy>
    <i name="e_fr_energy">   -189.90371655 </i>
    <i name="e_wo_entrp">   -189.66415932 </i>
    <i name="e_0_energy">   -189.78393794 </i>
   </energy>
  </scstep>
  <scstep>
   <time name="dav">   31.07   31.15</time>
   <time name="total">   31.60   31.68</time>
   <energy>
    <i name="e_fr_energy">   -189.82505985 </i>
    <i name="e_wo_entrp">   -189.58614544 </i>
    <i name="e_0_energy">   -189.70560264 </i>
   </energy>
  </scstep>
  <scstep>
   <time name="dav">   29.21   29.28</time>
   <time name="total">   29.75   29.83</time>
   <energy>
    <i name="e_fr_energy">   -189.81815500 </i>
    <i name="e_wo_entrp">   -189.57954956 </i>
    <i name="e_0_energy">   -189.69885228 </i>
   </energy>
  </scstep>
  <scstep>
   <time name="dav">   30.60   30.68</time>
   <time name="total">   31.13   31.21</time>
   <energy>
    <i name="e_fr_energy">   -189.81913440 </i>
    <i name="e_wo_entrp">   -189.58045063 </i>
    <i name="e_0_energy">   -189.69979252 </i>
   </energy>
  </scstep>
  <scstep>
   <time name="dav">   27.23   27.30</time>
   <time name="total">   27.77   27.84</time>
   <energy>
    <i name="e_fr_energy">   -189.81798297 </i>
    <i name="e_wo_entrp">   -189.57933832 </i>
    <i name="e_0_energy">   -189.69866065 </i>
   </energy>
  </scstep>
  <scstep>
   <time name="dav">   25.13   25.19</time>
   <time name="total">   25.66   25.73</time>
   <energy>
    <i name="e_fr_energy">   -189.81826903 </i>
    <i name="e_wo_entrp">   -189.57954029 </i>
    <i name="e_0_energy">   -189.69890466 </i>
   </energy>
  </scstep>
  <scstep>
   <time name="dav">   23.41   23.46</time>
   <time name="total">   23.94   24.01</time>
   <energy>
    <i name="e_fr_energy">   -189.81808524 </i>
    <i name="e_wo_entrp">   -189.57932803 </i>
    <i name="e_0_energy">   -189.69870663 </i>
   </energy>
  </scstep>
  <scstep>
   <time name="dav">   20.43   20.48</time>
   <time name="total">   20.47   20.53</time>
   <energy>
    <i name="alphaZ">     82.34381616 </i>
    <i name="ewald">  41303.07744787 </i>
    <i name="hartreedc"> -47275.28578646 </i>
    <i name="XCdc">   -235.23322025 </i>
    <i name="pawpsdc">   4039.11715073 </i>
    <i name="pawaedc">  -3454.83768154 </i>
    <i name="eentropy">     -0.23876794 </i>
    <i name="bandstr">  -1410.20358502 </i>
    <i name="atom">   6761.44252427 </i>
    <i name="e_fr_energy">   -189.81810217 </i>
    <i name="e_wo_entrp">   -189.57933423 </i>
    <i name="e_0_energy">   -189.69871820 </i>
   </energy>
  </scstep>
  <structure>
   <crystal>
    <varray name="basis" >
     <v>       8.66916659       4.99665766       0.00000000 </v>
     <v>      -8.67065016       4.99921042       0.00000000 </v>
     <v>       0.00000000       0.00000000      30.00000000 </v>
    </varray>
    <i name="volume">   2599.89775690 </i>
    <varray name="rec_basis" >
     <v>       0.05768547       0.10004990       0.00000000 </v>
     <v>      -0.05765601       0.10003278       0.00000000 </v>
     <v>       0.00000000       0.00000000       0.03333333 </v>
    </varray>
   </crystal>
   <varray name="positions" >
    <v>      -0.00180815       0.66370344       0.00006489 </v>
    <v>       0.33375054       0.33369331      -0.00005135 </v>
    <v>       0.66675740       0.66617871       0.00008580 </v>
    <v>       0.99605759       0.33115012      -0.00016333 </v>
    <v>       0.66838771       0.33145594       0.00005328 </v>
    <v>       0.66840497       0.00396756      -0.00000007 </v>
    <v>      -0.00230867       0.00172366      -0.00011348 </v>
    <v>       0.33739464       0.00191150       0.00008178 </v>
    <v>       0.33341541       0.66650437       0.00007794 </v>
    <v>       0.11509050       0.22325591       0.95189280 </v>
    <v>       0.22384159       0.11443356       0.04795611 </v>
    <v>       0.10975404       0.55839129       0.95203782 </v>
    <v>       0.22515041       0.44313933       0.04782746 </v>
    <v>       0.10931143       0.88523739       0.95227209 </v>
    <v>       0.21843091       0.77594958       0.04806758 </v>
    <v>       0.44122549       0.22348454       0.95198772 </v>
    <v>       0.55414715       0.11026893       0.04948057 </v>
    <v>       0.44590113       0.55365082       0.95302418 </v>
    <v>       0.55327417       0.44654750       0.04679865 </v>
    <v>       0.44347503       0.88822341       0.95073761 </v>
    <v>       0.55669596       0.77472509       0.04786397 </v>
    <v>       0.77778475       0.22217632       0.95043450 </v>
    <v>       0.88928639       0.11031078       0.04942858 </v>
    <v>       0.77968894       0.55993943       0.95316499 </v>
    <v>       0.89109630       0.44910311       0.04819762 </v>
    <v>       0.77662395       0.88482034       0.95196842 </v>
    <v>       0.88738484       0.77426851       0.04682378 </v>
   </varray>
  </structure>
  <varray name="forces" >
   <v>       0.19033787      -0.25898599      -0.07558267 </v>
   <v>      -0.01387171      -0.00168384       0.08491498 </v>
   <v>       0.02811214      -0.02632367       0.08188698 </v>
   <v>      -0.13680587      -0.61779451      -0.00705669 </v>
   <v>       0.67601232      -0.22464319      -0.00614508 </v>
   <v>      -0.42053895       0.51423361      -0.00391085 </v>
   <v>      -0.56076209       0.02438835      -0.10442855 </v>
   <v>       0.42089061       0.42043149      -0.08642445 </v>
   <v>      -0.12899244       0.06428669       0.10704301 </v>
   <v>       0.04198594       0.08656239      -0.51724212 </v>
   <v>      -0.01206901       0.04417735       0.31383624 </v>
   <v>      -0.07330254       0.02048947      -0.46120833 </v>
   <v>       0.06187691       0.00468011       0.32691283 </v>
   <v>       0.00926351      -0.03878454      -0.07814263 </v>
   <v>      -0.04268695      -0.06107887       0.39533052 </v>
   <v>      -0.07750065       0.00197851      -0.49150198 </v>
   <v>       0.00208859      -0.01095950       0.87713885 </v>
   <v>       0.06484238      -0.00044976      -0.40315148 </v>
   <v>      -0.06656753       0.01396172       0.25423428 </v>
   <v>      -0.00405110      -0.01218292      -0.55888799 </v>
   <v>       0.07097822      -0.00620832       0.35540810 </v>
   <v>      -0.02074527       0.01033727      -0.97493886 </v>
   <v>       0.02944886      -0.00068461       0.80464888 </v>
   <v>      -0.03254194       0.06994480      -0.35598104 </v>
   <v>      -0.05873653       0.11826210       0.66595868 </v>
   <v>       0.04335993      -0.08865799      -0.46606665 </v>
   <v>       0.00997529      -0.04529616       0.32335600 </v>
  </varray>
  <varray name="stress" >
   <v>     -10.15137613      -0.00192071       0.04622140 </v>
   <v>      -0.00192053      -9.76592842       0.01277626 </v>
   <v>       0.04622136       0.01277623       6.49882658 </v>
  </varray>
  <energy>
   <i name="e_fr_energy">   -189.81810217 </i>
   <i name="e_wo_entrp">   -189.69871820 </i>
   <i name="e_0_energy">     -0.23876794 </i>
  </energy>
  <time name="totalsc">  380.06  381.09</time>
 </calculation>
 <calculation>
  <scstep>
   <time name="dav">   21.91   21.97</time>
   <time name="total">   22.44   22.49</time>
   <energy>
    <i name="alphaZ">     85.80426712 </i>
    <i name="ewald">  42825.99402795 </i>
    <i name="hartreedc"> -48842.47173065 </i>
    <i name="XCdc">   -232.96333908 </i>
    <i name="pawpsdc">   4039.27340501 </i>
    <i name="pawaedc">  -3454.99215660 </i>
    <i name="eentropy">     -0.21076430 </i>
    <i name="bandstr">  -1373.28648110 </i>
    <i name="atom">   6761.44252427 </i>
    <i name="e_fr_energy">   -191.41024737 </i>
    <i name="e_wo_entrp">   -191.19948308 </i>
    <i name="e_0_energy">   -191.30486523 </i>
   </energy>
  </scstep>
  <scstep>
   <time name="dav">   32.54   32.62</time>
   <time name="total">   33.05   33.14</time>
   <energy>
    <i name="e_fr_energy">   -191.22226715 </i>
    <i name="e_wo_entrp">   -191.01180037 </i>
    <i name="e_0_energy">   -191.11703376 </i>
   </energy>
  </scstep>
  <scstep>
   <time name="dav">   30.50   30.57</time>
   <time name="total">   31.01   31.09</time>
   <energy>
    <i name="e_fr_energy">   -191.37418662 </i>
    <i name="e_wo_entrp">   -191.14196284 </i>
    <i name="e_0_energy">   -191.25807473 </i>
   </energy>
  </scstep>
  <scstep>
   <time name="dav">   30.78   30.85</time>
   <time name="total">   31.30   31.38</time>
   <energy>
    <i name="e_fr_energy">   -190.99618214 </i>
    <i name="e_wo_entrp">   -190.78304810 </i>
    <i name="e_0_energy">   -190.88961512 </i>
   </energy>
  </scstep>
  <scstep>
   <time name="dav">   30.71   30.78</time>
   <time name="total">   31.23   31.31</time>
   <energy>
    <i name="e_fr_energy">   -190.91674663 </i>
    <i name="e_wo_entrp">   -190.70422811 </i>
    <i name="e_0_energy">   -190.81048737 </i>
   </energy>
  </scstep>
  <scstep>
   <time name="dav">   30.85   30.92</time>
   <time name="total">   31.36   31.45</time>
   <energy>
    <i name="e_fr_energy">   -190.86926317 </i>
    <i name="e_wo_entrp">   -190.65178235 </i>
    <i name="e_0_energy">   -190.76052276 </i>
   </energy>
  </scstep>
  <scstep>
   <time name="dav">   31.32   31.39</time>
   <time name="total">   31.84   31.93</time>
   <energy>
    <i name="e_fr_energy">   -190.84585112 </i>
    <i name="e_wo_entrp">   -190.63008514 </i>
    <i name="e_0_energy">   -190.73796813 </i>
   </energy>
  </scstep>
  <scstep>
   <time name="dav">   28.82   28.89</time>
   <time name="total">   29.33   29.41</time>
   <energy>
    <i name="e_fr_energy">   -190.84397116 </i>
    <i name="e_wo_entrp">   -190.62824436 </i>
    <i name="e_0_energy">   -190.73610776 </i>
   </energy>
  </scstep>
  <scstep>
   <time name="dav">   27.78   27.85</time>
   <time name="total">   28.30   28.38</time>
   <energy>
    <i name="e_fr_energy">   -190.84331391 </i>
    <i name="e_wo_entrp">   -190.62754862 </i>
    <i name="e_0_energy">   -190.73543127 </i>
   </energy>
  </scstep>
  <scstep>
   <time name="dav">   28.50   28.56</time>
   <time name="total">   29.01   29.09</time>
   <energy>
    <i name="e_fr_energy">   -190.84351411 </i>
    <i name="e_wo_entrp">   -190.62777997 </i>
    <i name="e_0_energy">   -190.73564704 </i>
   </energy>
  </scstep>
  <scstep>
   <time name="dav">   26.44   26.50</time>
   <time name="total">   26.96   27.03</time>
   <energy>
    <i name="e_fr_energy">   -190.84332434 </i>
    <i name="e_wo_entrp">   -190.62752806 </i>
    <i name="e_0_energy">   -190.73542620 </i>
   </energy>
  </scstep>
  <scstep>
   <time name="dav">   19.74   19.79</time>
   <time name="total">   19.78   19.84</time>
   <energy>
    <i name="alphaZ">     85.80426712 </i>
    <i name="ewald">  42825.99402795 </i>
    <i name="hartreedc"> -48814.06624326 </i>
    <i name="XCdc">   -234.27844174 </i>
    <i name="pawpsdc">   4064.58797246 </i>
    <i name="pawaedc">  -3480.49699647 </i>
    <i name="eentropy">     -0.21581152 </i>
    <i name="bandstr">  -1399.61463085 </i>
    <i name="atom">   6761.44252427 </i>
    <i name="e_fr_energy">   -190.84333204 </i>
    <i name="e_wo_entrp">   -190.62752052 </i>
    <i name="e_0_energy">   -190.73542628 </i>
   </energy>
  </scstep>
  <structure>
   <crystal>
    <varray name="basis" >
     <v>       8.48699778       4.89782136       0.00000000 </v>
     <v>      -8.48866505       4.90069645       0.00000000 </v>
     <v>       0.00000000       0.00000000      30.00000000 </v>
    </varray>
    <i name="volume">   2495.04494509 </i>
    <varray name="rec_basis" >
     <v>       0.05892515       0.10206628       0.00000000 </v>
     <v>      -0.05889058       0.10204623       0.00000000 </v>
     <v>       0.00000000       0.00000000       0.03333333 </v>
    </varray>
   </crystal>
   <varray name="positions" >
    <v>      -0.00261399       0.66145099      -0.00010409 </v>
    <v>       0.33359699       0.33365583       0.00013550 </v>
    <v>       0.66667864       0.66595954       0.00025174 </v>
    <v>       0.99166921       0.32765998      -0.00015818 </v>
    <v>       0.66932498       0.32736808       0.00003741 </v>
    <v>       0.67007637       0.00879474      -0.00000602 </v>
    <v>      -0.00412745       0.00396855      -0.00032186 </v>
    <v>       0.34157813       0.00294177      -0.00010983 </v>
    <v>       0.33332421       0.66749308       0.00029643 </v>
    <v>       0.11610957       0.22403959       0.95039260 </v>
    <v>       0.22424685       0.11512889       0.04901638 </v>
    <v>       0.10928226       0.55872762       0.95067159 </v>
    <v>       0.22530720       0.44257443       0.04890596 </v>
    <v>       0.10891959       0.88459156       0.95171944 </v>
    <v>       0.21746477       0.77555122       0.04931839 </v>
    <v>       0.44104277       0.22416496       0.95054675 </v>
    <v>       0.55437516       0.11035289       0.05179393 </v>
    <v>       0.44636843       0.55320209       0.95179592 </v>
    <v>       0.55306377       0.44694401       0.04768869 </v>
    <v>       0.44365006       0.88825600       0.94910526 </v>
    <v>       0.55730302       0.77452481       0.04900490 </v>
    <v>       0.77776426       0.22232493       0.94792934 </v>
    <v>       0.88925693       0.11033860       0.05157788 </v>
    <v>       0.78006781       0.56063650       0.95205837 </v>
    <v>       0.89170841       0.45022440       0.04999680 </v>
    <v>       0.77582506       0.88378432       0.95058100 </v>
    <v>       0.88695142       0.77355507       0.04787562 </v>
   </varray>
  </structure>
  <varray name="forces" >
   <v>       0.21937431      -0.26702584      -0.07742461 </v>
   <v>      -0.02469059      -0.02550868       0.07691646 </v>
   <v>       0.04912561      -0.03723344       0.04606949 </v>
   <v>      -0.08546517      -0.58988974       0.01999887 </v>
   <v>       0.62643624      -0.25506920      -0.00227121 </v>
   <v>      -0.43179157       0.47869198      -0.01065273 </v>
   <v>      -0.62596702       0.00420212      -0.07203557 </v>
   <v>       0.49483050       0.46405664      -0.04948362 </v>
   <v>      -0.15294448       0.07382715       0.07079739 </v>
   <v>      -0.06852841       0.05377540      -0.39286139 </v>
   <v>       0.01559755      -0.00820134       0.12010193 </v>
   <v>       0.02714739      -0.05384680      -0.28228067 </v>
   <v>      -0.04703711      -0.06856125       0.16407854 </v>
   <v>      -0.02096091       0.04492156       0.08392490 </v>
   <v>      -0.07212290      -0.00100712       0.28294476 </v>
   <v>       0.02790401       0.07446940      -0.32823920 </v>
   <v>       0.02644001       0.04802098       0.69237801 </v>
   <v>       0.02349055       0.01021142      -0.28381512 </v>
   <v>       0.08681336       0.01134498       0.18561528 </v>
   <v>       0.07778135       0.07366865      -0.40214098 </v>
   <v>      -0.02575799       0.08621762       0.19872524 </v>
   <v>      -0.00525599       0.01283609      -0.78218594 </v>
   <v>      -0.06397446      -0.01784275       0.60209166 </v>
   <v>       0.04308311      -0.05819372      -0.25347931 </v>
   <v>       0.00510156      -0.02986988       0.47888148 </v>
   <v>      -0.07681081      -0.03411809      -0.30254616 </v>
   <v>      -0.02181815       0.01012385       0.21689251 </v>
  </varray>
  <varray name="stress" >
   <v>      -5.58497881      -0.07706465      -0.12074643 </v>
   <v>      -0.07706449      -5.70720881      -0.09205331 </v>
   <v>      -0.12074640      -0.09205315       4.45475393 </v>
  </varray>
  <energy>
   <i name="e_fr_energy">   -190.84333204 </i>
   <i name="e_wo_entrp">   -190.73542628 </i>
   <i name="e_0_energy">     -0.21581152 </i>
  </energy>
  <time name="totalsc">  387.86  388.89</time>
 </calculation>
 <calculation>
  <scstep>
   <time name="dav">   21.95   22.00</time>
   <time name="total">   22.46   22.51</time>
   <energy>
    <i name="alphaZ">     89.97320225 </i>
    <i name="ewald">  44581.54326823 </i>
    <i name="hartreedc"> -50622.45059160 </i>
    <i name="XCdc">   -231.92892973 </i>
    <i name="pawpsdc">   4064.54978388 </i>
    <i name="pawaedc">  -3480.45473087 </i>
    <i name="eentropy">     -0.21415456 </i>
    <i name="bandstr">  -1354.62151891 </i>
    <i name="atom">   6761.44252427 </i>
    <i name="e_fr_energy">   -192.16114703 </i>
    <i name="e_wo_entrp">   -191.94699247 </i>
    <i name="e_0_energy">   -192.05406975 </i>
   </energy>
  </scstep>
  <scstep>
   <time name="dav">   27.73   27.79</time>
   <time name="total">   28.23   28.30</time>
   <energy>
    <i name="e_fr_energy">   -191.93156060 </i>
    <i name="e_wo_entrp">   -191.71564959 </i>
    <i name="e_0_energy">   -191.82360510 </i>
   </energy>
  </scstep>
  <scstep>
   <time name="dav">   29.74   29.81</time>
   <time name="total">   30.25   30.33</time>
   <energy>
    <i name="e_fr_energy">   -191.80822644 </i>
    <i name="e_wo_entrp">   -191.58177932 </i>
    <i name="e_0_energy">   -191.69500288 </i>
   </energy>
  </scstep>
  <scstep>
   <time name="dav">   30.59   30.66</time>
   <time name="total">   31.09   31.17</time>
   <energy>
    <i name="e_fr_energy">   -191.82784658 </i>
    <i name="e_wo_entrp">   -191.62320312 </i>
    <i name="e_0_energy">   -191.72552485 </i>
   </energy>
  </scstep>
  <scstep>
   <time name="dav">   30.69   30.76</time>
   <time name="total">   31.20   31.28</time>
   <energy>
    <i name="e_fr_energy">   -191.55226048 </i>
    <i name="e_wo_entrp">   -191.33081015 </i>
    <i name="e_0_energy">   -191.44153532 </i>
   </energy>
  </scstep>
  <scstep>
   <time name="dav">   29.43   29.50</time>
   <time name="total">   29.94   30.02</time>
   <energy>
    <i name="e_fr_energy">   -191.54313133 </i>
    <i name="e_wo_entrp">   -191.32211897 </i>
    <i name="e_0_energy">   -191.43262515 </i>
   </energy>
  </scstep>
  <scstep>
   <time name="dav">   29.92   29.99</time>
   <time name="total">   30.43   30.51</time>
   <energy>
    <i name="e_fr_energy">   -191.54857862 </i>
    <i name="e_wo_entrp">   -191.32761517 </i>
    <i name="e_0_energy">   -191.43809689 </i>
   </energy>
  </scstep>
  <scstep>
   <time name="dav">   29.01   29.08</time>
   <time name="total">   29.52   29.60</time>
   <energy>
    <i name="e_fr_energy">   -191.53780185 </i>
    <i name="e_wo_entrp">   -191.31698287 </i>
    <i name="e_0_energy">   -191.42739236 </i>
   </energy>
  </scstep>
  <scstep>
   <time name="dav">   28.88   28.95</time>
   <time name="total">   29.39   29.47</time>
   <energy>
    <i name="e_fr_energy">   -191.53829608 </i>
    <i name="e_wo_entrp">   -191.31767135 </i>
    <i name="e_0_energy">   -191.42798372 </i>
   </energy>
  </scstep>
  <scstep>
   <time name="dav">   29.79   29.87</time>
   <time name="total">   30.30   30.38</time>
   <energy>
    <i name="e_fr_energy">   -191.53834996 </i>
    <i name="e_wo_entrp">   -191.31729644 </i>
    <i name="e_0_energy">   -191.42782320 </i>
   </energy>
  </scstep>
  <scstep>
   <time name="dav">   25.80   25.87</time>
   <time name="total">   26.31   26.38</time>
   <energy>
    <i name="e_fr_energy">   -191.53792190 </i>
    <i name="e_wo_entrp">   -191.31710215 </i>
    <i name="e_0_energy">   -191.42751203 </i>
   </energy>
  </scstep>
  <scstep>
   <time name="dav">   17.87   17.92</time>
   <time name="total">   17.91   17.96</time>
   <energy>
    <i name="alphaZ">     89.97320225 </i>
    <i name="ewald">  44581.54326823 </i>
    <i name="hartreedc"> -50590.59858171 </i>
    <i name="XCdc">   -233.36605336 </i>
    <i name="pawpsdc">   4087.92268696 </i>
    <i name="pawaedc">  -3503.96555027 </i>
    <i name="eentropy">     -0.22091202 </i>
    <i name="bandstr">  -1384.26847427 </i>
    <i name="atom">   6761.44252427 </i>
    <i name="e_fr_energy">   -191.53788990 </i>
    <i name="e_wo_entrp">   -191.31697789 </i>
    <i name="e_0_energy">   -191.42743390 </i>
   </energy>
  </scstep>
  <structure>
   <crystal>
    <varray name="basis" >
     <v>       8.28816583       4.77764086       0.00000000 </v>
     <v>      -8.29437919       4.78839095       0.00000000 </v>
     <v>       0.00000000       0.00000000      30.00000000 </v>
    </varray>
    <i name="volume">   2379.43629413 </i>
    <varray name="rec_basis" >
     <v>       0.06037217       0.10457577       0.00000000 </v>
     <v>      -0.06023663       0.10449743       0.00000000 </v>
     <v>       0.00000000       0.00000000       0.03333333 </v>
    </varray>
   </crystal>
   <varray name="positions" >
    <v>      -0.00415931       0.65686184      -0.00041768 </v>
    <v>       0.33306842       0.33346474       0.00045052 </v>
    <v>       0.66655400       0.66526628       0.00044497 </v>
    <v>       0.98393237       0.32109437      -0.00007252 </v>
    <v>       0.67058119       0.31975921       0.00002316 </v>
    <v>       0.67284370       0.01761164      -0.00004162 </v>
    <v>      -0.00823367       0.00837006      -0.00060956 </v>
    <v>       0.35041029       0.00497595      -0.00033479 </v>
    <v>       0.33312783       0.66952010       0.00058644 </v>
    <v>       0.11678922       0.22553508       0.94833105 </v>
    <v>       0.22450327       0.11544437       0.05003288 </v>
    <v>       0.10848436       0.55804599       0.94903164 </v>
    <v>       0.22427583       0.44168953       0.05006786 </v>
    <v>       0.10900553       0.88470488       0.95153327 </v>
    <v>       0.21641626       0.77572656       0.05095014 </v>
    <v>       0.44200499       0.22526897       0.94872303 </v>
    <v>       0.55533197       0.11084842       0.05512456 </v>
    <v>       0.44693205       0.55287478       0.95019986 </v>
    <v>       0.55359746       0.44670174       0.04884460 </v>
    <v>       0.44514549       0.88864161       0.94694070 </v>
    <v>       0.55852396       0.77559948       0.05030205 </v>
    <v>       0.77785168       0.22253408       0.94425751 </v>
    <v>       0.88857173       0.11066009       0.05455145 </v>
    <v>       0.77986828       0.56007380       0.95061508 </v>
    <v>       0.89165521       0.45031100       0.05241457 </v>
    <v>       0.77447322       0.88335369       0.94885792 </v>
    <v>       0.88665913       0.77327620       0.04919281 </v>
   </varray>
  </structure>
  <varray name="forces" >
   <v>       0.27139827      -0.37770523      -0.00474990 </v>
   <v>      -0.05666008      -0.03273451       0.02060968 </v>
   <v>       0.13093747      -0.05016339       0.04558598 </v>
   <v>       0.02899831      -0.09404187      -0.06725644 </v>
   <v>       0.04896349      -0.02876652      -0.04520283 </v>
   <v>      -0.04543043      -0.02672042      -0.02536305 </v>
   <v>      -0.58517744      -0.03795210      -0.01557896 </v>
   <v>       0.41726520       0.34742492       0.06523860 </v>
   <v>      -0.15416407       0.13948832       0.05112028 </v>
   <v>      -0.16208725       0.00363906      -0.11083217 </v>
   <v>       0.08712877      -0.10008816      -0.20397521 </v>
   <v>       0.13406500      -0.11510083       0.00887883 </v>
   <v>      -0.17204004      -0.10981788      -0.09271052 </v>
   <v>      -0.09113477       0.19619760       0.41953542 </v>
   <v>      -0.09308917       0.08222155       0.00798327 </v>
   <v>       0.15518064       0.09621909      -0.02494315 </v>
   <v>       0.06022447       0.05724085       0.30042886 </v>
   <v>      -0.03900353       0.00271023       0.00238426 </v>
   <v>       0.22783056      -0.01075154      -0.02577912 </v>
   <v>       0.15385913       0.16231777      -0.17402521 </v>
   <v>      -0.13255043       0.14757469      -0.09088705 </v>
   <v>       0.01039736       0.03086331      -0.27923489 </v>
   <v>      -0.12153272      -0.07478314       0.25273769 </v>
   <v>       0.11693187      -0.17954916      -0.01916611 </v>
   <v>       0.07234155      -0.14847598       0.12723699 </v>
   <v>      -0.23219541       0.02628855      -0.03605265 </v>
   <v>      -0.03045673       0.09446481      -0.08598258 </v>
  </varray>
  <varray name="stress" >
   <v>       0.56337271      -0.22214056      -0.16506861 </v>
   <v>      -0.22214070       0.33799717      -0.30423654 </v>
   <v>      -0.16506851      -0.30423654      -0.66095231 </v>
  </varray>
  <energy>
   <i name="e_fr_energy">   -191.53788990 </i>
   <i name="e_wo_entrp">   -191.42743390 </i>
   <i name="e_0_energy">     -0.22091202 </i>
  </energy>
  <time name="totalsc">  379.36  380.38</time>
 </calculation>
 <calculation>
  <scstep>
   <time name="dav">   21.94   22.00</time>
   <time name="total">   22.45   22.51</time>
   <energy>
    <i name="alphaZ">     89.67002441 </i>
    <i name="ewald">  44432.60019495 </i>
    <i name="hartreedc"> -50438.81581751 </i>
    <i name="XCdc">   -233.62655729 </i>
    <i name="pawpsdc">   4087.78304446 </i>
    <i name="pawaedc">  -3503.82058583 </i>
    <i name="eentropy">     -0.22176245 </i>
    <i name="bandstr">  -1386.62167618 </i>
    <i name="atom">   6761.44252427 </i>
    <i name="e_fr_energy">   -191.61061115 </i>
    <i name="e_wo_entrp">   -191.38884870 </i>
    <i name="e_0_energy">   -191.49972993 </i>
   </energy>
  </scstep>
  <scstep>
   <time name="dav">   32.52   32.60</time>
   <time name="total">   33.02   33.11</time>
   <energy>
    <i name="e_fr_energy">   -191.66224545 </i>
    <i name="e_wo_entrp">   -191.43355658 </i>
    <i name="e_0_energy">   -191.54790102 </i>
   </energy>
  </scstep>
  <scstep>
   <time name="dav">   31.10   31.17</time>
   <time name="total">   31.60   31.69</time>
   <energy>
    <i name="e_fr_energy">   -191.62050388 </i>
    <i name="e_wo_entrp">   -191.39819756 </i>
    <i name="e_0_energy">   -191.50935072 </i>
   </energy>
  </scstep>
  <scstep>
   <time name="dav">   26.40   26.46</time>
   <time name="total">   26.91   26.98</time>
   <energy>
    <i name="e_fr_energy">   -191.62389079 </i>
    <i name="e_wo_entrp">   -191.40218818 </i>
    <i name="e_0_energy">   -191.51303949 </i>
   </energy>
  </scstep>
  <scstep>
   <time name="dav">   28.41   28.48</time>
   <time name="total">   28.93   29.00</time>
   <energy>
    <i name="e_fr_energy">   -191.61725334 </i>
    <i name="e_wo_entrp">   -191.39354504 </i>
    <i name="e_0_energy">   -191.50539919 </i>
   </energy>
  </scstep>
  <scstep>
   <time name="dav">   28.18   28.25</time>
   <time name="total">   28.69   28.77</time>
   <energy>
    <i name="e_fr_energy">   -191.61801286 </i>
    <i name="e_wo_entrp">   -191.39543322 </i>
    <i name="e_0_energy">   -191.50672304 </i>
   </energy>
  </scstep>
  <scstep>
   <time name="dav">   28.26   28.32</time>
   <time name="total">   28.77   28.84</time>
   <energy>
    <i name="e_fr_energy">   -191.61685445 </i>
    <i name="e_wo_entrp">   -191.39410308 </i>
    <i name="e_0_energy">   -191.50547876 </i>
   </energy>
  </scstep>
  <scstep>
   <time name="dav">   25.49   25.55</time>
   <time name="total">   25.99   26.07</time>
   <energy>
    <i name="e_fr_energy">   -191.61640644 </i>
    <i name="e_wo_entrp">   -191.39363694 </i>
    <i name="e_0_energy">   -191.50502169 </i>
   </energy>
  </scstep>
  <scstep>
   <time name="dav">   18.82   18.87</time>
   <time name="total">   18.86   18.91</time>
   <energy>
    <i name="alphaZ">     89.67002441 </i>
    <i name="ewald">  44432.60019495 </i>
    <i name="hartreedc"> -50442.22685686 </i>
    <i name="XCdc">   -233.50478577 </i>
    <i name="pawpsdc">   4083.85243727 </i>
    <i name="pawaedc">  -3499.83851365 </i>
    <i name="eentropy">     -0.22280102 </i>
    <i name="bandstr">  -1383.38863175 </i>
    <i name="atom">   6761.44252427 </i>
    <i name="e_fr_energy">   -191.61640814 </i>
    <i name="e_wo_entrp">   -191.39360712 </i>
    <i name="e_0_energy">   -191.50500763 </i>
   </energy>
  </scstep>
  <structure>
   <crystal>
    <varray name="basis" >
     <v>       8.30187334       4.78006285       0.00000000 </v>
     <v>      -8.31313896       4.79956515       0.00000000 </v>
     <v>       0.00000000       0.00000000      30.00000000 </v>
    </varray>
    <i name="volume">   2387.48126076 </i>
    <varray name="rec_basis" >
     <v>       0.06030915       0.10445911       0.00000000 </v>
     <v>      -0.06006409       0.10431755       0.00000000 </v>
     <v>       0.00000000       0.00000000       0.03333333 </v>
    </varray>
   </crystal>
   <varray name="positions" >
    <v>      -0.00512986       0.65456129      -0.00041088 </v>
    <v>       0.33278691       0.33347436       0.00046718 </v>
    <v>       0.66667881       0.66470657       0.00050415 </v>
    <v>       0.98390784       0.32086355      -0.00017666 </v>
    <v>       0.67052517       0.31982865      -0.00004342 </v>
    <v>       0.67247599       0.01722504      -0.00007806 </v>
    <v>      -0.00981805       0.00957747      -0.00062016 </v>
    <v>       0.35278322       0.00539048      -0.00022691 </v>
    <v>       0.33337304       0.67049659       0.00064969 </v>
    <v>       0.11632406       0.22591249       0.94827084 </v>
    <v>       0.22425199       0.11471285       0.04966851 </v>
    <v>       0.10835287       0.55717224       0.94913192 </v>
    <v>       0.22333927       0.44168978       0.04986380 </v>
    <v>       0.10968231       0.88587905       0.95218198 </v>
    <v>       0.21661094       0.77636310       0.05087567 </v>
    <v>       0.44283569       0.22524064       0.94878097 </v>
    <v>       0.55571474       0.11092911       0.05540949 </v>
    <v>       0.44680669       0.55301528       0.95028705 </v>
    <v>       0.55414510       0.44604181       0.04874326 </v>
    <v>       0.44625261       0.88896763       0.94679279 </v>
    <v>       0.55879228       0.77660340       0.05009487 </v>
    <v>       0.77802115       0.22264063       0.94401861 </v>
    <v>       0.88792464       0.11062131       0.05478087 </v>
    <v>       0.77934711       0.55893151       0.95066253 </v>
    <v>       0.89115053       0.44940443       0.05248323 </v>
    <v>       0.77404033       0.88413701       0.94889496 </v>
    <v>       0.88703910       0.77382815       0.04899361 </v>
   </varray>
  </structure>
  <varray name="forces" >
   <v>       0.29549000      -0.46193730      -0.00546392 </v>
   <v>      -0.04457836      -0.04101545       0.03383921 </v>
   <v>       0.15848579      -0.04877541       0.05947047 </v>
   <v>       0.01137496      -0.19987711      -0.01856884 </v>
   <v>       0.15436016      -0.04024873      -0.02528735 </v>
   <v>      -0.13100095       0.06111983      -0.02845765 </v>
   <v>      -0.63612326      -0.02868462      -0.03306688 </v>
   <v>       0.45034807       0.38334215      -0.00087541 </v>
   <v>      -0.17430266       0.19731214       0.04841107 </v>
   <v>      -0.09690207       0.01141282      -0.10704353 </v>
   <v>       0.05794669      -0.07504203      -0.21359660 </v>
   <v>       0.08445907      -0.05706155      -0.00886225 </v>
   <v>      -0.11260006      -0.03086696      -0.10247574 </v>
   <v>      -0.07692390       0.13344440       0.48043508 </v>
   <v>      -0.07189179       0.05319838      -0.01728212 </v>
   <v>       0.09793779       0.03554298      -0.01519860 </v>
   <v>       0.04910188       0.07874103       0.23546315 </v>
   <v>      -0.02715090       0.00024211       0.03734710 </v>
   <v>       0.11043308      -0.01344192      -0.03489043 </v>
   <v>       0.09048730       0.08548584      -0.16043988 </v>
   <v>      -0.05042203       0.07600283      -0.06683035 </v>
   <v>       0.00557684       0.00665929      -0.16634944 </v>
   <v>      -0.10989845      -0.02863424       0.20056630 </v>
   <v>       0.07244958      -0.09690347      -0.04291297 </v>
   <v>       0.05068099      -0.06944001       0.12520878 </v>
   <v>      -0.14095756      -0.00663255      -0.05347775 </v>
   <v>      -0.01638021       0.07605753      -0.11966146 </v>
  </varray>
  <varray name="stress" >
   <v>      -0.09696363       0.05728564      -0.11067014 </v>
   <v>       0.05728564      -0.26307431      -0.03821161 </v>
   <v>      -0.11067037      -0.03821157      -1.19417693 </v>
  </varray>
  <energy>
   <i name="e_fr_energy">   -191.61640814 </i>
   <i name="e_wo_entrp">   -191.50500763 </i>
   <i name="e_0_energy">     -0.22280102 </i>
  </energy>
  <time name="totalsc">  287.73  288.49</time>
 </calculation>
 <calculation>
  <scstep>
   <time name="dav">   21.97   22.02</time>
   <time name="total">   22.48   22.53</time>
   <energy>
    <i name="alphaZ">     89.75505415 </i>
    <i name="ewald">  44471.08844853 </i>
    <i name="hartreedc"> -50481.54313339 </i>
    <i name="XCdc">   -233.44991698 </i>
    <i name="pawpsdc">   4083.43588675 </i>
    <i name="pawaedc">  -3499.41767506 </i>
    <i name="eentropy">     -0.22154087 </i>
    <i name="bandstr">  -1382.77508803 </i>
    <i name="atom">   6761.44252427 </i>
    <i name="e_fr_energy">   -191.68544061 </i>
    <i name="e_wo_entrp">   -191.46389974 </i>
    <i name="e_0_energy">   -191.57467018 </i>
   </energy>
  </scstep>
  <scstep>
   <time name="dav">   32.28   32.36</time>
   <time name="total">   32.79   32.88</time>
   <energy>
    <i name="e_fr_energy">   -191.71412325 </i>
    <i name="e_wo_entrp">   -191.48639496 </i>
    <i name="e_0_energy">   -191.60025911 </i>
   </energy>
  </scstep>
  <scstep>
   <time name="dav">   31.04   31.12</time>
   <time name="total">   31.55   31.63</time>
   <energy>
    <i name="e_fr_energy">   -191.69168795 </i>
    <i name="e_wo_entrp">   -191.46982187 </i>
    <i name="e_0_energy">   -191.58075491 </i>
   </energy>
  </scstep>
  <scstep>
   <time name="dav">   27.52   27.59</time>
   <time name="total">   28.03   28.11</time>
   <energy>
    <i name="e_fr_energy">   -191.69211658 </i>
    <i name="e_wo_entrp">   -191.47109913 </i>
    <i name="e_0_energy">   -191.58160785 </i>
   </energy>
  </scstep>
  <scstep>
   <time name="dav">   28.19   28.25</time>
   <time name="total">   28.69   28.77</time>
   <energy>
    <i name="e_fr_energy">   -191.68932991 </i>
    <i name="e_wo_entrp">   -191.46625761 </i>
    <i name="e_0_energy">   -191.57779376 </i>
   </energy>
  </scstep>
  <scstep>
   <time name="dav">   28.64   28.71</time>
   <time name="total">   29.15   29.23</time>
   <energy>
    <i name="e_fr_energy">   -191.68936066 </i>
    <i name="e_wo_entrp">   -191.46691082 </i>
    <i name="e_0_energy">   -191.57813574 </i>
   </energy>
  </scstep>
  <scstep>
   <time name="dav">   26.22   26.28</time>
   <time name="total">   26.73   26.80</time>
   <energy>
    <i name="e_fr_energy">   -191.68940355 </i>
    <i name="e_wo_entrp">   -191.46676575 </i>
    <i name="e_0_energy">   -191.57808465 </i>
   </energy>
  </scstep>
  <scstep>
[...]
      <set comment="kpoint 31">
       <r>  -17.4873    1.0000 </r>
       <r>  -17.2527    1.0000 </r>
       <r>  -16.9227    1.0000 </r>
       <r>  -16.5858    1.0000 </r>
       <r>  -16.4977    1.0000 </r>
       <r>  -16.4099    1.0000 </r>
       <r>  -16.2812    1.0000 </r>
       <r>  -16.1618    1.0000 </r>
       <r>  -16.0892    1.0000 </r>
       <r>  -16.0273    1.0000 </r>
       <r>  -15.9164    1.0000 </r>
       <r>  -15.8628    1.0000 </r>
       <r>  -15.8362    1.0000 </r>
       <r>  -15.7393    1.0000 </r>
       <r>  -15.6616    1.0000 </r>
       <r>  -15.5536    1.0000 </r>
       <r>  -15.4372    1.0000 </r>
       <r>  -15.3160    1.0000 </r>
       <r>   -9.6935    1.0000 </r>
       <r>   -9.4196    1.0000 </r>
       <r>   -9.2958    1.0000 </r>
       <r>   -8.9049    1.0000 </r>
       <r>   -8.8252    1.0000 </r>
       <r>   -8.7035    1.0000 </r>
       <r>   -8.5425    1.0000 </r>
       <r>   -8.4931    1.0000 </r>
       <r>   -8.4199    1.0000 </r>
       <r>   -8.3296    1.0000 </r>
       <r>   -8.2798    1.0000 </r>
       <r>   -8.1841    1.0000 </r>
       <r>   -8.1600    1.0000 </r>
       <r>   -8.0992    1.0000 </r>
       <r>   -8.0016    1.0000 </r>
       <r>   -7.8766    1.0000 </r>
       <r>   -7.8023    1.0000 </r>
       <r>   -7.6452    1.0000 </r>
       <r>   -7.5831    1.0000 </r>
       <r>   -7.4274    1.0000 </r>
       <r>   -7.3132    1.0000 </r>
       <r>   -7.1714    1.0000 </r>
       <r>   -7.1210    1.0000 </r>
       <r>   -7.0771    1.0000 </r>
       <r>   -7.0094    1.0000 </r>
       <r>   -6.9730    1.0000 </r>
       <r>   -6.8581    1.0000 </r>
       <r>   -6.8417    1.0000 </r>
       <r>   -6.7233    1.0000 </r>
       <r>   -6.6082    1.0000 </r>
       <r>   -6.5642    1.0000 </r>
       <r>   -6.4827    1.0000 </r>
       <r>   -6.4063    1.0000 </r>
       <r>   -6.3858    1.0000 </r>
       <r>   -6.2754    1.0000 </r>
       <r>   -6.1896    1.0000 </r>
       <r>   -6.1461    1.0000 </r>
       <r>   -6.0573    1.0000 </r>
       <r>   -6.0221    1.0000 </r>
       <r>   -5.9207    1.0000 </r>
       <r>   -5.8760    1.0000 </r>
       <r>   -5.7982    1.0000 </r>
       <r>   -5.7110    1.0000 </r>
       <r>   -5.6385    1.0000 </r>
       <r>   -5.5485    1.0000 </r>
       <r>   -5.3644    1.0000 </r>
       <r>   -5.2558    1.0000 </r>
       <r>   -5.1877    1.0000 </r>
       <r>   -5.1143    1.0000 </r>
       <r>   -4.9032    1.0000 </r>
       <r>   -4.7659    1.0000 </r>
       <r>   -4.7495    1.0000 </r>
       <r>   -4.6278    1.0000 </r>
       <r>   -4.4433    1.0000 </r>
       <r>   -4.4010    1.0000 </r>
       <r>   -4.3131    1.0000 </r>
       <r>   -4.1849    1.0000 </r>
       <r>   -3.9568    1.0000 </r>
       <r>   -3.8009    0.9999 </r>
       <r>   -3.6643    0.9966 </r>
       <r>   -3.5284    0.9598 </r>
       <r>   -3.2846    0.5099 </r>
       <r>   -2.9806    0.0168 </r>
       <r>   -2.7883    0.0002 </r>
       <r>   -2.6188    0.0000 </r>
       <r>   -2.5112    0.0000 </r>
       <r>   -2.4571    0.0000 </r>
       <r>   -2.3510    0.0000 </r>
       <r>   -2.3011    0.0000 </r>
       <r>   -2.1407    0.0000 </r>
       <r>   -2.0534    0.0000 </r>
       <r>   -1.9421    0.0000 </r>
       <r>   -1.8448    0.0000 </r>
       <r>   -1.8107    0.0000 </r>
       <r>   -1.4732    0.0000 </r>
       <r>   -1.3343    0.0000 </r>
       <r>   -1.2539    0.0000 </r>
       <r>   -1.1739    0.0000 </r>
       <r>   -1.1486    0.0000 </r>
       <r>   -1.0548    0.0000 </r>
       <r>   -0.9779    0.0000 </r>
       <r>   -0.9451    0.0000 </r>
       <r>   -0.8541    0.0000 </r>
       <r>   -0.7389    0.0000 </r>
       <r>   -0.6515    0.0000 </r>
       <r>   -0.5365    0.0000 </r>
       <r>   -0.4499    0.0000 </r>
       <r>   -0.4098    0.0000 </r>
       <r>   -0.2881    0.0000 </r>
       <r>   -0.0702    0.0000 </r>
       <r>   -0.0479    0.0000 </r>
       <r>    0.1218    0.0000 </r>
       <r>    0.3543    0.0000 </r>
       <r>    0.5561    0.0000 </r>
       <r>    0.7206    0.0000 </r>
       <r>    0.9586    0.0000 </r>
       <r>    1.0710    0.0000 </r>
       <r>    1.3999    0.0000 </r>
       <r>    1.5418    0.0000 </r>
       <r>    2.1248    0.0000 </r>
       <r>    2.2869    0.0000 </r>
       <r>    2.3858    0.0000 </r>
      </set>
      <set comment="kpoint 32">
       <r>  -17.5071    1.0000 </r>
       <r>  -17.1329    1.0000 </r>
       <r>  -17.0766    1.0000 </r>
       <r>  -16.5883    1.0000 </r>
       <r>  -16.4205    1.0000 </r>
       <r>  -16.3565    1.0000 </r>
       <r>  -16.2665    1.0000 </r>
       <r>  -16.2049    1.0000 </r>
       <r>  -16.1116    1.0000 </r>
       <r>  -16.0060    1.0000 </r>
       <r>  -15.9450    1.0000 </r>
       <r>  -15.9000    1.0000 </r>
       <r>  -15.8395    1.0000 </r>
       <r>  -15.7383    1.0000 </r>
       <r>  -15.6542    1.0000 </r>
       <r>  -15.5661    1.0000 </r>
       <r>  -15.4192    1.0000 </r>
       <r>  -15.3059    1.0000 </r>
       <r>   -9.6052    1.0000 </r>
       <r>   -9.5416    1.0000 </r>
       <r>   -9.3735    1.0000 </r>
       <r>   -8.9097    1.0000 </r>
       <r>   -8.7516    1.0000 </r>
       <r>   -8.5294    1.0000 </r>
       <r>   -8.4795    1.0000 </r>
       <r>   -8.4623    1.0000 </r>
       <r>   -8.4090    1.0000 </r>
       <r>   -8.3453    1.0000 </r>
       <r>   -8.2855    1.0000 </r>
       <r>   -8.2481    1.0000 </r>
       <r>   -8.1902    1.0000 </r>
       <r>   -8.1501    1.0000 </r>
       <r>   -8.0348    1.0000 </r>
       <r>   -7.9523    1.0000 </r>
       <r>   -7.8201    1.0000 </r>
       <r>   -7.6130    1.0000 </r>
       <r>   -7.5406    1.0000 </r>
       <r>   -7.4519    1.0000 </r>
       <r>   -7.3247    1.0000 </r>
       <r>   -7.2129    1.0000 </r>
       <r>   -7.1243    1.0000 </r>
       <r>   -7.0800    1.0000 </r>
       <r>   -6.9704    1.0000 </r>
       <r>   -6.9524    1.0000 </r>
       <r>   -6.9461    1.0000 </r>
       <r>   -6.8009    1.0000 </r>
       <r>   -6.7169    1.0000 </r>
       <r>   -6.6033    1.0000 </r>
       <r>   -6.5296    1.0000 </r>
       <r>   -6.4894    1.0000 </r>
       <r>   -6.4170    1.0000 </r>
       <r>   -6.3688    1.0000 </r>
       <r>   -6.2655    1.0000 </r>
       <r>   -6.2117    1.0000 </r>
       <r>   -6.1446    1.0000 </r>
       <r>   -6.0953    1.0000 </r>
       <r>   -5.9933    1.0000 </r>
       <r>   -5.9149    1.0000 </r>
       <r>   -5.8689    1.0000 </r>
       <r>   -5.7184    1.0000 </r>
       <r>   -5.6691    1.0000 </r>
       <r>   -5.5999    1.0000 </r>
       <r>   -5.5090    1.0000 </r>
       <r>   -5.4305    1.0000 </r>
       <r>   -5.3067    1.0000 </r>
       <r>   -5.2033    1.0000 </r>
       <r>   -5.1200    1.0000 </r>
       <r>   -5.0404    1.0000 </r>
       <r>   -4.7723    1.0000 </r>
       <r>   -4.6725    1.0000 </r>
       <r>   -4.6039    1.0000 </r>
       <r>   -4.4794    1.0000 </r>
       <r>   -4.3912    1.0000 </r>
       <r>   -4.3254    1.0000 </r>
       <r>   -4.1981    1.0000 </r>
       <r>   -4.0086    1.0000 </r>
       <r>   -3.8050    0.9999 </r>
       <r>   -3.6564    0.9960 </r>
       <r>   -3.4551    0.8907 </r>
       <r>   -3.2719    0.4742 </r>
       <r>   -3.0574    0.0568 </r>
       <r>   -2.7381    0.0001 </r>
       <r>   -2.5785    0.0000 </r>
       <r>   -2.5022    0.0000 </r>
       <r>   -2.4403    0.0000 </r>
       <r>   -2.3425    0.0000 </r>
       <r>   -2.2586    0.0000 </r>
       <r>   -2.1442    0.0000 </r>
       <r>   -2.0554    0.0000 </r>
       <r>   -1.9397    0.0000 </r>
       <r>   -1.8727    0.0000 </r>
       <r>   -1.8213    0.0000 </r>
       <r>   -1.4904    0.0000 </r>
       <r>   -1.3723    0.0000 </r>
       <r>   -1.2582    0.0000 </r>
       <r>   -1.1724    0.0000 </r>
       <r>   -1.1428    0.0000 </r>
       <r>   -1.0513    0.0000 </r>
       <r>   -0.9727    0.0000 </r>
       <r>   -0.9222    0.0000 </r>
       <r>   -0.8317    0.0000 </r>
       <r>   -0.7450    0.0000 </r>
       <r>   -0.6533    0.0000 </r>
       <r>   -0.5638    0.0000 </r>
       <r>   -0.4620    0.0000 </r>
       <r>   -0.4370    0.0000 </r>
       <r>   -0.2473    0.0000 </r>
       <r>   -0.1236    0.0000 </r>
       <r>    0.0499    0.0000 </r>
       <r>    0.1654    0.0000 </r>
       <r>    0.3709    0.0000 </r>
       <r>    0.5747    0.0000 </r>
       <r>    0.7509    0.0000 </r>
       <r>    0.9268    0.0000 </r>
       <r>    1.0640    0.0000 </r>
       <r>    1.2901    0.0000 </r>
       <r>    1.4845    0.0000 </r>
       <r>    2.0890    0.0000 </r>
       <r>    2.2565    0.0000 </r>
       <r>    2.5501    0.0000 </r>
      </set>
      <set comment="kpoint 33">
       <r>  -17.4932    1.0000 </r>
       <r>  -17.2500    1.0000 </r>
       <r>  -16.9176    1.0000 </r>
       <r>  -16.5954    1.0000 </r>
       <r>  -16.5045    1.0000 </r>
       <r>  -16.3690    1.0000 </r>
       <r>  -16.2873    1.0000 </r>
       <r>  -16.1676    1.0000 </r>
       <r>  -16.0824    1.0000 </r>
       <r>  -15.9863    1.0000 </r>
       <r>  -15.9606    1.0000 </r>
       <r>  -15.8979    1.0000 </r>
       <r>  -15.8234    1.0000 </r>
       <r>  -15.7431    1.0000 </r>
       <r>  -15.6570    1.0000 </r>
       <r>  -15.5778    1.0000 </r>
       <r>  -15.4147    1.0000 </r>
       <r>  -15.3121    1.0000 </r>
       <r>   -9.7001    1.0000 </r>
       <r>   -9.3962    1.0000 </r>
       <r>   -9.2929    1.0000 </r>
       <r>   -8.9769    1.0000 </r>
       <r>   -8.8580    1.0000 </r>
       <r>   -8.7203    1.0000 </r>
       <r>   -8.4943    1.0000 </r>
       <r>   -8.4174    1.0000 </r>
       <r>   -8.3861    1.0000 </r>
       <r>   -8.3141    1.0000 </r>
       <r>   -8.2844    1.0000 </r>
       <r>   -8.2293    1.0000 </r>
       <r>   -8.1317    1.0000 </r>
       <r>   -8.0667    1.0000 </r>
       <r>   -8.0104    1.0000 </r>
       <r>   -7.9010    1.0000 </r>
       <r>   -7.8107    1.0000 </r>
       <r>   -7.6399    1.0000 </r>
       <r>   -7.6019    1.0000 </r>
       <r>   -7.4407    1.0000 </r>
       <r>   -7.2774    1.0000 </r>
       <r>   -7.2093    1.0000 </r>
       <r>   -7.1497    1.0000 </r>
       <r>   -7.0978    1.0000 </r>
       <r>   -6.9770    1.0000 </r>
       <r>   -6.9559    1.0000 </r>
       <r>   -6.9198    1.0000 </r>
       <r>   -6.7893    1.0000 </r>
       <r>   -6.6849    1.0000 </r>
       <r>   -6.5898    1.0000 </r>
       <r>   -6.5400    1.0000 </r>
       <r>   -6.5086    1.0000 </r>
       <r>   -6.4285    1.0000 </r>
       <r>   -6.3265    1.0000 </r>
       <r>   -6.2754    1.0000 </r>
       <r>   -6.2152    1.0000 </r>
       <r>   -6.1470    1.0000 </r>
       <r>   -6.0920    1.0000 </r>
       <r>   -6.0004    1.0000 </r>
       <r>   -5.9423    1.0000 </r>
       <r>   -5.9170    1.0000 </r>
       <r>   -5.8162    1.0000 </r>
       <r>   -5.7097    1.0000 </r>
       <r>   -5.6434    1.0000 </r>
       <r>   -5.5720    1.0000 </r>
       <r>   -5.3971    1.0000 </r>
       <r>   -5.2342    1.0000 </r>
       <r>   -5.1496    1.0000 </r>
       <r>   -5.0702    1.0000 </r>
       <r>   -4.9992    1.0000 </r>
       <r>   -4.7705    1.0000 </r>
       <r>   -4.6639    1.0000 </r>
       <r>   -4.5695    1.0000 </r>
       <r>   -4.5616    1.0000 </r>
       <r>   -4.3529    1.0000 </r>
       <r>   -4.2759    1.0000 </r>
       <r>   -4.1963    1.0000 </r>
       <r>   -4.0853    1.0000 </r>
       <r>   -3.8190    0.9999 </r>
       <r>   -3.6704    0.9970 </r>
       <r>   -3.4426    0.8732 </r>
       <r>   -3.3261    0.6248 </r>
       <r>   -3.0449    0.0475 </r>
       <r>   -2.6908    0.0000 </r>
       <r>   -2.5684    0.0000 </r>
       <r>   -2.5113    0.0000 </r>
       <r>   -2.4134    0.0000 </r>
       <r>   -2.3488    0.0000 </r>
       <r>   -2.2089    0.0000 </r>
       <r>   -2.1249    0.0000 </r>
       <r>   -2.0563    0.0000 </r>
       <r>   -1.9317    0.0000 </r>
       <r>   -1.8959    0.0000 </r>
       <r>   -1.8075    0.0000 </r>
       <r>   -1.4873    0.0000 </r>
       <r>   -1.4017    0.0000 </r>
       <r>   -1.2598    0.0000 </r>
       <r>   -1.1993    0.0000 </r>
       <r>   -1.1421    0.0000 </r>
       <r>   -1.0404    0.0000 </r>
       <r>   -0.9735    0.0000 </r>
       <r>   -0.9227    0.0000 </r>
       <r>   -0.8277    0.0000 </r>
       <r>   -0.7295    0.0000 </r>
       <r>   -0.7088    0.0000 </r>
       <r>   -0.5460    0.0000 </r>
       <r>   -0.5225    0.0000 </r>
       <r>   -0.3455    0.0000 </r>
       <r>   -0.2937    0.0000 </r>
       <r>   -0.1282    0.0000 </r>
       <r>    0.0571    0.0000 </r>
       <r>    0.2093    0.0000 </r>
       <r>    0.4052    0.0000 </r>
       <r>    0.5614    0.0000 </r>
       <r>    0.7920    0.0000 </r>
       <r>    0.9818    0.0000 </r>
       <r>    1.0819    0.0000 </r>
       <r>    1.1792    0.0000 </r>
       <r>    1.4435    0.0000 </r>
       <r>    2.1155    0.0000 </r>
       <r>    2.2872    0.0000 </r>
       <r>    2.3741    0.0000 </r>
      </set>
      <set comment="kpoint 34">
       <r>  -17.4717    1.0000 </r>
       <r>  -17.3143    1.0000 </r>
       <r>  -16.7390    1.0000 </r>
       <r>  -16.6903    1.0000 </r>
       <r>  -16.5803    1.0000 </r>
       <r>  -16.3770    1.0000 </r>
       <r>  -16.2839    1.0000 </r>
       <r>  -16.1696    1.0000 </r>
       <r>  -16.0326    1.0000 </r>
       <r>  -16.0121    1.0000 </r>
       <r>  -15.9542    1.0000 </r>
       <r>  -15.8898    1.0000 </r>
       <r>  -15.7928    1.0000 </r>
       <r>  -15.7316    1.0000 </r>
       <r>  -15.6857    1.0000 </r>
       <r>  -15.5829    1.0000 </r>
       <r>  -15.4113    1.0000 </r>
       <r>  -15.3216    1.0000 </r>
       <r>   -9.7397    1.0000 </r>
       <r>   -9.2795    1.0000 </r>
       <r>   -9.1535    1.0000 </r>
       <r>   -9.0655    1.0000 </r>
       <r>   -8.9808    1.0000 </r>
       <r>   -8.8518    1.0000 </r>
       <r>   -8.5052    1.0000 </r>
       <r>   -8.4239    1.0000 </r>
       <r>   -8.4004    1.0000 </r>
       <r>   -8.3053    1.0000 </r>
       <r>   -8.2630    1.0000 </r>
       <r>   -8.2014    1.0000 </r>
       <r>   -8.0874    1.0000 </r>
       <r>   -8.0518    1.0000 </r>
       <r>   -7.9431    1.0000 </r>
       <r>   -7.9001    1.0000 </r>
       <r>   -7.7944    1.0000 </r>
       <r>   -7.6839    1.0000 </r>
       <r>   -7.5107    1.0000 </r>
       <r>   -7.4473    1.0000 </r>
       <r>   -7.3359    1.0000 </r>
       <r>   -7.2043    1.0000 </r>
       <r>   -7.1469    1.0000 </r>
       <r>   -7.0417    1.0000 </r>
       <r>   -7.0197    1.0000 </r>
       <r>   -6.9507    1.0000 </r>
       <r>   -6.9221    1.0000 </r>
       <r>   -6.7675    1.0000 </r>
       <r>   -6.6865    1.0000 </r>
       <r>   -6.6416    1.0000 </r>
       <r>   -6.5323    1.0000 </r>
       <r>   -6.4896    1.0000 </r>
       <r>   -6.4066    1.0000 </r>
       <r>   -6.3095    1.0000 </r>
       <r>   -6.2623    1.0000 </r>
       <r>   -6.2350    1.0000 </r>
       <r>   -6.1517    1.0000 </r>
       <r>   -6.1058    1.0000 </r>
       <r>   -6.0201    1.0000 </r>
       <r>   -5.9664    1.0000 </r>
       <r>   -5.9012    1.0000 </r>
       <r>   -5.8835    1.0000 </r>
       <r>   -5.7820    1.0000 </r>
       <r>   -5.6486    1.0000 </r>
       <r>   -5.5648    1.0000 </r>
       <r>   -5.4552    1.0000 </r>
       <r>   -5.2537    1.0000 </r>
       <r>   -5.0890    1.0000 </r>
       <r>   -4.9334    1.0000 </r>
       <r>   -4.8927    1.0000 </r>
       <r>   -4.8341    1.0000 </r>
       <r>   -4.7022    1.0000 </r>
       <r>   -4.6079    1.0000 </r>
       <r>   -4.5465    1.0000 </r>
       <r>   -4.3410    1.0000 </r>
       <r>   -4.2191    1.0000 </r>
       <r>   -4.1821    1.0000 </r>
       <r>   -4.1345    1.0000 </r>
       <r>   -3.8322    1.0000 </r>
       <r>   -3.6486    0.9953 </r>
       <r>   -3.5269    0.9589 </r>
       <r>   -3.3288    0.6321 </r>
       <r>   -3.0178    0.0313 </r>
       <r>   -2.6720    0.0000 </r>
       <r>   -2.5719    0.0000 </r>
       <r>   -2.5136    0.0000 </r>
       <r>   -2.4030    0.0000 </r>
       <r>   -2.3602    0.0000 </r>
       <r>   -2.1829    0.0000 </r>
       <r>   -2.1145    0.0000 </r>
       <r>   -2.0523    0.0000 </r>
       <r>   -1.9273    0.0000 </r>
       <r>   -1.9081    0.0000 </r>
       <r>   -1.7928    0.0000 </r>
       <r>   -1.4820    0.0000 </r>
       <r>   -1.4094    0.0000 </r>
       <r>   -1.2574    0.0000 </r>
       <r>   -1.2146    0.0000 </r>
       <r>   -1.1448    0.0000 </r>
       <r>   -1.0223    0.0000 </r>
       <r>   -0.9733    0.0000 </r>
       <r>   -0.9364    0.0000 </r>
       <r>   -0.8468    0.0000 </r>
       <r>   -0.7479    0.0000 </r>
       <r>   -0.6891    0.0000 </r>
       <r>   -0.5861    0.0000 </r>
       <r>   -0.5015    0.0000 </r>
       <r>   -0.3414    0.0000 </r>
       <r>   -0.2804    0.0000 </r>
       <r>   -0.1291    0.0000 </r>
       <r>    0.0382    0.0000 </r>
       <r>    0.2270    0.0000 </r>
       <r>    0.4282    0.0000 </r>
       <r>    0.5393    0.0000 </r>
       <r>    0.8166    0.0000 </r>
       <r>    1.0494    0.0000 </r>
       <r>    1.0938    0.0000 </r>
       <r>    1.1126    0.0000 </r>
       <r>    1.4329    0.0000 </r>
       <r>    2.1875    0.0000 </r>
       <r>    2.2306    0.0000 </r>
       <r>    2.3778    0.0000 </r>
      </set>
     </set>
    </set>
   </array>
  </eigenvalues>
  <separator name="orbital magnetization" >
   <v name="MAGDIPOLOUT">      0.00000000      0.00000000      0.00000000</v>
  </separator>
 </calculation>
 <structure name="finalpos" >
  <crystal>
   <varray name="basis" >
    <v>       8.39113466       4.82029216       0.00000000 </v>
    <v>      -8.39553449       4.82779305       0.00000000 </v>
    <v>       0.00000000       0.00000000      30.00000000 </v>
   </varray>
   <i name="volume">   2429.38771920 </i>
   <varray name="rec_basis" >
    <v>       0.05961740       0.10367470       0.00000000 </v>
    <v>      -0.05952478       0.10362036       0.00000000 </v>
    <v>       0.00000000       0.00000000       0.03333333 </v>
   </varray>
  </crystal>
  <varray name="positions" >
   <v>      -0.00949764       0.63393023       0.00020566 </v>
   <v>       0.30947428       0.35178596      -0.00230257 </v>
   <v>       0.67326639       0.63945805       0.00088768 </v>
   <v>       0.97701844       0.31206142       0.00031349 </v>
   <v>       0.68217397       0.32417063       0.00067930 </v>
   <v>       0.66713967       0.01916440      -0.00017971 </v>
   <v>      -0.02037443       0.01769687      -0.00141287 </v>
   <v>       0.36345800      -0.00188390       0.00132527 </v>
   <v>       0.35182982       0.69695251       0.00035189 </v>
   <v>       0.10781728       0.22608031       0.94551979 </v>
   <v>       0.22482369       0.11787746       0.04322265 </v>
   <v>       0.11471811       0.55537683       0.95119255 </v>
   <v>       0.21982987       0.45265347       0.04948974 </v>
   <v>       0.10885154       0.88625216       0.95885285 </v>
   <v>       0.22003863       0.77855551       0.05174502 </v>
   <v>       0.43937384       0.22675343       0.95438269 </v>
   <v>       0.55926838       0.11427294       0.05728596 </v>
   <v>       0.45145062       0.55911953       0.94982288 </v>
   <v>       0.54302783       0.43512681       0.04708873 </v>
   <v>       0.45219024       0.89609861       0.94365370 </v>
   <v>       0.56752509       0.77618385       0.04799872 </v>
   <v>       0.77773445       0.22217128       0.94338041 </v>
   <v>       0.88219508       0.10931734       0.05634784 </v>
   <v>       0.78416315       0.55204179       0.94905015 </v>
   <v>       0.89003490       0.44397097       0.05507311 </v>
   <v>       0.76863994       0.87940200       0.95016286 </v>
   <v>       0.89204331       0.77362402       0.04586210 </v>
  </varray>
 </structure>
</modeling>
