unknown system                          
           1
     8.857603    5.102644    0.000000
    -8.859196    5.105384    0.000000
     0.000000    0.000000   30.000000
   V    Mo   W    S 
   3   3   3  18
Direct configuration=     1
   0.00000000  0.66666669  0.00000000
   0.33333334  0.33333334  0.00000000
   0.66666669  0.66666669  0.00000000
   1.00000000  0.33333334  0.00000000
   0.66666669  0.33333334  0.00000000
   0.66666669  0.00000000  0.00000000
   0.00000000  0.00000000  0.00000000
   0.33333334  0.00000000  0.00000000
   0.33333334  0.66666669  0.00000000
   0.11068511  0.22244981  0.95539999
   0.22244981  0.11068511  0.04460000
   0.11068511  0.55578315  0.95539999
   0.22244981  0.44401845  0.04460000
   0.11068511  0.88911647  0.95539999
   0.22244981  0.77735180  0.04460000
   0.44401845  0.22244981  0.95539999
   0.55578315  0.11068511  0.04460000
   0.44401845  0.55578315  0.95539999
   0.55578315  0.44401845  0.04460000
   0.44401845  0.88911647  0.95539999
   0.55578315  0.77735180  0.04460000
   0.77735180  0.22244981  0.95539999
   0.88911647  0.11068511  0.04460000
   0.77735180  0.55578315  0.95539999
   0.88911647  0.44401845  0.04460000
   0.77735180  0.88911647  0.95539999
   0.88911647  0.77735180  0.04460000
unknown system                          
           1
     8.669167    4.996658    0.000000
    -8.670650    4.999210    0.000000
     0.000000    0.000000   30.000000
   V    Mo   W    S 
   3   3   3  18
Direct configuration=     2
  -0.00147223  0.66435702  0.00009938
   0.33370426  0.33363102 -0.00009211
   0.66676394  0.66628141  0.00003692
   0.99720443  0.33197271 -0.00014605
   0.66804676  0.33231967  0.00005465
   0.66793040  0.00276392  0.00000359
  -0.00177344  0.00118903 -0.00004896
   0.33630748  0.00155845  0.00012230
   0.33341342  0.66635389  0.00001509
   0.11512413  0.22341602  0.95189775
   0.22389513  0.11460030  0.04805394
   0.10956497  0.55824851  0.95202304
   0.22501850  0.44294179  0.04791193
   0.10924471  0.88506271  0.95205372
   0.21828540  0.77589627  0.04813384
   0.44135379  0.22366763  0.95198206
   0.55435777  0.11039687  0.04931713
   0.44599804  0.55357158  0.95298840
   0.55327633  0.44650636  0.04689883
   0.44367804  0.88830321  0.95073532
   0.55689986  0.77486748  0.04793458
   0.77778053  0.22214514  0.95066062
   0.88917078  0.11043329  0.04929688
   0.77964264  0.55988648  0.95311856
   0.89101147  0.44896248  0.04810229
   0.77646130  0.88479214  0.95194892
   0.88732605  0.77408907  0.04689730
unknown system                          
           1
     8.486998    4.897821    0.000000
    -8.488665    4.900696    0.000000
     0.000000    0.000000   30.000000
   V    Mo   W    S 
   3   3   3  18
Direct configuration=     3
  -0.00180815  0.66370344  0.00006489
   0.33375054  0.33369331 -0.00005135
   0.66675740  0.66617871  0.00008580
   0.99605759  0.33115012 -0.00016333
   0.66838771  0.33145594  0.00005328
   0.66840497  0.00396756 -0.00000007
  -0.00230867  0.00172366 -0.00011348
   0.33739464  0.00191150  0.00008178
   0.33341541  0.66650437  0.00007794
   0.11509050  0.22325591  0.95189280
   0.22384159  0.11443356  0.04795611
   0.10975404  0.55839129  0.95203782
   0.22515041  0.44313933  0.04782746
   0.10931143  0.88523739  0.95227209
   0.21843091  0.77594958  0.04806758
   0.44122549  0.22348454  0.95198772
   0.55414715  0.11026893  0.04948057
   0.44590113  0.55365082  0.95302418
   0.55327417  0.44654750  0.04679865
   0.44347503  0.88822341  0.95073761
   0.55669596  0.77472509  0.04786397
   0.77778475  0.22217632  0.95043450
   0.88928639  0.11031078  0.04942858
   0.77968894  0.55993943  0.95316499
   0.89109630  0.44910311  0.04819762
   0.77662395  0.88482034  0.95196842
   0.88738484  0.77426851  0.04682378
unknown system                          
           1
     8.288166    4.777641    0.000000
    -8.294379    4.788391    0.000000
     0.000000    0.000000   30.000000
   V    Mo   W    S 
   3   3   3  18
Direct configuration=     4
  -0.00261399  0.66145099 -0.00010409
   0.33359699  0.33365583  0.00013550
   0.66667864  0.66595954  0.00025174
   0.99166921  0.32765998 -0.00015818
   0.66932498  0.32736808  0.00003741
   0.67007637  0.00879474 -0.00000602
  -0.00412745  0.00396855 -0.00032186
   0.34157813  0.00294177 -0.00010983
   0.33332421  0.66749308  0.00029643
   0.11610957  0.22403959  0.95039260
   0.22424685  0.11512889  0.04901638
   0.10928226  0.55872762  0.95067159
   0.22530720  0.44257443  0.04890596
   0.10891959  0.88459156  0.95171944
   0.21746477  0.77555122  0.04931839
   0.44104277  0.22416496  0.95054675
   0.55437516  0.11035289  0.05179393
   0.44636843  0.55320209  0.95179592
   0.55306377  0.44694401  0.04768869
   0.44365006  0.88825600  0.94910526
   0.55730302  0.77452481  0.04900490
   0.77776426  0.22232493  0.94792934
   0.88925693  0.11033860  0.05157788
   0.78006781  0.56063650  0.95205837
   0.89170841  0.45022440  0.04999680
   0.77582506  0.88378432  0.95058100
   0.88695142  0.77355507  0.04787562
unknown system                          
           1
     8.301873    4.780063    0.000000
    -8.313139    4.799565    0.000000
     0.000000    0.000000   30.000000
   V    Mo   W    S 
   3   3   3  18
Direct configuration=     5
  -0.00415931  0.65686184 -0.00041768
   0.33306842  0.33346474  0.00045052
   0.66655400  0.66526628  0.00044497
   0.98393237  0.32109437 -0.00007252
   0.67058119  0.31975921  0.00002316
   0.67284370  0.01761164 -0.00004162
  -0.00823367  0.00837006 -0.00060956
   0.35041029  0.00497595 -0.00033479
   0.33312783  0.66952010  0.00058644
   0.11678922  0.22553508  0.94833105
   0.22450327  0.11544437  0.05003288
   0.10848436  0.55804599  0.94903164
   0.22427583  0.44168953  0.05006786
   0.10900553  0.88470488  0.95153327
   0.21641626  0.77572656  0.05095014
   0.44200499  0.22526897  0.94872303
   0.55533197  0.11084842  0.05512456
   0.44693205  0.55287478  0.95019986
   0.55359746  0.44670174  0.04884460
   0.44514549  0.88864161  0.94694070
   0.55852396  0.77559948  0.05030205
   0.77785168  0.22253408  0.94425751
   0.88857173  0.11066009  0.05455145
   0.77986828  0.56007380  0.95061508
   0.89165521  0.45031100  0.05241457
   0.77447322  0.88335369  0.94885792
   0.88665913  0.77327620  0.04919281
unknown system                          
           1
     8.299847    4.777798    0.000000
    -8.310158    4.795638    0.000000
     0.000000    0.000000   30.000000
   V    Mo   W    S 
   3   3   3  18
Direct configuration=     6
  -0.00512986  0.65456129 -0.00041088
   0.33278691  0.33347436  0.00046718
   0.66667881  0.66470657  0.00050415
   0.98390784  0.32086355 -0.00017666
   0.67052517  0.31982865 -0.00004342
   0.67247599  0.01722504 -0.00007806
  -0.00981805  0.00957747 -0.00062016
   0.35278322  0.00539048 -0.00022691
   0.33337304  0.67049659  0.00064969
   0.11632406  0.22591249  0.94827084
   0.22425199  0.11471285  0.04966851
   0.10835287  0.55717224  0.94913192
   0.22333927  0.44168978  0.04986380
   0.10968231  0.88587905  0.95218198
   0.21661094  0.77636310  0.05087567
   0.44283569  0.22524064  0.94878097
   0.55571474  0.11092911  0.05540949
   0.44680669  0.55301528  0.95028705
   0.55414510  0.44604181  0.04874326
   0.44625261  0.88896763  0.94679279
   0.55879228  0.77660340  0.05009487
   0.77802115  0.22264063  0.94401861
   0.88792464  0.11062131  0.05478087
   0.77934711  0.55893151  0.95066253
   0.89115053  0.44940443  0.05248323
   0.77404033  0.88413701  0.94889496
   0.88703910  0.77382815  0.04899361
unknown system                          
           1
     8.306200    4.779419    0.000000
    -8.316443    4.797133    0.000000
     0.000000    0.000000   30.000000
   V    Mo   W    S 
   3   3   3  18
Direct configuration=     7
  -0.00626122  0.65209152 -0.00042084
   0.33252404  0.33341428  0.00051172
   0.66684057  0.66416252  0.00057895
   0.98309396  0.32001020 -0.00019993
   0.67072181  0.31925925 -0.00007525
   0.67244490  0.01782873 -0.00011328
  -0.01138261  0.01091818 -0.00066330
   0.35534626  0.00588627 -0.00022865
   0.33373946  0.67165737  0.00071233
   0.11615898  0.22619157  0.94811449
   0.22409535  0.11429888  0.04942027
   0.10830783  0.55675211  0.94910110
   0.22295031  0.44180492  0.04975351
   0.11002886  0.88656637  0.95276558
   0.21664303  0.77673031  0.05087537
   0.44320760  0.22517685  0.94873971
   0.55613724  0.11112667  0.05573900
   0.44675451  0.55307184  0.95031240
   0.55434910  0.44573883  0.04871536
   0.44680892  0.88910381  0.94656900
   0.55899006  0.77702789  0.05002884
   0.77806223  0.22265802  0.94376938
   0.88755803  0.11075514  0.05506346
   0.77912930  0.55838597  0.95059260
   0.89099128  0.44902120  0.05266562
   0.77368281  0.88442300  0.94880840
   0.88729183  0.77415275  0.04886406
unknown system                          
           1
     8.323518    4.781822    0.000000
    -8.334140    4.800167    0.000000
     0.000000    0.000000   30.000000
   V    Mo   W    S 
   3   3   3  18
Direct configuration=     8
  -0.00744920  0.64963877 -0.00043758
   0.33224502  0.33333047  0.00056120
   0.66703265  0.66358933  0.00065055
   0.98254793  0.31941708 -0.00022772
   0.67095141  0.31908424 -0.00009677
   0.67226122  0.01802958 -0.00013230
  -0.01271131  0.01206716 -0.00072800
   0.35743134  0.00631001 -0.00022020
   0.33425933  0.67289762  0.00077628
   0.11601551  0.22643443  0.94800220
   0.22391456  0.11388629  0.04914435
   0.10832102  0.55642708  0.94911031
   0.22269776  0.44199808  0.04960809
   0.11030251  0.88715669  0.95339553
   0.21667892  0.77707085  0.05082098
   0.44351261  0.22509502  0.94873130
   0.55654038  0.11133545  0.05598291
   0.44671611  0.55313730  0.95038298
   0.55444431  0.44549092  0.04866553
   0.44726604  0.88919617  0.94636517
   0.55913911  0.77729073  0.04994416
   0.77810504  0.22267461  0.94360970
   0.88719640  0.11089940  0.05528861
   0.77898935  0.55796078  0.95053755
   0.89088268  0.44871449  0.05281747
   0.77337000  0.88463161  0.94875610
   0.88755375  0.77445029  0.04869151
unknown system                          
           1
     8.337567    4.788269    0.000000
    -8.348790    4.807654    0.000000
     0.000000    0.000000   30.000000
   V    Mo   W    S 
   3   3   3  18
Direct configuration=     9
  -0.01192858  0.64091458 -0.00051928
   0.33114237  0.33281199  0.00074226
   0.66781361  0.66130283  0.00087890
   0.98052541  0.31741664 -0.00029495
   0.67205485  0.31911567 -0.00014659
   0.67129181  0.01827883 -0.00017854
  -0.01676816  0.01572471 -0.00100052
   0.36378527  0.00784350 -0.00020870
   0.33698785  0.67808263  0.00097825
   0.11559061  0.22727168  0.94766474
   0.22321285  0.11251420  0.04814392
   0.10856238  0.55553573  0.94922623
   0.22224177  0.44298454  0.04900210
   0.11091938  0.88877151  0.95575963
   0.21677828  0.77816002  0.05050759
   0.44442141  0.22478616  0.94875519
   0.55798941  0.11221151  0.05668924
   0.44662739  0.55338707  0.95072806
   0.55439891  0.44473375  0.04849395
   0.44851654  0.88943516  0.94566336
   0.55966064  0.77775324  0.04967413
   0.77816131  0.22265148  0.94321530
   0.88600098  0.11150551  0.05595532
   0.77873119  0.55676852  0.95029096
   0.89066470  0.44779563  0.05337054
   0.77230364  0.88505367  0.94862104
   0.88852860  0.77540371  0.04798780
unknown system                          
           1
     8.339184    4.787461    0.000000
    -8.351913    4.809461    0.000000
     0.000000    0.000000   30.000000
   V    Mo   W    S 
   3   3   3  18
Direct configuration=    10
  -0.01322303  0.63876547 -0.00056940
   0.33055401  0.33225640  0.00080397
   0.66817369  0.66007667  0.00089896
   0.97951461  0.31665446 -0.00026340
   0.67261722  0.31957001 -0.00011181
   0.67059020  0.01793553 -0.00016088
  -0.01739199  0.01626940 -0.00108520
   0.36471977  0.00841322 -0.00018887
   0.33913071  0.68113468  0.00098726
   0.11545335  0.22769761  0.94754365
   0.22290606  0.11211560  0.04781554
   0.10877534  0.55521366  0.94935220
   0.22232924  0.44369664  0.04868152
   0.11077392  0.88881215  0.95666830
   0.21675391  0.77848687  0.05034450
   0.44471487  0.22475170  0.94874475
   0.55865135  0.11272375  0.05686232
   0.44666559  0.55350357  0.95090267
   0.55409392  0.44440324  0.04849303
   0.44879742  0.88955277  0.94535373
   0.56012144  0.77771447  0.04968126
   0.77801557  0.22253441  0.94313247
   0.88553850  0.11179174  0.05610937
   0.77867861  0.55634871  0.95009473
   0.89056021  0.44725832  0.05363787
   0.77178001  0.88492437  0.94858129
   0.88891993  0.77560904  0.04769008
unknown system                          
           1
     8.342453    4.789497    0.000000
    -8.355948    4.812832    0.000000
     0.000000    0.000000   30.000000
   V    Mo   W    S 
   3   3   3  18
Direct configuration=    11
  -0.01454391  0.63658692 -0.00060026
   0.32995070  0.33142379  0.00083817
   0.66849124  0.65866245  0.00086472
   0.97819295  0.31561357 -0.00023830
   0.67329751  0.32009106 -0.00008407
   0.66985224  0.01760340 -0.00015956
  -0.01829210  0.01699979 -0.00118468
   0.36604708  0.00912447 -0.00016856
   0.34163251  0.68467543  0.00100138
   0.11517851  0.22798317  0.94751660
   0.22257246  0.11180065  0.04754755
   0.10905607  0.55491084  0.94959412
   0.22242815  0.44455676  0.04824741
   0.11057580  0.88873910  0.95748986
   0.21681591  0.77876364  0.05016447
   0.44499324  0.22478540  0.94875720
   0.55912393  0.11315694  0.05694381
   0.44669882  0.55363999  0.95112050
   0.55376689  0.44404272  0.04847361
   0.44898227  0.88986036  0.94510139
   0.56064160  0.77770233  0.04967931
   0.77779218  0.22235887  0.94314185
   0.88516318  0.11192080  0.05616127
   0.77865259  0.55589865  0.94993841
   0.89049617  0.44677564  0.05380823
   0.77141072  0.88484425  0.94864040
   0.88923776  0.77569347  0.04740508
unknown system                          
           1
     8.341625    4.789225    0.000000
    -8.354509    4.811497    0.000000
     0.000000    0.000000   30.000000
   V    Mo   W    S 
   3   3   3  18
Direct configuration=    12
  -0.01460830  0.63660537 -0.00060119
   0.32983698  0.33094083  0.00084031
   0.66850245  0.65819710  0.00081751
   0.97783124  0.31537324 -0.00021760
   0.67342268  0.32036535 -0.00006920
   0.66961181  0.01737433 -0.00014707
  -0.01824863  0.01689687 -0.00119141
   0.36591677  0.00929502 -0.00016421
   0.34248787  0.68577621  0.00099676
   0.11508585  0.22801563  0.94752792
   0.22248649  0.11181515  0.04757436
   0.10918487  0.55486669  0.94969790
   0.22252508  0.44488603  0.04808775
   0.11044117  0.88854588  0.95755382
   0.21685091  0.77880204  0.05014577
   0.44500806  0.22487776  0.94873276
   0.55917762  0.11325850  0.05693506
   0.44671537  0.55368290  0.95116745
   0.55363753  0.44395172  0.04849687
   0.44896335  0.89006435  0.94502301
   0.56089531  0.77769992  0.04973224
   0.77764775  0.22226918  0.94315032
   0.88509761  0.11185879  0.05614876
   0.77866728  0.55581162  0.94988146
   0.89050326  0.44666969  0.05383687
   0.77132789  0.88472725  0.94866567
   0.88924617  0.77558702  0.04737804
unknown system                          
           1
     8.338137    4.789425    0.000000
    -8.345618    4.802296    0.000000
     0.000000    0.000000   30.000000
   V    Mo   W    S 
   3   3   3  18
Direct configuration=    13
  -0.01445760  0.63682756 -0.00060005
   0.32990830  0.33130383  0.00083452
   0.66849409  0.65852318  0.00084155
   0.97811600  0.31557931 -0.00022705
   0.67333008  0.32021282 -0.00007464
   0.66975271  0.01747650 -0.00015208
  -0.01818734  0.01684712 -0.00117952
   0.36582878  0.00913216 -0.00016452
   0.34194499  0.68502139  0.00099081
   0.11515852  0.22799639  0.94751859
   0.22255609  0.11183553  0.04757691
   0.10910007  0.55489936  0.94962531
   0.22247000  0.44466956  0.04820904
   0.11050117  0.88861476  0.95746955
   0.21681518  0.77874395  0.05016930
   0.44499252  0.22483028  0.94874504
   0.55912973  0.11318725  0.05693409
   0.44672362  0.55365383  0.95112685
   0.55372220  0.44403012  0.04848734
   0.44895363  0.88992450  0.94507464
   0.56074724  0.77768223  0.04971045
   0.77773375  0.22232141  0.94314439
   0.88515414  0.11188983  0.05614800
   0.77863994  0.55588236  0.94991517
   0.89049274  0.44672975  0.05381877
   0.77137962  0.88477081  0.94864676
   0.88921428  0.77562870  0.04741067
unknown system                          
           1
     8.338797    4.790055    0.000000
    -8.345320    4.801260    0.000000
     0.000000    0.000000   30.000000
   V    Mo   W    S 
   3   3   3  18
Direct configuration=    14
  -0.01426091  0.63743920 -0.00060744
   0.32995498  0.33372882  0.00079668
   0.66872677  0.65961615  0.00097498
   0.97931043  0.31632417 -0.00027537
   0.67308619  0.31990383 -0.00008575
   0.66974838  0.01743629 -0.00018074
  -0.01832818  0.01657726 -0.00117365
   0.36576474  0.00829900 -0.00013153
   0.34054121  0.68263314  0.00093821
   0.11551451  0.22801109  0.94745253
   0.22288934  0.11186200  0.04741854
   0.10878633  0.55494509  0.94931641
   0.22221649  0.44387708  0.04880143
   0.11075038  0.88893108  0.95734197
   0.21660736  0.77836331  0.05023684
   0.44509664  0.22446639  0.94889613
   0.55904958  0.11297855  0.05695135
   0.44689172  0.55350181  0.95096057
   0.55412019  0.44447976  0.04837543
   0.44896048  0.88923836  0.94521193
   0.56023323  0.77740755  0.04958206
   0.77810257  0.22250150  0.94312671
   0.88531035  0.11209872  0.05615684
   0.77830331  0.55608277  0.95003805
   0.89036139  0.44680979  0.05381049
   0.77145970  0.88483014  0.94857396
   0.88901727  0.77587163  0.04749328
unknown system                          
           1
     8.348077    4.793271    0.000000
    -8.356334    4.807491    0.000000
     0.000000    0.000000   30.000000
   V    Mo   W    S 
   3   3   3  18
Direct configuration=    15
  -0.01417805  0.63758676 -0.00060821
   0.32979994  0.33458296  0.00078408
   0.66881947  0.65995554  0.00100057
   0.97969404  0.31656731 -0.00028869
   0.67314214  0.31976926 -0.00008722
   0.66981396  0.01752882 -0.00018966
  -0.01833574  0.01656205 -0.00116249
   0.36574378  0.00799161 -0.00010665
   0.34001427  0.68178431  0.00091613
   0.11561381  0.22801120  0.94742676
   0.22299138  0.11188571  0.04735310
   0.10869399  0.55498000  0.94924136
   0.22214281  0.44367253  0.04898699
   0.11080753  0.88899089  0.95730585
   0.21655094  0.77823071  0.05025442
   0.44511144  0.22436542  0.94894997
   0.55901710  0.11291909  0.05695916
   0.44695755  0.55347941  0.95089656
   0.55419624  0.44455079  0.04835423
   0.44896767  0.88903822  0.94523684
   0.56009420  0.77733965  0.04956476
   0.77820253  0.22254163  0.94313302
   0.88533456  0.11213871  0.05615021
   0.77821630  0.55612821  0.95006209
   0.89033419  0.44684138  0.05380026
   0.77146623  0.88482831  0.94853925
   0.88900216  0.77594394  0.04752720
unknown system                          
           1
     8.347051    4.791052    0.000000
    -8.357217    4.808591    0.000000
     0.000000    0.000000   30.000000
   V    Mo   W    S 
   3   3   3  18
Direct configuration=    16
  -0.01453522  0.63675191 -0.00061022
   0.32797525  0.33620180  0.00075322
   0.66918566  0.65943120  0.00097437
   0.97994780  0.31660938 -0.00027089
   0.67426035  0.31991087 -0.00005827
   0.66956283  0.01769481 -0.00020565
  -0.01840392  0.01706290 -0.00118251
   0.36612162  0.00758229 -0.00004690
   0.34043248  0.68196188  0.00085790
   0.11560757  0.22808197  0.94735754
   0.22302736  0.11200444  0.04701368
   0.10877074  0.55502267  0.94938435
   0.22223287  0.44413270  0.04906138
   0.11062467  0.88872273  0.95765437
   0.21651984  0.77799047  0.05018376
   0.44512422  0.22423883  0.94920185
   0.55918344  0.11310211  0.05701318
   0.44705249  0.55353386  0.95084252
   0.55378837  0.44407882  0.04830124
   0.44908347  0.88908194  0.94508316
   0.56028715  0.77729472  0.04962213
   0.77810990  0.22236594  0.94318458
   0.88505916  0.11209755  0.05612463
   0.77821085  0.55581593  0.94995912
   0.89037069  0.44671948  0.05383659
   0.77127198  0.88469213  0.94849931
   0.88934283  0.77603112  0.04746547
unknown system                          
           1
     8.349431    4.791883    0.000000
    -8.359884    4.809921    0.000000
     0.000000    0.000000   30.000000
   V    Mo   W    S 
   3   3   3  18
Direct configuration=    17
  -0.01497493  0.63610771 -0.00060501
   0.32697150  0.33580313  0.00073127
   0.66930226  0.65827557  0.00095586
   0.97922788  0.31589304 -0.00024410
   0.67487891  0.32029501 -0.00002988
   0.66910530  0.01751263 -0.00019623
  -0.01876640  0.01710930 -0.00121934
   0.36645273  0.00767456 -0.00004400
   0.34229405  0.68429978  0.00084818
   0.11528853  0.22810790  0.94731237
   0.22284315  0.11199710  0.04692666
   0.10909264  0.55489803  0.94961116
   0.22230465  0.44495776  0.04881376
   0.11042075  0.88848002  0.95794391
   0.21673001  0.77821043  0.05011293
   0.44518154  0.22439878  0.94930513
   0.55933068  0.11334160  0.05701083
   0.44709958  0.55373445  0.95092648
   0.55342062  0.44369367  0.04824509
   0.44913416  0.88953450  0.94494919
   0.56077387  0.77733691  0.04962970
   0.77792929  0.22217164  0.94319756
   0.88484107  0.11199221  0.05611950
   0.77831715  0.55550951  0.94985761
   0.89041032  0.44645102  0.05392882
   0.77115726  0.88455997  0.94859933
   0.88944788  0.77586822  0.04731315
unknown system                          
           1
     8.350804    4.792676    0.000000
    -8.361081    4.810408    0.000000
     0.000000    0.000000   30.000000
   V    Mo   W    S 
   3   3   3  18
Direct configuration=    18
  -0.01510912  0.63588750 -0.00060094
   0.32633448  0.33609616  0.00071264
   0.66939302  0.65791180  0.00095934
   0.97920619  0.31576351 -0.00023648
   0.67521213  0.32044632 -0.00001953
   0.66893958  0.01745135 -0.00019704
  -0.01885688  0.01713906 -0.00122844
   0.36652839  0.00756464 -0.00003157
   0.34277417  0.68479256  0.00082931
   0.11521381  0.22810514  0.94727557
   0.22282839  0.11204096  0.04685140
   0.10917456  0.55487535  0.94967102
   0.22230776  0.44520248  0.04881422
   0.11035007  0.88839140  0.95803660
   0.21677700  0.77822489  0.05010024
   0.44519381  0.22442189  0.94939038
   0.55937988  0.11341740  0.05702383
   0.44714305  0.55379122  0.95092239
   0.55326899  0.44353285  0.04820553
   0.44918042  0.88964294  0.94489356
   0.56092786  0.77733619  0.04963196
   0.77790217  0.22210750  0.94319366
   0.88475839  0.11196058  0.05612486
   0.77834396  0.55539970  0.94982695
   0.89043466  0.44638403  0.05396134
   0.77110081  0.88449493  0.94861658
   0.88950691  0.77583212  0.04727250
unknown system                          
           1
     8.355443    4.793943    0.000000
    -8.366582    4.813173    0.000000
     0.000000    0.000000   30.000000
   V    Mo   W    S 
   3   3   3  18
Direct configuration=    19
  -0.01517245  0.63581097 -0.00059586
   0.32587018  0.33630686  0.00069173
   0.66941650  0.65758845  0.00095840
   0.97913735  0.31557036 -0.00023150
   0.67539298  0.32050637 -0.00001289
   0.66879791  0.01742030 -0.00019652
  -0.01895028  0.01712385 -0.00123222
   0.36658595  0.00745939 -0.00001489
   0.34323303  0.68526933  0.00081336
   0.11514252  0.22809227  0.94724872
   0.22282306  0.11206653  0.04680283
   0.10928080  0.55485021  0.94971671
   0.22230639  0.44541163  0.04881031
   0.11032737  0.88836476  0.95808504
   0.21685858  0.77826583  0.05009655
   0.44520659  0.22445815  0.94945362
   0.55941049  0.11346951  0.05702589
   0.44718888  0.55384993  0.95092298
   0.55315865  0.44342581  0.04817437
   0.44922108  0.88974689  0.94484934
   0.56106672  0.77733347  0.04963165
   0.77788366  0.22205768  0.94319660
   0.88470024  0.11193090  0.05612865
   0.77833111  0.55532567  0.94980244
   0.89044185  0.44630075  0.05399161
   0.77104209  0.88441566  0.94863478
   0.88951321  0.77579293  0.04724819
unknown system                          
           1
     8.362390    4.795487    0.000000
    -8.376111    4.819206    0.000000
     0.000000    0.000000   30.000000
   V    Mo   W    S 
   3   3   3  18
Direct configuration=    20
  -0.01549231  0.63509477 -0.00057446
   0.32368807  0.33662361  0.00061112
   0.66957828  0.65597682  0.00091280
   0.97861820  0.31474351 -0.00019537
   0.67644070  0.32102880  0.00002014
   0.66808440  0.01712956 -0.00018984
  -0.01927828  0.01715803 -0.00124378
   0.36678487  0.00709820  0.00005602
   0.34543056  0.68795500  0.00074988
   0.11472223  0.22798636  0.94711913
   0.22272617  0.11217448  0.04662171
   0.10975463  0.55476037  0.94999877
   0.22230482  0.44650872  0.04869324
   0.11014152  0.88812272  0.95833547
   0.21719359  0.77852031  0.05007404
   0.44520590  0.22465585  0.94969443
   0.55955532  0.11374955  0.05705779
   0.44732845  0.55414777  0.95092916
   0.55256364  0.44275972  0.04809343
   0.44943221  0.89036607  0.94459146
   0.56177453  0.77741193  0.04968177
   0.77774452  0.22182009  0.94318631
   0.88440263  0.11172627  0.05616173
   0.77847460  0.55495654  0.94967094
   0.89055929  0.44603280  0.05409963
   0.77078529  0.88410175  0.94870927
   0.88969060  0.77560487  0.04713511
unknown system                          
           1
     8.366601    4.797349    0.000000
    -8.381134    4.822482    0.000000
     0.000000    0.000000   30.000000
   V    Mo   W    S 
   3   3   3  18
Direct configuration=    21
  -0.01591174  0.63416835 -0.00053053
   0.31964141  0.33731328  0.00046004
   0.66970299  0.65292997  0.00086841
   0.97806513  0.31344042 -0.00012187
   0.67811206  0.32206649  0.00006767
   0.66696591  0.01664704 -0.00017728
  -0.01978654  0.01696657 -0.00126679
   0.36698509  0.00653097  0.00013956
   0.34904022  0.69211550  0.00064466
   0.11404501  0.22771884  0.94690054
   0.22269209  0.11259343  0.04629350
   0.11066162  0.55469805  0.95046956
   0.22240881  0.44834248  0.04851787
   0.10983013  0.88775590  0.95865160
   0.21777365  0.77893108  0.05009824
   0.44510549  0.22508767  0.95020364
   0.55981787  0.11428086  0.05710896
   0.44752754  0.55456465  0.95095669
   0.55135003  0.44152113  0.04787789
   0.44992176  0.89165025  0.94413064
   0.56303309  0.77755043  0.04974173
   0.77748775  0.22141756  0.94317179
   0.88388145  0.11129034  0.05623461
   0.77881867  0.55435917  0.94946458
   0.89074530  0.44558937  0.05428522
   0.77040435  0.88353056  0.94887271
   0.88989532  0.77515410  0.04693627
unknown system                          
           1
     8.372837    4.800213    0.000000
    -8.387850    4.826178    0.000000
     0.000000    0.000000   30.000000
   V    Mo   W    S 
   3   3   3  18
Direct configuration=    22
  -0.01597693  0.63358400 -0.00045392
   0.31640686  0.33812163  0.00024643
   0.66976614  0.65053856  0.00083888
   0.97776180  0.31255303 -0.00005947
   0.67939157  0.32280508  0.00011542
   0.66648422  0.01666704 -0.00016787
  -0.02027448  0.01672088 -0.00123988
   0.36709174  0.00581230  0.00024397
   0.35113852  0.69463441  0.00053977
   0.11342793  0.22736172  0.94671217
   0.22283092  0.11303992  0.04601256
   0.11147590  0.55480720  0.95081427
   0.22242025  0.44977810  0.04851663
   0.10964277  0.88749754  0.95878333
   0.21835323  0.77926325  0.05011789
   0.44480773  0.22550736  0.95065535
   0.55993661  0.11464702  0.05709477
   0.44769455  0.55489896  0.95095387
   0.55025480  0.44043937  0.04771754
   0.45035843  0.89272198  0.94384590
   0.56401388  0.77768179  0.04974309
   0.77741256  0.22117164  0.94321016
   0.88355413  0.11086870  0.05626165
   0.77915731  0.55399124  0.94930723
   0.89095164  0.44534132  0.05438935
   0.77012039  0.88299115  0.94901493
   0.89001197  0.77476925  0.04678589
unknown system                          
           1
     8.375043    4.801526    0.000000
    -8.389702    4.826877    0.000000
     0.000000    0.000000   30.000000
   V    Mo   W    S 
   3   3   3  18
Direct configuration=    23
  -0.01576999  0.63333635 -0.00041206
   0.31403287  0.33920901  0.00002691
   0.66977503  0.64859148  0.00084841
   0.97780708  0.31213422  0.00000754
   0.68022758  0.32339188  0.00013854
   0.66638771  0.01680159 -0.00015829
  -0.02060525  0.01638867 -0.00125943
   0.36691973  0.00500580  0.00030723
   0.35231404  0.69595908  0.00047915
   0.11276013  0.22693419  0.94654414
   0.22308664  0.11352446  0.04572632
   0.11211412  0.55495405  0.95103888
   0.22228980  0.45076529  0.04861191
   0.10952773  0.88732016  0.95884611
   0.21879323  0.77951082  0.05018450
   0.44438439  0.22583547  0.95109912
   0.56008016  0.11495522  0.05711321
   0.44786119  0.55516514  0.95090922
   0.54925903  0.43951481  0.04758418
   0.45082885  0.89361361  0.94366002
   0.56467053  0.77775868  0.04965326
   0.77748537  0.22109462  0.94321752
   0.88328796  0.11056044  0.05632753
   0.77954995  0.55374118  0.94920200
   0.89111021  0.44514496  0.05449472
   0.76990854  0.88254564  0.94914022
   0.89012783  0.77445764  0.04666904
unknown system                          
           1
     8.379612    4.804610    0.000000
    -8.393665    4.828905    0.000000
     0.000000    0.000000   30.000000
   V    Mo   W    S 
   3   3   3  18
Direct configuration=    24
  -0.01542823  0.63303501 -0.00033809
   0.31157091  0.34080258 -0.00026267
   0.66982101  0.64635132  0.00086780
   0.97774391  0.31162148  0.00009482
   0.68119375  0.32394790  0.00018303
   0.66638243  0.01716534 -0.00014512
  -0.02102250  0.01614239 -0.00122983
   0.36681731  0.00397573  0.00044767
   0.35344131  0.69727982  0.00039201
   0.11192372  0.22643170  0.94635726
   0.22344896  0.11416682  0.04533073
   0.11281903  0.55512296  0.95126823
   0.22203414  0.45176716  0.04876721
   0.10939792  0.88710690  0.95890004
   0.21929554  0.77976643  0.05026753
   0.44376100  0.22619711  0.95165102
   0.56016506  0.11522508  0.05707188
   0.44807921  0.55548061  0.95083991
   0.54806186  0.43844558  0.04743535
   0.45136989  0.89452335  0.94350352