   27   27  100    1
  0.9710400E+02  0.1002848E-08  0.1002848E-08  0.3000000E-08  0.5000000E-15
  1.000000000000000E-004
  CAR 
 unknown system                          
    159     34    120
 
  0.0000000E+00  0.0000000E+00  0.0000000E+00  0.1562500E-01
    1      -17.824957   1.000000
    2      -16.762970   1.000000
    3      -16.638916   1.000000
    4      -16.618960   1.000000
    5      -16.582981   1.000000
    6      -16.485833   1.000000
    7      -16.419046   1.000000
    8      -16.236767   1.000000
    9      -16.132638   1.000000
   10      -16.118920   1.000000
   11      -16.097152   1.000000
   12      -15.949986   1.000000
   13      -15.879332   1.000000
   14      -15.775018   1.000000
   15      -15.606471   1.000000
   16      -15.406195   1.000000
   17      -15.386931   1.000000
   18      -15.183364   1.000000
   19       -9.348692   1.000000
   20       -9.026560   1.000000
   21       -8.971255   1.000000
   22       -8.917232   1.000000
   23       -8.746426   1.000000
   24       -8.665685   1.000000
   25       -8.601133   1.000000
   26       -8.589115   1.000000
   27       -8.530725   1.000000
   28       -8.502839   1.000000
   29       -8.465225   1.000000
   30       -8.440016   1.000000
   31       -8.337472   1.000000
   32       -8.126988   1.000000
   33       -8.075718   1.000000
   34       -7.997903   1.000000
   35       -7.805629   1.000000
   36       -7.758353   1.000000
   37       -7.693258   1.000000
   38       -7.586869   1.000000
   39       -7.491079   1.000000
   40       -7.408603   1.000000
   41       -7.356112   1.000000
   42       -7.218942   1.000000
   43       -7.084975   1.000000
   44       -6.877796   1.000000
   45       -6.811090   1.000000
   46       -6.789720   1.000000
   47       -6.773798   1.000000
   48       -6.643879   1.000000
   49       -6.535458   1.000000
   50       -6.497752   1.000000
   51       -6.416108   1.000000
   52       -6.353972   1.000000
   53       -6.309241   1.000000
   54       -6.249965   1.000000
   55       -6.216775   1.000000
   56       -6.162038   1.000000
   57       -6.055421   1.000000
   58       -5.977702   1.000000
   59       -5.844127   1.000000
   60       -5.529669   1.000000
   61       -5.408163   1.000000
   62       -5.317579   1.000000
   63       -5.262413   1.000000
   64       -5.218187   1.000000
   65       -5.092286   1.000000
   66       -4.996529   1.000000
   67       -4.972905   1.000000
   68       -4.837149   1.000000
   69       -4.830479   1.000000
   70       -4.696706   1.000000
   71       -4.658079   1.000000
   72       -4.629475   1.000000
   73       -4.541448   1.000000
   74       -4.371050   1.000000
   75       -4.078493   1.000000
   76       -3.991855   0.999998
   77       -3.840765   0.999807
   78       -3.572400   0.950721
   79       -3.500861   0.874109
   80       -3.452048   0.788396
   81       -3.206332   0.174482
   82       -2.960914   0.003770
   83       -2.835791   0.000188
   84       -2.703690   0.000004
   85       -2.559248   0.000000
   86       -2.412443   0.000000
   87       -2.383619   0.000000
   88       -2.316643   0.000000
   89       -2.225410   0.000000
   90       -2.168179   0.000000
   91       -1.697668   0.000000
   92       -1.520285   0.000000
   93       -1.455401   0.000000
   94       -1.267101   0.000000
   95       -1.139377   0.000000
   96       -1.047085   0.000000
   97       -0.962219   0.000000
   98       -0.911854   0.000000
   99       -0.705680   0.000000
  100       -0.671007   0.000000
  101       -0.578559   0.000000
  102       -0.527501   0.000000
  103       -0.503347   0.000000
  104       -0.343730   0.000000
  105       -0.229774   0.000000
  106       -0.168984   0.000000
  107       -0.105174   0.000000
  108       -0.029474   0.000000
  109        0.029606   0.000000
  110        0.221297   0.000000
  111        0.335152   0.000000
  112        0.640738   0.000000
  113        0.774901   0.000000
  114        0.857857   0.000000
  115        0.907902   0.000000
  116        0.957781   0.000000
  117        1.266108   0.000000
  118        1.646066   0.000000
  119        1.834942   0.000000
  120        2.155521   0.000000
 
  0.1250000E+00  0.2775558E-16  0.0000000E+00  0.3125000E-01
    1      -17.801299   1.000000
    2      -16.784187   1.000000
    3      -16.744947   1.000000
    4      -16.646744   1.000000
    5      -16.588003   1.000000
    6      -16.426361   1.000000
    7      -16.408574   1.000000
    8      -16.260851   1.000000
    9      -16.138896   1.000000
   10      -16.093839   1.000000
   11      -16.000382   1.000000
   12      -15.954679   1.000000
   13      -15.866323   1.000000
   14      -15.766003   1.000000
   15      -15.614138   1.000000
   16      -15.422188   1.000000
   17      -15.389704   1.000000
   18      -15.188572   1.000000
   19       -9.346602   1.000000
   20       -9.173115   1.000000
   21       -9.026027   1.000000
   22       -9.003423   1.000000
   23       -8.788446   1.000000
   24       -8.724265   1.000000
   25       -8.647595   1.000000
   26       -8.583354   1.000000
   27       -8.543221   1.000000
   28       -8.506085   1.000000
   29       -8.404553   1.000000
   30       -8.271892   1.000000
   31       -8.235131   1.000000
   32       -8.074736   1.000000
   33       -8.008880   1.000000
   34       -7.894956   1.000000
   35       -7.798553   1.000000
   36       -7.746322   1.000000
   37       -7.663766   1.000000
   38       -7.578179   1.000000
   39       -7.483435   1.000000
   40       -7.465775   1.000000
   41       -7.303331   1.000000
   42       -7.220062   1.000000
   43       -7.137315   1.000000
   44       -6.941582   1.000000
   45       -6.835568   1.000000
   46       -6.789376   1.000000
   47       -6.730181   1.000000
   48       -6.677751   1.000000
   49       -6.501734   1.000000
   50       -6.451587   1.000000
   51       -6.425596   1.000000
   52       -6.400695   1.000000
   53       -6.338679   1.000000
   54       -6.255369   1.000000
   55       -6.218981   1.000000
   56       -6.110457   1.000000
   57       -6.049027   1.000000
   58       -5.966407   1.000000
   59       -5.801015   1.000000
   60       -5.506436   1.000000
   61       -5.444410   1.000000
   62       -5.403351   1.000000
   63       -5.324939   1.000000
   64       -5.257193   1.000000
   65       -5.085449   1.000000
   66       -5.027059   1.000000
   67       -4.940798   1.000000
   68       -4.884672   1.000000
   69       -4.828237   1.000000
   70       -4.727133   1.000000
   71       -4.675512   1.000000
   72       -4.607550   1.000000
   73       -4.454761   1.000000
   74       -4.274657   1.000000
   75       -4.074541   1.000000
   76       -3.953827   0.999993
   77       -3.858929   0.999882
   78       -3.697700   0.994424
   79       -3.624895   0.978468
   80       -3.399079   0.665065
   81       -3.112042   0.054430
   82       -2.947619   0.002838
   83       -2.795292   0.000061
   84       -2.706413   0.000004
   85       -2.549582   0.000000
   86       -2.400891   0.000000
   87       -2.372200   0.000000
   88       -2.310853   0.000000
   89       -2.218729   0.000000
   90       -2.135013   0.000000
   91       -1.703093   0.000000
   92       -1.523043   0.000000
   93       -1.444975   0.000000
   94       -1.272815   0.000000
   95       -1.129818   0.000000
   96       -1.050102   0.000000
   97       -0.964177   0.000000
   98       -0.920595   0.000000
   99       -0.772082   0.000000
  100       -0.722348   0.000000
  101       -0.622380   0.000000
  102       -0.604575   0.000000
  103       -0.536670   0.000000
  104       -0.404290   0.000000
  105       -0.372690   0.000000
  106       -0.139005   0.000000
  107       -0.086957   0.000000
  108       -0.012310   0.000000
  109        0.097551   0.000000
  110        0.204022   0.000000
  111        0.408538   0.000000
  112        0.520363   0.000000
  113        0.750576   0.000000
  114        0.875943   0.000000
  115        0.933202   0.000000
  116        1.048837   0.000000
  117        1.275358   0.000000
  118        1.688855   0.000000
  119        1.875245   0.000000
  120        2.190495   0.000000
 
  0.2500000E+00  0.5551115E-16  0.0000000E+00  0.3125000E-01
    1      -17.732730   1.000000
    2      -16.976788   1.000000
    3      -16.746398   1.000000
    4      -16.701924   1.000000
    5      -16.622328   1.000000
    6      -16.422805   1.000000
    7      -16.366447   1.000000
    8      -16.223021   1.000000
    9      -16.127635   1.000000
   10      -16.029963   1.000000
   11      -15.975143   1.000000
   12      -15.902174   1.000000
   13      -15.804753   1.000000
   14      -15.751048   1.000000
   15      -15.628016   1.000000
   16      -15.452047   1.000000
   17      -15.403252   1.000000
   18      -15.202998   1.000000
   19       -9.514326   1.000000
   20       -9.242126   1.000000
   21       -9.168788   1.000000
   22       -9.102449   1.000000
   23       -8.896610   1.000000
   24       -8.812081   1.000000
   25       -8.603557   1.000000
   26       -8.566376   1.000000
   27       -8.509798   1.000000
   28       -8.410688   1.000000
   29       -8.319810   1.000000
   30       -8.201800   1.000000
   31       -8.138534   1.000000
   32       -8.064398   1.000000
   33       -7.885197   1.000000
   34       -7.859207   1.000000
   35       -7.736368   1.000000
   36       -7.646172   1.000000
   37       -7.604832   1.000000
   38       -7.525538   1.000000
   39       -7.453342   1.000000
   40       -7.392221   1.000000
   41       -7.311294   1.000000
   42       -7.216752   1.000000
   43       -7.118568   1.000000
   44       -7.008445   1.000000
   45       -6.867702   1.000000
   46       -6.778841   1.000000
   47       -6.725363   1.000000
   48       -6.689290   1.000000
   49       -6.557830   1.000000
   50       -6.456354   1.000000
   51       -6.419664   1.000000
   52       -6.381108   1.000000
   53       -6.326258   1.000000
   54       -6.226507   1.000000
   55       -6.171101   1.000000
   56       -6.102815   1.000000
   57       -5.992341   1.000000
   58       -5.931406   1.000000
   59       -5.753532   1.000000
   60       -5.676945   1.000000
   61       -5.609363   1.000000
   62       -5.470727   1.000000
   63       -5.420027   1.000000
   64       -5.329114   1.000000
   65       -5.189444   1.000000
   66       -5.010973   1.000000
   67       -4.917043   1.000000
   68       -4.890365   1.000000
   69       -4.790086   1.000000
   70       -4.738002   1.000000
   71       -4.629293   1.000000
   72       -4.528288   1.000000
   73       -4.323841   1.000000
   74       -4.274372   1.000000
   75       -4.117915   1.000000
   76       -3.955762   0.999994
   77       -3.911588   0.999974
   78       -3.829180   0.999737
   79       -3.627288   0.979325
   80       -3.378117   0.609531
   81       -3.029351   0.014333
   82       -2.892533   0.000801
   83       -2.748845   0.000015
   84       -2.668432   0.000001
   85       -2.533678   0.000000
   86       -2.400753   0.000000
   87       -2.353457   0.000000
   88       -2.263373   0.000000
   89       -2.195518   0.000000
   90       -2.039548   0.000000
   91       -1.708789   0.000000
   92       -1.523438   0.000000
   93       -1.434056   0.000000
   94       -1.293353   0.000000
   95       -1.124553   0.000000
   96       -1.095752   0.000000
   97       -0.989491   0.000000
   98       -0.948557   0.000000
   99       -0.921599   0.000000
  100       -0.818507   0.000000
  101       -0.756705   0.000000
  102       -0.672361   0.000000
  103       -0.638858   0.000000
  104       -0.524745   0.000000
  105       -0.434771   0.000000
  106       -0.180891   0.000000
  107       -0.130145   0.000000
  108       -0.073696   0.000000
  109        0.136153   0.000000
  110        0.262481   0.000000
  111        0.350839   0.000000
  112        0.537328   0.000000
  113        0.694330   0.000000
  114        0.901966   0.000000
  115        0.971093   0.000000
  116        1.223382   0.000000
  117        1.312212   0.000000
  118        1.808946   0.000000
  119        1.990627   0.000000
  120        2.294156   0.000000
 
  0.3750000E+00  0.0000000E+00  0.0000000E+00  0.3125000E-01
    1      -17.631071   1.000000
    2      -17.172083   1.000000
    3      -16.753759   1.000000
    4      -16.719461   1.000000
    5      -16.662800   1.000000
    6      -16.435263   1.000000
    7      -16.348204   1.000000
    8      -16.183693   1.000000
    9      -16.076126   1.000000
   10      -15.995280   1.000000
   11      -15.945487   1.000000
   12      -15.885916   1.000000
   13      -15.784909   1.000000
   14      -15.692554   1.000000
   15      -15.654303   1.000000
   16      -15.458892   1.000000
   17      -15.421281   1.000000
   18      -15.221517   1.000000
   19       -9.716207   1.000000
   20       -9.315207   1.000000
   21       -9.191950   1.000000
   22       -9.135444   1.000000
   23       -8.993471   1.000000
   24       -8.851022   1.000000
   25       -8.558774   1.000000
   26       -8.504687   1.000000
   27       -8.440815   1.000000
   28       -8.322587   1.000000
   29       -8.274825   1.000000
   30       -8.228229   1.000000
   31       -8.141430   1.000000
   32       -8.053411   1.000000
   33       -7.937746   1.000000
   34       -7.824521   1.000000
   35       -7.770353   1.000000
   36       -7.648841   1.000000
   37       -7.579364   1.000000
   38       -7.470622   1.000000
   39       -7.368141   1.000000
   40       -7.281664   1.000000
   41       -7.202336   1.000000
   42       -7.144951   1.000000
   43       -7.054003   1.000000
   44       -6.933515   1.000000
   45       -6.873174   1.000000
   46       -6.813924   1.000000
   47       -6.726029   1.000000
   48       -6.655873   1.000000
   49       -6.535523   1.000000
   50       -6.484647   1.000000
   51       -6.423312   1.000000
   52       -6.365205   1.000000
   53       -6.300480   1.000000
   54       -6.187548   1.000000
   55       -6.099997   1.000000
   56       -6.052200   1.000000
   57       -6.010801   1.000000
   58       -5.946820   1.000000
   59       -5.862787   1.000000
   60       -5.783786   1.000000
   61       -5.741524   1.000000
   62       -5.616880   1.000000
   63       -5.536801   1.000000
   64       -5.350876   1.000000
   65       -5.194614   1.000000
   66       -5.008910   1.000000
   67       -4.886479   1.000000
   68       -4.855239   1.000000
   69       -4.798987   1.000000
   70       -4.740043   1.000000
   71       -4.622201   1.000000
   72       -4.568309   1.000000
   73       -4.416191   1.000000
   74       -4.180977   1.000000
   75       -4.134651   1.000000
   76       -4.040062   1.000000
   77       -3.864406   0.999899
   78       -3.801567   0.999467
   79       -3.542915   0.925546
   80       -3.397754   0.661643
   81       -2.999140   0.008160
   82       -2.836661   0.000192
   83       -2.730551   0.000009
   84       -2.627501   0.000000
   85       -2.495459   0.000000
   86       -2.423460   0.000000
   87       -2.324101   0.000000
   88       -2.201578   0.000000
   89       -2.164290   0.000000
   90       -1.914711   0.000000
   91       -1.707794   0.000000
   92       -1.519294   0.000000
   93       -1.439751   0.000000
   94       -1.353921   0.000000
   95       -1.231355   0.000000
   96       -1.123073   0.000000
   97       -1.088567   0.000000
   98       -0.995203   0.000000
   99       -0.930712   0.000000
  100       -0.885763   0.000000
  101       -0.855826   0.000000
  102       -0.746447   0.000000
  103       -0.687252   0.000000
  104       -0.619480   0.000000
  105       -0.417587   0.000000
  106       -0.337389   0.000000
  107       -0.181599   0.000000
  108       -0.103032   0.000000
  109        0.091150   0.000000
  110        0.211428   0.000000
  111        0.367452   0.000000
  112        0.595298   0.000000
  113        0.661081   0.000000
  114        0.944775   0.000000
  115        1.013297   0.000000
  116        1.345470   0.000000
  117        1.372566   0.000000
  118        1.989558   0.000000
  119        2.169012   0.000000
  120        2.460479   0.000000
 
  0.5000000E+00  0.1110223E-15  0.0000000E+00  0.1562500E-01
    1      -17.559219   1.000000
    2      -17.277118   1.000000
    3      -16.764949   1.000000
    4      -16.710206   1.000000
    5      -16.683963   1.000000
    6      -16.442109   1.000000
    7      -16.341368   1.000000
    8      -16.179924   1.000000
    9      -16.017864   1.000000
   10      -15.998524   1.000000
   11      -15.947158   1.000000
   12      -15.875605   1.000000
   13      -15.752486   1.000000
   14      -15.725915   1.000000
   15      -15.643417   1.000000
   16      -15.457427   1.000000
   17      -15.422647   1.000000
   18      -15.231403   1.000000
   19       -9.790903   1.000000
   20       -9.355024   1.000000
   21       -9.214393   1.000000
   22       -9.115954   1.000000
   23       -9.019625   1.000000
   24       -8.857364   1.000000
   25       -8.531384   1.000000
   26       -8.501041   1.000000
   27       -8.412691   1.000000
   28       -8.322751   1.000000
   29       -8.258865   1.000000
   30       -8.158893   1.000000
   31       -8.145645   1.000000
   32       -8.044613   1.000000
   33       -7.980259   1.000000
   34       -7.882744   1.000000
   35       -7.801975   1.000000
   36       -7.704559   1.000000
   37       -7.544828   1.000000
   38       -7.437522   1.000000
   39       -7.338636   1.000000
   40       -7.272448   1.000000
   41       -7.132717   1.000000
   42       -7.064725   1.000000
   43       -7.001756   1.000000
   44       -6.929769   1.000000
   45       -6.862200   1.000000
   46       -6.742486   1.000000
   47       -6.648423   1.000000
   48       -6.641418   1.000000
   49       -6.571428   1.000000
   50       -6.497293   1.000000
   51       -6.414420   1.000000
   52       -6.387968   1.000000
   53       -6.331601   1.000000
   54       -6.222411   1.000000
   55       -6.169360   1.000000
   56       -6.042890   1.000000
   57       -5.986819   1.000000
   58       -5.918793   1.000000
   59       -5.866954   1.000000
   60       -5.837644   1.000000
   61       -5.740646   1.000000
   62       -5.594588   1.000000
   63       -5.542706   1.000000
   64       -5.361342   1.000000
   65       -5.307750   1.000000
   66       -5.093220   1.000000
   67       -4.891298   1.000000
   68       -4.861490   1.000000
   69       -4.831364   1.000000
   70       -4.716471   1.000000
   71       -4.608639   1.000000
   72       -4.560416   1.000000
   73       -4.396778   1.000000
   74       -4.221744   1.000000
   75       -4.137150   1.000000
   76       -4.019798   0.999999
   77       -3.831372   0.999752
   78       -3.774338   0.998964
   79       -3.509011   0.885640
   80       -3.413776   0.702028
   81       -2.989732   0.006790
   82       -2.819167   0.000119
   83       -2.723154   0.000007
   84       -2.617960   0.000000
   85       -2.479462   0.000000
   86       -2.421322   0.000000
   87       -2.314147   0.000000
   88       -2.171224   0.000000
   89       -2.149820   0.000000
   90       -1.846831   0.000000
   91       -1.711563   0.000000
   92       -1.514897   0.000000
   93       -1.454387   0.000000
   94       -1.399341   0.000000
   95       -1.264502   0.000000
   96       -1.189195   0.000000
   97       -1.103777   0.000000
   98       -0.998217   0.000000
   99       -0.971809   0.000000
  100       -0.891954   0.000000
  101       -0.864487   0.000000
  102       -0.772805   0.000000
  103       -0.691069   0.000000
  104       -0.657091   0.000000
  105       -0.418839   0.000000
  106       -0.399451   0.000000
  107       -0.210306   0.000000
  108       -0.116716   0.000000
  109        0.048414   0.000000
  110        0.204757   0.000000
  111        0.373071   0.000000
  112        0.615653   0.000000
  113        0.653382   0.000000
  114        0.960049   0.000000
  115        1.032141   0.000000
  116        1.376905   0.000000
  117        1.413817   0.000000
  118        2.190270   0.000000
  119        2.252737   0.000000
  120        2.391974   0.000000
 
  0.0000000E+00  0.1250000E+00  0.0000000E+00  0.3125000E-01
    1      -17.800939   1.000000
    2      -16.793854   1.000000
    3      -16.758037   1.000000
    4      -16.616128   1.000000
    5      -16.557036   1.000000
    6      -16.500088   1.000000
    7      -16.376545   1.000000
    8      -16.254175   1.000000
    9      -16.138257   1.000000
   10      -16.079732   1.000000
   11      -16.032645   1.000000
   12      -15.941467   1.000000
   13      -15.865083   1.000000
   14      -15.766458   1.000000
   15      -15.616684   1.000000
   16      -15.413783   1.000000
   17      -15.398476   1.000000
   18      -15.186400   1.000000
   19       -9.340438   1.000000
   20       -9.152535   1.000000
   21       -9.066638   1.000000
   22       -9.013587   1.000000
   23       -8.786356   1.000000
   24       -8.714125   1.000000
   25       -8.643670   1.000000
   26       -8.558449   1.000000
   27       -8.536038   1.000000
   28       -8.501736   1.000000
   29       -8.402137   1.000000
   30       -8.285802   1.000000
   31       -8.240484   1.000000
   32       -8.073520   1.000000
   33       -8.026514   1.000000
   34       -7.913505   1.000000
   35       -7.784772   1.000000
   36       -7.749094   1.000000
   37       -7.620616   1.000000
   38       -7.599925   1.000000
   39       -7.514925   1.000000
   40       -7.447568   1.000000
   41       -7.332599   1.000000
   42       -7.174367   1.000000
   43       -7.136604   1.000000
   44       -6.955348   1.000000
   45       -6.855665   1.000000
   46       -6.781051   1.000000
   47       -6.720159   1.000000
   48       -6.658660   1.000000
   49       -6.517045   1.000000
   50       -6.461323   1.000000
   51       -6.428885   1.000000
   52       -6.397266   1.000000
   53       -6.301009   1.000000
   54       -6.254682   1.000000
   55       -6.244630   1.000000
   56       -6.127394   1.000000
   57       -6.044074   1.000000
   58       -5.959462   1.000000
   59       -5.801573   1.000000
   60       -5.507907   1.000000
   61       -5.435012   1.000000
   62       -5.420694   1.000000
   63       -5.321723   1.000000
   64       -5.235707   1.000000
   65       -5.091146   1.000000
   66       -5.037967   1.000000
   67       -4.959528   1.000000
   68       -4.910127   1.000000
   69       -4.810817   1.000000
   70       -4.729035   1.000000
   71       -4.644912   1.000000
   72       -4.590391   1.000000
   73       -4.472992   1.000000
   74       -4.277558   1.000000
   75       -4.070820   1.000000
   76       -3.945958   0.999991
   77       -3.876816   0.999929
   78       -3.688384   0.993282
   79       -3.584918   0.959106
   80       -3.438292   0.759159
   81       -3.114552   0.056416
   82       -2.938967   0.002348
   83       -2.808444   0.000088
   84       -2.684184   0.000002
   85       -2.555625   0.000000
   86       -2.413943   0.000000
   87       -2.361365   0.000000
   88       -2.305764   0.000000
   89       -2.221246   0.000000
   90       -2.141473   0.000000
   91       -1.697520   0.000000
   92       -1.527344   0.000000
   93       -1.450925   0.000000
   94       -1.272745   0.000000
   95       -1.127233   0.000000
   96       -1.041098   0.000000
   97       -0.990218   0.000000
   98       -0.909695   0.000000
   99       -0.781377   0.000000
  100       -0.726658   0.000000
  101       -0.637099   0.000000
  102       -0.571841   0.000000
  103       -0.529740   0.000000
  104       -0.400638   0.000000
  105       -0.308267   0.000000
  106       -0.187288   0.000000
  107       -0.125440   0.000000
  108       -0.026054   0.000000
  109        0.143836   0.000000
  110        0.176360   0.000000
  111        0.395044   0.000000
  112        0.547092   0.000000
  113        0.712157   0.000000
  114        0.899290   0.000000
  115        0.947291   0.000000
  116        1.004243   0.000000
  117        1.314390   0.000000
  118        1.688933   0.000000
  119        1.875147   0.000000
  120        2.190382   0.000000
 
  0.1250000E+00  0.1250000E+00  0.0000000E+00  0.3125000E-01
    1      -17.755316   1.000000
    2      -16.895303   1.000000
    3      -16.795528   1.000000
    4      -16.734833   1.000000
    5      -16.500649   1.000000
    6      -16.438944   1.000000
    7      -16.381638   1.000000
    8      -16.265853   1.000000
    9      -16.113052   1.000000
   10      -16.037742   1.000000
   11      -15.972362   1.000000
   12      -15.927646   1.000000
   13      -15.831960   1.000000
   14      -15.762761   1.000000
   15      -15.630741   1.000000
   16      -15.440090   1.000000
   17      -15.402501   1.000000
   18      -15.191103   1.000000
   19       -9.389559   1.000000
   20       -9.287409   1.000000
   21       -9.191758   1.000000
   22       -9.116619   1.000000
   23       -8.826831   1.000000
   24       -8.698340   1.000000
   25       -8.619625   1.000000
   26       -8.566861   1.000000
   27       -8.513145   1.000000
   28       -8.452749   1.000000
   29       -8.315669   1.000000
   30       -8.257405   1.000000
   31       -8.124801   1.000000
   32       -8.044854   1.000000
   33       -8.037336   1.000000
   34       -7.833402   1.000000
   35       -7.759006   1.000000
   36       -7.702058   1.000000
   37       -7.581796   1.000000
   38       -7.562865   1.000000
   39       -7.470705   1.000000
   40       -7.363276   1.000000
   41       -7.334821   1.000000
   42       -7.233206   1.000000
   43       -7.106962   1.000000
   44       -6.991127   1.000000
   45       -6.856273   1.000000
   46       -6.817767   1.000000
   47       -6.692540   1.000000
   48       -6.666746   1.000000
   49       -6.531835   1.000000
   50       -6.496694   1.000000
   51       -6.397646   1.000000
   52       -6.365790   1.000000
   53       -6.323812   1.000000
   54       -6.262837   1.000000
   55       -6.231474   1.000000
   56       -6.092896   1.000000
   57       -6.048617   1.000000
   58       -5.927531   1.000000
   59       -5.788492   1.000000
   60       -5.591010   1.000000
   61       -5.576713   1.000000
   62       -5.429704   1.000000
   63       -5.347874   1.000000
   64       -5.304552   1.000000
   65       -5.109642   1.000000
   66       -5.053372   1.000000
   67       -4.996182   1.000000
   68       -4.931561   1.000000
   69       -4.799594   1.000000
   70       -4.687411   1.000000
   71       -4.632734   1.000000
   72       -4.556315   1.000000
   73       -4.381668   1.000000
   74       -4.181345   1.000000
   75       -4.116322   1.000000
   76       -4.013433   0.999999
   77       -3.869644   0.999913
   78       -3.763324   0.998659
   79       -3.635290   0.981985
   80       -3.446010   0.775827
   81       -3.024936   0.013234
   82       -2.881893   0.000617
   83       -2.774461   0.000033
   84       -2.652218   0.000001
   85       -2.535561   0.000000
   86       -2.393046   0.000000
   87       -2.353871   0.000000
   88       -2.293902   0.000000
   89       -2.200688   0.000000
   90       -2.097129   0.000000
   91       -1.694852   0.000000
   92       -1.534963   0.000000
   93       -1.427232   0.000000
   94       -1.298186   0.000000
   95       -1.117301   0.000000
   96       -1.057846   0.000000
   97       -1.004186   0.000000
   98       -0.938595   0.000000
   99       -0.894688   0.000000
  100       -0.818939   0.000000
  101       -0.736225   0.000000
  102       -0.647626   0.000000
  103       -0.593698   0.000000
  104       -0.454136   0.000000
  105       -0.395495   0.000000
  106       -0.179917   0.000000
  107       -0.130172   0.000000
  108       -0.043069   0.000000
  109        0.121990   0.000000
  110        0.194979   0.000000
  111        0.395355   0.000000
  112        0.523032   0.000000
  113        0.676457   0.000000
  114        0.919519   0.000000
  115        0.955028   0.000000
  116        1.153841   0.000000
  117        1.331304   0.000000
  118        1.769032   0.000000
  119        1.954027   0.000000
  120        2.259332   0.000000
 
  0.2500000E+00  0.1250000E+00  0.0000000E+00  0.3125000E-01
    1      -17.669151   1.000000
    2      -17.064451   1.000000
    3      -16.889257   1.000000
    4      -16.733554   1.000000
    5      -16.502971   1.000000
    6      -16.415706   1.000000
    7      -16.353681   1.000000
    8      -16.230092   1.000000
    9      -16.101668   1.000000
   10      -16.021215   1.000000
   11      -15.935211   1.000000
   12      -15.886702   1.000000
   13      -15.781681   1.000000
   14      -15.731416   1.000000
   15      -15.658117   1.000000
   16      -15.456749   1.000000
   17      -15.415771   1.000000
   18      -15.203744   1.000000
   19       -9.599966   1.000000
   20       -9.390567   1.000000
   21       -9.286273   1.000000
   22       -9.140222   1.000000
   23       -8.861651   1.000000
   24       -8.696885   1.000000
   25       -8.559797   1.000000
   26       -8.498454   1.000000
   27       -8.435310   1.000000
   28       -8.410428   1.000000
   29       -8.279686   1.000000
   30       -8.217419   1.000000
   31       -8.169974   1.000000
   32       -8.066463   1.000000
   33       -7.960114   1.000000
   34       -7.887793   1.000000
   35       -7.809957   1.000000
   36       -7.659242   1.000000
   37       -7.568332   1.000000
   38       -7.450195   1.000000
   39       -7.408174   1.000000
   40       -7.272728   1.000000
   41       -7.230971   1.000000
   42       -7.173443   1.000000
   43       -7.046104   1.000000
   44       -6.961028   1.000000
   45       -6.869864   1.000000
   46       -6.804605   1.000000
   47       -6.724522   1.000000