       N       E                     dE             d eps       ncg     rms          rms(c)
DAV:   1     0.112467145287E+04    0.11247E+04   -0.35859E+04  8160   0.577E+02
DAV:   2    -0.216462146906E+00   -0.11249E+04   -0.10827E+04 10920   0.173E+02
DAV:   3    -0.199369961942E+03   -0.19915E+03   -0.19082E+03 10920   0.822E+01
DAV:   4    -0.208912380762E+03   -0.95424E+01   -0.92070E+01 12080   0.262E+01
DAV:   5    -0.209246109979E+03   -0.33373E+00   -0.33270E+00 11480   0.366E+00    0.274E+01
DAV:   6    -0.236612189350E+03   -0.27366E+02   -0.10844E+02 12760   0.603E+01    0.592E+01
DAV:   7    -0.196785611578E+03    0.39827E+02   -0.17635E+02 13320   0.152E+02    0.205E+01
DAV:   8    -0.190232462517E+03    0.65531E+01   -0.21449E+01 11760   0.135E+01    0.139E+01
DAV:   9    -0.188313747151E+03    0.19187E+01   -0.36032E+00 11920   0.637E+00    0.941E+00
DAV:  10    -0.187164013454E+03    0.11497E+01   -0.18170E+00 13360   0.749E+00    0.373E+00
DAV:  11    -0.187003017576E+03    0.16100E+00   -0.73116E-01 12640   0.269E+00    0.226E+00
DAV:  12    -0.187100226284E+03   -0.97209E-01   -0.54474E-01 13320   0.384E+00    0.470E+00
DAV:  13    -0.186940473369E+03    0.15975E+00   -0.53687E-01 13240   0.388E+00    0.199E+00
DAV:  14    -0.186900777781E+03    0.39696E-01   -0.97156E-02 13240   0.161E+00    0.830E-01
DAV:  15    -0.186898171782E+03    0.26060E-02   -0.41955E-02 12920   0.110E+00    0.993E-01
DAV:  16    -0.186891837400E+03    0.63344E-02   -0.18487E-02 12760   0.760E-01    0.518E-01
DAV:  17    -0.186889378505E+03    0.24589E-02   -0.67551E-03 13040   0.318E-01    0.235E-01
DAV:  18    -0.186888409877E+03    0.96863E-03   -0.38129E-03 12640   0.280E-01    0.208E-01
DAV:  19    -0.186888055818E+03    0.35406E-03   -0.10740E-03 11600   0.163E-01    0.480E-02
DAV:  20    -0.186888807068E+03   -0.75125E-03   -0.72526E-04  9160   0.593E-02    0.529E-02
DAV:  21    -0.186889363448E+03   -0.55638E-03   -0.23649E-04  8320   0.455E-02    0.288E-02
DAV:  22    -0.186890526541E+03   -0.11631E-02   -0.17799E-04  7520   0.394E-02    0.338E-02
DAV:  23    -0.186891750173E+03   -0.12236E-02   -0.13013E-04  7480   0.409E-02    0.125E-02
DAV:  24    -0.186892343606E+03   -0.59343E-03   -0.26223E-05  6760   0.132E-02    0.645E-03
DAV:  25    -0.186892729296E+03   -0.38569E-03   -0.15113E-05  5520   0.976E-03    0.419E-03
DAV:  26    -0.186892969703E+03   -0.24041E-03   -0.91130E-06  6800   0.694E-03    0.157E-03
DAV:  27    -0.186893069382E+03   -0.99679E-04   -0.35248E-06  7280   0.414E-03
   1 F= -.18689307E+03 E0= -.18672237E+03  d E =-.186893E+03
       N       E                     dE             d eps       ncg     rms          rms(c)
DAV:   1    -0.187533455410E+03   -0.64049E+00   -0.27207E+02  8160   0.351E+01    0.463E+00
DAV:   2    -0.189427948905E+03   -0.18945E+01   -0.20152E+01 12280   0.153E+01    0.879E+00
DAV:   3    -0.189395187050E+03    0.32762E-01   -0.40305E+00 12440   0.120E+01    0.665E+00
DAV:   4    -0.188788018249E+03    0.60717E+00   -0.61025E-01 12480   0.466E+00    0.174E+00
DAV:   5    -0.188895497025E+03   -0.10748E+00   -0.46318E-01 12080   0.334E+00    0.529E+00
DAV:   6    -0.188752749854E+03    0.14275E+00   -0.73624E-01 12800   0.427E+00    0.200E+00
DAV:   7    -0.188722636024E+03    0.30114E-01   -0.11716E-01 11840   0.145E+00    0.119E+00
DAV:   8    -0.188711799288E+03    0.10837E-01   -0.57815E-02 13240   0.131E+00    0.116E+00
DAV:   9    -0.188701945903E+03    0.98534E-02   -0.19242E-02 11880   0.778E-01    0.326E-01
DAV:  10    -0.188701311447E+03    0.63446E-03   -0.35414E-03 11720   0.207E-01    0.213E-01
DAV:  11    -0.188700734217E+03    0.57723E-03   -0.24346E-03 12400   0.180E-01    0.107E-01
DAV:  12    -0.188700853069E+03   -0.11885E-03   -0.90548E-04 11360   0.953E-02    0.853E-02
DAV:  13    -0.188700785298E+03    0.67771E-04   -0.23745E-04  7960   0.558E-02
   2 F= -.18870079E+03 E0= -.18856175E+03  d E =-.180772E+01
       N       E                     dE             d eps       ncg     rms          rms(c)
DAV:   1    -0.190619749371E+03   -0.19189E+01   -0.31250E+01  8960   0.142E+01    0.442E+00
DAV:   2    -0.190566064876E+03    0.53684E-01   -0.27483E+00 11200   0.942E+00    0.719E+00
DAV:   3    -0.190105935096E+03    0.46013E+00   -0.13295E+00 12360   0.857E+00    0.420E+00
DAV:   4    -0.189897280864E+03    0.20865E+00   -0.72167E-01 12760   0.424E+00    0.251E+00
DAV:   5    -0.189876442704E+03    0.20838E-01   -0.38040E-01 12280   0.315E+00    0.283E+00
DAV:   6    -0.189799595535E+03    0.76847E-01   -0.15020E-01 12640   0.248E+00    0.711E-01
DAV:   7    -0.189793163019E+03    0.64325E-02   -0.13820E-02 11520   0.518E-01    0.207E-01
DAV:   8    -0.189793592107E+03   -0.42909E-03   -0.35018E-03 12040   0.275E-01    0.283E-01
DAV:   9    -0.189793207260E+03    0.38485E-03   -0.18038E-03 10720   0.280E-01    0.159E-01
DAV:  10    -0.189793400088E+03   -0.19283E-03   -0.77981E-04  9640   0.133E-01    0.107E-01
DAV:  11    -0.189793199547E+03    0.20054E-03   -0.35360E-04  8760   0.686E-02    0.217E-02
DAV:  12    -0.189793216711E+03   -0.17164E-04   -0.59168E-05  7120   0.249E-02
   3 F= -.18979322E+03 E0= -.18967478E+03  d E =-.109243E+01
       N       E                     dE             d eps       ncg     rms          rms(c)
DAV:   1    -0.191372487919E+03   -0.15793E+01   -0.78062E+01  8160   0.201E+01    0.460E+00
DAV:   2    -0.191206268280E+03    0.16622E+00   -0.54114E+00 13200   0.783E+00    0.472E+00
DAV:   3    -0.191316008698E+03   -0.10974E+00   -0.16077E+00 12200   0.911E+00    0.653E+00
DAV:   4    -0.190941964968E+03    0.37404E+00   -0.13737E+00 12440   0.753E+00    0.301E+00
DAV:   5    -0.190897830007E+03    0.44135E-01   -0.45590E-01 12560   0.405E+00    0.295E+00
DAV:   6    -0.190806363826E+03    0.91466E-01   -0.21432E-01 12280   0.321E+00    0.123E+00
DAV:   7    -0.190792324472E+03    0.14039E-01   -0.47019E-02 12720   0.112E+00    0.438E-01
DAV:   8    -0.190791604115E+03    0.72036E-03   -0.10603E-02 11440   0.594E-01    0.506E-01
DAV:   9    -0.190789424779E+03    0.21793E-02   -0.43100E-03 11320   0.449E-01    0.149E-01
DAV:  10    -0.190789691438E+03   -0.26666E-03   -0.12514E-03 11400   0.134E-01    0.921E-02
DAV:  11    -0.190789570297E+03    0.12114E-03   -0.48204E-04  9760   0.803E-02    0.450E-02
DAV:  12    -0.190789567360E+03    0.29366E-05   -0.10349E-04  6960   0.395E-02
   4 F= -.19078957E+03 E0= -.19068462E+03  d E =-.996351E+00
       N       E                     dE             d eps       ncg     rms          rms(c)
DAV:   1    -0.192094993040E+03   -0.13054E+01   -0.16084E+02  8160   0.283E+01    0.557E+00
DAV:   2    -0.191862252033E+03    0.23274E+00   -0.92174E+00 11480   0.806E+00    0.388E+00
DAV:   3    -0.192062131206E+03   -0.19988E+00   -0.20597E+00 11200   0.869E+00    0.805E+00
DAV:   4    -0.191747426343E+03    0.31470E+00   -0.28793E+00 11480   0.107E+01    0.445E+00
DAV:   5    -0.191572573554E+03    0.17485E+00   -0.74170E-01 12360   0.548E+00    0.321E+00
DAV:   6    -0.191447383234E+03    0.12519E+00   -0.27403E-01 12280   0.376E+00    0.126E+00
DAV:   7    -0.191433136505E+03    0.14247E-01   -0.61888E-02 12280   0.131E+00    0.511E-01
DAV:   8    -0.191428981348E+03    0.41552E-02   -0.10441E-02 10720   0.482E-01    0.239E-01
DAV:   9    -0.191430387783E+03   -0.14064E-02   -0.51575E-03 12720   0.490E-01    0.424E-01
DAV:  10    -0.191428892182E+03    0.14956E-02   -0.37385E-03 11200   0.380E-01    0.641E-02
DAV:  11    -0.191428961292E+03   -0.69110E-04   -0.37845E-04  9600   0.723E-02
   5 F= -.19142896E+03 E0= -.19132354E+03  d E =-.639394E+00
       N       E                     dE             d eps       ncg     rms          rms(c)
DAV:   1    -0.191477970102E+03   -0.49078E-01   -0.40540E+00  8160   0.426E+00    0.591E-01
DAV:   2    -0.191530821086E+03   -0.52851E-01   -0.24774E-01 13280   0.268E+00    0.199E+00
DAV:   3    -0.191489042712E+03    0.41778E-01   -0.88717E-02 12440   0.209E+00    0.383E-01
DAV:   4    -0.191490624494E+03   -0.15818E-02   -0.12331E-02 11400   0.698E-01    0.588E-01
DAV:   5    -0.191487176085E+03    0.34484E-02   -0.74184E-03 10280   0.570E-01    0.176E-01
DAV:   6    -0.191487159086E+03    0.16999E-04   -0.17295E-03 10440   0.171E-01    0.126E-01
DAV:   7    -0.191486864494E+03    0.29459E-03   -0.92149E-04 10200   0.126E-01    0.717E-02
DAV:   8    -0.191486862744E+03    0.17492E-05   -0.29208E-04  7840   0.111E-01
   6 F= -.19148686E+03 E0= -.19137910E+03  d E =-.579015E-01
       N       E                     dE             d eps       ncg     rms          rms(c)
DAV:   1    -0.191539968883E+03   -0.53104E-01   -0.47651E+00  8160   0.462E+00    0.579E-01
DAV:   2    -0.191575028631E+03   -0.35060E-01   -0.17873E-01 13600   0.204E+00    0.161E+00
DAV:   3    -0.191546890558E+03    0.28138E-01   -0.68934E-02 12440   0.187E+00    0.436E-01
DAV:   4    -0.191546555782E+03    0.33478E-03   -0.90461E-03 11080   0.549E-01    0.451E-01
DAV:   5    -0.191545107307E+03    0.14485E-02   -0.71850E-03 10680   0.554E-01    0.286E-01
DAV:   6    -0.191544473261E+03    0.63405E-03   -0.24949E-03 10000   0.269E-01    0.115E-01
DAV:   7    -0.191544305219E+03    0.16804E-03   -0.78271E-04 10440   0.116E-01    0.631E-02
DAV:   8    -0.191544317897E+03   -0.12678E-04   -0.29991E-04  8320   0.114E-01
   7 F= -.19154432E+03 E0= -.19143467E+03  d E =-.574552E-01
       N       E                     dE             d eps       ncg     rms          rms(c)
DAV:   1    -0.191550130207E+03   -0.58250E-02   -0.66037E-02  8160   0.566E-01    0.979E-02
DAV:   2    -0.191550517799E+03   -0.38759E-03   -0.35436E-03 11520   0.264E-01    0.195E-01
DAV:   3    -0.191550152800E+03    0.36500E-03   -0.11694E-03 10240   0.246E-01    0.801E-02
DAV:   4    -0.191550123957E+03    0.28843E-04   -0.27888E-04  6200   0.106E-01
   8 F= -.19155012E+03 E0= -.19144051E+03  d E =-.580606E-02
       N       E                     dE             d eps       ncg     rms          rms(c)
DAV:   1    -0.191529779363E+03    0.20373E-01   -0.66463E+00  8160   0.575E+00    0.119E+00
DAV:   2    -0.191560835578E+03   -0.31056E-01   -0.43811E-01 12720   0.306E+00    0.209E+00
DAV:   3    -0.191518533025E+03    0.42303E-01   -0.15389E-01 12280   0.284E+00    0.107E+00
DAV:   4    -0.191515460484E+03    0.30725E-02   -0.72151E-02 11560   0.159E+00    0.122E+00
DAV:   5    -0.191506708566E+03    0.87519E-02   -0.62795E-02 10760   0.154E+00    0.767E-01
DAV:   6    -0.191499121354E+03    0.75872E-02   -0.17172E-02 10280   0.722E-01    0.144E-01
DAV:   7    -0.191499212792E+03   -0.91438E-04   -0.31968E-03 11920   0.249E-01    0.168E-01
DAV:   8    -0.191499120522E+03    0.92269E-04   -0.15477E-03 10520   0.262E-01    0.158E-01
DAV:   9    -0.191498861300E+03    0.25922E-03   -0.44653E-04  8520   0.140E-01    0.302E-02
DAV:  10    -0.191498897935E+03   -0.36635E-04   -0.80544E-05  6200   0.328E-02
   9 F= -.19149890E+03 E0= -.19139035E+03  d E =0.512260E-01
       N       E                     dE             d eps       ncg     rms          rms(c)
DAV:   1    -0.191474225147E+03    0.24636E-01   -0.95331E-01  8160   0.209E+00    0.315E-01
DAV:   2    -0.191479643519E+03   -0.54184E-02   -0.43813E-02 13560   0.975E-01    0.666E-01
DAV:   3    -0.191474930564E+03    0.47130E-02   -0.13482E-02 12360   0.834E-01    0.245E-01
DAV:   4    -0.191474772233E+03    0.15833E-03   -0.34002E-03 11200   0.346E-01    0.270E-01
DAV:   5    -0.191474304077E+03    0.46816E-03   -0.31213E-03  9920   0.363E-01    0.188E-01
DAV:   6    -0.191473960496E+03    0.34358E-03   -0.12229E-03  9680   0.193E-01    0.632E-02
DAV:   7    -0.191473997992E+03   -0.37496E-04   -0.38857E-04  7600   0.116E-01
  10 F= -.19147400E+03 E0= -.19136611E+03  d E =0.248999E-01
       N       E                     dE             d eps       ncg     rms          rms(c)
DAV:   1    -0.191713010975E+03   -0.23905E+00   -0.39662E+01  8160   0.138E+01    0.224E+00
DAV:   2    -0.192042487855E+03   -0.32948E+00   -0.18059E+00 13600   0.728E+00    0.603E+00
DAV:   3    -0.191703132619E+03    0.33936E+00   -0.93941E-01 12240   0.687E+00    0.151E+00
DAV:   4    -0.191715728853E+03   -0.12596E-01   -0.18253E-01 12320   0.270E+00    0.239E+00
DAV:   5    -0.191669236747E+03    0.46492E-01   -0.17787E-01 11320   0.279E+00    0.127E+00
DAV:   6    -0.191652255508E+03    0.16981E-01   -0.59483E-02 11680   0.128E+00    0.507E-01
DAV:   7    -0.191654680119E+03   -0.24246E-02   -0.24731E-02 11960   0.984E-01    0.768E-01
DAV:   8    -0.191649159906E+03    0.55202E-02   -0.13439E-02 11600   0.763E-01    0.185E-01
DAV:   9    -0.191648613646E+03    0.54626E-03   -0.12244E-03 10200   0.160E-01    0.678E-02
DAV:  10    -0.191648607325E+03    0.63208E-05   -0.42955E-04  9680   0.651E-02
  11 F= -.19164861E+03 E0= -.19154039E+03  d E =-.174609E+00
       N       E                     dE             d eps       ncg     rms          rms(c)
DAV:   1    -0.191612133986E+03    0.36480E-01   -0.58353E+00  8160   0.527E+00    0.932E-01
DAV:   2    -0.191648119637E+03   -0.35986E-01   -0.28228E-01 12720   0.276E+00    0.197E+00
DAV:   3    -0.191604111591E+03    0.44008E-01   -0.10225E-01 12240   0.237E+00    0.665E-01
DAV:   4    -0.191603598422E+03    0.51317E-03   -0.33819E-02 11400   0.104E+00    0.805E-01
DAV:   5    -0.191600650740E+03    0.29477E-02   -0.28875E-02 12240   0.115E+00    0.683E-01
DAV:   6    -0.191595512465E+03    0.51383E-02   -0.12888E-02 11080   0.674E-01    0.167E-01
DAV:   7    -0.191595776403E+03   -0.26394E-03   -0.32086E-03 12680   0.311E-01    0.240E-01
DAV:   8    -0.191595292253E+03    0.48415E-03   -0.16800E-03 10200   0.268E-01    0.904E-02
DAV:   9    -0.191595212764E+03    0.79489E-04   -0.19283E-04  5920   0.800E-02
  12 F= -.19159521E+03 E0= -.19148476E+03  d E =0.533946E-01
       N       E                     dE             d eps       ncg     rms          rms(c)
DAV:   1    -0.191682604535E+03   -0.87312E-01   -0.89952E+00  8160   0.640E+00    0.828E-01
DAV:   2    -0.191736355940E+03   -0.53751E-01   -0.32024E-01 13600   0.283E+00    0.210E+00
DAV:   3    -0.191691446854E+03    0.44909E-01   -0.11398E-01 12240   0.245E+00    0.590E-01
DAV:   4    -0.191691873957E+03   -0.42710E-03   -0.24493E-02 12320   0.914E-01    0.769E-01
DAV:   5    -0.191687231552E+03    0.46424E-02   -0.20230E-02 11880   0.965E-01    0.438E-01
DAV:   6    -0.191685536161E+03    0.16954E-02   -0.67931E-03 11560   0.467E-01    0.211E-01
DAV:   7    -0.191686211626E+03   -0.67546E-03   -0.46287E-03 11560   0.441E-01    0.361E-01
DAV:   8    -0.191684924158E+03    0.12875E-02   -0.24112E-03  9760   0.330E-01    0.542E-02
DAV:   9    -0.191684906313E+03    0.17844E-04   -0.12855E-04  5680   0.509E-02
  13 F= -.19168491E+03 E0= -.19157829E+03  d E =-.896935E-01
       N       E                     dE             d eps       ncg     rms          rms(c)
DAV:   1    -0.191708611279E+03   -0.23687E-01   -0.58531E-01  8160   0.166E+00    0.240E-01
DAV:   2    -0.191714000083E+03   -0.53888E-02   -0.28256E-02 13080   0.882E-01    0.698E-01
DAV:   3    -0.191709369806E+03    0.46303E-02   -0.11231E-02 11160   0.735E-01    0.202E-01
DAV:   4    -0.191709676270E+03   -0.30646E-03   -0.28892E-03 10080   0.359E-01    0.278E-01
DAV:   5    -0.191708861121E+03    0.81515E-03   -0.16121E-03  9600   0.291E-01    0.797E-02
DAV:   6    -0.191708818511E+03    0.42610E-04   -0.42262E-04  8120   0.860E-02
  14 F= -.19170882E+03 E0= -.19160340E+03  d E =-.239122E-01
       N       E                     dE             d eps       ncg     rms          rms(c)
DAV:   1    -0.191701201591E+03    0.76595E-02   -0.35306E-01  8160   0.128E+00    0.177E-01
DAV:   2    -0.191702921638E+03   -0.17200E-02   -0.12336E-02 12720   0.543E-01    0.410E-01
DAV:   3    -0.191701283120E+03    0.16385E-02   -0.51286E-03 11440   0.496E-01    0.174E-01
DAV:   4    -0.191701253030E+03    0.30090E-04   -0.15409E-03  9520   0.249E-01    0.179E-01
DAV:   5    -0.191701054887E+03    0.19814E-03   -0.11256E-03  9560   0.230E-01    0.115E-01
DAV:   6    -0.191700887947E+03    0.16694E-03   -0.40416E-04  7760   0.119E-01    0.252E-02
DAV:   7    -0.191700894493E+03   -0.65468E-05   -0.81364E-05  6920   0.368E-02
  15 F= -.19170089E+03 E0= -.19159477E+03  d E =0.792402E-02
       N       E                     dE             d eps       ncg     rms          rms(c)
DAV:   1    -0.191776173796E+03   -0.75286E-01   -0.64524E+00  8160   0.540E+00    0.626E-01
DAV:   2    -0.191806991925E+03   -0.30818E-01   -0.20189E-01 13440   0.207E+00    0.155E+00
DAV:   3    -0.191785497573E+03    0.21494E-01   -0.68795E-02 12040   0.183E+00    0.598E-01
DAV:   4    -0.191786013835E+03   -0.51626E-03   -0.20009E-02 12240   0.928E-01    0.690E-01
DAV:   5    -0.191781250314E+03    0.47635E-02   -0.10870E-02 12120   0.777E-01    0.252E-01
DAV:   6    -0.191780669279E+03    0.58103E-03   -0.33333E-03 10760   0.291E-01    0.147E-01
DAV:   7    -0.191781065951E+03   -0.39667E-03   -0.24157E-03 12360   0.333E-01    0.261E-01
DAV:   8    -0.191780350240E+03    0.71571E-03   -0.11632E-03  9520   0.254E-01    0.410E-02
DAV:   9    -0.191780343941E+03    0.62989E-05   -0.77951E-05  5880   0.404E-02
  16 F= -.19178034E+03 E0= -.19167980E+03  d E =-.794494E-01
       N       E                     dE             d eps       ncg     rms          rms(c)
DAV:   1    -0.191833340405E+03   -0.52990E-01   -0.31104E+00  8160   0.376E+00    0.436E-01
DAV:   2    -0.191849741506E+03   -0.16401E-01   -0.10681E-01 12320   0.146E+00    0.113E+00
DAV:   3    -0.191838888734E+03    0.10853E-01   -0.35728E-02 11880   0.129E+00    0.431E-01
DAV:   4    -0.191838654946E+03    0.23379E-03   -0.86093E-03 11320   0.626E-01    0.426E-01
DAV:   5    -0.191836732407E+03    0.19225E-02   -0.40431E-03 11080   0.508E-01    0.164E-01
DAV:   6    -0.191836511782E+03    0.22062E-03   -0.14331E-03 11560   0.189E-01    0.847E-02
DAV:   7    -0.191836408906E+03    0.10288E-03   -0.50362E-04  9920   0.890E-02    0.458E-02
DAV:   8    -0.191836399072E+03    0.98340E-05   -0.11181E-04  7560   0.784E-02
  17 F= -.19183640E+03 E0= -.19173959E+03  d E =-.560551E-01
       N       E                     dE             d eps       ncg     rms          rms(c)
DAV:   1    -0.191952693253E+03   -0.11628E+00   -0.83106E+01  8160   0.196E+01    0.209E+00
DAV:   2    -0.192294711404E+03   -0.34202E+00   -0.27433E+00 11520   0.658E+00    0.502E+00
DAV:   3    -0.192139307613E+03    0.15540E+00   -0.89588E-01 12040   0.636E+00    0.215E+00
DAV:   4    -0.192104727816E+03    0.34580E-01   -0.14100E-01 12520   0.281E+00    0.164E+00
DAV:   5    -0.192073782560E+03    0.30945E-01   -0.65419E-02 11520   0.227E+00    0.870E-01
DAV:   6    -0.192067545485E+03    0.62371E-02   -0.37743E-02 12720   0.109E+00    0.486E-01
DAV:   7    -0.192065256195E+03    0.22893E-02   -0.15324E-02 12720   0.767E-01    0.479E-01
DAV:   8    -0.192063004834E+03    0.22514E-02   -0.54377E-03 12680   0.611E-01    0.177E-01
DAV:   9    -0.192062622542E+03    0.38229E-03   -0.11057E-03 11400   0.196E-01    0.776E-02
DAV:  10    -0.192062480159E+03    0.14238E-03   -0.49955E-04  9920   0.790E-02    0.438E-02
DAV:  11    -0.192062488698E+03   -0.85390E-05   -0.15648E-04  7040   0.459E-02
  18 F= -.19206249E+03 E0= -.19197747E+03  d E =-.226090E+00
       N       E                     dE             d eps       ncg     rms          rms(c)
DAV:   1    -0.192031264330E+03    0.31216E-01   -0.69756E+00  8160   0.556E+00    0.539E-01
DAV:   2    -0.192045625953E+03   -0.14362E-01   -0.13543E-01 12760   0.138E+00    0.999E-01
DAV:   3    -0.192038123561E+03    0.75024E-02   -0.33933E-02 12360   0.139E+00    0.635E-01
DAV:   4    -0.192034030582E+03    0.40930E-02   -0.10797E-02 12280   0.640E-01    0.241E-01
DAV:   5    -0.192033808472E+03    0.22211E-03   -0.43603E-03 12640   0.438E-01    0.270E-01
DAV:   6    -0.192033433910E+03    0.37456E-03   -0.30201E-03 11400   0.476E-01    0.207E-01
DAV:   7    -0.192032968389E+03    0.46552E-03   -0.10243E-03 10680   0.242E-01    0.934E-02
DAV:   8    -0.192032907702E+03    0.60687E-04   -0.30239E-04  8880   0.142E-01
  19 F= -.19203291E+03 E0= -.19194503E+03  d E =0.295810E-01
       N       E                     dE             d eps       ncg     rms          rms(c)
DAV:   1    -0.192058869493E+03   -0.25901E-01   -0.52618E+01  8160   0.155E+01    0.159E+00
DAV:   2    -0.192232638775E+03   -0.17377E+00   -0.16674E+00 11120   0.467E+00    0.305E+00
DAV:   3    -0.192182286837E+03    0.50352E-01   -0.39687E-01 12000   0.449E+00    0.180E+00
DAV:   4    -0.192145739882E+03    0.36547E-01   -0.71948E-02 12600   0.190E+00    0.843E-01
DAV:   5    -0.192141805653E+03    0.39342E-02   -0.32020E-02 12080   0.156E+00    0.813E-01
DAV:   6    -0.192136347408E+03    0.54582E-02   -0.23998E-02 12640   0.113E+00    0.399E-01
DAV:   7    -0.192134058855E+03    0.22886E-02   -0.79462E-03 12640   0.537E-01    0.284E-01
DAV:   8    -0.192133392253E+03    0.66660E-03   -0.26402E-03 12600   0.413E-01    0.150E-01
DAV:   9    -0.192133110972E+03    0.28128E-03   -0.66286E-04 10240   0.171E-01    0.588E-02
DAV:  10    -0.192133029640E+03    0.81332E-04   -0.31622E-04  9320   0.607E-02
  20 F= -.19213303E+03 E0= -.19204985E+03  d E =-.100122E+00
       N       E                     dE             d eps       ncg     rms          rms(c)
DAV:   1    -0.192127302419E+03    0.58086E-02   -0.40176E+00  8160   0.425E+00    0.431E-01
DAV:   2    -0.192136039961E+03   -0.87375E-02   -0.96458E-02 11080   0.111E+00    0.695E-01
DAV:   3    -0.192133626065E+03    0.24139E-02   -0.21409E-02 12640   0.111E+00    0.550E-01
DAV:   4    -0.192130425326E+03    0.32007E-02   -0.70149E-03 12400   0.561E-01    0.169E-01
DAV:   5    -0.192130315817E+03    0.10951E-03   -0.21136E-03 11840   0.263E-01    0.189E-01
DAV:   6    -0.192130346438E+03   -0.30622E-04   -0.17780E-03 11680   0.363E-01    0.196E-01
DAV:   7    -0.192129934504E+03    0.41193E-03   -0.74634E-04  9360   0.226E-01    0.639E-02
DAV:   8    -0.192129896548E+03    0.37956E-04   -0.12413E-04  6600   0.974E-02
  21 F= -.19212990E+03 E0= -.19204501E+03  d E =0.313309E-02
       N       E                     dE             d eps       ncg     rms          rms(c)
DAV:   1    -0.192141489356E+03   -0.11555E-01   -0.10119E+00  8160   0.215E+00    0.236E-01
DAV:   2    -0.192144152031E+03   -0.26627E-02   -0.35481E-02 11720   0.568E-01    0.271E-01
DAV:   3    -0.192144610011E+03   -0.45798E-03   -0.48844E-03 12400   0.568E-01    0.358E-01
DAV:   4    -0.192143223283E+03    0.13867E-02   -0.20995E-03 10160   0.365E-01    0.102E-01
DAV:   5    -0.192143301543E+03   -0.78260E-04   -0.83664E-04  9920   0.220E-01
  22 F= -.19214330E+03 E0= -.19205866E+03  d E =-.134050E-01
       N       E                     dE             d eps       ncg     rms          rms(c)
DAV:   1    -0.192146707488E+03   -0.34842E-02   -0.85951E-02  8160   0.655E-01    0.117E-01
DAV:   2    -0.192147939747E+03   -0.12323E-02   -0.50113E-03 12760   0.403E-01    0.323E-01
DAV:   3    -0.192146769619E+03    0.11701E-02   -0.22010E-03 11000   0.388E-01    0.895E-02
DAV:   4    -0.192146729055E+03    0.40564E-04   -0.35622E-04  8520   0.113E-01
  23 F= -.19214673E+03 E0= -.19206244E+03  d E =-.342751E-02
       N       E                     dE             d eps       ncg     rms          rms(c)
DAV:   1    -0.192156064239E+03   -0.92946E-02   -0.69052E-01  8160   0.178E+00    0.218E-01
DAV:   2    -0.192158956013E+03   -0.28918E-02   -0.26699E-02 11400   0.643E-01    0.367E-01
DAV:   3    -0.192157811395E+03    0.11446E-02   -0.45739E-03 12000   0.556E-01    0.215E-01
DAV:   4    -0.192157612246E+03    0.19915E-03   -0.15261E-03 10080   0.297E-01    0.183E-01
DAV:   5    -0.192157293475E+03    0.31877E-03   -0.79470E-04  9400   0.246E-01    0.823E-02
DAV:   6    -0.192157314755E+03   -0.21280E-04   -0.36520E-04  8840   0.118E-01
  24 F= -.19215731E+03 E0= -.19207311E+03  d E =-.105857E-01
       N       E                     dE             d eps       ncg     rms          rms(c)
DAV:   1    -0.192161788777E+03   -0.44953E-02   -0.14825E-01  8160   0.846E-01    0.121E-01
DAV:   2    -0.192162061798E+03   -0.27302E-03   -0.63388E-03 10280   0.238E-01    0.105E-01
DAV:   3    -0.192162220807E+03   -0.15901E-03   -0.10433E-03 11320   0.253E-01    0.177E-01
DAV:   4    -0.192161903039E+03    0.31777E-03   -0.52891E-04  8480   0.206E-01    0.594E-02
DAV:   5    -0.192161889927E+03    0.13111E-04   -0.15601E-04  5680   0.953E-02
  25 F= -.19216189E+03 E0= -.19207772E+03  d E =-.457517E-02
       N       E                     dE             d eps       ncg     rms          rms(c)
DAV:   1    -0.192169567068E+03   -0.76640E-02   -0.53918E-01  8160   0.157E+00    0.180E-01
DAV:   2    -0.192171002100E+03   -0.14350E-02   -0.19483E-02 10520   0.403E-01    0.174E-01
DAV:   3    -0.192171181189E+03   -0.17909E-03   -0.19752E-03 12800   0.395E-01    0.215E-01
DAV:   4    -0.192170576950E+03    0.60424E-03   -0.70902E-04 10120   0.246E-01    0.563E-02
DAV:   5    -0.192170730458E+03   -0.15351E-03   -0.39378E-04  9040   0.154E-01    0.123E-01
DAV:   6    -0.192170589507E+03    0.14095E-03   -0.34783E-04  8240   0.163E-01    0.450E-02
DAV:   7    -0.192170563078E+03    0.26429E-04   -0.61896E-05  5720   0.492E-02
  26 F= -.19217056E+03 E0= -.19208659E+03  d E =-.867315E-02
       N       E                     dE             d eps       ncg     rms          rms(c)
DAV:   1    -0.192178972883E+03   -0.83834E-02   -0.80071E-01  8160   0.192E+00    0.225E-01
DAV:   2    -0.192180925731E+03   -0.19528E-02   -0.30058E-02 11160   0.447E-01    0.173E-01
DAV:   3    -0.192181753858E+03   -0.82813E-03   -0.33157E-03 12040   0.472E-01    0.336E-01
DAV:   4    -0.192180464657E+03    0.12892E-02   -0.16439E-03 10040   0.359E-01    0.912E-02
DAV:   5    -0.192180619890E+03   -0.15523E-03   -0.60291E-04  9240   0.211E-01    0.145E-01
DAV:   6    -0.192180429859E+03    0.19003E-03   -0.47396E-04  8920   0.189E-01    0.602E-02
DAV:   7    -0.192180402721E+03    0.27138E-04   -0.15266E-04  6840   0.909E-02
  27 F= -.19218040E+03 E0= -.19209661E+03  d E =-.983964E-02
       N       E                     dE             d eps       ncg     rms          rms(c)
DAV:   1    -0.192185262029E+03   -0.48322E-02   -0.12603E+01  8160   0.762E+00    0.850E-01
DAV:   2    -0.192219941361E+03   -0.34679E-01   -0.45658E-01 11720   0.194E+00    0.825E-01
DAV:   3    -0.192227413515E+03   -0.74722E-02   -0.51674E-02 11440   0.191E+00    0.123E+00
DAV:   4    -0.192211313763E+03    0.16100E-01   -0.25742E-02 11120   0.134E+00    0.438E-01
DAV:   5    -0.192211697921E+03   -0.38416E-03   -0.89091E-03 10800   0.852E-01    0.485E-01
DAV:   6    -0.192209793789E+03    0.19041E-02   -0.60911E-03 11880   0.593E-01    0.238E-01
DAV:   7    -0.192209302830E+03    0.49096E-03   -0.24523E-03 12480   0.376E-01    0.187E-01
DAV:   8    -0.192208910479E+03    0.39235E-03   -0.82344E-04  9320   0.211E-01    0.413E-02
DAV:   9    -0.192208884880E+03    0.25599E-04   -0.13532E-04  6360   0.441E-02
  28 F= -.19220888E+03 E0= -.19212537E+03  d E =-.284822E-01
       N       E                     dE             d eps       ncg     rms          rms(c)
DAV:   1    -0.192209971888E+03   -0.10614E-02   -0.82556E-02  8160   0.620E-01    0.100E-01
DAV:   2    -0.192211099513E+03   -0.11276E-02   -0.55608E-03 11800   0.435E-01    0.299E-01
DAV:   3    -0.192210108109E+03    0.99140E-03   -0.17334E-03 10200   0.344E-01    0.669E-02
DAV:   4    -0.192210103769E+03    0.43404E-05   -0.22008E-04  8280   0.114E-01
  29 F= -.19221010E+03 E0= -.19212653E+03  d E =-.121889E-02
       N       E                     dE             d eps       ncg     rms          rms(c)
DAV:   1    -0.192211715118E+03   -0.16070E-02   -0.10433E-01  8160   0.693E-01    0.953E-02
DAV:   2    -0.192212416935E+03   -0.70182E-03   -0.48323E-03 12000   0.322E-01    0.194E-01
DAV:   3    -0.192211957641E+03    0.45929E-03   -0.89751E-04 11160   0.270E-01    0.676E-02
DAV:   4    -0.192211950904E+03    0.67376E-05   -0.16781E-04  7240   0.981E-02
  30 F= -.19221195E+03 E0= -.19212825E+03  d E =-.184714E-02
       N       E                     dE             d eps       ncg     rms          rms(c)
DAV:   1    -0.192213422027E+03   -0.14644E-02   -0.98418E-02  8160   0.677E-01    0.955E-02
DAV:   2    -0.192214047547E+03   -0.62552E-03   -0.43171E-03 11640   0.283E-01    0.207E-01
DAV:   3    -0.192213612226E+03    0.43532E-03   -0.10889E-03 10560   0.265E-01    0.820E-02
DAV:   4    -0.192213596037E+03    0.16189E-04   -0.23070E-04  7360   0.108E-01
  31 F= -.19221360E+03 E0= -.19212984E+03  d E =-.164513E-02
       N       E                     dE             d eps       ncg     rms          rms(c)
DAV:   1    -0.192215246963E+03   -0.16347E-02   -0.15524E-01  8160   0.845E-01    0.113E-01
DAV:   2    -0.192215834018E+03   -0.58706E-03   -0.60578E-03 11400   0.280E-01    0.183E-01
DAV:   3    -0.192215603780E+03    0.23024E-03   -0.12885E-03 10360   0.285E-01    0.125E-01
DAV:   4    -0.192215481807E+03    0.12197E-03   -0.38372E-04  8640   0.146E-01    0.663E-02
DAV:   5    -0.192215462780E+03    0.19027E-04   -0.16751E-04  7760   0.115E-01
  32 F= -.19221546E+03 E0= -.19213158E+03  d E =-.186674E-02
       N       E                     dE             d eps       ncg     rms          rms(c)
DAV:   1    -0.192217247778E+03   -0.17660E-02   -0.10985E+00  8160   0.223E+00    0.264E-01
DAV:   2    -0.192221351057E+03   -0.41033E-02   -0.44178E-02 11400   0.711E-01    0.394E-01
DAV:   3    -0.192220591327E+03    0.75973E-03   -0.71808E-03 11720   0.663E-01    0.312E-01
DAV:   4    -0.192219576848E+03    0.10145E-02   -0.19820E-03 11000   0.342E-01    0.129E-01
DAV:   5    -0.192219632943E+03   -0.56095E-04   -0.80952E-04 10440   0.256E-01
  33 F= -.19221963E+03 E0= -.19213601E+03  d E =-.417016E-02
       N       E                     dE             d eps       ncg     rms          rms(c)
DAV:   1    -0.192217848029E+03    0.17288E-02   -0.18840E-01  8160   0.937E-01    0.135E-01
DAV:   2    -0.192220081931E+03   -0.22339E-02   -0.99976E-03 12440   0.522E-01    0.406E-01
DAV:   3    -0.192218214142E+03    0.18678E-02   -0.31799E-03 11480   0.478E-01    0.987E-02
DAV:   4    -0.192218194128E+03    0.20014E-04   -0.36546E-04  8320   0.139E-01
  34 F= -.19221819E+03 E0= -.19213452E+03  d E =0.143881E-02
       N       E                     dE             d eps       ncg     rms          rms(c)
DAV:   1    -0.192217188496E+03    0.10256E-02   -0.67790E-02  8160   0.571E-01    0.986E-02
DAV:   2    -0.192217622972E+03   -0.43448E-03   -0.31232E-03 12080   0.264E-01    0.204E-01
DAV:   3    -0.192217193078E+03    0.42989E-03   -0.10952E-03 10200   0.266E-01    0.861E-02
DAV:   4    -0.192217180842E+03    0.12236E-04   -0.26605E-04  8560   0.127E-01
  35 F= -.19221718E+03 E0= -.19213328E+03  d E =0.101329E-02
       N       E                     dE             d eps       ncg     rms          rms(c)
DAV:   1    -0.192217434224E+03   -0.24115E-03   -0.91385E-03 10560   0.251E-01    0.597E-02
DAV:   2    -0.192217931798E+03   -0.49757E-03   -0.11151E-03 11760   0.270E-01    0.201E-01
DAV:   3    -0.192217410860E+03    0.52094E-03   -0.57734E-04  9360   0.232E-01    0.351E-02
DAV:   4    -0.192217421022E+03   -0.10163E-04   -0.57450E-05  5680   0.603E-02
  36 F= -.19221742E+03 E0= -.19213379E+03  d E =-.240180E-03
