<?xml version="1.0" encoding="ISO-8859-1"?>
<modeling>
 <generator>
  <i name="program" type="string">vasp </i>
  <i name="version" type="string">5.4.1  </i>
  <i name="subversion" type="string">05Feb16 (build Jul 05 2020 17:13:04) complex                          parallel </i>
  <i name="platform" type="string">IFC91_ompi </i>
  <i name="date" type="string">2024 04 26 </i>
  <i name="time" type="string">18:27:42 </i>
 </generator>
 <incar>
  <i type="int" name="ISTART">     0</i>
  <i type="string" name="PREC">normal</i>
  <i type="string" name="ALGO"> Normal</i>
  <i type="int" name="ISPIN">     1</i>
  <i type="int" name="ICHARG">     2</i>
  <i type="int" name="IBRION">     1</i>
  <i type="int" name="NSW">   100</i>
  <i type="int" name="ISIF">     3</i>
  <i type="int" name="ISYM">     0</i>
  <i name="SYMPREC">      0.00000001</i>
  <i name="POTIM">      0.50000000</i>
  <i type="logical" name="LREAL"> F  </i>
  <i type="logical" name="LPLANE"> F  </i>
  <i type="int" name="ISMEAR">     0</i>
  <i type="logical" name="LWAVE"> F  </i>
  <i type="logical" name="LCHARG"> F  </i>
  <v type="int" name="KPOINT_BSE">    -1     0     0     0</v>
 </incar>
 <kpoints>
  <generation param="Gamma">
   <v type="int" name="divisions">       8        8        1 </v>
   <v name="usershift">      0.00000000       0.00000000       0.00000000 </v>
   <v name="genvec1">      0.12500000       0.00000000       0.00000000 </v>
   <v name="genvec2">     -0.00000000       0.12500000       0.00000000 </v>
   <v name="genvec3">      0.00000000       0.00000000       1.00000000 </v>
   <v name="shift">      0.00000000       0.00000000       0.00000000 </v>
  </generation>
  <varray name="kpointlist" >
   <v>       0.00000000       0.00000000       0.00000000 </v>
   <v>       0.12500000       0.00000000       0.00000000 </v>
   <v>       0.25000000       0.00000000       0.00000000 </v>
   <v>       0.37500000       0.00000000       0.00000000 </v>
   <v>       0.50000000       0.00000000       0.00000000 </v>
   <v>       0.00000000       0.12500000       0.00000000 </v>
   <v>       0.12500000       0.12500000       0.00000000 </v>
   <v>       0.25000000       0.12500000       0.00000000 </v>
   <v>       0.37500000       0.12500000       0.00000000 </v>
   <v>       0.50000000       0.12500000       0.00000000 </v>
   <v>      -0.37500000       0.12500000       0.00000000 </v>
   <v>      -0.25000000       0.12500000       0.00000000 </v>
   <v>      -0.12500000       0.12500000       0.00000000 </v>
   <v>       0.00000000       0.25000000       0.00000000 </v>
   <v>       0.12500000       0.25000000       0.00000000 </v>
   <v>       0.25000000       0.25000000       0.00000000 </v>
   <v>       0.37500000       0.25000000       0.00000000 </v>
   <v>       0.50000000       0.25000000       0.00000000 </v>
   <v>      -0.37500000       0.25000000       0.00000000 </v>
   <v>      -0.25000000       0.25000000       0.00000000 </v>
   <v>      -0.12500000       0.25000000       0.00000000 </v>
   <v>      -0.00000000       0.37500000       0.00000000 </v>
   <v>       0.12500000       0.37500000       0.00000000 </v>
   <v>       0.25000000       0.37500000       0.00000000 </v>
   <v>       0.37500000       0.37500000       0.00000000 </v>
   <v>       0.50000000       0.37500000       0.00000000 </v>
   <v>      -0.37500000       0.37500000       0.00000000 </v>
   <v>      -0.25000000       0.37500000       0.00000000 </v>
   <v>      -0.12500000       0.37500000       0.00000000 </v>
   <v>       0.00000000       0.50000000       0.00000000 </v>
   <v>       0.12500000       0.50000000       0.00000000 </v>
   <v>       0.25000000       0.50000000       0.00000000 </v>
   <v>       0.37500000       0.50000000       0.00000000 </v>
   <v>       0.50000000       0.50000000       0.00000000 </v>
  </varray>
  <varray name="weights" >
   <v>       0.01562500 </v>
   <v>       0.03125000 </v>
   <v>       0.03125000 </v>
   <v>       0.03125000 </v>
   <v>       0.01562500 </v>
   <v>       0.03125000 </v>
   <v>       0.03125000 </v>
   <v>       0.03125000 </v>
   <v>       0.03125000 </v>
   <v>       0.03125000 </v>
   <v>       0.03125000 </v>
   <v>       0.03125000 </v>
   <v>       0.03125000 </v>
   <v>       0.03125000 </v>
   <v>       0.03125000 </v>
   <v>       0.03125000 </v>
   <v>       0.03125000 </v>
   <v>       0.03125000 </v>
   <v>       0.03125000 </v>
   <v>       0.03125000 </v>
   <v>       0.03125000 </v>
   <v>       0.03125000 </v>
   <v>       0.03125000 </v>
   <v>       0.03125000 </v>
   <v>       0.03125000 </v>
   <v>       0.03125000 </v>
   <v>       0.03125000 </v>
   <v>       0.03125000 </v>
   <v>       0.03125000 </v>
   <v>       0.01562500 </v>
   <v>       0.03125000 </v>
   <v>       0.03125000 </v>
   <v>       0.03125000 </v>
   <v>       0.01562500 </v>
  </varray>
 </kpoints>
 <parameters>
  <separator name="general" >
   <i type="string" name="SYSTEM">unknown system</i>
   <i type="logical" name="LCOMPAT"> F  </i>
  </separator>
  <separator name="electronic" >
   <i type="string" name="PREC">normal</i>
   <i name="ENMAX">    280.00000000</i>
   <i name="ENAUG">    373.43800000</i>
   <i name="EDIFF">      0.00010000</i>
   <i type="int" name="IALGO">    38</i>
   <i type="int" name="IWAVPR">    11</i>
   <i type="int" name="NBANDS">   120</i>
   <i name="NELECT">    159.00000000</i>
   <i type="int" name="TURBO">     0</i>
   <i type="int" name="IRESTART">     0</i>
   <i type="int" name="NREBOOT">     0</i>
   <i type="int" name="NMIN">     0</i>
   <i name="EREF">      0.00000000</i>
   <separator name="electronic smearing" >
    <i type="int" name="ISMEAR">     0</i>
    <i name="SIGMA">      0.20000000</i>
    <i name="KSPACING">      0.50000000</i>
    <i type="logical" name="KGAMMA"> T  </i>
   </separator>
   <separator name="electronic projectors" >
    <i type="logical" name="LREAL"> F  </i>
    <v name="ROPT">      0.00000000      0.00000000      0.00000000      0.00000000</v>
    <i type="int" name="LMAXPAW">  -100</i>
    <i type="int" name="LMAXMIX">     2</i>
    <i type="logical" name="NLSPLINE"> F  </i>
   </separator>
   <separator name="electronic startup" >
    <i type="int" name="ISTART">     0</i>
    <i type="int" name="ICHARG">     2</i>
    <i type="int" name="INIWAV">     1</i>
   </separator>
   <separator name="electronic spin" >
    <i type="int" name="ISPIN">     1</i>
    <i type="logical" name="LNONCOLLINEAR"> F  </i>
    <v name="MAGMOM">      1.00000000      1.00000000      1.00000000      1.00000000      1.00000000      1.00000000      1.00000000      1.00000000      1.00000000      1.00000000      1.00000000      1.00000000      1.00000000      1.00000000      1.00000000      1.00000000      1.00000000      1.00000000      1.00000000      1.00000000
      1.00000000      1.00000000      1.00000000      1.00000000      1.00000000      1.00000000      1.00000000</v>
    <i name="NUPDOWN">     -1.00000000</i>
    <i type="logical" name="LSORBIT"> F  </i>
    <v name="SAXIS">      0.00000000      0.00000000      1.00000000</v>
    <i type="logical" name="LSPIRAL"> F  </i>
    <v name="QSPIRAL">      0.00000000      0.00000000      0.00000000</v>
    <i type="logical" name="LZEROZ"> F  </i>
   </separator>
   <separator name="electronic exchange-correlation" >
    <i type="logical" name="LASPH"> F  </i>
    <i type="logical" name="LMETAGGA"> F  </i>
   </separator>
   <separator name="electronic convergence" >
    <i type="int" name="NELM">    60</i>
    <i type="int" name="NELMDL">    -5</i>
    <i type="int" name="NELMIN">     2</i>
    <i name="ENINI">    280.00000000</i>
    <separator name="electronic convergence detail" >
     <i type="logical" name="LDIAG"> T  </i>
     <i type="logical" name="LSUBROT"> F  </i>
     <i name="WEIMIN">      0.00100000</i>
     <i name="EBREAK">      0.00000021</i>
     <i name="DEPER">      0.30000000</i>
     <i type="int" name="NRMM">     4</i>
     <i name="TIME">      0.40000000</i>
    </separator>
   </separator>
   <separator name="electronic mixer" >
    <i name="AMIX">      0.40000000</i>
    <i name="BMIX">      1.00000000</i>
    <i name="AMIN">      0.10000000</i>
    <i name="AMIX_MAG">      1.60000000</i>
    <i name="BMIX_MAG">      1.00000000</i>
    <separator name="electronic mixer details" >
     <i type="int" name="IMIX">     4</i>
     <i type="logical" name="MIXFIRST"> F  </i>
     <i type="int" name="MAXMIX">   -45</i>
     <i name="WC">    100.00000000</i>
     <i type="int" name="INIMIX">     1</i>
     <i type="int" name="MIXPRE">     1</i>
     <i type="int" name="MREMOVE">     5</i>
    </separator>
   </separator>
   <separator name="electronic dipolcorrection" >
    <i type="logical" name="LDIPOL"> F  </i>
    <i type="logical" name="LMONO"> F  </i>
    <i type="int" name="IDIPOL">     0</i>
    <i name="EPSILON">      1.00000000</i>
    <v name="DIPOL">   -100.00000000   -100.00000000   -100.00000000</v>
    <i name="EFIELD">      0.00000000</i>
   </separator>
  </separator>
  <separator name="grids" >
   <i type="int" name="NGX">    42</i>
   <i type="int" name="NGY">    42</i>
   <i type="int" name="NGZ">   126</i>
   <i type="int" name="NGXF">    84</i>
   <i type="int" name="NGYF">    84</i>
   <i type="int" name="NGZF">   252</i>
   <i type="logical" name="ADDGRID"> F  </i>
  </separator>
  <separator name="ionic" >
   <i type="int" name="NSW">   100</i>
   <i type="int" name="IBRION">     1</i>
   <i type="int" name="ISIF">     3</i>
   <i name="PSTRESS">      0.00000000</i>
   <i name="EDIFFG">      0.00100000</i>
   <i type="int" name="NFREE">     0</i>
   <i name="POTIM">      0.50000000</i>
   <i name="SMASS">     -3.00000000</i>
   <i name="SCALEE">      1.00000000</i>
  </separator>
  <separator name="ionic md" >
   <i name="TEBEG">      0.00010000</i>
   <i name="TEEND">      0.00010000</i>
   <i type="int" name="NBLOCK">     1</i>
   <i type="int" name="KBLOCK">   100</i>
   <i type="int" name="NPACO">   256</i>
   <i name="APACO">     16.00000000</i>
  </separator>
  <separator name="symmetry" >
   <i type="int" name="ISYM">     0</i>
   <i name="SYMPREC">      0.00000001</i>
  </separator>
  <separator name="dos" >
   <i type="logical" name="LORBIT"> F  </i>
   <v name="RWIGS">     -1.00000000     -1.00000000     -1.00000000     -1.00000000</v>
   <i type="int" name="NEDOS">   301</i>
   <i name="EMIN">     10.00000000</i>
   <i name="EMAX">    -10.00000000</i>
   <i name="EFERMI">      0.00000000</i>
  </separator>
  <separator name="writing" >
   <i type="int" name="NWRITE">     2</i>
   <i type="logical" name="LWAVE"> F  </i>
   <i type="logical" name="LCHARG"> F  </i>
   <i type="logical" name="LPARD"> F  </i>
   <i type="logical" name="LVTOT"> F  </i>
   <i type="logical" name="LVHAR"> F  </i>
   <i type="logical" name="LELF"> F  </i>
   <i type="logical" name="LOPTICS"> F  </i>
   <v name="STM">      0.00000000      0.00000000      0.00000000      0.00000000      0.00000000      0.00000000      0.00000000</v>
  </separator>
  <separator name="performance" >
   <i type="int" name="NPAR">    40</i>
   <i type="int" name="NSIM">     4</i>
   <i type="int" name="NBLK">    -1</i>
   <i type="logical" name="LPLANE"> F  </i>
   <i type="logical" name="LSCALAPACK"> T  </i>
   <i type="logical" name="LSCAAWARE"> F  </i>
   <i type="logical" name="LSCALU"> F  </i>
   <i type="logical" name="LASYNC"> F  </i>
   <i type="logical" name="LORBITALREAL"> F  </i>
  </separator>
  <separator name="miscellaneous" >
   <i type="int" name="IDIOT">     3</i>
   <i type="logical" name="LMUSIC"> F  </i>
   <v name="POMASS">     50.94100000     95.94000000    183.85000000     32.06600000</v>
   <v name="DARWINR">      0.00000000      0.00000000      0.00000000      0.00000000</v>
   <v name="DARWINV">      1.00000000      1.00000000      1.00000000      1.00000000</v>
   <i type="logical" name="LCORR"> T  </i>
  </separator>
  <i type="logical" name="GGA_COMPAT"> T  </i>
  <i type="logical" name="LBERRY"> F  </i>
  <i type="int" name="ICORELEVEL">     0</i>
  <i type="logical" name="LDAU"> F  </i>
  <i type="int" name="I_CONSTRAINED_M">     0</i>
  <separator name="electronic exchange-correlation" >
   <i type="string" name="GGA">--</i>
   <i type="int" name="VOSKOWN">     0</i>
   <i type="logical" name="LHFCALC"> F  </i>
   <i type="string" name="PRECFOCK"></i>
   <i type="logical" name="LSYMGRAD"> F  </i>
   <i type="logical" name="LHFONE"> F  </i>
   <i type="logical" name="LRHFCALC"> F  </i>
   <i type="logical" name="LTHOMAS"> F  </i>
   <i type="logical" name="LMODELHF"> F  </i>
   <i name="ENCUT4O">     -1.00000000</i>
   <i type="int" name="EXXOEP">     0</i>
   <i type="int" name="FOURORBIT">     0</i>
   <i name="AEXX">      0.00000000</i>
   <i name="HFALPHA">      0.00000000</i>
   <i name="MCALPHA">      0.00000000</i>
   <i name="ALDAX">      1.00000000</i>
   <i name="AGGAX">      1.00000000</i>
   <i name="ALDAC">      1.00000000</i>
   <i name="AGGAC">      1.00000000</i>
   <i type="int" name="NKREDX">     1</i>
   <i type="int" name="NKREDY">     1</i>
   <i type="int" name="NKREDZ">     1</i>
   <i type="logical" name="SHIFTRED"> F  </i>
   <i type="logical" name="ODDONLY"> F  </i>
   <i type="logical" name="EVENONLY"> F  </i>
   <i type="int" name="LMAXFOCK">     0</i>
   <i type="int" name="NMAXFOCKAE">     0</i>
   <i type="logical" name="LFOCKAEDFT"> F  </i>
   <i name="HFSCREEN">      0.00000000</i>
   <i name="HFSCREENC">      0.00000000</i>
   <i type="int" name="NBANDSGWLOW">     0</i>
  </separator>
  <separator name="vdW DFT" >
   <i type="logical" name="LUSE_VDW"> F  </i>
   <i name="Zab_VDW">     -0.84910000</i>
   <i name="PARAM1">      0.12340000</i>
   <i name="PARAM2">      1.00000000</i>
   <i name="PARAM3">      0.00000000</i>
  </separator>
  <separator name="model GW" >
   <i type="int" name="MODEL_GW">     0</i>
   <i name="MODEL_EPS0">     58.26239943</i>
   <i name="MODEL_ALPHA">      1.00000000</i>
  </separator>
  <separator name="linear response parameters" >
   <i type="logical" name="LEPSILON"> F  </i>
   <i type="logical" name="LRPA"> F  </i>
   <i type="logical" name="LNABLA"> F  </i>
   <i type="logical" name="LVEL"> F  </i>
   <i type="int" name="KINTER">     0</i>
   <i name="CSHIFT">      0.10000000</i>
   <i name="OMEGAMAX">     -1.00000000</i>
   <i name="DEG_THRESHOLD">      0.00200000</i>
  </separator>
  <separator name="orbital magnetization" >
   <i type="logical" name="NUCIND"> F  </i>
   <v name="MAGPOS">      0.00000000      0.00000000      0.00000000</v>
   <i type="logical" name="LNICSALL"> T  </i>
   <i type="logical" name="ORBITALMAG"> F  </i>
   <i type="logical" name="LMAGBLOCH"> F  </i>
   <i type="logical" name="LCHIMAG"> F  </i>
   <i type="logical" name="LGAUGE"> T  </i>
   <i type="int" name="MAGATOM">     0</i>
   <v name="MAGDIPOL">      0.00000000      0.00000000      0.00000000</v>
   <v name="AVECCONST">      0.00000000      0.00000000      0.00000000</v>
  </separator>
  <separator name="response functions" >
   <i type="logical" name="LADDER"> F  </i>
   <i type="logical" name="LFXC"> F  </i>
   <i type="logical" name="LHARTREE"> T  </i>
   <i type="int" name="IBSE">     0</i>
   <v type="int" name="KPOINT">    -1     0     0     0</v>
   <i type="logical" name="LTCTE"> F  </i>
   <i type="logical" name="LTETE"> F  </i>
   <i type="logical" name="LTRIPLET"> F  </i>
   <i type="logical" name="LFXCEPS"> F  </i>
   <i type="logical" name="LFXHEG"> F  </i>
   <i type="int" name="NATURALO">     0</i>
   <i type="logical" name="L2ORDER"> F  </i>
   <i type="logical" name="LUSEW"> F  </i>
   <i name="ENCUTGW">     -2.00000000</i>
   <i name="ENCUTGWSOFT">     -2.00000000</i>
   <i name="ENCUTLF">     -1.00000000</i>
   <i type="int" name="LMAXMP2">    -1</i>
   <i name="SCISSOR">      0.00000000</i>
   <i type="int" name="NOMEGA">     0</i>
   <i type="int" name="NOMEGAR">     0</i>
   <i type="int" name="NBANDSGW">    -1</i>
   <i type="int" name="NBANDSO">    -1</i>
   <i type="int" name="NBANDSV">    -1</i>
   <i type="int" name="NELM">     1</i>
   <i type="int" name="NELMHF">     1</i>
   <i type="int" name="DIM">     3</i>
   <i type="int" name="ANTIRES">     0</i>
   <i name="OMEGAMAX">    -30.00000000</i>
   <i name="OMEGAMIN">    -30.00000000</i>
   <i name="OMEGATL">   -200.00000000</i>
   <i type="int" name="OMEGAGRID">     0</i>
   <i name="CSHIFT">     -0.10000000</i>
   <i type="logical" name="SELFENERGY"> F  </i>
   <i type="logical" name="LSPECTRAL"> F  </i>
   <i type="logical" name="LSPECTRALGW"> F  </i>
   <i type="logical" name="LSINGLES"> F  </i>
   <i type="logical" name="LFERMIGW"> F  </i>
   <i type="logical" name="ODDONLYGW"> F  </i>
   <i type="logical" name="EVENONLYGW"> F  </i>
   <i type="int" name="NKREDLFX">     1</i>
   <i type="int" name="NKREDLFY">     1</i>
   <i type="int" name="NKREDLFZ">     1</i>
   <i type="int" name="MAXMEM">  1800</i>
   <i type="int" name="TELESCOPE">     0</i>
   <i type="int" name="TAUPAR">     1</i>
   <i type="int" name="OMEGAPAR">    -1</i>
   <i name="LAMBDA">      1.00000000</i>
  </separator>
  <separator name="External order field" >
   <i name="OFIELD_KAPPA">      0.00000000</i>
   <v name="OFIELD_K">      0.00000000      0.00000000      0.00000000</v>
   <i name="OFIELD_Q6_NEAR">      0.00000000</i>
   <i name="OFIELD_Q6_FAR">      0.00000000</i>
   <i name="OFIELD_A">      0.00000000</i>
  </separator>
 </parameters>
 <atominfo>
  <atoms>      27 </atoms>
  <types>       4 </types>
  <array name="atoms" >
   <dimension dim="1">ion</dimension>
   <field type="string">element</field>
   <field type="int">atomtype</field>
   <set>
    <rc><c>V </c><c>   1</c></rc>
    <rc><c>V </c><c>   1</c></rc>
    <rc><c>V </c><c>   1</c></rc>
    <rc><c>Mo</c><c>   2</c></rc>
    <rc><c>Mo</c><c>   2</c></rc>
    <rc><c>Mo</c><c>   2</c></rc>
    <rc><c>W </c><c>   3</c></rc>
    <rc><c>W </c><c>   3</c></rc>
    <rc><c>W </c><c>   3</c></rc>
    <rc><c>S </c><c>   4</c></rc>
    <rc><c>S </c><c>   4</c></rc>
    <rc><c>S </c><c>   4</c></rc>
    <rc><c>S </c><c>   4</c></rc>
    <rc><c>S </c><c>   4</c></rc>
    <rc><c>S </c><c>   4</c></rc>
    <rc><c>S </c><c>   4</c></rc>
    <rc><c>S </c><c>   4</c></rc>
    <rc><c>S </c><c>   4</c></rc>
    <rc><c>S </c><c>   4</c></rc>
    <rc><c>S </c><c>   4</c></rc>
    <rc><c>S </c><c>   4</c></rc>
    <rc><c>S </c><c>   4</c></rc>
    <rc><c>S </c><c>   4</c></rc>
    <rc><c>S </c><c>   4</c></rc>
    <rc><c>S </c><c>   4</c></rc>
    <rc><c>S </c><c>   4</c></rc>
    <rc><c>S </c><c>   4</c></rc>
   </set>
  </array>
  <array name="atomtypes" >
   <dimension dim="1">type</dimension>
   <field type="int">atomspertype</field>
   <field type="string">element</field>
   <field>mass</field>
   <field>valence</field>
   <field type="string">pseudopotential</field>
   <set>
    <rc><c>   3</c><c>V </c><c>     50.94100000</c><c>      5.00000000</c><c> PAW_PBE V 08Apr2002                    </c></rc>
    <rc><c>   3</c><c>Mo</c><c>     95.94000000</c><c>      6.00000000</c><c> PAW_PBE Mo 08Apr2002                   </c></rc>
    <rc><c>   3</c><c>W </c><c>    183.85000000</c><c>      6.00000000</c><c> PAW_PBE W 08Apr2002                    </c></rc>
    <rc><c>  18</c><c>S </c><c>     32.06600000</c><c>      6.00000000</c><c>  PAW_PBE S 17Jan2003                   </c></rc>
   </set>
  </array>
 </atominfo>
 <structure name="initialpos" >
  <crystal>
   <varray name="basis" >
    <v>       8.66999996       5.03999989       0.00000000 </v>
    <v>      -8.66999982       5.04000013       0.00000000 </v>
    <v>       0.00000000       0.00000000      30.00000000 </v>
   </varray>
   <i name="volume">   2621.80797419 </i>
   <varray name="rec_basis" >
    <v>       0.05767013       0.09920635       0.00000000 </v>
    <v>      -0.05767013       0.09920635       0.00000000 </v>
    <v>       0.00000000       0.00000000       0.03333333 </v>
   </varray>
  </crystal>
  <varray name="positions" >
   <v>       0.33333334       0.00000000       0.00000000 </v>
   <v>       0.33333334       0.66666669       0.00000000 </v>
   <v>       0.66666669       0.66666669       0.00000000 </v>
   <v>       1.00000000       0.33333334       0.00000000 </v>
   <v>       0.00000000       0.00000000       0.00000000 </v>
   <v>       0.33333334       0.33333334       0.00000000 </v>
   <v>       0.00000000       0.66666669       0.00000000 </v>
   <v>       0.66666669       0.00000000       0.00000000 </v>
   <v>       0.66666669       0.33333334       0.00000000 </v>
   <v>       0.11068511       0.22244981       0.95539999 </v>
   <v>       0.22244981       0.11068511       0.04460000 </v>
   <v>       0.11068511       0.55578315       0.95539999 </v>
   <v>       0.22244981       0.44401845       0.04460000 </v>
   <v>       0.11068511       0.88911647       0.95539999 </v>
   <v>       0.22244981       0.77735180       0.04460000 </v>
   <v>       0.44401845       0.22244981       0.95539999 </v>
   <v>       0.55578315       0.11068511       0.04460000 </v>
   <v>       0.44401845       0.55578315       0.95539999 </v>
   <v>       0.55578315       0.44401845       0.04460000 </v>
   <v>       0.44401845       0.88911647       0.95539999 </v>
   <v>       0.55578315       0.77735180       0.04460000 </v>
   <v>       0.77735180       0.22244981       0.95539999 </v>
   <v>       0.88911647       0.11068511       0.04460000 </v>
   <v>       0.77735180       0.55578315       0.95539999 </v>
   <v>       0.88911647       0.44401845       0.04460000 </v>
   <v>       0.77735180       0.88911647       0.95539999 </v>
   <v>       0.88911647       0.77735180       0.04460000 </v>
  </varray>
 </structure>
 <calculation>
  <scstep>
   <time name="dav">   22.02   22.07</time>
   <time name="total">   22.06   22.12</time>
   <energy>
    <i name="alphaZ">     81.65567618 </i>
    <i name="ewald">  41890.25210247 </i>
    <i name="hartreedc"> -47722.88013585 </i>
    <i name="XCdc">   -242.92958170 </i>
    <i name="pawpsdc">   3467.42045192 </i>
    <i name="pawaedc">  -2871.19716117 </i>
    <i name="eentropy">     -0.54930720 </i>
    <i name="bandstr">   -238.54311606 </i>
    <i name="atom">   6761.44252427 </i>
    <i name="e_fr_energy">   1124.67145287 </i>
    <i name="e_wo_entrp">   1125.22076007 </i>
    <i name="e_0_energy">   1124.94610647 </i>
   </energy>
  </scstep>
  <scstep>
   <time name="dav">   27.90   27.97</time>
   <time name="total">   27.90   27.98</time>
   <energy>
    <i name="e_fr_energy">     -0.21646215 </i>
    <i name="e_wo_entrp">     -0.06583688 </i>
    <i name="e_0_energy">     -0.14114951 </i>
   </energy>
  </scstep>
  <scstep>
   <time name="dav">   27.93   28.00</time>
   <time name="total">   27.94   28.01</time>
   <energy>
    <i name="e_fr_energy">   -199.36996194 </i>
    <i name="e_wo_entrp">   -199.10355818 </i>
    <i name="e_0_energy">   -199.23676006 </i>
   </energy>
  </scstep>
  <scstep>
   <time name="dav">   30.34   30.42</time>
   <time name="total">   30.35   30.43</time>
   <energy>
    <i name="e_fr_energy">   -208.91238076 </i>
    <i name="e_wo_entrp">   -208.60253107 </i>
    <i name="e_0_energy">   -208.75745591 </i>
   </energy>
  </scstep>
  <scstep>
   <time name="dav">   29.00   29.07</time>
   <time name="total">   29.48   29.55</time>
   <energy>
    <i name="e_fr_energy">   -209.24610998 </i>
    <i name="e_wo_entrp">   -208.93962013 </i>
    <i name="e_0_energy">   -209.09286505 </i>
   </energy>
  </scstep>
  <scstep>
   <time name="dav">   31.59   31.67</time>
   <time name="total">   32.09   32.17</time>
   <energy>
    <i name="e_fr_energy">   -236.61218935 </i>
    <i name="e_wo_entrp">   -236.33780467 </i>
    <i name="e_0_energy">   -236.47499701 </i>
   </energy>
  </scstep>
  <scstep>
   <time name="dav">   32.86   32.94</time>
   <time name="total">   33.36   33.45</time>
   <energy>
    <i name="e_fr_energy">   -196.78561158 </i>
    <i name="e_wo_entrp">   -196.44615848 </i>
    <i name="e_0_energy">   -196.61588503 </i>
   </energy>
  </scstep>
  <scstep>
   <time name="dav">   29.58   29.65</time>
   <time name="total">   30.08   30.16</time>
   <energy>
    <i name="e_fr_energy">   -190.23246252 </i>
    <i name="e_wo_entrp">   -189.96465199 </i>
    <i name="e_0_energy">   -190.09855725 </i>
   </energy>
  </scstep>
  <scstep>
   <time name="dav">   29.92   29.99</time>
   <time name="total">   30.45   30.52</time>
   <energy>
    <i name="e_fr_energy">   -188.31374715 </i>
    <i name="e_wo_entrp">   -187.98374544 </i>
    <i name="e_0_energy">   -188.14874630 </i>
   </energy>
  </scstep>
  <scstep>
   <time name="dav">   32.92   33.00</time>
   <time name="total">   33.45   33.54</time>
   <energy>
    <i name="e_fr_energy">   -187.16401345 </i>
    <i name="e_wo_entrp">   -186.82222275 </i>
    <i name="e_0_energy">   -186.99311810 </i>
   </energy>
  </scstep>
  <scstep>
   <time name="dav">   31.48   31.56</time>
   <time name="total">   32.01   32.10</time>
   <energy>
    <i name="e_fr_energy">   -187.00301758 </i>
    <i name="e_wo_entrp">   -186.65443559 </i>
    <i name="e_0_energy">   -186.82872659 </i>
   </energy>
  </scstep>
  <scstep>
   <time name="dav">   32.87   32.95</time>
   <time name="total">   33.41   33.50</time>
   <energy>
    <i name="e_fr_energy">   -187.10022628 </i>
    <i name="e_wo_entrp">   -186.76776518 </i>
    <i name="e_0_energy">   -186.93399573 </i>
   </energy>
  </scstep>
  <scstep>
   <time name="dav">   32.75   32.82</time>
   <time name="total">   33.28   33.37</time>
   <energy>
    <i name="e_fr_energy">   -186.94047337 </i>
    <i name="e_wo_entrp">   -186.60531722 </i>
    <i name="e_0_energy">   -186.77289529 </i>
   </energy>
  </scstep>
  <scstep>
   <time name="dav">   32.73   32.81</time>
   <time name="total">   33.26   33.35</time>
   <energy>
    <i name="e_fr_energy">   -186.90077778 </i>
    <i name="e_wo_entrp">   -186.56002837 </i>
    <i name="e_0_energy">   -186.73040307 </i>
   </energy>
  </scstep>
  <scstep>
   <time name="dav">   31.99   32.08</time>
   <time name="total">   32.53   32.62</time>
   <energy>
    <i name="e_fr_energy">   -186.89817178 </i>
    <i name="e_wo_entrp">   -186.55494150 </i>
    <i name="e_0_energy">   -186.72655664 </i>
   </energy>
  </scstep>
  <scstep>
   <time name="dav">   31.65   31.73</time>
   <time name="total">   32.19   32.27</time>
   <energy>
    <i name="e_fr_energy">   -186.89183740 </i>
    <i name="e_wo_entrp">   -186.54860502 </i>
    <i name="e_0_energy">   -186.72022121 </i>
   </energy>
  </scstep>
  <scstep>
   <time name="dav">   32.17   32.24</time>
   <time name="total">   32.70   32.79</time>
   <energy>
    <i name="e_fr_energy">   -186.88937851 </i>
    <i name="e_wo_entrp">   -186.54720955 </i>
    <i name="e_0_energy">   -186.71829403 </i>
   </energy>
  </scstep>
  <scstep>
   <time name="dav">   31.38   31.46</time>
   <time name="total">   31.91   32.00</time>
   <energy>
    <i name="e_fr_energy">   -186.88840988 </i>
    <i name="e_wo_entrp">   -186.54735974 </i>
    <i name="e_0_energy">   -186.71788481 </i>
   </energy>
  </scstep>
  <scstep>
   <time name="dav">   29.16   29.23</time>
   <time name="total">   29.70   29.78</time>
   <energy>
    <i name="e_fr_energy">   -186.88805582 </i>
    <i name="e_wo_entrp">   -186.54636527 </i>
    <i name="e_0_energy">   -186.71721054 </i>
   </energy>
  </scstep>
  <scstep>
   <time name="dav">   24.02   24.08</time>
   <time name="total">   24.56   24.62</time>
   <energy>
    <i name="e_fr_energy">   -186.88880707 </i>
    <i name="e_wo_entrp">   -186.54745220 </i>
    <i name="e_0_energy">   -186.71812963 </i>
   </energy>
  </scstep>
  <scstep>
   <time name="dav">   22.38   22.44</time>
   <time name="total">   22.91   22.98</time>
   <energy>
    <i name="e_fr_energy">   -186.88936345 </i>
    <i name="e_wo_entrp">   -186.54794650 </i>
    <i name="e_0_energy">   -186.71865498 </i>
   </energy>
  </scstep>
  <scstep>
   <time name="dav">   20.69   20.74</time>
   <time name="total">   21.23   21.29</time>
   <energy>
    <i name="e_fr_energy">   -186.89052654 </i>
    <i name="e_wo_entrp">   -186.54907544 </i>
    <i name="e_0_energy">   -186.71980099 </i>
   </energy>
  </scstep>
  <scstep>
   <time name="dav">   20.63   20.68</time>
   <time name="total">   21.17   21.23</time>
   <energy>
    <i name="e_fr_energy">   -186.89175017 </i>
    <i name="e_wo_entrp">   -186.55040310 </i>
    <i name="e_0_energy">   -186.72107664 </i>
   </energy>
  </scstep>
  <scstep>
   <time name="dav">   19.21   19.26</time>
   <time name="total">   19.74   19.80</time>
   <energy>
    <i name="e_fr_energy">   -186.89234361 </i>
    <i name="e_wo_entrp">   -186.55096482 </i>
    <i name="e_0_energy">   -186.72165422 </i>
   </energy>
  </scstep>
  <scstep>
   <time name="dav">   16.62   16.66</time>
   <time name="total">   17.15   17.20</time>
   <energy>
    <i name="e_fr_energy">   -186.89272930 </i>
    <i name="e_wo_entrp">   -186.55131528 </i>
    <i name="e_0_energy">   -186.72202229 </i>
   </energy>
  </scstep>
  <scstep>
   <time name="dav">   19.27   19.31</time>
   <time name="total">   19.80   19.86</time>
   <energy>
    <i name="e_fr_energy">   -186.89296970 </i>
    <i name="e_wo_entrp">   -186.55157111 </i>
    <i name="e_0_energy">   -186.72227041 </i>
   </energy>
  </scstep>
  <scstep>
   <time name="dav">   20.31   20.36</time>
   <time name="total">   20.35   20.41</time>
   <energy>
    <i name="alphaZ">     81.65567618 </i>
    <i name="ewald">  41890.25210247 </i>
    <i name="hartreedc"> -47833.19586267 </i>
    <i name="XCdc">   -231.59883917 </i>
    <i name="pawpsdc">   4192.18593584 </i>
    <i name="pawaedc">  -3610.21005028 </i>
    <i name="eentropy">     -0.34139900 </i>
    <i name="bandstr">  -1437.08315702 </i>
    <i name="atom">   6761.44252427 </i>
    <i name="e_fr_energy">   -186.89306938 </i>
    <i name="e_wo_entrp">   -186.55167038 </i>
    <i name="e_0_energy">   -186.72236988 </i>
   </energy>
  </scstep>
  <structure>
   <crystal>
    <varray name="basis" >
     <v>       8.66999996       5.03999989       0.00000000 </v>
     <v>      -8.66999982       5.04000013       0.00000000 </v>
     <v>       0.00000000       0.00000000      30.00000000 </v>
    </varray>
    <i name="volume">   2621.80797419 </i>
    <varray name="rec_basis" >
     <v>       0.05767013       0.09920635       0.00000000 </v>
     <v>      -0.05767013       0.09920635       0.00000000 </v>
     <v>       0.00000000       0.00000000       0.03333333 </v>
    </varray>
   </crystal>
   <varray name="positions" >
    <v>       0.33333334       0.00000000       0.00000000 </v>
    <v>       0.33333334       0.66666669       0.00000000 </v>
    <v>       0.66666669       0.66666669       0.00000000 </v>
    <v>       1.00000000       0.33333334       0.00000000 </v>
    <v>       0.00000000       0.00000000       0.00000000 </v>
    <v>       0.33333334       0.33333334       0.00000000 </v>
    <v>       0.00000000       0.66666669       0.00000000 </v>
    <v>       0.66666669       0.00000000       0.00000000 </v>
    <v>       0.66666669       0.33333334       0.00000000 </v>
    <v>       0.11068511       0.22244981       0.95539999 </v>
    <v>       0.22244981       0.11068511       0.04460000 </v>
    <v>       0.11068511       0.55578315       0.95539999 </v>
    <v>       0.22244981       0.44401845       0.04460000 </v>
    <v>       0.11068511       0.88911647       0.95539999 </v>
    <v>       0.22244981       0.77735180       0.04460000 </v>
    <v>       0.44401845       0.22244981       0.95539999 </v>
    <v>       0.55578315       0.11068511       0.04460000 </v>
    <v>       0.44401845       0.55578315       0.95539999 </v>
    <v>       0.55578315       0.44401845       0.04460000 </v>
    <v>       0.44401845       0.88911647       0.95539999 </v>
    <v>       0.55578315       0.77735180       0.04460000 </v>
    <v>       0.77735180       0.22244981       0.95539999 </v>
    <v>       0.88911647       0.11068511       0.04460000 </v>
    <v>       0.77735180       0.55578315       0.95539999 </v>
    <v>       0.88911647       0.44401845       0.04460000 </v>
    <v>       0.77735180       0.88911647       0.95539999 </v>
    <v>       0.88911647       0.77735180       0.04460000 </v>
   </varray>
  </structure>
  <varray name="forces" >
   <v>      -0.35196882      -0.03149925       0.06766372 </v>
   <v>       0.22264280      -0.27042136      -0.04603557 </v>
   <v>      -0.05722008      -0.04218172      -0.08647038 </v>
   <v>       0.53361713      -0.02468245       0.01806675 </v>
   <v>      -0.26850374       0.44729827       0.13932072 </v>
   <v>      -0.29277840      -0.40198124       0.00237978 </v>
   <v>       0.01545388       0.09576891       0.05274920 </v>
   <v>       0.28293192       0.29318448      -0.05963175 </v>
   <v>      -0.05111419      -0.02603167      -0.09013493 </v>
   <v>       0.10704039       0.01501402      -2.94168809 </v>
   <v>       0.76934785      -0.01769477       2.14922714 </v>
   <v>       0.36204257       0.68177632      -2.14672104 </v>
   <v>      -0.52724606       0.69071786       2.17418096 </v>
   <v>       0.61967233       0.53888289      -2.13012164 </v>
   <v>       0.22010465       0.52921758       1.43892372 </v>
   <v>       0.62468590      -0.53211908      -2.13093592 </v>
   <v>      -0.48100834      -0.60405451       2.17832172 </v>
   <v>      -0.32390850       0.68762017      -1.42541381 </v>
   <v>      -0.37080792       0.69470102       2.12016463 </v>
   <v>      -0.23780228      -0.51691391      -1.35788941 </v>
   <v>       0.23484615      -0.52665337       1.41243445 </v>
   <v>       0.03298130      -0.11067965      -2.90812790 </v>
   <v>      -0.19279551      -0.14149876       2.93822264 </v>
   <v>      -0.62465147      -0.01830161      -2.17485668 </v>
   <v>      -0.24835201       0.00800594       2.85069553 </v>
   <v>       0.36653678      -0.73324586      -2.15666054 </v>
   <v>      -0.36374632      -0.68422824       2.11233669 </v>
  </varray>
  <varray name="stress" >
   <v>       7.27238046      -0.05143154      -1.53929361 </v>
   <v>      -0.05143167       4.50810022      -0.05186562 </v>
   <v>      -1.53929353      -0.05186550      30.27128272 </v>
  </varray>
  <energy>
   <i name="e_fr_energy">   -186.89306938 </i>
   <i name="e_wo_entrp">   -186.72236988 </i>
   <i name="e_0_energy">     -0.34139900 </i>
  </energy>
  <time name="totalsc">  797.85  799.98</time>
 </calculation>
 <calculation>
  <scstep>
   <time name="dav">   21.94   21.99</time>
   <time name="total">   22.48   22.53</time>
   <energy>
    <i name="alphaZ">     78.91535469 </i>
    <i name="ewald">  39377.60207791 </i>
    <i name="hartreedc"> -45335.15806072 </i>
    <i name="XCdc">   -239.05670695 </i>
    <i name="pawpsdc">   4192.16232173 </i>
    <i name="pawaedc">  -3610.18679038 </i>
    <i name="eentropy">     -0.28154258 </i>
    <i name="bandstr">  -1412.97263338 </i>
    <i name="atom">   6761.44252427 </i>
    <i name="e_fr_energy">   -187.53345541 </i>
    <i name="e_wo_entrp">   -187.25191283 </i>
    <i name="e_0_energy">   -187.39268412 </i>
   </energy>
  </scstep>
  <scstep>
   <time name="dav">   30.76   30.83</time>
   <time name="total">   31.29   31.37</time>
   <energy>
    <i name="e_fr_energy">   -189.42794891 </i>
    <i name="e_wo_entrp">   -189.10249721 </i>
    <i name="e_0_energy">   -189.26522306 </i>
   </energy>
  </scstep>
  <scstep>
   <time name="dav">   30.89   30.97</time>
   <time name="total">   31.45   31.53</time>
   <energy>
    <i name="e_fr_energy">   -189.39518705 </i>
    <i name="e_wo_entrp">   -189.12205333 </i>
    <i name="e_0_energy">   -189.25862019 </i>
   </energy>
  </scstep>
  <scstep>
   <time name="dav">   30.94   31.02</time>
   <time name="total">   31.48   31.57</time>
   <energy>
    <i name="e_fr_energy">   -188.78801825 </i>
    <i name="e_wo_entrp">   -188.50768693 </i>
    <i name="e_0_energy">   -188.64785259 </i>
   </energy>
  </scstep>
  <scstep>
   <time name="dav">   30.16   30.24</time>
   <time name="total">   30.70   30.79</time>
   <energy>
    <i name="e_fr_energy">   -188.89549703 </i>
    <i name="e_wo_entrp">   -188.60559640 </i>
    <i name="e_0_energy">   -188.75054671 </i>
   </energy>
  </scstep>
  <scstep>
   <time name="dav">   31.62   31.70</time>
   <time name="total">   32.17   32.25</time>
   <energy>
    <i name="e_fr_energy">   -188.75274985 </i>
    <i name="e_wo_entrp">   -188.47468120 </i>
    <i name="e_0_energy">   -188.61371553 </i>
   </energy>
  </scstep>
  <scstep>
   <time name="dav">   29.65   29.72</time>
   <time name="total">   30.19   30.27</time>
   <energy>
    <i name="e_fr_energy">   -188.72263602 </i>
    <i name="e_wo_entrp">   -188.44206391 </i>
    <i name="e_0_energy">   -188.58234997 </i>
   </energy>
  </scstep>
  <scstep>
   <time name="dav">   32.69   32.77</time>
   <time name="total">   33.24   33.32</time>
   <energy>
    <i name="e_fr_energy">   -188.71179929 </i>
    <i name="e_wo_entrp">   -188.43287470 </i>
    <i name="e_0_energy">   -188.57233699 </i>
   </energy>
  </scstep>
  <scstep>
   <time name="dav">   29.71   29.78</time>
   <time name="total">   30.25   30.34</time>
   <energy>
    <i name="e_fr_energy">   -188.70194590 </i>
    <i name="e_wo_entrp">   -188.42322255 </i>
    <i name="e_0_energy">   -188.56258423 </i>
   </energy>
  </scstep>
  <scstep>
   <time name="dav">   29.44   29.51</time>
   <time name="total">   29.99   30.07</time>
   <energy>
    <i name="e_fr_energy">   -188.70131145 </i>
    <i name="e_wo_entrp">   -188.42305218 </i>
    <i name="e_0_energy">   -188.56218181 </i>
   </energy>
  </scstep>
  <scstep>
   <time name="dav">   30.90   30.97</time>
   <time name="total">   31.44   31.53</time>
   <energy>
    <i name="e_fr_energy">   -188.70073422 </i>
    <i name="e_wo_entrp">   -188.42264543 </i>
    <i name="e_0_energy">   -188.56168982 </i>
   </energy>
  </scstep>
  <scstep>
   <time name="dav">   28.78   28.85</time>
   <time name="total">   29.32   29.40</time>
   <energy>
    <i name="e_fr_energy">   -188.70085307 </i>
    <i name="e_wo_entrp">   -188.42287105 </i>
    <i name="e_0_energy">   -188.56186206 </i>
   </energy>
  </scstep>
  <scstep>
   <time name="dav">   21.86   21.91</time>
   <time name="total">   21.89   21.95</time>
   <energy>
    <i name="alphaZ">     78.91535469 </i>
    <i name="ewald">  39377.60207791 </i>
    <i name="hartreedc"> -45345.90000220 </i>
    <i name="XCdc">   -237.96857062 </i>
    <i name="pawpsdc">   3950.58720531 </i>
    <i name="pawaedc">  -3365.10855159 </i>
    <i name="eentropy">     -0.27807008 </i>
    <i name="bandstr">  -1407.99275299 </i>
    <i name="atom">   6761.44252427 </i>
    <i name="e_fr_energy">   -188.70078530 </i>
    <i name="e_wo_entrp">   -188.42271522 </i>
    <i name="e_0_energy">   -188.56175026 </i>
   </energy>
  </scstep>
  <structure>
   <crystal>
    <varray name="basis" >
     <v>       8.85359640       5.10512879       0.00000000 </v>
     <v>      -8.85511209       5.10773661       0.00000000 </v>
     <v>       0.00000000       0.00000000      30.00000000 </v>
    </varray>
    <i name="volume">   2712.84978414 </i>
    <varray name="rec_basis" >
     <v>       0.05648381       0.09792410       0.00000000 </v>
     <v>      -0.05645497       0.09790733       0.00000000 </v>
     <v>       0.00000000       0.00000000       0.03333333 </v>
    </varray>
   </crystal>
   <varray name="positions" >
    <v>       0.33220336       0.00082848       0.00010881 </v>
    <v>       0.33265854       0.66475303      -0.00007403 </v>
    <v>       0.66630561       0.66662400      -0.00013905 </v>
    <v>       1.00136648       0.33173061       0.00002905 </v>
    <v>       0.00139374       0.00288778       0.00022404 </v>
    <v>       0.33059491       0.33222403       0.00000383 </v>
    <v>       0.00050134       0.66708204       0.00008483 </v>
    <v>       0.66885702       0.00061601      -0.00009589 </v>
    <v>       0.66639989       0.33335096      -0.00014494 </v>
    <v>       0.11105477       0.22222386       0.95066950 </v>
    <v>       0.22450557       0.10845997       0.04805615 </v>
    <v>       0.11495534       0.55803886       0.95194787 </v>
    <v>       0.22428869       0.44879110       0.04809627 </v>
    <v>       0.11498822       0.88997152       0.95197457 </v>
    <v>       0.22559500       0.77927225       0.04691392 </v>
    <v>       0.44320972       0.21816512       0.95197326 </v>
    <v>       0.55155392       0.10913236       0.04810293 </v>
    <v>       0.44640822       0.55997525       0.95310780 </v>
    <v>       0.55807633       0.44837492       0.04800941 </v>
    <v>       0.44088291       0.88730413       0.95321638 </v>
    <v>       0.55391598       0.77417787       0.04687132 </v>
    <v>       0.77691385       0.22182834       0.95072346 </v>
    <v>       0.88790287       0.11054429       0.04932492 </v>
    <v>       0.77552633       0.55743344       0.95190263 </v>
    <v>       0.88846383       0.44474772       0.04918417 </v>
    <v>       0.77486226       0.88458740       0.95193189 </v>
    <v>       0.88482976       0.77508910       0.04799682 </v>
   </varray>
  </structure>
  <varray name="forces" >
   <v>      -0.30114500      -0.01985504      -0.05389776 </v>
   <v>       0.14799774      -0.26561113      -0.09795580 </v>
   <v>       0.05277328      -0.03816547       0.03918780 </v>
   <v>       0.54108795      -0.20305120      -0.00119954 </v>
   <v>      -0.42039234       0.50433260       0.03584973 </v>
   <v>      -0.27084684      -0.52849946       0.01140073 </v>
   <v>      -0.00759040      -0.08565704       0.08185052 </v>
   <v>       0.18630070       0.50848818      -0.10569457 </v>
   <v>       0.04006255       0.08049350       0.05850667 </v>
   <v>       0.00408667      -0.00074145      -0.35293113 </v>
   <v>       0.04702515      -0.00058672       0.21625163 </v>
   <v>      -0.10597165       0.04799326       0.06351234 </v>
   <v>      -0.01990890       0.07687853       0.15168660 </v>
   <v>       0.07199814      -0.05616398       0.08464257 </v>
   <v>      -0.05522760      -0.06617584      -0.11290749 </v>
   <v>       0.07487520       0.04780618       0.04487485 </v>
   <v>       0.05795527       0.04396806      -0.14730987 </v>
   <v>      -0.01813526       0.02758733       0.04786894 </v>
   <v>       0.09805418       0.04267858      -0.16116638 </v>
   <v>       0.06586922       0.07955478       0.31609583 </v>
   <v>      -0.06601795       0.07231538      -0.15868541 </v>
   <v>      -0.06282642      -0.08070590      -0.02839205 </v>
   <v>      -0.04370089      -0.09971407       0.27963614 </v>
   <v>       0.06870252      -0.00264884      -0.00562226 </v>
   <v>      -0.09010244      -0.00378565      -0.10532304 </v>
   <v>      -0.10243403      -0.04037799       0.03013435 </v>
   <v>       0.10751116      -0.04035662      -0.13041339 </v>
  </varray>
  <varray name="stress" >
   <v>     -19.87171222       0.00211285       0.02540373 </v>
   <v>       0.00211296     -19.47840199       0.00519380 </v>
   <v>       0.02540361       0.00519375      -1.74751730 </v>
  </varray>
  <energy>
   <i name="e_fr_energy">   -188.70078530 </i>
   <i name="e_wo_entrp">   -188.56175026 </i>
   <i name="e_0_energy">     -0.27807008 </i>
  </energy>
  <time name="totalsc">  428.53  429.67</time>
 </calculation>
 <calculation>
  <scstep>
   <time name="dav">   23.60   23.65</time>
   <time name="total">   24.13   24.19</time>
   <energy>
    <i name="alphaZ">     82.32986978 </i>
    <i name="ewald">  41295.53184637 </i>
    <i name="hartreedc"> -47294.20234830 </i>
    <i name="XCdc">   -233.85795616 </i>
    <i name="pawpsdc">   3949.73288861 </i>
    <i name="pawaedc">  -3364.24655446 </i>
    <i name="eentropy">     -0.23502500 </i>
    <i name="bandstr">  -1387.11499448 </i>
    <i name="atom">   6761.44252427 </i>
    <i name="e_fr_energy">   -190.61974937 </i>
    <i name="e_wo_entrp">   -190.38472437 </i>
    <i name="e_0_energy">   -190.50223687 </i>
   </energy>
  </scstep>
  <scstep>
   <time name="dav">   28.31   28.38</time>
   <time name="total">   28.83   28.91</time>
   <energy>
    <i name="e_fr_energy">   -190.56606488 </i>
    <i name="e_wo_entrp">   -190.33219937 </i>
    <i name="e_0_energy">   -190.44913212 </i>
   </energy>
  </scstep>
  <scstep>
   <time name="dav">   30.69   30.76</time>
   <time name="total">   31.22   31.30</time>
   <energy>
    <i name="e_fr_energy">   -190.10593510 </i>
    <i name="e_wo_entrp">   -189.85534643 </i>
    <i name="e_0_energy">   -189.98064076 </i>
   </energy>
  </scstep>
  <scstep>
   <time name="dav">   31.66   31.73</time>
   <time name="total">   32.19   32.28</time>
   <energy>
    <i name="e_fr_energy">   -189.89728086 </i>
    <i name="e_wo_entrp">   -189.66376136 </i>
    <i name="e_0_energy">   -189.78052111 </i>
   </energy>
  </scstep>
  <scstep>
   <time name="dav">   30.51   30.58</time>
   <time name="total">   31.03   31.12</time>
   <energy>
    <i name="e_fr_energy">   -189.87644270 </i>
    <i name="e_wo_entrp">   -189.63807451 </i>
    <i name="e_0_energy">   -189.75725861 </i>
   </energy>
  </scstep>
  <scstep>
   <time name="dav">   31.29   31.37</time>
   <time name="total">   31.82   31.91</time>
   <energy>
    <i name="e_fr_energy">   -189.79959554 </i>
    <i name="e_wo_entrp">   -189.56231466 </i>
    <i name="e_0_energy">   -189.68095510 </i>
   </energy>
  </scstep>
  <scstep>
   <time name="dav">   28.92   28.99</time>
   <time name="total">   29.45   29.53</time>
   <energy>
    <i name="e_fr_energy">   -189.79316302 </i>
    <i name="e_wo_entrp">   -189.55643936 </i>
    <i name="e_0_energy">   -189.67480119 </i>
   </energy>
  </scstep>
  <scstep>
   <time name="dav">   30.05   30.13</time>
   <time name="total">   30.58   30.66</time>
   <energy>
    <i name="e_fr_energy">   -189.79359211 </i>
    <i name="e_wo_entrp">   -189.55690307 </i>
    <i name="e_0_energy">   -189.67524759 </i>
   </energy>
  </scstep>
  <scstep>
   <time name="dav">   27.29   27.35</time>
   <time name="total">   27.82   27.90</time>
   <energy>
    <i name="e_fr_energy">   -189.79320726 </i>
    <i name="e_wo_entrp">   -189.55642704 </i>
    <i name="e_0_energy">   -189.67481715 </i>
   </energy>
  </scstep>
  <scstep>
   <time name="dav">   25.04   25.10</time>
   <time name="total">   25.58   25.64</time>
   <energy>
    <i name="e_fr_energy">   -189.79340009 </i>
    <i name="e_wo_entrp">   -189.55652782 </i>
    <i name="e_0_energy">   -189.67496395 </i>
   </energy>
  </scstep>
  <scstep>
   <time name="dav">   23.31   23.36</time>
   <time name="total">   23.84   23.90</time>
   <energy>
    <i name="e_fr_energy">   -189.79319955 </i>
    <i name="e_wo_entrp">   -189.55634219 </i>
    <i name="e_0_energy">   -189.67477087 </i>
   </energy>
  </scstep>
  <scstep>
   <time name="dav">   19.97   20.02</time>
   <time name="total">   20.01   20.06</time>
   <energy>
    <i name="alphaZ">     82.32986978 </i>
    <i name="ewald">  41295.53184637 </i>
    <i name="hartreedc"> -47267.80589650 </i>
    <i name="XCdc">   -235.24490426 </i>
    <i name="pawpsdc">   4038.76222084 </i>
    <i name="pawaedc">  -3454.47517614 </i>
    <i name="eentropy">     -0.23686985 </i>
    <i name="bandstr">  -1410.09683123 </i>
    <i name="atom">   6761.44252427 </i>
    <i name="e_fr_energy">   -189.79321671 </i>
    <i name="e_wo_entrp">   -189.55634686 </i>
    <i name="e_0_energy">   -189.67478179 </i>
   </energy>
  </scstep>
  <structure>
   <crystal>
    <varray name="basis" >
     <v>       8.66621428       4.99923315       0.00000000 </v>
     <v>      -8.66767490       5.00174701       0.00000000 </v>
     <v>       0.00000000       0.00000000      30.00000000 </v>
    </varray>
    <i name="volume">   2600.33817019 </i>
    <varray name="rec_basis" >
     <v>       0.05770496       0.09999863       0.00000000 </v>
     <v>      -0.05767596       0.09998178       0.00000000 </v>
     <v>       0.00000000       0.00000000       0.03333333 </v>
    </varray>
   </crystal>
   <varray name="positions" >
    <v>       0.33188143       0.00108421       0.00007830 </v>
    <v>       0.33235876       0.66416944      -0.00012949 </v>
    <v>       0.66629276       0.66650993      -0.00011687 </v>
    <v>       1.00154786       0.33087413       0.00002837 </v>
    <v>       0.00182923       0.00412952       0.00024434 </v>
    <v>       0.32945609       0.33160489       0.00001028 </v>
    <v>       0.00035160       0.66694688       0.00013116 </v>
    <v>       0.66988145       0.00128294      -0.00015573 </v>
    <v>       0.66657220       0.33344640      -0.00011182 </v>
    <v>       0.11105746       0.22221871       0.95046969 </v>
    <v>       0.22454971       0.10841391       0.04817858 </v>
    <v>       0.11493349       0.55822028       0.95198383 </v>
    <v>       0.22439745       0.44893803       0.04818215 </v>
    <v>       0.11496388       0.88980909       0.95202249 </v>
    <v>       0.22543196       0.77921517       0.04684999 </v>
    <v>       0.44336106       0.21817283       0.95199866 </v>
    <v>       0.55168264       0.10914990       0.04801953 </v>
    <v>       0.44643671       0.56003852       0.95313490 </v>
    <v>       0.55824138       0.44835187       0.04791817 </v>
    <v>       0.44107842       0.88737326       0.95339534 </v>
    <v>       0.55397292       0.77436142       0.04678148 </v>
    <v>       0.77671935       0.22175438       0.95070739 </v>
    <v>       0.88769510       0.11042038       0.04948324 </v>
    <v>       0.77558783       0.55736316       0.95189945 </v>
    <v>       0.88837109       0.44482782       0.04912454 </v>
    <v>       0.77469684       0.88461848       0.95194895 </v>
    <v>       0.88486578       0.77491890       0.04792299 </v>
   </varray>
  </structure>
  <varray name="forces" >
   <v>      -0.30483639      -0.00697541      -0.07336897 </v>
   <v>       0.12462632      -0.27021962      -0.08712990 </v>
   <v>       0.11321313      -0.02985677       0.05762365 </v>
   <v>       0.52885880      -0.27306152      -0.00317643 </v>
   <v>      -0.46297980       0.50902439       0.00217136 </v>
   <v>      -0.24777470      -0.55338302       0.01300345 </v>
   <v>      -0.02333090      -0.15592395       0.06129217 </v>
   <v>       0.15519506       0.57432977      -0.08626942 </v>
   <v>       0.07208298       0.12240148       0.07667172 </v>
   <v>       0.00917711      -0.00244254      -0.91881313 </v>
   <v>       0.11297585       0.00347291       0.72899288 </v>
   <v>       0.01355433       0.09056186      -0.42381109 </v>
   <v>      -0.05905396       0.13540514       0.65117701 </v>
   <v>       0.04899045       0.06426890      -0.39365490 </v>
   <v>       0.03272840       0.07695316       0.34703907 </v>
   <v>       0.05547293      -0.07792743      -0.44240768 </v>
   <v>      -0.00110237      -0.08281636       0.34815281 </v>
   <v>      -0.03977832       0.07500809      -0.39791611 </v>
   <v>      -0.03042071       0.08129561       0.31476531 </v>
   <v>      -0.00672263      -0.04165213      -0.11581026 </v>
   <v>      -0.00237027      -0.04860011       0.28335108 </v>
   <v>      -0.02461143       0.00241628      -0.59434390 </v>
   <v>      -0.00582172      -0.02932068       0.86339067 </v>
   <v>      -0.07559276       0.00359127      -0.52610477 </v>
   <v>       0.00534430      -0.00352755       0.43484017 </v>
   <v>       0.03708701      -0.08177813      -0.46851194 </v>
   <v>      -0.02491070      -0.08124365       0.34884716 </v>
  </varray>
  <varray name="stress" >
   <v>     -10.15134711       0.00967381       0.00189036 </v>
   <v>       0.00967371      -9.84433478       0.01745212 </v>
   <v>       0.00189040       0.01745209       6.45873952 </v>
  </varray>
  <energy>
   <i name="e_fr_energy">   -189.79321671 </i>
   <i name="e_wo_entrp">   -189.67478179 </i>
   <i name="e_0_energy">     -0.23686985 </i>
  </energy>
  <time name="totalsc">  379.10  380.10</time>
 </calculation>
 <calculation>
  <scstep>
   <time name="dav">   21.93   21.98</time>
   <time name="total">   22.45   22.50</time>
   <energy>
    <i name="alphaZ">     85.80926409 </i>
    <i name="ewald">  42829.00274152 </i>
    <i name="hartreedc"> -48845.69573905 </i>
    <i name="XCdc">   -232.95111512 </i>
    <i name="pawpsdc">   4038.81019219 </i>
    <i name="pawaedc">  -3454.52096421 </i>
    <i name="eentropy">     -0.20512424 </i>
    <i name="bandstr">  -1373.06426739 </i>
    <i name="atom">   6761.44252427 </i>
    <i name="e_fr_energy">   -191.37248792 </i>
    <i name="e_wo_entrp">   -191.16736368 </i>
    <i name="e_0_energy">   -191.26992580 </i>
   </energy>
  </scstep>
  <scstep>
   <time name="dav">   32.63   32.71</time>
   <time name="total">   33.15   33.23</time>
   <energy>
    <i name="e_fr_energy">   -191.20626828 </i>
    <i name="e_wo_entrp">   -191.00108302 </i>
    <i name="e_0_energy">   -191.10367565 </i>
   </energy>
  </scstep>
  <scstep>
   <time name="dav">   30.30   30.38</time>
   <time name="total">   30.81   30.89</time>
   <energy>
    <i name="e_fr_energy">   -191.31600870 </i>
    <i name="e_wo_entrp">   -191.08757127 </i>
    <i name="e_0_energy">   -191.20178998 </i>
   </energy>
  </scstep>
  <scstep>
   <time name="dav">   30.87   30.94</time>
   <time name="total">   31.39   31.48</time>
   <energy>
    <i name="e_fr_energy">   -190.94196497 </i>
    <i name="e_wo_entrp">   -190.73330126 </i>
    <i name="e_0_energy">   -190.83763311 </i>
   </energy>
  </scstep>
  <scstep>
   <time name="dav">   31.18   31.25</time>
   <time name="total">   31.69   31.78</time>
   <energy>
    <i name="e_fr_energy">   -190.89783001 </i>
    <i name="e_wo_entrp">   -190.69080930 </i>
    <i name="e_0_energy">   -190.79431965 </i>
   </energy>
  </scstep>
  <scstep>
   <time name="dav">   30.46   30.53</time>
   <time name="total">   30.98   31.06</time>
   <energy>
    <i name="e_fr_energy">   -190.80636383 </i>
    <i name="e_wo_entrp">   -190.59557805 </i>
    <i name="e_0_energy">   -190.70097094 </i>
   </energy>
  </scstep>
  <scstep>
   <time name="dav">   31.52   31.60</time>
   <time name="total">   32.04   32.13</time>
   <energy>
    <i name="e_fr_energy">   -190.79232447 </i>
    <i name="e_wo_entrp">   -190.58235889 </i>
    <i name="e_0_energy">   -190.68734168 </i>
   </energy>
  </scstep>
  <scstep>
   <time name="dav">   28.71   28.78</time>
   <time name="total">   29.23   29.30</time>
   <energy>
    <i name="e_fr_energy">   -190.79160411 </i>
    <i name="e_wo_entrp">   -190.58170927 </i>
    <i name="e_0_energy">   -190.68665669 </i>
   </energy>
  </scstep>
  <scstep>
   <time name="dav">   28.52   28.59</time>
   <time name="total">   29.03   29.11</time>
   <energy>
    <i name="e_fr_energy">   -190.78942478 </i>
    <i name="e_wo_entrp">   -190.57960641 </i>
    <i name="e_0_energy">   -190.68451559 </i>
   </energy>
  </scstep>
  <scstep>
   <time name="dav">   28.69   28.76</time>
   <time name="total">   29.21   29.29</time>
   <energy>
    <i name="e_fr_energy">   -190.78969144 </i>
    <i name="e_wo_entrp">   -190.57981901 </i>
    <i name="e_0_energy">   -190.68475522 </i>
   </energy>
  </scstep>
  <scstep>
   <time name="dav">   25.29   25.35</time>
   <time name="total">   25.81   25.88</time>
   <energy>
    <i name="e_fr_energy">   -190.78957030 </i>
    <i name="e_wo_entrp">   -190.57970943 </i>
    <i name="e_0_energy">   -190.68463986 </i>
   </energy>
  </scstep>
  <scstep>
   <time name="dav">   19.60   19.65</time>
   <time name="total">   19.64   19.69</time>
   <energy>
    <i name="alphaZ">     85.80926409 </i>
    <i name="ewald">  42829.00274152 </i>
    <i name="hartreedc"> -48817.11805815 </i>
    <i name="XCdc">   -234.28108235 </i>
    <i name="pawpsdc">   4064.19981667 </i>
    <i name="pawaedc">  -3480.09665975 </i>
    <i name="eentropy">     -0.20990385 </i>
    <i name="bandstr">  -1399.53820982 </i>
    <i name="atom">   6761.44252427 </i>
    <i name="e_fr_energy">   -190.78956736 </i>
    <i name="e_wo_entrp">   -190.57966351 </i>
    <i name="e_0_energy">   -190.68461544 </i>
   </energy>
  </scstep>
  <structure>
   <crystal>
    <varray name="basis" >
     <v>       8.48477313       4.89964307       0.00000000 </v>
     <v>      -8.48572840       4.90128382       0.00000000 </v>
     <v>       0.00000000       0.00000000      30.00000000 </v>
    </varray>
    <i name="volume">   2494.89964996 </i>
    <varray name="rec_basis" >
     <v>       0.05893564       0.10203691       0.00000000 </v>
     <v>      -0.05891591       0.10202542       0.00000000 </v>
     <v>       0.00000000       0.00000000       0.03333333 </v>
    </varray>
   </crystal>
   <varray name="positions" >
    <v>       0.33076208       0.00218009      -0.00009027 </v>
    <v>       0.33107083       0.66204800      -0.00030073 </v>
    <v>       0.66662324       0.66584713       0.00001820 </v>
    <v>       1.00155649       0.32709372       0.00002011 </v>
    <v>       0.00329485       0.00906585       0.00022013 </v>
    <v>       0.32506303       0.32893768       0.00003858 </v>
    <v>      -0.00090862       0.66590104       0.00024059 </v>
    <v>       0.67416190       0.00453022      -0.00031786 </v>
    <v>       0.66775117       0.33401145       0.00006247 </v>
    <v>       0.11107844       0.22215862       0.94808422 </v>
    <v>       0.22508552       0.10794220       0.05012558 </v>
    <v>       0.11582929       0.55867273       0.95069060 </v>
    <v>       0.22512243       0.45020297       0.04995668 </v>
    <v>       0.11581218       0.89036943       0.95079941 </v>
    <v>       0.22651804       0.77981039       0.04796087 </v>
    <v>       0.44273046       0.21719722       0.95066695 </v>
    <v>       0.55075687       0.10840281       0.04916299 </v>
    <v>       0.44685038       0.56080227       0.95193072 </v>
    <v>       0.55855194       0.44925339       0.04897582 </v>
    <v>       0.44038470       0.88693792       0.95278730 </v>
    <v>       0.55344892       0.77367084       0.04774517 </v>
    <v>       0.77690882       0.22201143       0.94899392 </v>
    <v>       0.88772129       0.11037927       0.05176914 </v>
    <v>       0.77514412       0.55788288       0.95036608 </v>
    <v>       0.88850683       0.44464925       0.05048565 </v>
    <v>       0.77441635       0.88366693       0.95055348 </v>
    <v>       0.88397289       0.77458871       0.04905408 </v>
   </varray>
  </structure>
  <varray name="forces" >
   <v>      -0.30652743      -0.02159892      -0.07432856 </v>
   <v>       0.09113207      -0.24118856      -0.03764453 </v>
   <v>       0.18349868      -0.04971143       0.06007363 </v>
   <v>       0.47420070      -0.33088738      -0.00080866 </v>
   <v>      -0.46687032       0.48133003      -0.03097756 </v>
   <v>      -0.21783809      -0.52550691       0.02187362 </v>
   <v>      -0.03924519      -0.20259202       0.01253335 </v>
   <v>       0.14798481       0.58248228      -0.02191193 </v>
   <v>       0.09401235       0.17752559       0.05074204 </v>
   <v>       0.00132696       0.00746684      -0.71429896 </v>
   <v>      -0.02055488      -0.01142990       0.56288512 </v>
   <v>       0.04849330      -0.03455271      -0.26801221 </v>
   <v>      -0.00332344      -0.00726619       0.45946654 </v>
   <v>      -0.05578824       0.00716691      -0.20958113 </v>
   <v>       0.01703044       0.02834231       0.23871313 </v>
   <v>      -0.03660978      -0.01436517      -0.26385184 </v>
   <v>       0.02849842      -0.03523150       0.20358592 </v>
   <v>       0.02326036      -0.04559488      -0.30590534 </v>
   <v>      -0.06459374      -0.06392603       0.18189323 </v>
   <v>       0.02999000       0.03974404      -0.02967470 </v>
   <v>      -0.02665029       0.02415986       0.13875517 </v>
   <v>       0.01863371       0.08293876      -0.46137765 </v>
   <v>       0.03288163       0.03379400       0.68431465 </v>
   <v>      -0.04107779      -0.00756321      -0.39834475 </v>
   <v>       0.11228480       0.01140205       0.29740294 </v>
   <v>       0.04212577       0.05110549      -0.30433656 </v>
   <v>      -0.06627480       0.06395665       0.20881502 </v>
  </varray>
  <varray name="stress" >
   <v>      -5.70635770      -0.08029326      -0.01541087 </v>
   <v>      -0.08029326      -5.65711537      -0.04347330 </v>
   <v>      -0.01541103      -0.04347308       4.48868788 </v>
  </varray>
  <energy>
   <i name="e_fr_energy">   -190.78956736 </i>
   <i name="e_wo_entrp">   -190.68461544 </i>
   <i name="e_0_energy">     -0.20990385 </i>
  </energy>
  <time name="totalsc">  387.74  388.77</time>
 </calculation>
 <calculation>
  <scstep>
   <time name="dav">   21.91   21.96</time>
   <time name="total">   22.42   22.48</time>
   <energy>
    <i name="alphaZ">     90.06198807 </i>
    <i name="ewald">  44613.93563925 </i>
    <i name="hartreedc"> -50656.21680169 </i>
    <i name="XCdc">   -231.90136662 </i>
    <i name="pawpsdc">   4064.14324942 </i>
    <i name="pawaedc">  -3480.03640405 </i>
    <i name="eentropy">     -0.20322885 </i>
    <i name="bandstr">  -1353.32059285 </i>
    <i name="atom">   6761.44252427 </i>
    <i name="e_fr_energy">   -192.09499304 </i>
    <i name="e_wo_entrp">   -191.89176419 </i>
    <i name="e_0_energy">   -191.99337861 </i>
   </energy>
  </scstep>
  <scstep>
   <time name="dav">   28.83   28.90</time>
   <time name="total">   29.34   29.42</time>
   <energy>
    <i name="e_fr_energy">   -191.86225203 </i>
    <i name="e_wo_entrp">   -191.65323122 </i>
    <i name="e_0_energy">   -191.75774163 </i>
   </energy>
  </scstep>
  <scstep>
   <time name="dav">   28.21   28.28</time>
   <time name="total">   28.72   28.80</time>
   <energy>
    <i name="e_fr_energy">   -192.06213121 </i>
    <i name="e_wo_entrp">   -191.84241305 </i>
    <i name="e_0_energy">   -191.95227213 </i>
   </energy>
  </scstep>
  <scstep>
   <time name="dav">   28.84   28.91</time>
   <time name="total">   29.35   29.44</time>
   <energy>
    <i name="e_fr_energy">   -191.74742634 </i>
    <i name="e_wo_entrp">   -191.53221380 </i>
    <i name="e_0_energy">   -191.63982007 </i>
   </energy>
  </scstep>
  <scstep>
   <time name="dav">   30.63   30.70</time>
   <time name="total">   31.13   31.22</time>
   <energy>
    <i name="e_fr_energy">   -191.57257355 </i>
    <i name="e_wo_entrp">   -191.37274328 </i>
    <i name="e_0_energy">   -191.47265842 </i>
   </energy>
  </scstep>
  <scstep>
   <time name="dav">   30.54   30.61</time>
   <time name="total">   31.05   31.13</time>
   <energy>
    <i name="e_fr_energy">   -191.44738323 </i>
    <i name="e_wo_entrp">   -191.23458880 </i>
    <i name="e_0_energy">   -191.34098602 </i>
   </energy>
  </scstep>
  <scstep>
   <time name="dav">   30.56   30.64</time>
   <time name="total">   31.07   31.15</time>
   <energy>
    <i name="e_fr_energy">   -191.43313651 </i>
    <i name="e_wo_entrp">   -191.22223826 </i>
    <i name="e_0_energy">   -191.32768738 </i>
   </energy>
  </scstep>
  <scstep>
   <time name="dav">   27.33   27.39</time>
   <time name="total">   27.83   27.91</time>
   <energy>
    <i name="e_fr_energy">   -191.42898135 </i>
    <i name="e_wo_entrp">   -191.21830431 </i>
    <i name="e_0_energy">   -191.32364283 </i>
   </energy>
  </scstep>
  <scstep>
   <time name="dav">   31.51   31.59</time>
   <time name="total">   32.02   32.10</time>
   <energy>
    <i name="e_fr_energy">   -191.43038778 </i>
    <i name="e_wo_entrp">   -191.21990446 </i>
    <i name="e_0_energy">   -191.32514612 </i>
   </energy>
  </scstep>
  <scstep>
   <time name="dav">   28.32   28.39</time>
   <time name="total">   28.83   28.90</time>
   <energy>
    <i name="e_fr_energy">   -191.42889218 </i>
    <i name="e_wo_entrp">   -191.21800064 </i>
    <i name="e_0_energy">   -191.32344641 </i>
   </energy>
  </scstep>
  <scstep>
   <time name="dav">   25.04   25.10</time>
   <time name="total">   25.07   25.14</time>
   <energy>
    <i name="alphaZ">     90.06198807 </i>
    <i name="ewald">  44613.93563925 </i>
    <i name="hartreedc"> -50623.11224903 </i>
    <i name="XCdc">   -233.38639547 </i>
    <i name="pawpsdc">   4085.11225602 </i>
    <i name="pawaedc">  -3501.09916412 </i>
    <i name="eentropy">     -0.21083533 </i>
    <i name="bandstr">  -1384.17272496 </i>
    <i name="atom">   6761.44252427 </i>
    <i name="e_fr_energy">   -191.42896129 </i>
    <i name="e_wo_entrp">   -191.21812596 </i>
    <i name="e_0_energy">   -191.32354363 </i>
   </energy>
  </scstep>
  <structure>
   <crystal>
    <varray name="basis" >
     <v>       8.27825062       4.77959613       0.00000000 </v>
     <v>      -8.28364305       4.78892051       0.00000000 </v>
     <v>       0.00000000       0.00000000      30.00000000 </v>
    </varray>
    <i name="volume">   2377.09057417 </i>
    <varray name="rec_basis" >
     <v>       0.06043843       0.10454347       0.00000000 </v>
     <v>      -0.06032075       0.10447541       0.00000000 </v>
     <v>       0.00000000       0.00000000       0.03333333 </v>
    </varray>
   </crystal>
   <varray name="positions" >
    <v>       0.32840458       0.00413313      -0.00040297 </v>
    <v>       0.32871248       0.65842442      -0.00046535 </v>
    <v>       0.66739580       0.66397937       0.00027266 </v>
    <v>       1.00079118       0.31961101       0.00001375 </v>
    <v>       0.00585938       0.01831375       0.00008228 </v>
    <v>       0.31704212       0.32395550       0.00012209 </v>
    <v>      -0.00377979       0.66360245       0.00029597 </v>
    <v>       0.68240765       0.01078676      -0.00041968 </v>
    <v>       0.67062864       0.33550581       0.00029464 </v>
    <v>       0.11117318       0.22220319       0.94460012 </v>
    <v>       0.22507284       0.10774911       0.05293841 </v>
    <v>       0.11623879       0.55807577       0.94907555 </v>
    <v>       0.22529403       0.45065496       0.05236060 </v>
    <v>       0.11600514       0.89122247       0.94940962 </v>
    <v>       0.22762771       0.78036278       0.04940842 </v>
    <v>       0.44189260       0.21676268       0.94905644 </v>
    <v>       0.54996542       0.10746125       0.05052488 </v>
    <v>       0.44669689       0.56051260       0.95023936 </v>
    <v>       0.55749118       0.44945586       0.05022674 </v>
    <v>       0.44044626       0.88688617       0.95220639 </v>
    <v>       0.55321978       0.77356106       0.04879862 </v>
    <v>       0.77817360       0.22297104       0.94654900 </v>
    <v>       0.88848498       0.11063043       0.05513842 </v>
    <v>       0.77453063       0.55838438       0.94821753 </v>
    <v>       0.88946505       0.44392097       0.05225859 </v>
    <v>       0.77522163       0.88343296       0.94877921 </v>
    <v>       0.88375268       0.77565460       0.05041860 </v>
   </varray>
  </structure>
  <varray name="forces" >
   <v>      -0.30261882      -0.07225504       0.02899167 </v>
   <v>       0.06828414      -0.21257559      -0.00300588 </v>
   <v>       0.23418615      -0.11831681      -0.01768953 </v>
   <v>      -0.05878844      -0.10303012      -0.05928567 </v>
   <v>      -0.04235912       0.09287928       0.02546086 </v>
   <v>      -0.06934785      -0.14198562      -0.02746743 </v>
   <v>      -0.00039664      -0.23064131       0.01026748 </v>
   <v>       0.05884839       0.36657722       0.05206814 </v>
   <v>       0.15698041       0.27896189      -0.02809684 </v>
   <v>      -0.05648215       0.02758365      -0.25027268 </v>
   <v>      -0.11914804      -0.04896830       0.13883383 </v>
   <v>       0.03307513      -0.17731806       0.01669022 </v>
   <v>       0.03875812      -0.16968086       0.08668076 </v>
   <v>      -0.19082939      -0.08952975       0.06137398 </v>
   <v>      -0.02371550      -0.03552348      -0.03760957 </v>
   <v>      -0.11682712       0.08442208       0.07481494 </v>
   <v>       0.06403438       0.05236608      -0.06559128 </v>
   <v>       0.08700343      -0.13077420       0.00872798 </v>
   <v>      -0.02519303      -0.22378314      -0.05541674 </v>
   <v>       0.06735277       0.17066888       0.19864069 </v>
   <v>      -0.03894485       0.11249266      -0.13208047 </v>
   <v>       0.02448762       0.12808123      -0.16679134 </v>
   <v>       0.07171437       0.05310209       0.26023280 </v>
   <v>       0.00613394      -0.03650119      -0.13930858 </v>
   <v>       0.19893721       0.02527835       0.07637855 </v>
   <v>       0.00352761       0.18449704       0.03279406 </v>
   <v>      -0.06867273       0.21397302      -0.08933994 </v>
  </varray>
  <varray name="stress" >
   <v>      -0.05705815      -0.20552123       0.27065126 </v>
   <v>      -0.20552121       0.30973409      -0.19563151 </v>
   <v>       0.27065132      -0.19563137      -0.70948538 </v>
  </varray>
  <energy>
   <i name="e_fr_energy">   -191.42896129 </i>
   <i name="e_wo_entrp">   -191.32354363 </i>
   <i name="e_0_energy">     -0.21083533 </i>
  </energy>
  <time name="totalsc">  359.07  360.03</time>
 </calculation>
 <calculation>
  <scstep>
   <time name="dav">   21.94   22.00</time>
   <time name="total">   22.45   22.50</time>
   <energy>
    <i name="alphaZ">     89.99227375 </i>
    <i name="ewald">  44567.85101421 </i>
    <i name="hartreedc"> -50576.91847625 </i>
    <i name="XCdc">   -233.49582158 </i>
    <i name="pawpsdc">   4085.30919752 </i>
    <i name="pawaedc">  -3501.29340745 </i>
    <i name="eentropy">     -0.21392348 </i>
    <i name="bandstr">  -1384.15135110 </i>
    <i name="atom">   6761.44252427 </i>
    <i name="e_fr_energy">   -191.47797010 </i>
    <i name="e_wo_entrp">   -191.26404662 </i>
    <i name="e_0_energy">   -191.37100836 </i>
   </energy>
  </scstep>
  <scstep>
   <time name="dav">   32.69   32.77</time>
   <time name="total">   33.20   33.29</time>
   <energy>
    <i name="e_fr_energy">   -191.53082109 </i>
    <i name="e_wo_entrp">   -191.30692652 </i>
    <i name="e_0_energy">   -191.41887380 </i>
   </energy>
  </scstep>
  <scstep>
   <time name="dav">   30.85   30.92</time>
   <time name="total">   31.35   31.44</time>
   <energy>
    <i name="e_fr_energy">   -191.48904271 </i>
    <i name="e_wo_entrp">   -191.27464158 </i>
    <i name="e_0_energy">   -191.38184214 </i>
   </energy>
  </scstep>
  <scstep>
   <time name="dav">   28.67   28.74</time>
   <time name="total">   29.17   29.25</time>
   <energy>
    <i name="e_fr_energy">   -191.49062449 </i>
    <i name="e_wo_entrp">   -191.27472280 </i>
    <i name="e_0_energy">   -191.38267365 </i>
   </energy>
  </scstep>
  <scstep>
   <time name="dav">   26.34   26.40</time>
   <time name="total">   26.85   26.92</time>
   <energy>
    <i name="e_fr_energy">   -191.48717609 </i>
    <i name="e_wo_entrp">   -191.27162793 </i>
    <i name="e_0_energy">   -191.37940201 </i>
   </energy>
  </scstep>
  <scstep>
   <time name="dav">   26.69   26.75</time>
   <time name="total">   27.19   27.27</time>
   <energy>
    <i name="e_fr_energy">   -191.48715909 </i>
    <i name="e_wo_entrp">   -191.27144463 </i>
    <i name="e_0_energy">   -191.37930186 </i>
   </energy>
  </scstep>
  <scstep>
   <time name="dav">   26.20   26.26</time>
   <time name="total">   26.70   26.78</time>
   <energy>
    <i name="e_fr_energy">   -191.48686449 </i>
    <i name="e_wo_entrp">   -191.27140248 </i>
    <i name="e_0_energy">   -191.37913349 </i>
   </energy>
  </scstep>
  <scstep>
   <time name="dav">   21.44   21.50</time>
   <time name="total">   21.48   21.54</time>
   <energy>
    <i name="alphaZ">     89.99227375 </i>
    <i name="ewald">  44567.85101421 </i>
    <i name="hartreedc"> -50578.36413528 </i>
    <i name="XCdc">   -233.45974407 </i>
    <i name="pawpsdc">   4082.37000856 </i>
    <i name="pawaedc">  -3498.30914065 </i>
    <i name="eentropy">     -0.21553312 </i>
    <i name="bandstr">  -1382.79413043 </i>
    <i name="atom">   6761.44252427 </i>
    <i name="e_fr_energy">   -191.48686274 </i>
    <i name="e_wo_entrp">   -191.27132962 </i>
    <i name="e_0_energy">   -191.37909618 </i>
   </energy>
  </scstep>
  <structure>
   <crystal>
    <varray name="basis" >
     <v>       8.27488785       4.77928577       0.00000000 </v>
     <v>      -8.28544319       4.79755551       0.00000000 </v>
     <v>       0.00000000       0.00000000      30.00000000 </v>
    </varray>
    <i name="volume">   2378.93203502 </i>
    <varray name="rec_basis" >
     <v>       0.06050054       0.10448524       0.00000000 </v>
     <v>      -0.06027014       0.10435213       0.00000000 </v>
     <v>       0.00000000       0.00000000       0.03333333 </v>
    </varray>
   </crystal>
   <varray name="positions" >
    <v>       0.32717520       0.00463830      -0.00035538 </v>
    <v>       0.32785470       0.65717710      -0.00046947 </v>
    <v>       0.66747805       0.66271729       0.00024336 </v>
    <v>       1.00010793       0.31929492      -0.00008092 </v>
    <v>       0.00619195       0.01886449       0.00012354 </v>
    <v>       0.31616175       0.32346502       0.00007789 </v>
    <v>      -0.00492481       0.66245817       0.00031214 </v>
    <v>       0.68438188       0.01242682      -0.00033606 </v>
    <v>       0.67246946       0.33644285       0.00024876 </v>
    <v>       0.11114742       0.22250450       0.94421577 </v>
    <v>       0.22448173       0.10784966       0.05314757 </v>
    <v>       0.11544329       0.55709427       0.94911005 </v>
    <v>       0.22455474       0.44969019       0.05248805 </v>
    <v>       0.11500178       0.89132149       0.94951463 </v>
    <v>       0.22737495       0.78025042       0.04934131 </v>
    <v>       0.44198157       0.21752618       0.94918381 </v>
    <v>       0.55041788       0.10754287       0.05041325 </v>
    <v>       0.44629367       0.55960632       0.95026124 </v>
    <v>       0.55630076       0.44840604       0.05013188 </v>
    <v>       0.44149786       0.88754705       0.95252724 </v>
    <v>       0.55367238       0.77423889       0.04858213 </v>
    <v>       0.77888090       0.22353753       0.94629383 </v>
    <v>       0.88895541       0.11068781       0.05553912 </v>
    <v>       0.77436856       0.55818111       0.94800497 </v>
    <v>       0.89016405       0.44347553       0.05237204 </v>
    <v>       0.77615332       0.88434892       0.94884010 </v>
    <v>       0.88462809       0.77692072       0.05026908 </v>
   </varray>
  </structure>
  <varray name="forces" >
   <v>      -0.32261914      -0.11381205      -0.00414493 </v>
   <v>       0.09103416      -0.23784638       0.01186263 </v>
   <v>       0.21092735      -0.13761527       0.01917273 </v>
   <v>      -0.02194630      -0.12234698      -0.01554642 </v>
   <v>      -0.09159808       0.20350985      -0.03738153 </v>
   <v>      -0.13345409      -0.19888768      -0.03809812 </v>
   <v>       0.02514849      -0.23819650       0.02846339 </v>
   <v>       0.05546383       0.38160220       0.03104337 </v>
   <v>       0.20276613       0.32420930       0.00064155 </v>
   <v>      -0.03684911       0.00175143      -0.11615745 </v>
   <v>      -0.07139021      -0.01071280       0.13075512 </v>
   <v>       0.00247048      -0.09397903      -0.01869481 </v>
   <v>       0.01858140      -0.10280923       0.05315720 </v>
   <v>      -0.10547122      -0.08190410       0.05839211 </v>
   <v>      -0.01942039      -0.03074507      -0.06261175 </v>
   <v>      -0.06220762       0.06708603       0.10542040 </v>
   <v>       0.02804614       0.06141264      -0.08603290 </v>
   <v>       0.05899201      -0.07618883       0.01372828 </v>
   <v>       0.01270790      -0.13599691      -0.08223107 </v>
   <v>       0.03912199       0.11193627       0.24808694 </v>
   <v>      -0.01511816       0.07926033      -0.17203489 </v>
   <v>       0.00179823       0.06344715      -0.16027007 </v>
   <v>       0.04496720       0.06603546       0.16610002 </v>
   <v>       0.00929763      -0.02316429      -0.14343184 </v>
   <v>       0.10858016       0.03156563       0.10813438 </v>
   <v>       0.00444750       0.10513929       0.05542662 </v>
   <v>      -0.03427628       0.10724953      -0.09374897 </v>
  </varray>
  <varray name="stress" >
   <v>      -0.16139120       0.04520444       0.17521030 </v>
   <v>       0.04520434      -0.07514516       0.00201904 </v>
   <v>       0.17521035       0.00201908      -1.26758158 </v>
  </varray>
  <energy>
   <i name="e_fr_energy">   -191.48686274 </i>
   <i name="e_wo_entrp">   -191.37909618 </i>
   <i name="e_0_energy">     -0.21553312 </i>
  </energy>
  <time name="totalsc">  260.88  261.57</time>
 </calculation>
 <calculation>
  <scstep>
   <time name="dav">   21.91   21.97</time>
   <time name="total">   22.42   22.48</time>
   <energy>
    <i name="alphaZ">     90.08197877 </i>
    <i name="ewald">  44609.07944997 </i>
    <i name="hartreedc"> -50620.51392810 </i>
    <i name="XCdc">   -233.39977712 </i>
    <i name="pawpsdc">   4082.27575652 </i>
    <i name="pawaedc">  -3498.21374871 </i>
    <i name="eentropy">     -0.21723839 </i>
    <i name="bandstr">  -1382.07498610 </i>
    <i name="atom">   6761.44252427 </i>
    <i name="e_fr_energy">   -191.53996888 </i>
    <i name="e_wo_entrp">   -191.32273049 </i>
    <i name="e_0_energy">   -191.43134969 </i>
   </energy>
  </scstep>
  <scstep>
   <time name="dav">   33.42   33.50</time>
   <time name="total">   33.92   34.01</time>
   <energy>
    <i name="e_fr_energy">   -191.57502863 </i>
    <i name="e_wo_entrp">   -191.34637749 </i>
    <i name="e_0_energy">   -191.46070306 </i>
   </energy>
  </scstep>
  <scstep>
   <time name="dav">   30.85   30.92</time>
   <time name="total">   31.35   31.44</time>
   <energy>
    <i name="e_fr_energy">   -191.54689056 </i>
    <i name="e_wo_entrp">   -191.32965215 </i>
    <i name="e_0_energy">   -191.43827135 </i>
   </energy>
  </scstep>
  <scstep>
   <time name="dav">   28.06   28.12</time>
   <time name="total">   28.56   28.64</time>
   <energy>
    <i name="e_fr_energy">   -191.54655578 </i>
    <i name="e_wo_entrp">   -191.32707250 </i>
    <i name="e_0_energy">   -191.43681414 </i>
   </energy>
  </scstep>
  <scstep>
   <time name="dav">   27.20   27.27</time>
   <time name="total">   27.71   27.78</time>
   <energy>
    <i name="e_fr_energy">   -191.54510731 </i>
    <i name="e_wo_entrp">   -191.32641872 </i>
    <i name="e_0_energy">   -191.43576301 </i>
   </energy>
  </scstep>
  <scstep>
   <time name="dav">   25.81   25.87</time>
   <time name="total">   26.32   26.39</time>
   <energy>
    <i name="e_fr_energy">   -191.54447326 </i>
    <i name="e_wo_entrp">   -191.32509948 </i>
    <i name="e_0_energy">   -191.43478637 </i>
   </energy>
  </scstep>
  <scstep>
   <time name="dav">   26.69   26.75</time>
   <time name="total">   27.19   27.27</time>
   <energy>
    <i name="e_fr_energy">   -191.54430522 </i>
    <i name="e_wo_entrp">   -191.32491161 </i>
    <i name="e_0_energy">   -191.43460842 </i>
   </energy>
  </scstep>
  <scstep>
   <time name="dav">   22.41   22.46</time>
   <time name="total">   22.44   22.51</time>
   <energy>
    <i name="alphaZ">     90.08197877 </i>
    <i name="ewald">  44609.07944997 </i>
    <i name="hartreedc"> -50620.33051152 </i>
    <i name="XCdc">   -233.41632669 </i>
    <i name="pawpsdc">   4084.26545922 </i>
    <i name="pawaedc">  -3500.22865626 </i>
    <i name="eentropy">     -0.21929952 </i>
    <i name="bandstr">  -1382.21893614 </i>
    <i name="atom">   6761.44252427 </i>
    <i name="e_fr_energy">   -191.54431790 </i>
    <i name="e_wo_entrp">   -191.32501838 </i>
[...]
      <set comment="kpoint 31">
       <r>  -17.5542    1.0000 </r>
       <r>  -17.2634    1.0000 </r>
       <r>  -16.8968    1.0000 </r>
       <r>  -16.7256    1.0000 </r>
       <r>  -16.4997    1.0000 </r>
       <r>  -16.4549    1.0000 </r>
       <r>  -16.3334    1.0000 </r>
       <r>  -16.1896    1.0000 </r>
       <r>  -16.0553    1.0000 </r>
       <r>  -16.0098    1.0000 </r>
       <r>  -15.9499    1.0000 </r>
       <r>  -15.8785    1.0000 </r>
       <r>  -15.7781    1.0000 </r>
       <r>  -15.7089    1.0000 </r>
       <r>  -15.6163    1.0000 </r>
       <r>  -15.4747    1.0000 </r>
       <r>  -15.4282    1.0000 </r>
       <r>  -15.2131    1.0000 </r>
       <r>   -9.7397    1.0000 </r>
       <r>   -9.4789    1.0000 </r>
       <r>   -9.3538    1.0000 </r>
       <r>   -9.0508    1.0000 </r>
       <r>   -8.8594    1.0000 </r>
       <r>   -8.7338    1.0000 </r>
       <r>   -8.5362    1.0000 </r>
       <r>   -8.4884    1.0000 </r>
       <r>   -8.4278    1.0000 </r>
       <r>   -8.3307    1.0000 </r>
       <r>   -8.2570    1.0000 </r>
       <r>   -8.1946    1.0000 </r>
       <r>   -8.1508    1.0000 </r>
       <r>   -8.0530    1.0000 </r>
       <r>   -8.0287    1.0000 </r>
       <r>   -7.9129    1.0000 </r>
       <r>   -7.8339    1.0000 </r>
       <r>   -7.7317    1.0000 </r>
       <r>   -7.6054    1.0000 </r>
       <r>   -7.4084    1.0000 </r>
       <r>   -7.2864    1.0000 </r>
       <r>   -7.2041    1.0000 </r>
       <r>   -7.1596    1.0000 </r>
       <r>   -7.0736    1.0000 </r>
       <r>   -7.0103    1.0000 </r>
       <r>   -6.9363    1.0000 </r>
       <r>   -6.8146    1.0000 </r>
       <r>   -6.7974    1.0000 </r>
       <r>   -6.7305    1.0000 </r>
       <r>   -6.6568    1.0000 </r>
       <r>   -6.5139    1.0000 </r>
       <r>   -6.4862    1.0000 </r>
       <r>   -6.4275    1.0000 </r>
       <r>   -6.3550    1.0000 </r>
       <r>   -6.2859    1.0000 </r>
       <r>   -6.2507    1.0000 </r>
       <r>   -6.1627    1.0000 </r>
       <r>   -6.0637    1.0000 </r>
       <r>   -5.9679    1.0000 </r>
       <r>   -5.8916    1.0000 </r>
       <r>   -5.8770    1.0000 </r>
       <r>   -5.8029    1.0000 </r>
       <r>   -5.7143    1.0000 </r>
       <r>   -5.6183    1.0000 </r>
       <r>   -5.4694    1.0000 </r>
       <r>   -5.3447    1.0000 </r>
       <r>   -5.2816    1.0000 </r>
       <r>   -5.1222    1.0000 </r>
       <r>   -5.0728    1.0000 </r>
       <r>   -4.9054    1.0000 </r>
       <r>   -4.8338    1.0000 </r>
       <r>   -4.6761    1.0000 </r>
       <r>   -4.6436    1.0000 </r>
       <r>   -4.5101    1.0000 </r>
       <r>   -4.3743    1.0000 </r>
       <r>   -4.2674    1.0000 </r>
       <r>   -4.1056    1.0000 </r>
       <r>   -4.0228    1.0000 </r>
       <r>   -3.8097    0.9996 </r>
       <r>   -3.6644    0.9893 </r>
       <r>   -3.5622    0.9429 </r>
       <r>   -3.4068    0.6846 </r>
       <r>   -2.9961    0.0077 </r>
       <r>   -2.8520    0.0003 </r>
       <r>   -2.7081    0.0000 </r>
       <r>   -2.5723    0.0000 </r>
       <r>   -2.5247    0.0000 </r>
       <r>   -2.4232    0.0000 </r>
       <r>   -2.2599    0.0000 </r>
       <r>   -2.1903    0.0000 </r>
       <r>   -2.1212    0.0000 </r>
       <r>   -1.9570    0.0000 </r>
       <r>   -1.6692    0.0000 </r>
       <r>   -1.5864    0.0000 </r>
       <r>   -1.5067    0.0000 </r>
       <r>   -1.3444    0.0000 </r>
       <r>   -1.2087    0.0000 </r>
       <r>   -1.1749    0.0000 </r>
       <r>   -1.1116    0.0000 </r>
       <r>   -1.0575    0.0000 </r>
       <r>   -0.9661    0.0000 </r>
       <r>   -0.9537    0.0000 </r>
       <r>   -0.8479    0.0000 </r>
       <r>   -0.7316    0.0000 </r>
       <r>   -0.6066    0.0000 </r>
       <r>   -0.5724    0.0000 </r>
       <r>   -0.4465    0.0000 </r>
       <r>   -0.3863    0.0000 </r>
       <r>   -0.2319    0.0000 </r>
       <r>   -0.1597    0.0000 </r>
       <r>   -0.0223    0.0000 </r>
       <r>    0.2811    0.0000 </r>
       <r>    0.3559    0.0000 </r>
       <r>    0.4789    0.0000 </r>
       <r>    0.6868    0.0000 </r>
       <r>    0.9786    0.0000 </r>
       <r>    1.0931    0.0000 </r>
       <r>    1.2054    0.0000 </r>
       <r>    1.5500    0.0000 </r>
       <r>    2.1274    0.0000 </r>
       <r>    2.2965    0.0000 </r>
       <r>    2.3865    0.0000 </r>
      </set>
      <set comment="kpoint 32">
       <r>  -17.5604    1.0000 </r>
       <r>  -17.1960    1.0000 </r>
       <r>  -17.0152    1.0000 </r>
       <r>  -16.7221    1.0000 </r>
       <r>  -16.4685    1.0000 </r>
       <r>  -16.3761    1.0000 </r>
       <r>  -16.2950    1.0000 </r>
       <r>  -16.2501    1.0000 </r>
       <r>  -16.1165    1.0000 </r>
       <r>  -16.0338    1.0000 </r>
       <r>  -15.9274    1.0000 </r>
       <r>  -15.8703    1.0000 </r>
       <r>  -15.7814    1.0000 </r>
       <r>  -15.6894    1.0000 </r>
       <r>  -15.6110    1.0000 </r>
       <r>  -15.4767    1.0000 </r>
       <r>  -15.4194    1.0000 </r>
       <r>  -15.2180    1.0000 </r>
       <r>   -9.6901    1.0000 </r>
       <r>   -9.5827    1.0000 </r>
       <r>   -9.4261    1.0000 </r>
       <r>   -9.0303    1.0000 </r>
       <r>   -8.7070    1.0000 </r>
       <r>   -8.6769    1.0000 </r>
       <r>   -8.5081    1.0000 </r>
       <r>   -8.4581    1.0000 </r>
       <r>   -8.4184    1.0000 </r>
       <r>   -8.3447    1.0000 </r>
       <r>   -8.2840    1.0000 </r>
       <r>   -8.2431    1.0000 </r>
       <r>   -8.1451    1.0000 </r>
       <r>   -8.1261    1.0000 </r>
       <r>   -8.0337    1.0000 </r>
       <r>   -7.9523    1.0000 </r>
       <r>   -7.8143    1.0000 </r>
       <r>   -7.7819    1.0000 </r>
       <r>   -7.5738    1.0000 </r>
       <r>   -7.4279    1.0000 </r>
       <r>   -7.3061    1.0000 </r>
       <r>   -7.2513    1.0000 </r>
       <r>   -7.1883    1.0000 </r>
       <r>   -7.0792    1.0000 </r>
       <r>   -6.9898    1.0000 </r>
       <r>   -6.9253    1.0000 </r>
       <r>   -6.8493    1.0000 </r>
       <r>   -6.7384    1.0000 </r>
       <r>   -6.7049    1.0000 </r>
       <r>   -6.5843    1.0000 </r>
       <r>   -6.5440    1.0000 </r>
       <r>   -6.4864    1.0000 </r>
       <r>   -6.4329    1.0000 </r>
       <r>   -6.3571    1.0000 </r>
       <r>   -6.2849    1.0000 </r>
       <r>   -6.2463    1.0000 </r>
       <r>   -6.1220    1.0000 </r>
       <r>   -6.0437    1.0000 </r>
       <r>   -5.9768    1.0000 </r>
       <r>   -5.9137    1.0000 </r>
       <r>   -5.8413    1.0000 </r>
       <r>   -5.7177    1.0000 </r>
       <r>   -5.6831    1.0000 </r>
       <r>   -5.5670    1.0000 </r>
       <r>   -5.4975    1.0000 </r>
       <r>   -5.4126    1.0000 </r>
       <r>   -5.2565    1.0000 </r>
       <r>   -5.1788    1.0000 </r>
       <r>   -5.0837    1.0000 </r>
       <r>   -4.9546    1.0000 </r>
       <r>   -4.8318    1.0000 </r>
       <r>   -4.7125    1.0000 </r>
       <r>   -4.5931    1.0000 </r>
       <r>   -4.5055    1.0000 </r>
       <r>   -4.3905    1.0000 </r>
       <r>   -4.3544    1.0000 </r>
       <r>   -4.1147    1.0000 </r>
       <r>   -4.0271    1.0000 </r>
       <r>   -3.8198    0.9997 </r>
       <r>   -3.6084    0.9717 </r>
       <r>   -3.5239    0.9047 </r>
       <r>   -3.2951    0.3787 </r>
       <r>   -3.0900    0.0393 </r>
       <r>   -2.8849    0.0007 </r>
       <r>   -2.7386    0.0000 </r>
       <r>   -2.5904    0.0000 </r>
       <r>   -2.5372    0.0000 </r>
       <r>   -2.4608    0.0000 </r>
       <r>   -2.2345    0.0000 </r>
       <r>   -2.1628    0.0000 </r>
       <r>   -2.1273    0.0000 </r>
       <r>   -1.9619    0.0000 </r>
       <r>   -1.7122    0.0000 </r>
       <r>   -1.5726    0.0000 </r>
       <r>   -1.4959    0.0000 </r>
       <r>   -1.3081    0.0000 </r>
       <r>   -1.1864    0.0000 </r>
       <r>   -1.1653    0.0000 </r>
       <r>   -1.0833    0.0000 </r>
       <r>   -1.0449    0.0000 </r>
       <r>   -0.9611    0.0000 </r>
       <r>   -0.9443    0.0000 </r>
       <r>   -0.8299    0.0000 </r>
       <r>   -0.7705    0.0000 </r>
       <r>   -0.6143    0.0000 </r>
       <r>   -0.5864    0.0000 </r>
       <r>   -0.4765    0.0000 </r>
       <r>   -0.4023    0.0000 </r>
       <r>   -0.2747    0.0000 </r>
       <r>   -0.1044    0.0000 </r>
       <r>    0.0695    0.0000 </r>
       <r>    0.2668    0.0000 </r>
       <r>    0.3827    0.0000 </r>
       <r>    0.4899    0.0000 </r>
       <r>    0.6711    0.0000 </r>
       <r>    0.9956    0.0000 </r>
       <r>    1.0713    0.0000 </r>
       <r>    1.1684    0.0000 </r>
       <r>    1.5229    0.0000 </r>
       <r>    2.1030    0.0000 </r>
       <r>    2.2633    0.0000 </r>
       <r>    2.5659    0.0000 </r>
      </set>
      <set comment="kpoint 33">
       <r>  -17.5448    1.0000 </r>
       <r>  -17.2639    1.0000 </r>
       <r>  -16.9158    1.0000 </r>
       <r>  -16.7178    1.0000 </r>
       <r>  -16.5064    1.0000 </r>
       <r>  -16.4509    1.0000 </r>
       <r>  -16.3274    1.0000 </r>
       <r>  -16.1975    1.0000 </r>
       <r>  -16.1390    1.0000 </r>
       <r>  -16.0179    1.0000 </r>
       <r>  -15.8861    1.0000 </r>
       <r>  -15.8340    1.0000 </r>
       <r>  -15.7854    1.0000 </r>
       <r>  -15.6842    1.0000 </r>
       <r>  -15.6215    1.0000 </r>
       <r>  -15.4781    1.0000 </r>
       <r>  -15.4265    1.0000 </r>
       <r>  -15.2276    1.0000 </r>
       <r>   -9.7800    1.0000 </r>
       <r>   -9.4680    1.0000 </r>
       <r>   -9.3848    1.0000 </r>
       <r>   -9.0284    1.0000 </r>
       <r>   -8.7870    1.0000 </r>
       <r>   -8.7344    1.0000 </r>
       <r>   -8.6274    1.0000 </r>
       <r>   -8.5779    1.0000 </r>
       <r>   -8.3690    1.0000 </r>
       <r>   -8.2893    1.0000 </r>
       <r>   -8.2329    1.0000 </r>
       <r>   -8.1709    1.0000 </r>
       <r>   -8.1166    1.0000 </r>
       <r>   -8.0747    1.0000 </r>
       <r>   -7.9893    1.0000 </r>
       <r>   -7.9219    1.0000 </r>
       <r>   -7.8297    1.0000 </r>
       <r>   -7.7706    1.0000 </r>
       <r>   -7.5475    1.0000 </r>
       <r>   -7.4522    1.0000 </r>
       <r>   -7.3914    1.0000 </r>
       <r>   -7.3444    1.0000 </r>
       <r>   -7.1245    1.0000 </r>
       <r>   -7.0586    1.0000 </r>
       <r>   -6.9761    1.0000 </r>
       <r>   -6.8896    1.0000 </r>
       <r>   -6.8515    1.0000 </r>
       <r>   -6.7703    1.0000 </r>
       <r>   -6.6947    1.0000 </r>
       <r>   -6.5808    1.0000 </r>
       <r>   -6.5549    1.0000 </r>
       <r>   -6.4783    1.0000 </r>
       <r>   -6.4463    1.0000 </r>
       <r>   -6.3563    1.0000 </r>
       <r>   -6.2695    1.0000 </r>
       <r>   -6.1507    1.0000 </r>
       <r>   -6.1066    1.0000 </r>
       <r>   -6.0536    1.0000 </r>
       <r>   -5.9782    1.0000 </r>
       <r>   -5.9441    1.0000 </r>
       <r>   -5.8630    1.0000 </r>
       <r>   -5.7410    1.0000 </r>
       <r>   -5.6692    1.0000 </r>
       <r>   -5.6312    1.0000 </r>
       <r>   -5.5109    1.0000 </r>
       <r>   -5.4168    1.0000 </r>
       <r>   -5.3216    1.0000 </r>
       <r>   -5.1920    1.0000 </r>
       <r>   -5.0599    1.0000 </r>
       <r>   -4.8599    1.0000 </r>
       <r>   -4.7614    1.0000 </r>
       <r>   -4.7169    1.0000 </r>
       <r>   -4.6063    1.0000 </r>
       <r>   -4.4564    1.0000 </r>
       <r>   -4.4231    1.0000 </r>
       <r>   -4.3520    1.0000 </r>
       <r>   -4.1464    1.0000 </r>
       <r>   -4.0472    1.0000 </r>
       <r>   -3.8992    1.0000 </r>
       <r>   -3.5656    0.9456 </r>
       <r>   -3.4616    0.8075 </r>
       <r>   -3.2566    0.2805 </r>
       <r>   -3.1263    0.0665 </r>
       <r>   -2.9256    0.0017 </r>
       <r>   -2.7979    0.0001 </r>
       <r>   -2.6090    0.0000 </r>
       <r>   -2.5646    0.0000 </r>
       <r>   -2.4846    0.0000 </r>
       <r>   -2.2084    0.0000 </r>
       <r>   -2.1624    0.0000 </r>
       <r>   -2.1039    0.0000 </r>
       <r>   -1.9213    0.0000 </r>
       <r>   -1.7495    0.0000 </r>
       <r>   -1.5596    0.0000 </r>
       <r>   -1.4752    0.0000 </r>
       <r>   -1.2938    0.0000 </r>
       <r>   -1.1722    0.0000 </r>
       <r>   -1.1513    0.0000 </r>
       <r>   -1.0654    0.0000 </r>
       <r>   -1.0395    0.0000 </r>
       <r>   -0.9516    0.0000 </r>
       <r>   -0.9192    0.0000 </r>
       <r>   -0.8547    0.0000 </r>
       <r>   -0.7609    0.0000 </r>
       <r>   -0.6364    0.0000 </r>
       <r>   -0.5886    0.0000 </r>
       <r>   -0.5003    0.0000 </r>
       <r>   -0.4371    0.0000 </r>
       <r>   -0.3754    0.0000 </r>
       <r>   -0.0186    0.0000 </r>
       <r>    0.0834    0.0000 </r>
       <r>    0.2355    0.0000 </r>
       <r>    0.4607    0.0000 </r>
       <r>    0.5385    0.0000 </r>
       <r>    0.6718    0.0000 </r>
       <r>    1.0210    0.0000 </r>
       <r>    1.0513    0.0000 </r>
       <r>    1.1573    0.0000 </r>
       <r>    1.5112    0.0000 </r>
       <r>    2.1396    0.0000 </r>
       <r>    2.2935    0.0000 </r>
       <r>    2.4016    0.0000 </r>
      </set>
      <set comment="kpoint 34">
       <r>  -17.5285    1.0000 </r>
       <r>  -17.3143    1.0000 </r>
       <r>  -16.7889    1.0000 </r>
       <r>  -16.7136    1.0000 </r>
       <r>  -16.6323    1.0000 </r>
       <r>  -16.4739    1.0000 </r>
       <r>  -16.3186    1.0000 </r>
       <r>  -16.1950    1.0000 </r>
       <r>  -16.1369    1.0000 </r>
       <r>  -16.0021    1.0000 </r>
       <r>  -15.8616    1.0000 </r>
       <r>  -15.8179    1.0000 </r>
       <r>  -15.7768    1.0000 </r>
       <r>  -15.6798    1.0000 </r>
       <r>  -15.6343    1.0000 </r>
       <r>  -15.4835    1.0000 </r>
       <r>  -15.4337    1.0000 </r>
       <r>  -15.2324    1.0000 </r>
       <r>   -9.8201    1.0000 </r>
       <r>   -9.3742    1.0000 </r>
       <r>   -9.3315    1.0000 </r>
       <r>   -9.0565    1.0000 </r>
       <r>   -8.8826    1.0000 </r>
       <r>   -8.8016    1.0000 </r>
       <r>   -8.6713    1.0000 </r>
       <r>   -8.6074    1.0000 </r>
       <r>   -8.3584    1.0000 </r>
       <r>   -8.2843    1.0000 </r>
       <r>   -8.2255    1.0000 </r>
       <r>   -8.1400    1.0000 </r>
       <r>   -8.0816    1.0000 </r>
       <r>   -8.0609    1.0000 </r>
       <r>   -7.9278    1.0000 </r>
       <r>   -7.8723    1.0000 </r>
       <r>   -7.7723    1.0000 </r>
       <r>   -7.7580    1.0000 </r>
       <r>   -7.6280    1.0000 </r>
       <r>   -7.4813    1.0000 </r>
       <r>   -7.4251    1.0000 </r>
       <r>   -7.3497    1.0000 </r>
       <r>   -7.0930    1.0000 </r>
       <r>   -7.0412    1.0000 </r>
       <r>   -6.9868    1.0000 </r>
       <r>   -6.8944    1.0000 </r>
       <r>   -6.8139    1.0000 </r>
       <r>   -6.7561    1.0000 </r>
       <r>   -6.6709    1.0000 </r>
       <r>   -6.6072    1.0000 </r>
       <r>   -6.5607    1.0000 </r>
       <r>   -6.5032    1.0000 </r>
       <r>   -6.4592    1.0000 </r>
       <r>   -6.3302    1.0000 </r>
       <r>   -6.2745    1.0000 </r>
       <r>   -6.1915    1.0000 </r>
       <r>   -6.1347    1.0000 </r>
       <r>   -6.0219    1.0000 </r>
       <r>   -5.9880    1.0000 </r>
       <r>   -5.9339    1.0000 </r>
       <r>   -5.8153    1.0000 </r>
       <r>   -5.7421    1.0000 </r>
       <r>   -5.7297    1.0000 </r>
       <r>   -5.5896    1.0000 </r>
       <r>   -5.5571    1.0000 </r>
       <r>   -5.4999    1.0000 </r>
       <r>   -5.3159    1.0000 </r>
       <r>   -5.1340    1.0000 </r>
       <r>   -5.1076    1.0000 </r>
       <r>   -4.8114    1.0000 </r>
       <r>   -4.7298    1.0000 </r>
       <r>   -4.7075    1.0000 </r>
       <r>   -4.5261    1.0000 </r>
       <r>   -4.4354    1.0000 </r>
       <r>   -4.4245    1.0000 </r>
       <r>   -4.3509    1.0000 </r>
       <r>   -4.2128    1.0000 </r>
       <r>   -4.0536    1.0000 </r>
       <r>   -3.9507    1.0000 </r>
       <r>   -3.5473    0.9298 </r>
       <r>   -3.4212    0.7199 </r>
       <r>   -3.2984    0.3876 </r>
       <r>   -3.0881    0.0381 </r>
       <r>   -2.9452    0.0027 </r>
       <r>   -2.8401    0.0002 </r>
       <r>   -2.5989    0.0000 </r>
       <r>   -2.5966    0.0000 </r>
       <r>   -2.4907    0.0000 </r>
       <r>   -2.1933    0.0000 </r>
       <r>   -2.1675    0.0000 </r>
       <r>   -2.0884    0.0000 </r>
       <r>   -1.8969    0.0000 </r>
       <r>   -1.7638    0.0000 </r>
       <r>   -1.5534    0.0000 </r>
       <r>   -1.4585    0.0000 </r>
       <r>   -1.2960    0.0000 </r>
       <r>   -1.1714    0.0000 </r>
       <r>   -1.1419    0.0000 </r>
       <r>   -1.0677    0.0000 </r>
       <r>   -1.0503    0.0000 </r>
       <r>   -0.9336    0.0000 </r>
       <r>   -0.9096    0.0000 </r>
       <r>   -0.8684    0.0000 </r>
       <r>   -0.6886    0.0000 </r>
       <r>   -0.6702    0.0000 </r>
       <r>   -0.6353    0.0000 </r>
       <r>   -0.4986    0.0000 </r>
       <r>   -0.4703    0.0000 </r>
       <r>   -0.4039    0.0000 </r>
       <r>    0.0009    0.0000 </r>
       <r>    0.0766    0.0000 </r>
       <r>    0.2336    0.0000 </r>
       <r>    0.5207    0.0000 </r>
       <r>    0.5330    0.0000 </r>
       <r>    0.6874    0.0000 </r>
       <r>    1.0195    0.0000 </r>
       <r>    1.0705    0.0000 </r>
       <r>    1.1465    0.0000 </r>
       <r>    1.5118    0.0000 </r>
       <r>    2.2251    0.0000 </r>
       <r>    2.2535    0.0000 </r>
       <r>    2.3834    0.0000 </r>
      </set>
     </set>
    </set>
   </array>
  </eigenvalues>
  <separator name="orbital magnetization" >
   <v name="MAGDIPOLOUT">      0.00000000      0.00000000      0.00000000</v>
  </separator>
 </calculation>
 <structure name="finalpos" >
  <crystal>
   <varray name="basis" >
    <v>       8.32299859       4.82414774       0.00000000 </v>
    <v>      -8.33146473       4.83882619       0.00000000 </v>
    <v>       0.00000000       0.00000000      30.00000000 </v>
   </varray>
   <i name="volume">   2413.97280796 </i>
   <varray name="rec_basis" >
    <v>       0.06013522       0.10354050       0.00000000 </v>
    <v>      -0.05995280       0.10343528       0.00000000 </v>
    <v>       0.00000000       0.00000000       0.03333333 </v>
   </varray>
  </crystal>
  <varray name="positions" >
   <v>       0.29847362      -0.00507880       0.00109196 </v>
   <v>       0.31505239       0.63911611      -0.00023172 </v>
   <v>       0.64927033       0.63214026      -0.00118424 </v>
   <v>       1.00122797       0.33195406       0.00012106 </v>
   <v>       0.01535873       0.03474380       0.00019419 </v>
   <v>       0.30642462       0.32390560       0.00055401 </v>
   <v>      -0.00908513       0.64374282       0.00018808 </v>
   <v>       0.70226603       0.03287027      -0.00033621 </v>
   <v>       0.70223496       0.34900143      -0.00044537 </v>
   <v>       0.11092105       0.22936716       0.94333984 </v>
   <v>       0.22075794       0.11026112       0.05550594 </v>
   <v>       0.11741159       0.56097291       0.94650045 </v>
   <v>       0.22569977       0.44911537       0.05478060 </v>
   <v>       0.10466133       0.88902808       0.95008372 </v>
   <v>       0.22402887       0.77627583       0.04915808 </v>
   <v>       0.44729533       0.21872131       0.95593812 </v>
   <v>       0.55340715       0.11110699       0.04741474 </v>
   <v>       0.44099883       0.55330253       0.94870969 </v>
   <v>       0.55491050       0.43631847       0.04941744 </v>
   <v>       0.44335328       0.89009476       0.95896132 </v>
   <v>       0.55777787       0.77675034       0.04276933 </v>
   <v>       0.78562858       0.22983709       0.94333622 </v>
   <v>       0.89626666       0.11858877       0.05674661 </v>
   <v>       0.77708688       0.55644638       0.94545499 </v>
   <v>       0.89634880       0.44534266       0.05658111 </v>
   <v>       0.77705251       0.88512116       0.95181552 </v>
   <v>       0.88338401       0.77916795       0.04353440 </v>
  </varray>
 </structure>
</modeling>
