unknown system                          
           1
     8.853596    5.105129    0.000000
    -8.855112    5.107737    0.000000
     0.000000    0.000000   30.000000
   V    Mo   W    S 
   3   3   3  18
Direct configuration=     1
   0.33333334  0.00000000  0.00000000
   0.33333334  0.66666669  0.00000000
   0.66666669  0.66666669  0.00000000
   1.00000000  0.33333334  0.00000000
   0.00000000  0.00000000  0.00000000
   0.33333334  0.33333334  0.00000000
   0.00000000  0.66666669  0.00000000
   0.66666669  0.00000000  0.00000000
   0.66666669  0.33333334  0.00000000
   0.11068511  0.22244981  0.95539999
   0.22244981  0.11068511  0.04460000
   0.11068511  0.55578315  0.95539999
   0.22244981  0.44401845  0.04460000
   0.11068511  0.88911647  0.95539999
   0.22244981  0.77735180  0.04460000
   0.44401845  0.22244981  0.95539999
   0.55578315  0.11068511  0.04460000
   0.44401845  0.55578315  0.95539999
   0.55578315  0.44401845  0.04460000
   0.44401845  0.88911647  0.95539999
   0.55578315  0.77735180  0.04460000
   0.77735180  0.22244981  0.95539999
   0.88911647  0.11068511  0.04460000
   0.77735180  0.55578315  0.95539999
   0.88911647  0.44401845  0.04460000
   0.77735180  0.88911647  0.95539999
   0.88911647  0.77735180  0.04460000
unknown system                          
           1
     8.666214    4.999233    0.000000
    -8.667675    5.001747    0.000000
     0.000000    0.000000   30.000000
   V    Mo   W    S 
   3   3   3  18
Direct configuration=     2
   0.33220336  0.00082848  0.00010881
   0.33265854  0.66475303 -0.00007403
   0.66630561  0.66662400 -0.00013905
   1.00136648  0.33173061  0.00002905
   0.00139374  0.00288778  0.00022404
   0.33059491  0.33222403  0.00000383
   0.00050134  0.66708204  0.00008483
   0.66885702  0.00061601 -0.00009589
   0.66639989  0.33335096 -0.00014494
   0.11105477  0.22222386  0.95066950
   0.22450557  0.10845997  0.04805615
   0.11495534  0.55803886  0.95194787
   0.22428869  0.44879110  0.04809627
   0.11498822  0.88997152  0.95197457
   0.22559500  0.77927225  0.04691392
   0.44320972  0.21816512  0.95197326
   0.55155392  0.10913236  0.04810293
   0.44640822  0.55997525  0.95310780
   0.55807633  0.44837492  0.04800941
   0.44088291  0.88730413  0.95321638
   0.55391598  0.77417787  0.04687132
   0.77691385  0.22182834  0.95072346
   0.88790287  0.11054429  0.04932492
   0.77552633  0.55743344  0.95190263
   0.88846383  0.44474772  0.04918417
   0.77486226  0.88458740  0.95193189
   0.88482976  0.77508910  0.04799682
unknown system                          
           1
     8.484773    4.899643    0.000000
    -8.485728    4.901284    0.000000
     0.000000    0.000000   30.000000
   V    Mo   W    S 
   3   3   3  18
Direct configuration=     3
   0.33188143  0.00108421  0.00007830
   0.33235876  0.66416944 -0.00012949
   0.66629276  0.66650993 -0.00011687
   1.00154786  0.33087413  0.00002837
   0.00182923  0.00412952  0.00024434
   0.32945609  0.33160489  0.00001028
   0.00035160  0.66694688  0.00013116
   0.66988145  0.00128294 -0.00015573
   0.66657220  0.33344640 -0.00011182
   0.11105746  0.22221871  0.95046969
   0.22454971  0.10841391  0.04817858
   0.11493349  0.55822028  0.95198383
   0.22439745  0.44893803  0.04818215
   0.11496388  0.88980909  0.95202249
   0.22543196  0.77921517  0.04684999
   0.44336106  0.21817283  0.95199866
   0.55168264  0.10914990  0.04801953
   0.44643671  0.56003852  0.95313490
   0.55824138  0.44835187  0.04791817
   0.44107842  0.88737326  0.95339534
   0.55397292  0.77436142  0.04678148
   0.77671935  0.22175438  0.95070739
   0.88769510  0.11042038  0.04948324
   0.77558783  0.55736316  0.95189945
   0.88837109  0.44482782  0.04912454
   0.77469684  0.88461848  0.95194895
   0.88486578  0.77491890  0.04792299
unknown system                          
           1
     8.278251    4.779596    0.000000
    -8.283643    4.788921    0.000000
     0.000000    0.000000   30.000000
   V    Mo   W    S 
   3   3   3  18
Direct configuration=     4
   0.33076208  0.00218009 -0.00009027
   0.33107083  0.66204800 -0.00030073
   0.66662324  0.66584713  0.00001820
   1.00155649  0.32709372  0.00002011
   0.00329485  0.00906585  0.00022013
   0.32506303  0.32893768  0.00003858
  -0.00090862  0.66590104  0.00024059
   0.67416190  0.00453022 -0.00031786
   0.66775117  0.33401145  0.00006247
   0.11107844  0.22215862  0.94808422
   0.22508552  0.10794220  0.05012558
   0.11582929  0.55867273  0.95069060
   0.22512243  0.45020297  0.04995668
   0.11581218  0.89036943  0.95079941
   0.22651804  0.77981039  0.04796087
   0.44273046  0.21719722  0.95066695
   0.55075687  0.10840281  0.04916299
   0.44685038  0.56080227  0.95193072
   0.55855194  0.44925339  0.04897582
   0.44038470  0.88693792  0.95278730
   0.55344892  0.77367084  0.04774517
   0.77690882  0.22201143  0.94899392
   0.88772129  0.11037927  0.05176914
   0.77514412  0.55788288  0.95036608
   0.88850683  0.44464925  0.05048565
   0.77441635  0.88366693  0.95055348
   0.88397289  0.77458871  0.04905408
unknown system                          
           1
     8.274888    4.779286    0.000000
    -8.285443    4.797556    0.000000
     0.000000    0.000000   30.000000
   V    Mo   W    S 
   3   3   3  18
Direct configuration=     5
   0.32840458  0.00413313 -0.00040297
   0.32871248  0.65842442 -0.00046535
   0.66739580  0.66397937  0.00027266
   1.00079118  0.31961101  0.00001375
   0.00585938  0.01831375  0.00008228
   0.31704212  0.32395550  0.00012209
  -0.00377979  0.66360245  0.00029597
   0.68240765  0.01078676 -0.00041968
   0.67062864  0.33550581  0.00029464
   0.11117318  0.22220319  0.94460012
   0.22507284  0.10774911  0.05293841
   0.11623879  0.55807577  0.94907555
   0.22529403  0.45065496  0.05236060
   0.11600514  0.89122247  0.94940962
   0.22762771  0.78036278  0.04940842
   0.44189260  0.21676268  0.94905644
   0.54996542  0.10746125  0.05052488
   0.44669689  0.56051260  0.95023936
   0.55749118  0.44945586  0.05022674
   0.44044626  0.88688617  0.95220639
   0.55321978  0.77356106  0.04879862
   0.77817360  0.22297104  0.94654900
   0.88848498  0.11063043  0.05513842
   0.77453063  0.55838438  0.94821753
   0.88946505  0.44392097  0.05225859
   0.77522163  0.88343296  0.94877921
   0.88375268  0.77565460  0.05041860
unknown system                          
           1
     8.270189    4.778350    0.000000
    -8.279774    4.794946    0.000000
     0.000000    0.000000   30.000000
   V    Mo   W    S 
   3   3   3  18
Direct configuration=     6
   0.32717520  0.00463830 -0.00035538
   0.32785470  0.65717710 -0.00046947
   0.66747805  0.66271729  0.00024336
   1.00010793  0.31929492 -0.00008092
   0.00619195  0.01886449  0.00012354
   0.31616175  0.32346502  0.00007789
  -0.00492481  0.66245817  0.00031214
   0.68438188  0.01242682 -0.00033606
   0.67246946  0.33644285  0.00024876
   0.11114742  0.22250450  0.94421577
   0.22448173  0.10784966  0.05314757
   0.11544329  0.55709427  0.94911005
   0.22455474  0.44969019  0.05248805
   0.11500178  0.89132149  0.94951463
   0.22737495  0.78025042  0.04934131
   0.44198157  0.21752618  0.94918381
   0.55041788  0.10754287  0.05041325
   0.44629367  0.55960632  0.95026124
   0.55630076  0.44840604  0.05013188
   0.44149786  0.88754705  0.95252724
   0.55367238  0.77423889  0.04858213
   0.77888090  0.22353753  0.94629383
   0.88895541  0.11068781  0.05553912
   0.77436856  0.55818111  0.94800497
   0.89016405  0.44347553  0.05237204
   0.77615332  0.88434892  0.94884010
   0.88462809  0.77692072  0.05026908
unknown system                          
           1
     8.272660    4.780119    0.000000
    -8.282298    4.796807    0.000000
     0.000000    0.000000   30.000000
   V    Mo   W    S 
   3   3   3  18
Direct configuration=     7
   0.32560780  0.00504105 -0.00036543
   0.32687336  0.65564339 -0.00045306
   0.66741412  0.66136361  0.00027703
   0.99940386  0.31863251 -0.00010812
   0.00698945  0.02029122  0.00006270
   0.31464408  0.32277296  0.00001711
  -0.00611362  0.66113353  0.00035884
   0.68661777  0.01430419 -0.00028605
   0.67476598  0.33752197  0.00025225
   0.11104999  0.22262712  0.94396600
   0.22420946  0.10800011  0.05340645
   0.11497135  0.55658701  0.94905306
   0.22408132  0.44911069  0.05261527
   0.11426938  0.89123438  0.94958559
   0.22718039  0.78016095  0.04926475
   0.44212364  0.21804852  0.94932730
   0.55080104  0.10775479  0.05029753
   0.44607373  0.55903335  0.95025540
   0.55561504  0.44767206  0.05002083
   0.44219167  0.88800577  0.95291869
   0.55402981  0.77468790  0.04832169
   0.77923957  0.22387736  0.94599152
   0.88943960  0.11089380  0.05586752
   0.77426483  0.55804351  0.94773518
   0.89066733  0.44329823  0.05257805
   0.77672509  0.88487504  0.94889981
   0.88507838  0.77759944  0.05014000
unknown system                          
           1
     8.232948    4.750944    0.000000
    -8.246762    4.774841    0.000000
     0.000000    0.000000   30.000000
   V    Mo   W    S 
   3   3   3  18
Direct configuration=     8
   0.32539356  0.00503868 -0.00036621
   0.32677208  0.65549673 -0.00045353
   0.66737269  0.66121217  0.00027981
   0.99932200  0.31873761 -0.00011256
   0.00709521  0.02030726  0.00006960
   0.31457901  0.32275788  0.00001421
  -0.00620435  0.66099246  0.00036282
   0.68671678  0.01442560 -0.00028387
   0.67506683  0.33764980  0.00024781
   0.11102957  0.22265559  0.94398948
   0.22420497  0.10801814  0.05338814
   0.11494637  0.55659342  0.94906354
   0.22404669  0.44906685  0.05259771
   0.11421331  0.89120237  0.94961310
   0.22714879  0.78015151  0.04923114
   0.44216560  0.21809729  0.94938199
   0.55084444  0.10779428  0.05025531
   0.44607020  0.55900639  0.95027799
   0.55559656  0.44759162  0.04998297
   0.44223326  0.88804947  0.95298743
   0.55406581  0.77472232  0.04827004
   0.77923184  0.22388867  0.94599150
   0.88948546  0.11090800  0.05584571
   0.77427928  0.55802788  0.94773854
   0.89069382  0.44330681  0.05259139
   0.77674365  0.88490499  0.94893802
   0.88510102  0.77761065  0.05009782
unknown system                          
           1
     8.225648    4.745088    0.000000
    -8.240167    4.770200    0.000000
     0.000000    0.000000   30.000000
   V    Mo   W    S 
   3   3   3  18
Direct configuration=     9
   0.32700715  0.00565284 -0.00036317
   0.32693290  0.65630265 -0.00047226
   0.66779504  0.66259961  0.00027301
   0.99986952  0.31748438 -0.00012837
   0.00625761  0.02018933  0.00014322
   0.31482936  0.32233668  0.00005646
  -0.00501513  0.66236615  0.00032139
   0.68682876  0.01440992 -0.00027645
   0.67236408  0.33591840  0.00027550
   0.11126791  0.22252205  0.94347427
   0.22399641  0.10773022  0.05361915
   0.11488290  0.55606666  0.94898405
   0.22408306  0.44919708  0.05285672
   0.11457214  0.89170190  0.94941969
   0.22750439  0.78032275  0.04952184
   0.44153679  0.21758787  0.94882944
   0.55043082  0.10728431  0.05067268
   0.44582776  0.55894129  0.95000065
   0.55514423  0.44788656  0.05039530
   0.44231063  0.88797338  0.95253872
   0.55378016  0.77468265  0.04872414
   0.77962906  0.22406666  0.94583623
   0.88928143  0.11074564  0.05632227
   0.77400254  0.55805258  0.94750237
   0.89076688  0.44297035  0.05250927
   0.77698178  0.88511391  0.94844375
   0.88534628  0.77810864  0.05052003
unknown system                          
           1
     8.282699    4.790029    0.000000
    -8.292756    4.807460    0.000000
     0.000000    0.000000   30.000000
   V    Mo   W    S 
   3   3   3  18
Direct configuration=    10
   0.32786870  0.00586717 -0.00035245
   0.32712960  0.65676087 -0.00047213
   0.66799748  0.66326654  0.00026196
   1.00018847  0.31719461 -0.00012296
   0.00578184  0.01986618  0.00014939
   0.31522314  0.32236047  0.00006694
  -0.00451487  0.66302624  0.00029983
   0.68653619  0.01410255 -0.00027550
   0.67103254  0.33517503  0.00028214
   0.11135616  0.22242095  0.94337312
   0.22396047  0.10761899  0.05366206
   0.11487637  0.55591353  0.94896604
   0.22414113  0.44928070  0.05290875
   0.11475085  0.89186613  0.94934836
   0.22764117  0.78039030  0.04962654
   0.44131287  0.21736934  0.94861341
   0.55025929  0.10709660  0.05083643
   0.44577684  0.55897866  0.94992828
   0.55509639  0.44809330  0.05053281
   0.44228632  0.88790443  0.95233760
   0.55366331  0.77463749  0.04889714
   0.77971685  0.22409646  0.94583150
   0.88916216  0.11068490  0.05642791
   0.77390772  0.55806411  0.94749039
   0.89071590  0.44287773  0.05242430
   0.77698589  0.88512972  0.94828286
   0.88536168  0.77817145  0.05067517
unknown system                          
           1
     8.254688    4.773059    0.000000
    -8.264588    4.790222    0.000000
     0.000000    0.000000   30.000000
   V    Mo   W    S 
   3   3   3  18
Direct configuration=    11
   0.32227024  0.00519786 -0.00041414
   0.32547005  0.65341257 -0.00045627
   0.66700970  0.65883185  0.00032582
   0.99784880  0.31861102 -0.00016407
   0.00877004  0.02207160  0.00003820
   0.31246813  0.32183556 -0.00004750
  -0.00817616  0.65860433  0.00041097
   0.68936680  0.01690550 -0.00024789
   0.67973597  0.33983170  0.00023469
   0.11082098  0.22304058  0.94363013
   0.22409691  0.10824973  0.05375613
   0.11457032  0.55633687  0.94884822
   0.22351621  0.44843601  0.05283782
   0.11331845  0.89100230  0.94967339
   0.22694987  0.78010825  0.04914998
   0.44248056  0.21881467  0.94975910
   0.55129059  0.10807883  0.05000677
   0.44592869  0.55839281  0.95023236
   0.55491284  0.44652950  0.04977548
   0.44288004  0.88865410  0.95361376
   0.55453937  0.77518772  0.04787908
   0.77946950  0.22420464  0.94546492
   0.89016097  0.11111281  0.05624874
   0.77430972  0.55792884  0.94732945
   0.89137889  0.44323922  0.05316297
   0.77732920  0.88535905  0.94909958
   0.88549777  0.77823654  0.04985220
unknown system                          
           1
     8.268563    4.783438    0.000000
    -8.278276    4.800283    0.000000
     0.000000    0.000000   30.000000
   V    Mo   W    S 
   3   3   3  18
Direct configuration=    12
   0.32433840  0.00607932 -0.00034040
   0.32509213  0.65343958 -0.00045777
   0.66756630  0.66037409  0.00032441
   0.99907870  0.31802342 -0.00014385
   0.00738917  0.02142009  0.00007731
   0.31309557  0.32185368 -0.00002661
  -0.00686937  0.66010709  0.00041498
   0.68944964  0.01681342 -0.00022049
   0.67622529  0.33778845  0.00022878
   0.11092402  0.22269801  0.94344445
   0.22383934  0.10798130  0.05383658
   0.11441217  0.55584566  0.94890352
   0.22356499  0.44849808  0.05289110
   0.11352754  0.89134005  0.94953887
   0.22721167  0.78023819  0.04928355
   0.44208114  0.21834438  0.94924173
   0.55107029  0.10780205  0.05035832
   0.44569547  0.55841233  0.95014805
   0.55477801  0.44681846  0.05001497
   0.44310995  0.88858064  0.95334316
   0.55435341  0.77530358  0.04811296
   0.77977280  0.22447822  0.94550206
   0.89010494  0.11109485  0.05648539
   0.77399866  0.55781032  0.94737243
   0.89130703  0.44295879  0.05278998
   0.77744427  0.88564979  0.94874063
   0.88565293  0.77846063  0.05013579
unknown system                          
           1
     8.272821    4.786866    0.000000
    -8.282276    4.803271    0.000000
     0.000000    0.000000   30.000000
   V    Mo   W    S 
   3   3   3  18
Direct configuration=    13
   0.32155805  0.00581412 -0.00039642
   0.32400207  0.65158418 -0.00046845
   0.66709173  0.65832105  0.00036917
   0.99795925  0.31860108 -0.00018926
   0.00891526  0.02265104  0.00005808
   0.31152482  0.32142760 -0.00007744
  -0.00846720  0.65797646  0.00046428
   0.69102271  0.01839546 -0.00021715
   0.68047460  0.33988066  0.00021598
   0.11069136  0.22303508  0.94350369
   0.22387947  0.10828668  0.05389228
   0.11437733  0.55613383  0.94881750
   0.22333184  0.44817253  0.05292540
   0.11293743  0.89095692  0.94970790
   0.22690181  0.78009003  0.04905701
   0.44257318  0.21898312  0.94978558
   0.55153607  0.10823388  0.04996523
   0.44573015  0.55813355  0.95025776
   0.55462792  0.44605724  0.04967879
   0.44336588  0.88888656  0.95399763
   0.55469673  0.77556426  0.04762216
   0.77971607  0.22452532  0.94530993
   0.89059145  0.11131083  0.05643485
   0.77423430  0.55778575  0.94723994
   0.89160335  0.44312925  0.05318635
   0.77761789  0.88576980  0.94909398
   0.88572094  0.77850820  0.04976513
unknown system                          
           1
     8.269326    4.783712    0.000000
    -8.279255    4.800937    0.000000
     0.000000    0.000000   30.000000
   V    Mo   W    S 
   3   3   3  18
Direct configuration=    14
   0.32097271  0.00597668 -0.00040133
   0.32329939  0.65066945 -0.00046989
   0.66707386  0.65788667  0.00038661
   0.99792128  0.31887033 -0.00019771
   0.00914051  0.02289099  0.00005233
   0.31111591  0.32129701 -0.00009181
  -0.00876766  0.65745150  0.00048432
   0.69164117  0.01901487 -0.00020973
   0.68127599  0.34018392  0.00020117
   0.11060647  0.22308371  0.94343350
   0.22383631  0.10834335  0.05397785
   0.11433732  0.55613616  0.94874232
   0.22326612  0.44807181  0.05300435
   0.11274420  0.89089403  0.94971844
   0.22689488  0.78008389  0.04902188
   0.44265920  0.21911613  0.94985157
   0.55164301  0.10832063  0.04992421
   0.44567173  0.55801864  0.95025326
   0.55450641  0.44579483  0.04962572
   0.44351268  0.88896211  0.95420187
   0.55476365  0.77571040  0.04748111
   0.77980011  0.22465798  0.94519382
   0.89081891  0.11143624  0.05652330
   0.77425528  0.55775862  0.94716752
   0.89172972  0.44311539  0.05329684
   0.77771431  0.88586987  0.94911876
   0.88578098  0.77859925  0.04970959
unknown system                          
           1
     8.275009    4.791538    0.000000
    -8.283290    4.805928    0.000000
     0.000000    0.000000   30.000000
   V    Mo   W    S 
   3   3   3  18
Direct configuration=    15
   0.32148378  0.00646330 -0.00039111
   0.32279570  0.65018575 -0.00047045
   0.66734137  0.65824950  0.00039239
   0.99834435  0.31882469 -0.00020413
   0.00878975  0.02277700  0.00005244
   0.31120383  0.32122150 -0.00010538
  -0.00852094  0.65771193  0.00048543
   0.69186737  0.01918860 -0.00020297
   0.68039500  0.33959729  0.00020084
   0.11063738  0.22299227  0.94342024
   0.22374997  0.10831917  0.05398250
   0.11427961  0.55604398  0.94869739
   0.22331060  0.44802631  0.05306137
   0.11278130  0.89095687  0.94973248
   0.22693708  0.78009578  0.04902353
   0.44252153  0.21904407  0.94974954
   0.55163490  0.10827250  0.04999440
   0.44557256  0.55794692  0.95025641
   0.55444550  0.44582146  0.04963408
   0.44363233  0.88894734  0.95425755
   0.55473401  0.77581890  0.04744553
   0.77995572  0.22478055  0.94520044
   0.89089965  0.11153770  0.05656946
   0.77422541  0.55775041  0.94720530
   0.89166387  0.44305550  0.05320651
   0.77772793  0.88597975  0.94905961
   0.88580489  0.77860540  0.04974649
unknown system                          
           1
     8.278132    4.796638    0.000000
    -8.285119    4.808803    0.000000
     0.000000    0.000000   30.000000
   V    Mo   W    S 
   3   3   3  18
Direct configuration=    16
   0.31911426  0.00615192 -0.00041312
   0.32159519  0.64835439 -0.00047019
   0.66689854  0.65652162  0.00043092
   0.99766520  0.31963325 -0.00020763
   0.00997275  0.02380426  0.00004538
   0.30981347  0.32094395 -0.00011240
  -0.00969937  0.65574811  0.00056018
   0.69317393  0.02054359 -0.00019853
   0.68400247  0.34135608  0.00017733
   0.11036185  0.22327859  0.94337360
   0.22378209  0.10855441  0.05410238
   0.11430513  0.55633752  0.94857499
   0.22314821  0.44780824  0.05313584
   0.11222964  0.89064798  0.94981210
   0.22676904  0.77999863  0.04885744
   0.44298700  0.21956557  0.95017255
   0.55200777  0.10864442  0.04969140
   0.44554896  0.55772322  0.95030042
   0.55430803  0.44510414  0.04939855
   0.44376241  0.88910763  0.95478961
   0.55496276  0.77603620  0.04703670
   0.77990787  0.22487815  0.94497476
   0.89136556  0.11176977  0.05658212
   0.77440866  0.55770880  0.94702840
   0.89201188  0.44320070  0.05359508
   0.77788866  0.88606450  0.94930564
   0.88592249  0.77872881  0.04945639
unknown system                          
           1
     8.290552    4.821272    0.000000
    -8.290609    4.821523    0.000000
     0.000000    0.000000   30.000000
   V    Mo   W    S 
   3   3   3  18
Direct configuration=    17
   0.31749742  0.00595768 -0.00042207
   0.32051581  0.64685702 -0.00047028
   0.66661629  0.65534003  0.00045652
   0.99741321  0.32038137 -0.00021652
   0.01065007  0.02452227  0.00003354
   0.30886844  0.32074034 -0.00013428
  -0.01038144  0.65429561  0.00060980
   0.69414084  0.02155329 -0.00019493
   0.68627366  0.34243962  0.00012715
   0.11012703  0.22349585  0.94332279
   0.22375507  0.10872434  0.05422211
   0.11432279  0.55655759  0.94843321
   0.22304978  0.44766135  0.05325684
   0.11178993  0.89043047  0.94985295
   0.22669788  0.77994249  0.04875856
   0.44334316  0.21992517  0.95047704
   0.55227420  0.10895427  0.04949274
   0.44546208  0.55751622  0.95031094
   0.55419353  0.44451569  0.04925287
   0.44383839  0.88916411  0.95518798
   0.55509032  0.77620919  0.04672149
   0.77996289  0.22503815  0.94479129
   0.89176856  0.11202771  0.05662082
   0.77457152  0.55768829  0.94688404
   0.89232471  0.44328743  0.05392359
   0.77801559  0.88613006  0.94945342
   0.88603270  0.77885887  0.04924827
unknown system                          
           1
     8.292574    4.817528    0.000000
    -8.297379    4.825943    0.000000
     0.000000    0.000000   30.000000
   V    Mo   W    S 
   3   3   3  18
Direct configuration=    18
   0.30905311  0.00405038 -0.00037125
   0.31514493  0.63945829 -0.00042878
   0.66478243  0.64899772  0.00057109
   0.99652605  0.32473393 -0.00014846
   0.01357247  0.02839017  0.00000725
   0.30433306  0.32019541 -0.00016285
  -0.01336920  0.64637453  0.00089480
   0.69886452  0.02648762 -0.00017933
   0.69758535  0.34796291 -0.00012862
   0.10875315  0.22480432  0.94305443
   0.22342518  0.10968027  0.05481435
   0.11451691  0.55786298  0.94761042
   0.22263478  0.44699022  0.05389073
   0.10914639  0.88913094  0.95001007
   0.22628904  0.77952672  0.04828639
   0.44556150  0.22184258  0.95220404
   0.55375939  0.11087789  0.04837231
   0.44478516  0.55633567  0.95031574
   0.55373023  0.44123095  0.04852559
   0.44405328  0.88924112  0.95721140
   0.55565433  0.77698500  0.04504084
   0.78040101  0.22593528  0.94384426
   0.89394552  0.11364372  0.05672059
   0.77566586  0.55774809  0.94609821
   0.89407212  0.44376596  0.05570603
   0.77867263  0.88639958  0.95023679
   0.88665524  0.77956220  0.04800385
unknown system                          
           1
     8.298481    4.831038    0.000000
    -8.299613    4.833136    0.000000
     0.000000    0.000000   30.000000
   V    Mo   W    S 
   3   3   3  18
Direct configuration=    19
   0.31083328  0.00397053 -0.00029982
   0.31696816  0.64196066 -0.00045354
   0.66467031  0.64992536  0.00045636
   0.99732969  0.32426063 -0.00013873
   0.01272417  0.02778650  0.00001373
   0.30588854  0.32035553 -0.00014752
  -0.01178841  0.64856795  0.00068707
   0.69750997  0.02514674 -0.00024967
   0.69337374  0.34580302 -0.00025299
   0.10888894  0.22483940  0.94314552
   0.22325685  0.10959347  0.05467327
   0.11426199  0.55757871  0.94770739
   0.22272396  0.44705736  0.05388262
   0.10918131  0.88910640  0.94995832
   0.22619787  0.77945362  0.04842223
   0.44560611  0.22142171  0.95220198
   0.55349684  0.11088130  0.04849019
   0.44466301  0.55640027  0.95023213
   0.55391610  0.44137189  0.04876574
   0.44375100  0.88913585  0.95684450
   0.55555360  0.77664413  0.04533330
   0.78064818  0.22607883  0.94408598
   0.89369774  0.11370569  0.05670393
   0.77582566  0.55798815  0.94626312
   0.89402207  0.44354095  0.05554475
   0.77849527  0.88625717  0.95009224
   0.88651850  0.77938264  0.04803778
unknown system                          
           1
     8.301215    4.826926    0.000000
    -8.305322    4.834135    0.000000
     0.000000    0.000000   30.000000
   V    Mo   W    S 
   3   3   3  18
Direct configuration=    20
   0.30387912  0.00171443 -0.00014783
   0.31319367  0.63676883 -0.00039539
   0.66258269  0.64439054  0.00045800
   0.99696822  0.32800645  0.00000958
   0.01486591  0.03118266 -0.00001025
   0.30265258  0.32009635 -0.00009576
  -0.01350145  0.64219587  0.00090224
   0.70109942  0.02897320 -0.00027889
   0.70197932  0.34998032 -0.00038829
   0.10787043  0.22613341  0.94298791
   0.22274116  0.11036987  0.05509255
   0.11437841  0.55860367  0.94700241
   0.22261116  0.44660754  0.05437690
   0.10681220  0.88802992  0.95009843
   0.22575288  0.77903923  0.04810868
   0.44758947  0.22277800  0.95376398
   0.55454225  0.11251117  0.04753403
   0.44390829  0.55529836  0.95015869
   0.55364174  0.43853962  0.04826932
   0.44375425  0.88918487  0.95844504
   0.55603348  0.77711885  0.04397800
   0.78133437  0.22697484  0.94339809
   0.89544534  0.11532108  0.05672014
   0.77691559  0.55818186  0.94566668
   0.89523655  0.44389877  0.05680049
   0.77896498  0.88640099  0.95072539
   0.88696243  0.77991374  0.04681974
unknown system                          
           1
     8.304924    4.828731    0.000000
    -8.309363    4.836509    0.000000
     0.000000    0.000000   30.000000
   V    Mo   W    S 
   3   3   3  18
Direct configuration=    21
   0.30557595  0.00187767 -0.00010115
   0.31443187  0.63847259 -0.00039267
   0.66246609  0.64517104  0.00037295
   0.99739654  0.32729231  0.00001958
   0.01413705  0.03047844  0.00000253
   0.30381097  0.32038907 -0.00006441
  -0.01244982  0.64420543  0.00078498
   0.70019164  0.02804733 -0.00029684
   0.69929258  0.34854422 -0.00033577
   0.10821717  0.22607137  0.94305205
   0.22266973  0.11018840  0.05499891
   0.11443376  0.55836979  0.94714077
   0.22288518  0.44687921  0.05425792
   0.10707922  0.88821711  0.95006335
   0.22573496  0.77898304  0.04825577
   0.44721460  0.22221911  0.95356066
   0.55416528  0.11207447  0.04773571
   0.44392151  0.55546022  0.95011368
   0.55379482  0.43904715  0.04848324
   0.44359153  0.88917599  0.95806103
   0.55598170  0.77687998  0.04425769
   0.78145463  0.22691907  0.94359456
   0.89500547  0.11514778  0.05669230
   0.77682051  0.55822974  0.94583454
   0.89486814  0.44378168  0.05642550
   0.77876446  0.88633202  0.95059393
   0.88675890  0.77976021  0.04688907
unknown system                          
           1
     8.307018    4.828882    0.000000
    -8.311756    4.837172    0.000000
     0.000000    0.000000   30.000000
   V    Mo   W    S 
   3   3   3  18
Direct configuration=    22
   0.30457229  0.00118070 -0.00002310
   0.31419424  0.63813472 -0.00038243
   0.66155926  0.64390074  0.00029361
   0.99764851  0.32791663  0.00002715
   0.01434798  0.03105811 -0.00000308
   0.30373463  0.32061825 -0.00003118
  -0.01222347  0.64366279  0.00074345
   0.70054327  0.02850397 -0.00033105
   0.70008684  0.34892051 -0.00038595
   0.10823229  0.22643137  0.94307237
   0.22244309  0.11026641  0.05504916
   0.11457124  0.55852643  0.94705452
   0.22309578  0.44700685  0.05432168
   0.10665141  0.88812505  0.95009397
   0.22560597  0.77880358  0.04829361
   0.44745947  0.22215948  0.95387539
   0.55416021  0.11215402  0.04761659
   0.44370200  0.55525873  0.95005278
   0.55385324  0.43863321  0.04850572
   0.44350511  0.88919344  0.95824818
   0.55609823  0.77685822  0.04405999
   0.78177137  0.22718328  0.94355782
   0.89517833  0.11550508  0.05669620
   0.77700586  0.55821925  0.94579949
   0.89500048  0.44387230  0.05653810
   0.77872867  0.88630681  0.95069322
   0.88668814  0.77981452  0.04656369
unknown system                          
           1
     8.306988    4.826806    0.000000
    -8.312475    4.836382    0.000000
     0.000000    0.000000   30.000000
   V    Mo   W    S 
   3   3   3  18
Direct configuration=    23
   0.30431901  0.00090703  0.00001794
   0.31426251  0.63821724 -0.00037357
   0.66111236  0.64349135  0.00025228
   0.99778897  0.32804191  0.00003783
   0.01439781  0.03119875  0.00000444
   0.30385713  0.32073972 -0.00000881
  -0.01201073  0.64370188  0.00072866
   0.70055252  0.02856243 -0.00033689
   0.70015099  0.34893327 -0.00037788
   0.10832930  0.22655304  0.94308809
   0.22235980  0.11024957  0.05504274
   0.11466735  0.55856490  0.94704275
   0.22322319  0.44711521  0.05431915
   0.10660208  0.88817945  0.95010574
   0.22557346  0.77874690  0.04832768
   0.44744021  0.22201226  0.95395114
   0.55408539  0.11208490  0.04759912
   0.44362794  0.55521620  0.95001823
   0.55390279  0.43857840  0.04854688
   0.44346142  0.88921575  0.95826060
   0.55613578  0.77682751  0.04402870
   0.78190723  0.22726957  0.94356815
   0.89515663  0.11560127  0.05668515
   0.77703187  0.55818567  0.94580189
   0.89498467  0.44391546  0.05650321
   0.77867970  0.88628788  0.95071514
   0.88661506  0.77981693  0.04645154
unknown system                          
           1
     8.309974    4.828335    0.000000
    -8.315620    4.838184    0.000000
     0.000000    0.000000   30.000000
   V    Mo   W    S 
   3   3   3  18
Direct configuration=    24
   0.30360312  0.00022439  0.00012719
   0.31430606  0.63824693 -0.00035504
   0.65997639  0.64228661  0.00014659
   0.99807441  0.32841628  0.00005837
   0.01450299  0.03174007  0.00001988
   0.30395553  0.32099455  0.00003104
  -0.01168245  0.64351210  0.00068239
   0.70078540  0.02893344 -0.00035120
   0.70053480  0.34901062 -0.00039817
   0.10850757  0.22689531  0.94311864
   0.22214212  0.11031366  0.05507894
   0.11485594  0.55871438  0.94697209
   0.22346268  0.44727486  0.05436669
   0.10625136  0.88816345  0.95010644
   0.22541340  0.77851899  0.04840386
   0.44753240  0.22180819  0.95420484
   0.55404474  0.11205339  0.04751365
   0.44342317  0.55503933  0.94992177
   0.55399695  0.43826009  0.04862707
   0.44341953  0.88927757  0.95836117