   27   27  100    1
  0.9710400E+02  0.1002848E-08  0.1002848E-08  0.3000000E-08  0.5000000E-15
  1.000000000000000E-004
  CAR 
 unknown system                          
    159     34    120
 
  0.0000000E+00  0.0000000E+00  0.0000000E+00  0.1562500E-01
    1      -17.844402   1.000000
    2      -16.802872   1.000000
    3      -16.701829   1.000000
    4      -16.597589   1.000000
    5      -16.564194   1.000000
    6      -16.453134   1.000000
    7      -16.402995   1.000000
    8      -16.272451   1.000000
    9      -16.230517   1.000000
   10      -16.136811   1.000000
   11      -16.095799   1.000000
   12      -15.962833   1.000000
   13      -15.908469   1.000000
   14      -15.625939   1.000000
   15      -15.586901   1.000000
   16      -15.471941   1.000000
   17      -15.227943   1.000000
   18      -15.184398   1.000000
   19       -9.407698   1.000000
   20       -9.056098   1.000000
   21       -9.038604   1.000000
   22       -8.945279   1.000000
   23       -8.744485   1.000000
   24       -8.708133   1.000000
   25       -8.695521   1.000000
   26       -8.599842   1.000000
   27       -8.504882   1.000000
   28       -8.477594   1.000000
   29       -8.434486   1.000000
   30       -8.373032   1.000000
   31       -8.299167   1.000000
   32       -8.120034   1.000000
   33       -8.094188   1.000000
   34       -8.030388   1.000000
   35       -7.802670   1.000000
   36       -7.741016   1.000000
   37       -7.628904   1.000000
   38       -7.607080   1.000000
   39       -7.512456   1.000000
   40       -7.340232   1.000000
   41       -7.313112   1.000000
   42       -7.212935   1.000000
   43       -7.103750   1.000000
   44       -6.945952   1.000000
   45       -6.859280   1.000000
   46       -6.798315   1.000000
   47       -6.738140   1.000000
   48       -6.690962   1.000000
   49       -6.610848   1.000000
   50       -6.510227   1.000000
   51       -6.439649   1.000000
   52       -6.256050   1.000000
   53       -6.212802   1.000000
   54       -6.178343   1.000000
   55       -6.163213   1.000000
   56       -6.105676   1.000000
   57       -6.003211   1.000000
   58       -5.911576   1.000000
   59       -5.882369   1.000000
   60       -5.626065   1.000000
   61       -5.592736   1.000000
   62       -5.326212   1.000000
   63       -5.283982   1.000000
   64       -5.080084   1.000000
   65       -4.987339   1.000000
   66       -4.962806   1.000000
   67       -4.878638   1.000000
   68       -4.863604   1.000000
   69       -4.758173   1.000000
   70       -4.706943   1.000000
   71       -4.663700   1.000000
   72       -4.627570   1.000000
   73       -4.449867   1.000000
   74       -4.369873   1.000000
   75       -4.259930   1.000000
   76       -3.985529   1.000000
   77       -3.799258   0.999959
   78       -3.590441   0.993052
   79       -3.504963   0.968239
   80       -3.219498   0.435247
   81       -3.157610   0.274039
   82       -2.911577   0.009633
   83       -2.697638   0.000058
   84       -2.683128   0.000038
   85       -2.578433   0.000001
   86       -2.498776   0.000000
   87       -2.329771   0.000000
   88       -2.288586   0.000000
   89       -2.243730   0.000000
   90       -2.115255   0.000000
   91       -1.764296   0.000000
   92       -1.556975   0.000000
   93       -1.329254   0.000000
   94       -1.241790   0.000000
   95       -1.050300   0.000000
   96       -0.999461   0.000000
   97       -0.935315   0.000000
   98       -0.826276   0.000000
   99       -0.813345   0.000000
  100       -0.633311   0.000000
  101       -0.602119   0.000000
  102       -0.524382   0.000000
  103       -0.409151   0.000000
  104       -0.271726   0.000000
  105       -0.206280   0.000000
  106       -0.110887   0.000000
  107       -0.107916   0.000000
  108        0.021073   0.000000
  109        0.052635   0.000000
  110        0.231776   0.000000
  111        0.493940   0.000000
  112        0.605758   0.000000
  113        0.719020   0.000000
  114        0.878784   0.000000
  115        0.949858   0.000000
  116        1.014639   0.000000
  117        1.126944   0.000000
  118        1.648432   0.000000
  119        1.841570   0.000000
  120        2.163254   0.000000
 
  0.1250000E+00  0.2775558E-16  0.0000000E+00  0.3125000E-01
    1      -17.821353   1.000000
    2      -16.832744   1.000000
    3      -16.737944   1.000000
    4      -16.669179   1.000000
    5      -16.569769   1.000000
    6      -16.454667   1.000000
    7      -16.365439   1.000000
    8      -16.282502   1.000000
    9      -16.218814   1.000000
   10      -16.118641   1.000000
   11      -16.005153   1.000000
   12      -15.952049   1.000000
   13      -15.902760   1.000000
   14      -15.628819   1.000000
   15      -15.594903   1.000000
   16      -15.488432   1.000000
   17      -15.229756   1.000000
   18      -15.187440   1.000000
   19       -9.404775   1.000000
   20       -9.191120   1.000000
   21       -9.081207   1.000000
   22       -9.030809   1.000000
   23       -8.814845   1.000000
   24       -8.755242   1.000000
   25       -8.699825   1.000000
   26       -8.585626   1.000000
   27       -8.536175   1.000000
   28       -8.475275   1.000000
   29       -8.372624   1.000000
   30       -8.215284   1.000000
   31       -8.189330   1.000000
   32       -8.093961   1.000000
   33       -8.052827   1.000000
   34       -7.953848   1.000000
   35       -7.749753   1.000000
   36       -7.690962   1.000000
   37       -7.633861   1.000000
   38       -7.611461   1.000000
   39       -7.481874   1.000000
   40       -7.462831   1.000000
   41       -7.282144   1.000000
   42       -7.174553   1.000000
   43       -7.159948   1.000000
   44       -7.010095   1.000000
   45       -6.868954   1.000000
   46       -6.812703   1.000000
   47       -6.728117   1.000000
   48       -6.627004   1.000000
   49       -6.564466   1.000000
   50       -6.468775   1.000000
   51       -6.436264   1.000000
   52       -6.313565   1.000000
   53       -6.232434   1.000000
   54       -6.200498   1.000000
   55       -6.147582   1.000000
   56       -6.079790   1.000000
   57       -6.025604   1.000000
   58       -5.976959   1.000000
   59       -5.767277   1.000000
   60       -5.612593   1.000000
   61       -5.551416   1.000000
   62       -5.417130   1.000000
   63       -5.407466   1.000000
   64       -5.179188   1.000000
   65       -5.023683   1.000000
   66       -4.971529   1.000000
   67       -4.873656   1.000000
   68       -4.857187   1.000000
   69       -4.759429   1.000000
   70       -4.685417   1.000000
   71       -4.627160   1.000000
   72       -4.550719   1.000000
   73       -4.450082   1.000000
   74       -4.302985   1.000000
   75       -4.224244   1.000000
   76       -4.041102   1.000000
   77       -3.808881   0.999969
   78       -3.668441   0.998700
   79       -3.573847   0.990425
   80       -3.178936   0.326411
   81       -3.116939   0.187209
   82       -2.872748   0.004462
   83       -2.681520   0.000036
   84       -2.657488   0.000018
   85       -2.571976   0.000001
   86       -2.488091   0.000000
   87       -2.306841   0.000000
   88       -2.258313   0.000000
   89       -2.210068   0.000000
   90       -2.112522   0.000000
   91       -1.772335   0.000000
   92       -1.546036   0.000000
   93       -1.335891   0.000000
   94       -1.252366   0.000000
   95       -1.052898   0.000000
   96       -1.002174   0.000000
   97       -0.954156   0.000000
   98       -0.843542   0.000000
   99       -0.789681   0.000000
  100       -0.717995   0.000000
  101       -0.660307   0.000000
  102       -0.577936   0.000000
  103       -0.532613   0.000000
  104       -0.385806   0.000000
  105       -0.266336   0.000000
  106       -0.086962   0.000000
  107       -0.052047   0.000000
  108        0.047723   0.000000
  109        0.137536   0.000000
  110        0.246386   0.000000
  111        0.411151   0.000000
  112        0.604398   0.000000
  113        0.747319   0.000000
  114        0.894829   0.000000
  115        0.956856   0.000000
  116        1.017831   0.000000
  117        1.142110   0.000000
  118        1.690456   0.000000
  119        1.882664   0.000000
  120        2.198003   0.000000
 
  0.2500000E+00  0.5551115E-16  0.0000000E+00  0.3125000E-01
    1      -17.755052   1.000000
    2      -16.987587   1.000000
    3      -16.759882   1.000000
    4      -16.723916   1.000000
    5      -16.621160   1.000000
    6      -16.440926   1.000000
    7      -16.345595   1.000000
    8      -16.267476   1.000000
    9      -16.183140   1.000000
   10      -16.064998   1.000000
   11      -15.936308   1.000000
   12      -15.892710   1.000000
   13      -15.841640   1.000000
   14      -15.650049   1.000000
   15      -15.603810   1.000000
   16      -15.529292   1.000000
   17      -15.234902   1.000000
   18      -15.195964   1.000000
   19       -9.533641   1.000000
   20       -9.291798   1.000000
   21       -9.208385   1.000000
   22       -9.122120   1.000000
   23       -8.950699   1.000000
   24       -8.811961   1.000000
   25       -8.640085   1.000000
   26       -8.550448   1.000000
   27       -8.517922   1.000000
   28       -8.403458   1.000000
   29       -8.288709   1.000000
   30       -8.205170   1.000000
   31       -8.101796   1.000000
   32       -8.060269   1.000000
   33       -7.920178   1.000000
   34       -7.799899   1.000000
   35       -7.719539   1.000000
   36       -7.674252   1.000000
   37       -7.606304   1.000000
   38       -7.558511   1.000000
   39       -7.502505   1.000000
   40       -7.378943   1.000000
   41       -7.289697   1.000000
   42       -7.174823   1.000000
   43       -7.123718   1.000000
   44       -7.027827   1.000000
   45       -6.907030   1.000000
   46       -6.794827   1.000000
   47       -6.710766   1.000000
   48       -6.631936   1.000000
   49       -6.498247   1.000000
   50       -6.457237   1.000000
   51       -6.338232   1.000000
   52       -6.327105   1.000000
   53       -6.296664   1.000000
   54       -6.228896   1.000000
   55       -6.164674   1.000000
   56       -6.089799   1.000000
   57       -6.028603   1.000000
   58       -5.907469   1.000000
   59       -5.730449   1.000000
   60       -5.651757   1.000000
   61       -5.613388   1.000000
   62       -5.547704   1.000000
   63       -5.424608   1.000000
   64       -5.402995   1.000000
   65       -5.242304   1.000000
   66       -4.999221   1.000000
   67       -4.878370   1.000000
   68       -4.818684   1.000000
   69       -4.713209   1.000000
   70       -4.649611   1.000000
   71       -4.513848   1.000000
   72       -4.439869   1.000000
   73       -4.390966   1.000000
   74       -4.307085   1.000000
   75       -4.218948   1.000000
   76       -4.115776   1.000000
   77       -3.830164   0.999984
   78       -3.794566   0.999953
   79       -3.628324   0.996812
   80       -3.128097   0.209161
   81       -3.050846   0.087616
   82       -2.805505   0.000999
   83       -2.670108   0.000026
   84       -2.608999   0.000004
   85       -2.522006   0.000000
   86       -2.451563   0.000000
   87       -2.253097   0.000000
   88       -2.194884   0.000000
   89       -2.135915   0.000000
   90       -2.051597   0.000000
   91       -1.778659   0.000000
   92       -1.525046   0.000000
   93       -1.365697   0.000000
   94       -1.299610   0.000000
   95       -1.132920   0.000000
   96       -1.027501   0.000000
   97       -0.966301   0.000000
   98       -0.890353   0.000000
   99       -0.863719   0.000000
  100       -0.809950   0.000000
  101       -0.752745   0.000000
  102       -0.697647   0.000000
  103       -0.656978   0.000000
  104       -0.528684   0.000000
  105       -0.341874   0.000000
  106       -0.123220   0.000000
  107       -0.033271   0.000000
  108        0.046474   0.000000
  109        0.131715   0.000000
  110        0.292787   0.000000
  111        0.360613   0.000000
  112        0.574229   0.000000
  113        0.820067   0.000000
  114        0.872340   0.000000
  115        0.903909   0.000000
  116        1.118220   0.000000
  117        1.228275   0.000000
  118        1.807784   0.000000
  119        1.999722   0.000000
  120        2.300758   0.000000
 
  0.3750000E+00  0.0000000E+00  0.0000000E+00  0.3125000E-01
    1      -17.659304   1.000000
    2      -17.170690   1.000000
    3      -16.774595   1.000000
    4      -16.740035   1.000000
    5      -16.660794   1.000000
    6      -16.440270   1.000000
    7      -16.340890   1.000000
    8      -16.270686   1.000000
    9      -16.108884   1.000000
   10      -16.006502   1.000000
   11      -15.936933   1.000000
   12      -15.847447   1.000000
   13      -15.747807   1.000000
   14      -15.671369   1.000000
   15      -15.630859   1.000000
   16      -15.553288   1.000000
   17      -15.241074   1.000000
   18      -15.206464   1.000000
   19       -9.725362   1.000000
   20       -9.326613   1.000000
   21       -9.259748   1.000000
   22       -9.174610   1.000000
   23       -9.038173   1.000000
   24       -8.850677   1.000000
   25       -8.545170   1.000000
   26       -8.515620   1.000000
   27       -8.450725   1.000000
   28       -8.303129   1.000000
   29       -8.256317   1.000000
   30       -8.231906   1.000000
   31       -8.128633   1.000000
   32       -8.095656   1.000000
   33       -7.911131   1.000000
   34       -7.830088   1.000000
   35       -7.767966   1.000000
   36       -7.728493   1.000000
   37       -7.546933   1.000000
   38       -7.409925   1.000000
   39       -7.365742   1.000000
   40       -7.311440   1.000000
   41       -7.212327   1.000000
   42       -7.128351   1.000000
   43       -7.068893   1.000000
   44       -6.983463   1.000000
   45       -6.825742   1.000000
   46       -6.778228   1.000000
   47       -6.688425   1.000000
   48       -6.590520   1.000000
   49       -6.511801   1.000000
   50       -6.442396   1.000000
   51       -6.392386   1.000000
   52       -6.374913   1.000000
   53       -6.277179   1.000000
   54       -6.218085   1.000000
   55       -6.139134   1.000000
   56       -6.054725   1.000000
   57       -6.019512   1.000000
   58       -5.866230   1.000000
   59       -5.831641   1.000000
   60       -5.735572   1.000000
   61       -5.706700   1.000000
   62       -5.592980   1.000000
   63       -5.578806   1.000000
   64       -5.438120   1.000000
   65       -5.312294   1.000000
   66       -5.038418   1.000000
   67       -4.880019   1.000000
   68       -4.823804   1.000000
   69       -4.737349   1.000000
   70       -4.681395   1.000000
   71       -4.563321   1.000000
   72       -4.446722   1.000000
   73       -4.379668   1.000000
   74       -4.234248   1.000000
   75       -4.160496   1.000000
   76       -4.051639   1.000000
   77       -3.958922   1.000000
   78       -3.763092   0.999884
   79       -3.621906   0.996345
   80       -3.104420   0.164346
   81       -3.001320   0.044024
   82       -2.771828   0.000437
   83       -2.660368   0.000019
   84       -2.597866   0.000003
   85       -2.461825   0.000000
   86       -2.379528   0.000000
   87       -2.190642   0.000000
   88       -2.115557   0.000000
   89       -2.081323   0.000000
   90       -1.922507   0.000000
   91       -1.758903   0.000000
   92       -1.533783   0.000000
   93       -1.433294   0.000000
   94       -1.379387   0.000000
   95       -1.251485   0.000000
   96       -1.074090   0.000000
   97       -1.056957   0.000000
   98       -0.989210   0.000000
   99       -0.932538   0.000000
  100       -0.859474   0.000000
  101       -0.832643   0.000000
  102       -0.710960   0.000000
  103       -0.665269   0.000000
  104       -0.597535   0.000000
  105       -0.392257   0.000000
  106       -0.195671   0.000000
  107       -0.082559   0.000000
  108       -0.008212   0.000000
  109        0.033195   0.000000
  110        0.290352   0.000000
  111        0.384158   0.000000
  112        0.593568   0.000000
  113        0.806836   0.000000
  114        0.861962   0.000000
  115        0.932703   0.000000
  116        1.182001   0.000000
  117        1.348536   0.000000
  118        1.983375   0.000000
  119        2.179110   0.000000
  120        2.428620   0.000000
 
  0.5000000E+00  0.1110223E-15  0.0000000E+00  0.1562500E-01
    1      -17.596156   1.000000
    2      -17.265970   1.000000
    3      -16.785041   1.000000
    4      -16.738235   1.000000
    5      -16.675611   1.000000
    6      -16.442033   1.000000
    7      -16.339224   1.000000
    8      -16.274953   1.000000
    9      -16.064246   1.000000
   10      -15.982444   1.000000
   11      -15.951162   1.000000
   12      -15.810070   1.000000
   13      -15.734833   1.000000
   14      -15.687515   1.000000
   15      -15.644175   1.000000
   16      -15.549598   1.000000
   17      -15.243931   1.000000
   18      -15.211559   1.000000
   19       -9.797800   1.000000
   20       -9.364382   1.000000
   21       -9.259548   1.000000
   22       -9.187759   1.000000
   23       -9.058050   1.000000
   24       -8.861635   1.000000
   25       -8.518882   1.000000
   26       -8.475296   1.000000
   27       -8.393713   1.000000
   28       -8.315740   1.000000
   29       -8.270092   1.000000
   30       -8.195066   1.000000
   31       -8.137824   1.000000
   32       -8.080439   1.000000
   33       -7.950817   1.000000
   34       -7.911876   1.000000
   35       -7.830948   1.000000
   36       -7.753794   1.000000
   37       -7.495288   1.000000
   38       -7.362866   1.000000
   39       -7.301018   1.000000
   40       -7.240278   1.000000
   41       -7.135609   1.000000
   42       -7.073879   1.000000
   43       -7.045077   1.000000
   44       -7.022314   1.000000
   45       -6.813472   1.000000
   46       -6.736152   1.000000
   47       -6.602317   1.000000
   48       -6.569405   1.000000
   49       -6.538927   1.000000
   50       -6.506972   1.000000
   51       -6.427590   1.000000
   52       -6.342466   1.000000
   53       -6.242958   1.000000
   54       -6.212874   1.000000
   55       -6.171491   1.000000
   56       -6.080336   1.000000
   57       -6.028571   1.000000
   58       -5.873729   1.000000
   59       -5.845130   1.000000
   60       -5.792622   1.000000
   61       -5.728151   1.000000
   62       -5.651646   1.000000
   63       -5.511582   1.000000
   64       -5.374780   1.000000
   65       -5.287992   1.000000
   66       -5.229427   1.000000
   67       -4.943490   1.000000
   68       -4.876338   1.000000
   69       -4.782572   1.000000
   70       -4.678824   1.000000
   71       -4.518943   1.000000
   72       -4.443078   1.000000
   73       -4.344825   1.000000
   74       -4.199529   1.000000
   75       -4.140340   1.000000
   76       -4.018990   1.000000
   77       -4.014212   1.000000
   78       -3.744134   0.999805
   79       -3.605504   0.994863
   80       -3.100237   0.157127
   81       -2.982863   0.033157
   82       -2.765425   0.000371
   83       -2.650937   0.000014
   84       -2.601918   0.000003
   85       -2.446536   0.000000
   86       -2.334875   0.000000
   87       -2.159226   0.000000
   88       -2.072847   0.000000
   89       -2.046938   0.000000
   90       -1.863852   0.000000
   91       -1.731201   0.000000
   92       -1.608989   0.000000
   93       -1.433438   0.000000
   94       -1.388449   0.000000
   95       -1.325896   0.000000
   96       -1.134951   0.000000
   97       -1.106412   0.000000
   98       -1.036392   0.000000
   99       -0.945391   0.000000
  100       -0.864677   0.000000
  101       -0.837911   0.000000
  102       -0.729635   0.000000
  103       -0.671613   0.000000
  104       -0.583083   0.000000
  105       -0.410480   0.000000
  106       -0.232510   0.000000
  107       -0.130985   0.000000
  108       -0.031617   0.000000
  109       -0.003777   0.000000
  110        0.272572   0.000000
  111        0.403426   0.000000
  112        0.605861   0.000000
  113        0.791503   0.000000
  114        0.860541   0.000000
  115        0.952636   0.000000
  116        1.209689   0.000000
  117        1.396845   0.000000
  118        2.161441   0.000000
  119        2.259760   0.000000
  120        2.407090   0.000000
 
  0.0000000E+00  0.1250000E+00  0.0000000E+00  0.3125000E-01
    1      -17.819881   1.000000
    2      -16.826694   1.000000
    3      -16.788608   1.000000
    4      -16.639948   1.000000
    5      -16.513860   1.000000
    6      -16.443043   1.000000
    7      -16.394301   1.000000
    8      -16.323899   1.000000
    9      -16.236797   1.000000
   10      -16.074889   1.000000
   11      -16.026325   1.000000
   12      -15.981593   1.000000
   13      -15.868379   1.000000
   14      -15.622474   1.000000
   15      -15.585888   1.000000
   16      -15.477127   1.000000
   17      -15.250204   1.000000
   18      -15.186024   1.000000
   19       -9.404041   1.000000
   20       -9.194629   1.000000
   21       -9.093101   1.000000
   22       -9.054213   1.000000
   23       -8.783647   1.000000
   24       -8.718055   1.000000
   25       -8.656863   1.000000
   26       -8.580994   1.000000
   27       -8.547493   1.000000
   28       -8.495295   1.000000
   29       -8.393482   1.000000
   30       -8.317527   1.000000
   31       -8.214714   1.000000
   32       -8.039164   1.000000
   33       -7.984794   1.000000
   34       -7.902853   1.000000
   35       -7.844036   1.000000
   36       -7.747334   1.000000
   37       -7.672112   1.000000
   38       -7.511749   1.000000
   39       -7.466777   1.000000
   40       -7.386420   1.000000
   41       -7.312290   1.000000
   42       -7.219574   1.000000
   43       -7.143128   1.000000
   44       -6.973790   1.000000
   45       -6.875380   1.000000
   46       -6.820970   1.000000
   47       -6.740981   1.000000
   48       -6.669430   1.000000
   49       -6.613949   1.000000
   50       -6.513084   1.000000
   51       -6.434572   1.000000
   52       -6.296118   1.000000
   53       -6.261600   1.000000
   54       -6.188977   1.000000
   55       -6.113410   1.000000
   56       -6.081441   1.000000
   57       -6.015796   1.000000
   58       -5.903519   1.000000
   59       -5.783814   1.000000
   60       -5.585378   1.000000
   61       -5.550519   1.000000
   62       -5.352144   1.000000
   63       -5.303869   1.000000
   64       -5.250697   1.000000
   65       -5.073211   1.000000
   66       -5.019197   1.000000
   67       -4.919488   1.000000
   68       -4.881276   1.000000
   69       -4.799608   1.000000
   70       -4.659974   1.000000
   71       -4.638083   1.000000
   72       -4.510451   1.000000
   73       -4.392922   1.000000
   74       -4.306060   1.000000
   75       -4.242389   1.000000
   76       -3.916982   0.999999
   77       -3.838166   0.999987
   78       -3.688114   0.999185
   79       -3.496377   0.963657
   80       -3.420825   0.896268
   81       -2.975293   0.029391
   82       -2.908547   0.009094
   83       -2.704672   0.000071
   84       -2.655528   0.000017
   85       -2.592292   0.000002
   86       -2.501851   0.000000
   87       -2.315659   0.000000
   88       -2.270540   0.000000
   89       -2.209353   0.000000
   90       -2.105131   0.000000
   91       -1.769851   0.000000
   92       -1.523963   0.000000
   93       -1.332935   0.000000
   94       -1.243601   0.000000
   95       -1.060495   0.000000
   96       -0.989639   0.000000
   97       -0.931561   0.000000
   98       -0.855428   0.000000
   99       -0.823260   0.000000
  100       -0.705350   0.000000
  101       -0.625839   0.000000
  102       -0.579764   0.000000
  103       -0.487336   0.000000
  104       -0.344463   0.000000
  105       -0.258381   0.000000
  106       -0.155734   0.000000
  107       -0.109869   0.000000
  108        0.013258   0.000000
  109        0.124309   0.000000
  110        0.208009   0.000000
  111        0.471921   0.000000
  112        0.619955   0.000000
  113        0.741503   0.000000
  114        0.811689   0.000000
  115        0.954053   0.000000
  116        1.038325   0.000000
  117        1.258315   0.000000
  118        1.692838   0.000000
  119        1.881087   0.000000
  120        2.198588   0.000000
 
  0.1250000E+00  0.1250000E+00  0.0000000E+00  0.3125000E-01
    1      -17.775652   1.000000
    2      -16.880400   1.000000
    3      -16.862058   1.000000
    4      -16.733027   1.000000
    5      -16.492265   1.000000
    6      -16.429891   1.000000
    7      -16.368684   1.000000
    8      -16.313166   1.000000
    9      -16.225556   1.000000
   10      -16.030961   1.000000
   11      -15.993918   1.000000
   12      -15.912426   1.000000
   13      -15.846088   1.000000
   14      -15.636556   1.000000
   15      -15.597832   1.000000
   16      -15.498369   1.000000
   17      -15.257816   1.000000
   18      -15.187368   1.000000
   19       -9.436741   1.000000
   20       -9.334433   1.000000
   21       -9.206902   1.000000
   22       -9.154685   1.000000
   23       -8.843186   1.000000
   24       -8.689470   1.000000
   25       -8.653557   1.000000
   26       -8.565723   1.000000
   27       -8.522586   1.000000
   28       -8.480726   1.000000
   29       -8.286761   1.000000
   30       -8.265085   1.000000
   31       -8.107778   1.000000
   32       -8.046458   1.000000
   33       -7.992760   1.000000
   34       -7.853505   1.000000
   35       -7.736400   1.000000
   36       -7.693725   1.000000
   37       -7.591839   1.000000
   38       -7.553179   1.000000
   39       -7.472976   1.000000
   40       -7.361617   1.000000
   41       -7.285928   1.000000
   42       -7.240638   1.000000
   43       -7.118050   1.000000
   44       -7.008078   1.000000
   45       -6.907389   1.000000
   46       -6.829898   1.000000
   47       -6.751662   1.000000
   48       -6.645413   1.000000
   49       -6.531132   1.000000
   50       -6.467488   1.000000
   51       -6.408751   1.000000
   52       -6.304832   1.000000
   53       -6.280024   1.000000
   54       -6.220146   1.000000
   55       -6.154801   1.000000
   56       -6.053558   1.000000
   57       -5.995213   1.000000
   58       -5.947226   1.000000
   59       -5.745988   1.000000
   60       -5.572430   1.000000
   61       -5.535610   1.000000
   62       -5.497237   1.000000
   63       -5.433200   1.000000
   64       -5.302568   1.000000
   65       -5.207106   1.000000
   66       -5.049972   1.000000
   67       -4.910381   1.000000
   68       -4.839737   1.000000
   69       -4.799250   1.000000
   70       -4.644510   1.000000
   71       -4.528181   1.000000
   72       -4.448466   1.000000
   73       -4.364055   1.000000
   74       -4.236715   1.000000
   75       -4.180497   1.000000
   76       -4.102884   1.000000
   77       -3.931477   0.999999
   78       -3.702350   0.999426
   79       -3.556366   0.986756
   80       -3.328872   0.729189
   81       -2.938377   0.015744
   82       -2.846782   0.002567
   83       -2.688201   0.000044
   84       -2.624953   0.000006
   85       -2.567446   0.000001
   86       -2.487308   0.000000
   87       -2.270029   0.000000
   88       -2.207564   0.000000
   89       -2.169704   0.000000
   90       -2.092281   0.000000
   91       -1.771758   0.000000
   92       -1.504722   0.000000
   93       -1.341413   0.000000
   94       -1.268985   0.000000
   95       -1.091652   0.000000
   96       -1.020430   0.000000
   97       -0.955952   0.000000
   98       -0.877476   0.000000
   99       -0.851579   0.000000
  100       -0.804531   0.000000
  101       -0.719773   0.000000
  102       -0.652126   0.000000
  103       -0.617726   0.000000
  104       -0.470451   0.000000
  105       -0.300779   0.000000
  106       -0.137027   0.000000
  107       -0.083594   0.000000
  108        0.059607   0.000000
  109        0.070651   0.000000
  110        0.239988   0.000000
  111        0.401200   0.000000
  112        0.616235   0.000000
  113        0.755065   0.000000
  114        0.863539   0.000000
  115        0.961772   0.000000
  116        1.111042   0.000000
  117        1.254587   0.000000
  118        1.772306   0.000000
  119        1.960482   0.000000
  120        2.267263   0.000000
 
  0.2500000E+00  0.1250000E+00  0.0000000E+00  0.3125000E-01
    1      -17.693034   1.000000
    2      -17.059354   1.000000
    3      -16.920218   1.000000
    4      -16.742856   1.000000
    5      -16.504981   1.000000
    6      -16.429482   1.000000
    7      -16.357749   1.000000
    8      -16.249333   1.000000
    9      -16.197094   1.000000
   10      -16.003497   1.000000
   11      -15.979631   1.000000
   12      -15.858894   1.000000
   13      -15.748311   1.000000
   14      -15.686057   1.000000
   15      -15.605619   1.000000
   16      -15.520454   1.000000
   17      -15.268485   1.000000
   18      -15.190372   1.000000
   19       -9.615146   1.000000
   20       -9.440895   1.000000
   21       -9.307211   1.000000
   22       -9.180421   1.000000
   23       -8.899553   1.000000
   24       -8.688163   1.000000
   25       -8.577130   1.000000
   26       -8.511338   1.000000
   27       -8.463264   1.000000
   28       -8.389212   1.000000
   29       -8.260969   1.000000
   30       -8.217517   1.000000
   31       -8.170804   1.000000
   32       -8.083775   1.000000
   33       -7.957328   1.000000
   34       -7.862506   1.000000
   35       -7.762173   1.000000
   36       -7.628402   1.000000
   37       -7.612203   1.000000
   38       -7.480998   1.000000
   39       -7.414954   1.000000
   40       -7.318966   1.000000
   41       -7.225417   1.000000
   42       -7.124726   1.000000
   43       -7.053687   1.000000
   44       -6.949209   1.000000
   45       -6.909199   1.000000
   46       -6.808174   1.000000
   47       -6.751455   1.000000