       N       E                     dE             d eps       ncg     rms          rms(c)
DAV:   1     0.111977267657E+04    0.11198E+04   -0.35906E+04  8200   0.577E+02
DAV:   2    -0.650251867965E+01   -0.11263E+04   -0.10863E+04 11280   0.173E+02
DAV:   3    -0.200052481162E+03   -0.19355E+03   -0.18598E+03 10880   0.815E+01
DAV:   4    -0.209005909778E+03   -0.89534E+01   -0.86998E+01 12280   0.259E+01
DAV:   5    -0.209304131088E+03   -0.29822E+00   -0.29736E+00 11480   0.342E+00    0.275E+01
DAV:   6    -0.236716649426E+03   -0.27413E+02   -0.10823E+02 12880   0.604E+01    0.593E+01
DAV:   7    -0.196697538591E+03    0.40019E+02   -0.17806E+02 13080   0.151E+02    0.202E+01
DAV:   8    -0.189934159852E+03    0.67634E+01   -0.20053E+01 11720   0.133E+01    0.134E+01
DAV:   9    -0.188237779966E+03    0.16964E+01   -0.28899E+00 11960   0.622E+00    0.920E+00
DAV:  10    -0.187049771493E+03    0.11880E+01   -0.18670E+00 13360   0.773E+00    0.291E+00
DAV:  11    -0.187026920421E+03    0.22851E-01   -0.62302E-01 13560   0.305E+00    0.309E+00
DAV:  12    -0.187173334713E+03   -0.14641E+00   -0.82081E-01 13120   0.525E+00    0.577E+00
DAV:  13    -0.186921857093E+03    0.25148E+00   -0.77695E-01 12720   0.415E+00    0.212E+00
DAV:  14    -0.186875630294E+03    0.46227E-01   -0.11877E-01 13200   0.203E+00    0.793E-01
DAV:  15    -0.186869129373E+03    0.65009E-02   -0.11741E-02 12720   0.425E-01    0.237E-01
DAV:  16    -0.186869473717E+03   -0.34434E-03   -0.60112E-03 13160   0.396E-01    0.407E-01
DAV:  17    -0.186868419476E+03    0.10542E-02   -0.47034E-03 12320   0.408E-01    0.265E-01
DAV:  18    -0.186867690563E+03    0.72891E-03   -0.13685E-03 11440   0.183E-01    0.584E-02
DAV:  19    -0.186868322838E+03   -0.63228E-03   -0.74534E-04  9560   0.571E-02    0.634E-02
DAV:  20    -0.186868752176E+03   -0.42934E-03   -0.26888E-04  7360   0.499E-02    0.523E-02
DAV:  21    -0.186869808978E+03   -0.10568E-02   -0.31680E-04  8320   0.500E-02    0.375E-02
DAV:  22    -0.186871210607E+03   -0.14016E-02   -0.17876E-04  7760   0.471E-02    0.185E-02
DAV:  23    -0.186871852467E+03   -0.64186E-03   -0.34540E-05  6480   0.195E-02    0.729E-03
DAV:  24    -0.186872114543E+03   -0.26208E-03   -0.17175E-05  5840   0.115E-02    0.565E-03
DAV:  25    -0.186872461422E+03   -0.34688E-03   -0.13015E-05  5600   0.926E-03    0.321E-03
DAV:  26    -0.186872696332E+03   -0.23491E-03   -0.88017E-06  6800   0.649E-03    0.222E-03
DAV:  27    -0.186872792894E+03   -0.96562E-04   -0.37863E-06  7200   0.412E-03
   1 F= -.18687279E+03 E0= -.18670123E+03  d E =-.186873E+03
       N       E                     dE             d eps       ncg     rms          rms(c)
DAV:   1    -0.187493570077E+03   -0.62087E+00   -0.26998E+02  8160   0.349E+01    0.459E+00
DAV:   2    -0.189301865219E+03   -0.18083E+01   -0.19994E+01 12240   0.149E+01    0.831E+00
DAV:   3    -0.189413985405E+03   -0.11212E+00   -0.42224E+00 12400   0.120E+01    0.696E+00
DAV:   4    -0.188762221320E+03    0.65176E+00   -0.62537E-01 12200   0.491E+00    0.201E+00
DAV:   5    -0.188876430957E+03   -0.11421E+00   -0.43374E-01 11240   0.361E+00    0.538E+00
DAV:   6    -0.188744866775E+03    0.13156E+00   -0.79066E-01 12600   0.434E+00    0.236E+00
DAV:   7    -0.188681754592E+03    0.63112E-01   -0.18463E-01 11440   0.139E+00    0.107E+00
DAV:   8    -0.188665933064E+03    0.15822E-01   -0.48879E-02 11480   0.685E-01    0.653E-01
DAV:   9    -0.188661113069E+03    0.48200E-02   -0.91344E-03 12240   0.310E-01    0.344E-01
DAV:  10    -0.188660511829E+03    0.60124E-03   -0.34061E-03 12920   0.258E-01    0.186E-01
DAV:  11    -0.188660653885E+03   -0.14206E-03   -0.24067E-03 13120   0.268E-01    0.271E-01
DAV:  12    -0.188660268617E+03    0.38527E-03   -0.14169E-03 11360   0.214E-01    0.120E-01
DAV:  13    -0.188660231179E+03    0.37438E-04   -0.26832E-04  7520   0.812E-02
   2 F= -.18866023E+03 E0= -.18851921E+03  d E =-.178744E+01
       N       E                     dE             d eps       ncg     rms          rms(c)
DAV:   1    -0.190572000247E+03   -0.19117E+01   -0.30760E+01  9120   0.141E+01    0.445E+00
DAV:   2    -0.190565058505E+03    0.69417E-02   -0.28086E+00 11280   0.969E+00    0.748E+00
DAV:   3    -0.190050802770E+03    0.51426E+00   -0.13608E+00 12320   0.863E+00    0.418E+00
DAV:   4    -0.189852972034E+03    0.19783E+00   -0.73238E-01 12720   0.412E+00    0.268E+00
DAV:   5    -0.189899992291E+03   -0.47020E-01   -0.48369E-01 12360   0.422E+00    0.383E+00
DAV:   6    -0.189745890240E+03    0.15410E+00   -0.21977E-01 12320   0.322E+00    0.616E-01
DAV:   7    -0.189740038953E+03    0.58513E-02   -0.14921E-02 11920   0.458E-01    0.211E-01
DAV:   8    -0.189740055473E+03   -0.16519E-04   -0.28180E-03 10280   0.155E-01    0.147E-01
DAV:   9    -0.189740194878E+03   -0.13941E-03   -0.97835E-04 10640   0.135E-01    0.144E-01
DAV:  10    -0.189740735569E+03   -0.54069E-03   -0.15612E-03 10480   0.261E-01    0.268E-01
DAV:  11    -0.189740091423E+03    0.64415E-03   -0.98205E-04  9520   0.203E-01    0.226E-02
DAV:  12    -0.189740112610E+03   -0.21187E-04   -0.61769E-05  5760   0.269E-02
   3 F= -.18974011E+03 E0= -.18962107E+03  d E =-.107988E+01
       N       E                     dE             d eps       ncg     rms          rms(c)
DAV:   1    -0.191282852087E+03   -0.15428E+01   -0.70094E+01  8160   0.192E+01    0.460E+00
DAV:   2    -0.191158610511E+03    0.12424E+00   -0.53600E+00 13440   0.827E+00    0.517E+00
DAV:   3    -0.191196764170E+03   -0.38154E-01   -0.15535E+00 12200   0.921E+00    0.624E+00
DAV:   4    -0.190808925542E+03    0.38784E+00   -0.11307E+00 12960   0.679E+00    0.253E+00
DAV:   5    -0.190711303714E+03    0.97622E-01   -0.27945E-01 11240   0.211E+00    0.102E+00
DAV:   6    -0.190708503209E+03    0.28005E-02   -0.87396E-02 12720   0.176E+00    0.131E+00
DAV:   7    -0.190698641725E+03    0.98615E-02   -0.49188E-02 11640   0.150E+00    0.679E-01
DAV:   8    -0.190692746947E+03    0.58948E-02   -0.77260E-03 11040   0.499E-01    0.150E-01
DAV:   9    -0.190692989097E+03   -0.24215E-03   -0.15982E-03 10480   0.124E-01    0.136E-01
DAV:  10    -0.190692891619E+03    0.97478E-04   -0.11847E-03 11000   0.131E-01    0.663E-02
DAV:  11    -0.190692962096E+03   -0.70477E-04   -0.39655E-04  9240   0.127E-01
   4 F= -.19069296E+03 E0= -.19059158E+03  d E =-.952849E+00
       N       E                     dE             d eps       ncg     rms          rms(c)
DAV:   1    -0.192151058947E+03   -0.14582E+01   -0.15368E+02  8160   0.279E+01    0.586E+00
DAV:   2    -0.191833295743E+03    0.31776E+00   -0.98280E+00 12320   0.835E+00    0.400E+00
DAV:   3    -0.191919808179E+03   -0.86512E-01   -0.18599E+00 12240   0.919E+00    0.649E+00
DAV:   4    -0.191631494216E+03    0.28831E+00   -0.17432E+00 12280   0.101E+01    0.393E+00
DAV:   5    -0.191384970939E+03    0.24652E+00   -0.45313E-01 12040   0.379E+00    0.118E+00
DAV:   6    -0.191400866529E+03   -0.15896E-01   -0.19254E-01 12720   0.260E+00    0.199E+00
DAV:   7    -0.191369703014E+03    0.31164E-01   -0.11739E-01 12080   0.216E+00    0.642E-01
DAV:   8    -0.191363134094E+03    0.65689E-02   -0.10884E-02 10200   0.568E-01    0.241E-01
DAV:   9    -0.191363805694E+03   -0.67160E-03   -0.38124E-03 12920   0.429E-01    0.333E-01
DAV:  10    -0.191363084192E+03    0.72150E-03   -0.32740E-03 11160   0.329E-01    0.812E-02
DAV:  11    -0.191363089132E+03   -0.49397E-05   -0.51614E-04 10560   0.874E-02
   5 F= -.19136309E+03 E0= -.19126728E+03  d E =-.670127E+00
       N       E                     dE             d eps       ncg     rms          rms(c)
DAV:   1    -0.191453032551E+03   -0.89948E-01   -0.80740E+00  8160   0.599E+00    0.779E-01
DAV:   2    -0.191536126254E+03   -0.83094E-01   -0.34161E-01 12920   0.337E+00    0.252E+00
DAV:   3    -0.191465684740E+03    0.70442E-01   -0.13155E-01 12480   0.276E+00    0.440E-01
DAV:   4    -0.191464557381E+03    0.11274E-02   -0.98557E-03 11120   0.492E-01    0.382E-01
DAV:   5    -0.191463830751E+03    0.72663E-03   -0.64000E-03 11600   0.568E-01    0.372E-01
DAV:   6    -0.191462834598E+03    0.99615E-03   -0.40905E-03 11840   0.436E-01    0.182E-01
DAV:   7    -0.191462511339E+03    0.32326E-03   -0.14502E-03 11480   0.182E-01    0.845E-02
DAV:   8    -0.191462510540E+03    0.79875E-06   -0.55603E-04  9520   0.150E-01
   6 F= -.19146251E+03 E0= -.19136372E+03  d E =-.994214E-01
       N       E                     dE             d eps       ncg     rms          rms(c)
DAV:   1    -0.191463010456E+03   -0.49912E-03   -0.54137E-04 10240   0.115E-01    0.302E-02
DAV:   2    -0.191463152698E+03   -0.14224E-03   -0.32983E-04  7640   0.119E-01    0.110E-01
DAV:   3    -0.191463023817E+03    0.12888E-03   -0.25769E-04  7320   0.116E-01    0.244E-02
DAV:   4    -0.191463033772E+03   -0.99557E-05   -0.30669E-05  6120   0.290E-02
   7 F= -.19146303E+03 E0= -.19136427E+03  d E =-.523232E-03
       N       E                     dE             d eps       ncg     rms          rms(c)
DAV:   1    -0.191484621477E+03   -0.21598E-01   -0.63310E-01  8160   0.167E+00    0.239E-01
DAV:   2    -0.191494294337E+03   -0.96729E-02   -0.30675E-02 13120   0.104E+00    0.961E-01
DAV:   3    -0.191484857241E+03    0.94371E-02   -0.18272E-02 11720   0.936E-01    0.142E-01
DAV:   4    -0.191484977486E+03   -0.12024E-03   -0.14058E-03 10080   0.227E-01    0.174E-01
DAV:   5    -0.191484698701E+03    0.27878E-03   -0.78793E-04  9360   0.210E-01    0.808E-02
DAV:   6    -0.191484680628E+03    0.18073E-04   -0.30345E-04  7960   0.112E-01
   8 F= -.19148468E+03 E0= -.19138566E+03  d E =-.216469E-01
       N       E                     dE             d eps       ncg     rms          rms(c)
DAV:   1    -0.191502623756E+03   -0.17925E-01   -0.69992E-01  8160   0.178E+00    0.321E-01
DAV:   2    -0.191521928753E+03   -0.19305E-01   -0.54598E-02 12520   0.153E+00    0.140E+00
DAV:   3    -0.191502500474E+03    0.19428E-01   -0.35825E-02 11800   0.131E+00    0.171E-01
DAV:   4    -0.191502990923E+03   -0.49045E-03   -0.26808E-03 11480   0.360E-01    0.269E-01
DAV:   5    -0.191502221780E+03    0.76914E-03   -0.15106E-03 10080   0.283E-01    0.875E-02
DAV:   6    -0.191502270415E+03   -0.48635E-04   -0.51514E-04  9160   0.154E-01
   9 F= -.19150227E+03 E0= -.19140305E+03  d E =-.175898E-01
       N       E                     dE             d eps       ncg     rms          rms(c)
DAV:   1    -0.191557374392E+03   -0.55153E-01   -0.35428E+00  8160   0.397E+00    0.631E-01
DAV:   2    -0.191648080652E+03   -0.90706E-01   -0.24685E-01 11840   0.301E+00    0.322E+00
DAV:   3    -0.191561213685E+03    0.86867E-01   -0.19841E-01 11280   0.281E+00    0.369E-01
DAV:   4    -0.191561532323E+03   -0.31864E-03   -0.98419E-03 11440   0.641E-01    0.454E-01
DAV:   5    -0.191559361349E+03    0.21710E-02   -0.42783E-03 11280   0.479E-01    0.165E-01
DAV:   6    -0.191559397206E+03   -0.35858E-04   -0.16736E-03 10240   0.257E-01    0.196E-01
DAV:   7    -0.191559372591E+03    0.24616E-04   -0.17514E-03 10400   0.311E-01    0.177E-01
DAV:   8    -0.191558987282E+03    0.38531E-03   -0.59961E-04  8880   0.162E-01    0.265E-02
DAV:   9    -0.191558990841E+03   -0.35600E-05   -0.64693E-05  6520   0.305E-02
  10 F= -.19155899E+03 E0= -.19145978E+03  d E =-.567204E-01
       N       E                     dE             d eps       ncg     rms          rms(c)
DAV:   1    -0.191432694561E+03    0.12629E+00   -0.11633E+01  8160   0.727E+00    0.964E-01
DAV:   2    -0.191531664047E+03   -0.98969E-01   -0.47782E-01 13360   0.388E+00    0.263E+00
DAV:   3    -0.191444042335E+03    0.87622E-01   -0.13476E-01 12320   0.291E+00    0.510E-01
DAV:   4    -0.191442955943E+03    0.10864E-02   -0.17588E-02 11440   0.661E-01    0.544E-01
DAV:   5    -0.191441794149E+03    0.11618E-02   -0.17252E-02 12680   0.865E-01    0.544E-01
DAV:   6    -0.191439358313E+03    0.24358E-02   -0.97803E-03 11720   0.604E-01    0.221E-01
DAV:   7    -0.191438771918E+03    0.58639E-03   -0.22278E-03 12000   0.214E-01    0.101E-01
DAV:   8    -0.191438731288E+03    0.40630E-04   -0.59490E-04  9600   0.168E-01
  11 F= -.19143873E+03 E0= -.19134102E+03  d E =0.120260E+00
       N       E                     dE             d eps       ncg     rms          rms(c)
DAV:   1    -0.191472274085E+03   -0.33502E-01   -0.12419E+00  8160   0.242E+00    0.454E-01
DAV:   2    -0.191496217316E+03   -0.23943E-01   -0.82704E-02 12640   0.191E+00    0.151E+00
DAV:   3    -0.191471317261E+03    0.24900E-01   -0.40331E-02 11680   0.155E+00    0.231E-01
DAV:   4    -0.191472323648E+03   -0.10064E-02   -0.61832E-03 11520   0.501E-01    0.431E-01
DAV:   5    -0.191470717222E+03    0.16064E-02   -0.55375E-03 10040   0.508E-01    0.223E-01
DAV:   6    -0.191470162603E+03    0.55462E-03   -0.17901E-03  9800   0.211E-01    0.801E-02
DAV:   7    -0.191470121032E+03    0.41571E-04   -0.52631E-04  9520   0.124E-01
  12 F= -.19147012E+03 E0= -.19137099E+03  d E =-.313897E-01
       N       E                     dE             d eps       ncg     rms          rms(c)
DAV:   1    -0.191545819571E+03   -0.75657E-01   -0.53345E+00  8160   0.488E+00    0.558E-01
DAV:   2    -0.191580415855E+03   -0.34596E-01   -0.17673E-01 12880   0.203E+00    0.158E+00
DAV:   3    -0.191554276557E+03    0.26139E-01   -0.61942E-02 12240   0.183E+00    0.465E-01
DAV:   4    -0.191554205447E+03    0.71109E-04   -0.10030E-02 11120   0.627E-01    0.495E-01
DAV:   5    -0.191551968343E+03    0.22371E-02   -0.62547E-03 11400   0.568E-01    0.230E-01
DAV:   6    -0.191551625260E+03    0.34308E-03   -0.21329E-03 11080   0.247E-01    0.145E-01
DAV:   7    -0.191551869051E+03   -0.24379E-03   -0.18614E-03 11760   0.271E-01    0.229E-01
DAV:   8    -0.191551350074E+03    0.51898E-03   -0.10613E-03  8800   0.232E-01    0.471E-02
DAV:   9    -0.191551339881E+03    0.10193E-04   -0.81780E-05  5840   0.466E-02
  13 F= -.19155134E+03 E0= -.19145162E+03  d E =-.812188E-01
       N       E                     dE             d eps       ncg     rms          rms(c)
DAV:   1    -0.191607761718E+03   -0.56412E-01   -0.28570E+00  8160   0.357E+00    0.417E-01
DAV:   2    -0.191628141387E+03   -0.20380E-01   -0.97230E-02 12760   0.165E+00    0.121E+00
DAV:   3    -0.191611728439E+03    0.16413E-01   -0.31304E-02 12320   0.138E+00    0.275E-01
DAV:   4    -0.191611624906E+03    0.10353E-03   -0.33812E-03 11400   0.343E-01    0.280E-01
DAV:   5    -0.191611056826E+03    0.56808E-03   -0.24607E-03 10640   0.373E-01    0.195E-01
DAV:   6    -0.191610809441E+03    0.24738E-03   -0.11670E-03  9920   0.212E-01    0.968E-02
DAV:   7    -0.191610678844E+03    0.13060E-03   -0.42020E-04  9080   0.842E-02    0.261E-02
DAV:   8    -0.191610670243E+03    0.86011E-05   -0.58575E-05  7360   0.338E-02
  14 F= -.19161067E+03 E0= -.19151153E+03  d E =-.593304E-01
       N       E                     dE             d eps       ncg     rms          rms(c)
DAV:   1    -0.191616700647E+03   -0.60218E-02   -0.45851E-02  8160   0.472E-01    0.100E-01
DAV:   2    -0.191618494654E+03   -0.17940E-02   -0.51699E-03 11680   0.466E-01    0.434E-01
DAV:   3    -0.191616626427E+03    0.18682E-02   -0.33197E-03  9600   0.393E-01    0.559E-02
DAV:   4    -0.191616684459E+03   -0.58032E-04   -0.22666E-04  7560   0.113E-01
  15 F= -.19161668E+03 E0= -.19151788E+03  d E =-.601422E-02
       N       E                     dE             d eps       ncg     rms          rms(c)
DAV:   1    -0.191479874776E+03    0.13675E+00   -0.12307E+01  8160   0.746E+00    0.923E-01
DAV:   2    -0.191578161457E+03   -0.98287E-01   -0.47059E-01 12840   0.364E+00    0.258E+00
DAV:   3    -0.191495501255E+03    0.82660E-01   -0.12624E-01 12280   0.283E+00    0.510E-01
DAV:   4    -0.191495176349E+03    0.32491E-03   -0.15624E-02 12160   0.692E-01    0.587E-01
DAV:   5    -0.191492892630E+03    0.22837E-02   -0.12539E-02 11680   0.820E-01    0.442E-01
DAV:   6    -0.191491478613E+03    0.14140E-02   -0.60315E-03 12560   0.485E-01    0.211E-01
DAV:   7    -0.191490853380E+03    0.62523E-03   -0.21654E-03 11760   0.219E-01    0.121E-01
DAV:   8    -0.191490778525E+03    0.74855E-04   -0.79376E-04  8960   0.179E-01
  16 F= -.19149078E+03 E0= -.19139135E+03  d E =0.125906E+00
       N       E                     dE             d eps       ncg     rms          rms(c)
DAV:   1    -0.191359327336E+03    0.13153E+00   -0.14674E+01  8160   0.821E+00    0.981E-01
DAV:   2    -0.191450024775E+03   -0.90697E-01   -0.51771E-01 13600   0.332E+00    0.241E+00
DAV:   3    -0.191380970019E+03    0.69055E-01   -0.13109E-01 11520   0.281E+00    0.750E-01
DAV:   4    -0.191380885986E+03    0.84033E-04   -0.27084E-02 12320   0.105E+00    0.823E-01
DAV:   5    -0.191375089494E+03    0.57965E-02   -0.18127E-02 11240   0.101E+00    0.440E-01
DAV:   6    -0.191373327665E+03    0.17618E-02   -0.66998E-03 11040   0.476E-01    0.212E-01
DAV:   7    -0.191372805933E+03    0.52173E-03   -0.25703E-03 11320   0.231E-01    0.140E-01
DAV:   8    -0.191372671595E+03    0.13434E-03   -0.11064E-03 10040   0.209E-01    0.115E-01
DAV:   9    -0.191372550201E+03    0.12139E-03   -0.36599E-04  8080   0.117E-01    0.355E-02
DAV:  10    -0.191372532985E+03    0.17216E-04   -0.85878E-05  6080   0.358E-02
  17 F= -.19137253E+03 E0= -.19127784E+03  d E =0.118246E+00
       N       E                     dE             d eps       ncg     rms          rms(c)
DAV:   1    -0.191330146309E+03    0.42404E-01   -0.59467E+00  8160   0.526E+00    0.627E-01
DAV:   2    -0.191360672379E+03   -0.30526E-01   -0.18380E-01 13520   0.195E+00    0.150E+00
DAV:   3    -0.191336902777E+03    0.23770E-01   -0.54896E-02 12280   0.176E+00    0.538E-01
DAV:   4    -0.191336804846E+03    0.97931E-04   -0.12322E-02 11200   0.757E-01    0.556E-01
DAV:   5    -0.191333908000E+03    0.28968E-02   -0.81651E-03 10800   0.707E-01    0.306E-01
DAV:   6    -0.191332967423E+03    0.94058E-03   -0.32734E-03 11120   0.339E-01    0.133E-01
DAV:   7    -0.191332720581E+03    0.24684E-03   -0.91749E-04 10360   0.124E-01    0.569E-02
DAV:   8    -0.191332692658E+03    0.27924E-04   -0.22309E-04  7480   0.948E-02
  18 F= -.19133269E+03 E0= -.19124027E+03  d E =0.398403E-01
       N       E                     dE             d eps       ncg     rms          rms(c)
DAV:   1    -0.191335765824E+03   -0.30452E-02   -0.34791E-01  8160   0.128E+00    0.151E-01
DAV:   2    -0.191337477456E+03   -0.17116E-02   -0.10125E-02 13440   0.469E-01    0.389E-01
DAV:   3    -0.191336076330E+03    0.14011E-02   -0.32977E-03 11640   0.428E-01    0.122E-01
DAV:   4    -0.191335967970E+03    0.10836E-03   -0.39808E-04  8640   0.126E-01    0.712E-02
DAV:   5    -0.191335967388E+03    0.58113E-06   -0.29112E-04  8400   0.132E-01
  19 F= -.19133597E+03 E0= -.19124315E+03  d E =-.327473E-02
       N       E                     dE             d eps       ncg     rms          rms(c)
DAV:   1    -0.191407243188E+03   -0.71275E-01   -0.83215E+00  8160   0.617E+00    0.846E-01
DAV:   2    -0.191500568348E+03   -0.93325E-01   -0.36065E-01 13480   0.345E+00    0.281E+00
DAV:   3    -0.191418055906E+03    0.82512E-01   -0.16715E-01 12080   0.302E+00    0.593E-01
DAV:   4    -0.191418983848E+03   -0.92794E-03   -0.20402E-02 11560   0.956E-01    0.723E-01
DAV:   5    -0.191413976452E+03    0.50074E-02   -0.11667E-02 11120   0.820E-01    0.330E-01
DAV:   6    -0.191412572567E+03    0.14039E-02   -0.37313E-03 10440   0.330E-01    0.131E-01
DAV:   7    -0.191412562262E+03    0.10305E-04   -0.15991E-03 10840   0.179E-01    0.134E-01
DAV:   8    -0.191412399997E+03    0.16227E-03   -0.84952E-04  8880   0.187E-01    0.934E-02
DAV:   9    -0.191412312234E+03    0.87762E-04   -0.22212E-04  6320   0.937E-02
  20 F= -.19141231E+03 E0= -.19131595E+03  d E =-.763448E-01
       N       E                     dE             d eps       ncg     rms          rms(c)
DAV:   1    -0.191480974784E+03   -0.68575E-01   -0.54870E+00  8160   0.495E+00    0.617E-01
DAV:   2    -0.191530867237E+03   -0.49892E-01   -0.21123E-01 13440   0.257E+00    0.196E+00
DAV:   3    -0.191488733691E+03    0.42134E-01   -0.81687E-02 12320   0.215E+00    0.395E-01
DAV:   4    -0.191489254311E+03   -0.52062E-03   -0.92149E-03 11560   0.598E-01    0.495E-01
DAV:   5    -0.191487067107E+03    0.21872E-02   -0.61632E-03 11000   0.575E-01    0.243E-01
DAV:   6    -0.191486574024E+03    0.49308E-03   -0.20839E-03 10640   0.253E-01    0.123E-01
DAV:   7    -0.191486763040E+03   -0.18902E-03   -0.15840E-03 10840   0.228E-01    0.196E-01
DAV:   8    -0.191486370863E+03    0.39218E-03   -0.89684E-04  8600   0.201E-01    0.458E-02
DAV:   9    -0.191486363428E+03    0.74348E-05   -0.82360E-05  5840   0.477E-02
  21 F= -.19148636E+03 E0= -.19138717E+03  d E =-.740512E-01
       N       E                     dE             d eps       ncg     rms          rms(c)
DAV:   1    -0.191478288389E+03    0.80825E-02   -0.39968E-01  8160   0.137E+00    0.156E-01
DAV:   2    -0.191479963017E+03   -0.16746E-02   -0.11486E-02 13480   0.456E-01    0.358E-01
DAV:   3    -0.191478805557E+03    0.11575E-02   -0.34138E-03 12240   0.429E-01    0.150E-01
DAV:   4    -0.191478725152E+03    0.80405E-04   -0.70662E-04  9520   0.178E-01
  22 F= -.19147873E+03 E0= -.19137980E+03  d E =0.763828E-02
       N       E                     dE             d eps       ncg     rms          rms(c)
DAV:   1    -0.191562950620E+03   -0.84145E-01   -0.75686E+00  8160   0.585E+00    0.843E-01
DAV:   2    -0.191663512662E+03   -0.10056E+00   -0.36522E-01 13120   0.376E+00    0.294E+00
DAV:   3    -0.191571618147E+03    0.91895E-01   -0.15830E-01 12320   0.305E+00    0.436E-01
DAV:   4    -0.191574052583E+03   -0.24344E-02   -0.16372E-02 12320   0.839E-01    0.736E-01
DAV:   5    -0.191568880198E+03    0.51724E-02   -0.11764E-02 10920   0.801E-01    0.281E-01
DAV:   6    -0.191568319331E+03    0.56087E-03   -0.37429E-03 10920   0.313E-01    0.179E-01
DAV:   7    -0.191568722936E+03   -0.40360E-03   -0.35001E-03 11800   0.371E-01    0.305E-01
DAV:   8    -0.191567792204E+03    0.93073E-03   -0.18704E-03  9960   0.287E-01    0.482E-02
DAV:   9    -0.191567784872E+03    0.73316E-05   -0.10743E-04  5720   0.471E-02
  23 F= -.19156778E+03 E0= -.19146705E+03  d E =-.890597E-01
       N       E                     dE             d eps       ncg     rms          rms(c)
DAV:   1    -0.191620658284E+03   -0.52866E-01   -0.31094E+00  8160   0.373E+00    0.432E-01
DAV:   2    -0.191643688060E+03   -0.23030E-01   -0.10988E-01 12680   0.172E+00    0.130E+00
DAV:   3    -0.191625610759E+03    0.18077E-01   -0.34775E-02 12400   0.143E+00    0.305E-01
DAV:   4    -0.191626200058E+03   -0.58930E-03   -0.53172E-03 11200   0.481E-01    0.408E-01
DAV:   5    -0.191624583808E+03    0.16163E-02   -0.33449E-03 10880   0.429E-01    0.143E-01
DAV:   6    -0.191624590340E+03   -0.65318E-05   -0.11277E-03 10240   0.173E-01    0.123E-01
DAV:   7    -0.191624730808E+03   -0.14047E-03   -0.13142E-03 10560   0.240E-01    0.189E-01
DAV:   8    -0.191624359803E+03    0.37101E-03   -0.64010E-04  8520   0.173E-01    0.213E-02
DAV:   9    -0.191624375044E+03   -0.15241E-04   -0.43221E-05  5720   0.258E-02
  24 F= -.19162438E+03 E0= -.19152385E+03  d E =-.565902E-01
       N       E                     dE             d eps       ncg     rms          rms(c)
DAV:   1    -0.191686365268E+03   -0.62005E-01   -0.42493E+00  8160   0.439E+00    0.563E-01
DAV:   2    -0.191727178813E+03   -0.40814E-01   -0.17997E-01 13160   0.238E+00    0.182E+00
DAV:   3    -0.191693343793E+03    0.33835E-01   -0.62101E-02 12160   0.192E+00    0.381E-01
DAV:   4    -0.191694967264E+03   -0.16235E-02   -0.10429E-02 10400   0.715E-01    0.584E-01
DAV:   5    -0.191691370703E+03    0.35966E-02   -0.61288E-03 11040   0.590E-01    0.161E-01
DAV:   6    -0.191691633295E+03   -0.26259E-03   -0.22966E-03 10680   0.259E-01    0.221E-01
DAV:   7    -0.191691550973E+03    0.82321E-04   -0.25839E-03 10120   0.351E-01    0.220E-01
DAV:   8    -0.191691011430E+03    0.53954E-03   -0.88368E-04  8520   0.195E-01    0.250E-02
DAV:   9    -0.191691026547E+03   -0.15117E-04   -0.78020E-05  5840   0.318E-02
  25 F= -.19169103E+03 E0= -.19159109E+03  d E =-.666515E-01
       N       E                     dE             d eps       ncg     rms          rms(c)
DAV:   1    -0.191817472577E+03   -0.12646E+00   -0.72807E+01  8160   0.183E+01    0.211E+00
DAV:   2    -0.192311232552E+03   -0.49376E+00   -0.28352E+00 13240   0.809E+00    0.640E+00
DAV:   3    -0.191979635775E+03    0.33160E+00   -0.90788E-01 12120   0.722E+00    0.183E+00
DAV:   4    -0.191983647489E+03   -0.40117E-02   -0.16706E-01 11640   0.306E+00    0.211E+00
DAV:   5    -0.191928438491E+03    0.55209E-01   -0.82926E-02 11960   0.228E+00    0.668E-01
DAV:   6    -0.191944802233E+03   -0.16364E-01   -0.61307E-02 12680   0.163E+00    0.144E+00
DAV:   7    -0.191925185415E+03    0.19617E-01   -0.48514E-02 12400   0.162E+00    0.466E-01
DAV:   8    -0.191921756626E+03    0.34288E-02   -0.68154E-03 10800   0.430E-01    0.102E-01
DAV:   9    -0.191921664879E+03    0.91747E-04   -0.11542E-03 10880   0.109E-01    0.618E-02
DAV:  10    -0.191921608519E+03    0.56360E-04   -0.37711E-04 10240   0.628E-02
  26 F= -.19192161E+03 E0= -.19182632E+03  d E =-.230582E+00
       N       E                     dE             d eps       ncg     rms          rms(c)
DAV:   1    -0.191964089923E+03   -0.42425E-01   -0.48394E+00  8160   0.478E+00    0.650E-01
DAV:   2    -0.191987544002E+03   -0.23454E-01   -0.24906E-01 12600   0.189E+00    0.117E+00
DAV:   3    -0.191977724606E+03    0.98194E-02   -0.50531E-02 12320   0.167E+00    0.655E-01
DAV:   4    -0.191974036166E+03    0.36884E-02   -0.14367E-02 12160   0.857E-01    0.503E-01
DAV:   5    -0.191972121751E+03    0.19144E-02   -0.91025E-03 11800   0.744E-01    0.339E-01
DAV:   6    -0.191971596910E+03    0.52484E-03   -0.62298E-03 11520   0.469E-01    0.283E-01
DAV:   7    -0.191971077248E+03    0.51966E-03   -0.34120E-03 11360   0.421E-01    0.200E-01
DAV:   8    -0.191970602404E+03    0.47484E-03   -0.85658E-04  8760   0.195E-01    0.376E-02
DAV:   9    -0.191970586543E+03    0.15861E-04   -0.10311E-04  6840   0.398E-02
  27 F= -.19197059E+03 E0= -.19187597E+03  d E =-.489780E-01
       N       E                     dE             d eps       ncg     rms          rms(c)
DAV:   1    -0.191996886584E+03   -0.26284E-01   -0.12384E+01  8160   0.751E+00    0.797E-01
DAV:   2    -0.192036937696E+03   -0.40051E-01   -0.44352E-01 11560   0.228E+00    0.125E+00
DAV:   3    -0.192030136972E+03    0.68007E-02   -0.78358E-02 12360   0.208E+00    0.950E-01
DAV:   4    -0.192019756529E+03    0.10380E-01   -0.17652E-02 12440   0.993E-01    0.421E-01
DAV:   5    -0.192019509159E+03    0.24737E-03   -0.86667E-03 11320   0.766E-01    0.426E-01
DAV:   6    -0.192018655316E+03    0.85384E-03   -0.86807E-03 12480   0.582E-01    0.344E-01
DAV:   7    -0.192017359821E+03    0.12955E-02   -0.30179E-03 12520   0.412E-01    0.109E-01
DAV:   8    -0.192017231331E+03    0.12849E-03   -0.45643E-04  9600   0.121E-01    0.431E-02
DAV:   9    -0.192017188985E+03    0.42345E-04   -0.13463E-04  7480   0.451E-02
  28 F= -.19201719E+03 E0= -.19192504E+03  d E =-.466024E-01
       N       E                     dE             d eps       ncg     rms          rms(c)
DAV:   1    -0.192017916337E+03   -0.68501E-03   -0.84467E-01  8160   0.196E+00    0.206E-01
DAV:   2    -0.192020123623E+03   -0.22073E-02   -0.22907E-02 11880   0.558E-01    0.368E-01
DAV:   3    -0.192019155687E+03    0.96794E-03   -0.57319E-03 12640   0.571E-01    0.251E-01
DAV:   4    -0.192018440871E+03    0.71482E-03   -0.13891E-03  9920   0.248E-01    0.899E-02
DAV:   5    -0.192018613807E+03   -0.17294E-03   -0.84381E-04  9840   0.217E-01    0.161E-01
DAV:   6    -0.192018355849E+03    0.25796E-03   -0.75038E-04 10080   0.195E-01    0.635E-02
DAV:   7    -0.192018360704E+03   -0.48551E-05   -0.23039E-04  6880   0.116E-01
  29 F= -.19201836E+03 E0= -.19192566E+03  d E =-.117172E-02
       N       E                     dE             d eps       ncg     rms          rms(c)
DAV:   1    -0.192028122205E+03   -0.97664E-02   -0.60199E-01  8160   0.164E+00    0.194E-01
DAV:   2    -0.192029472800E+03   -0.13506E-02   -0.22227E-02 11120   0.411E-01    0.165E-01
DAV:   3    -0.192030058331E+03   -0.58553E-03   -0.29832E-03 12960   0.420E-01    0.289E-01
DAV:   4    -0.192029100469E+03    0.95786E-03   -0.17120E-03 10000   0.328E-01    0.948E-02
DAV:   5    -0.192029168416E+03   -0.67948E-04   -0.61855E-04  9000   0.190E-01
  30 F= -.19202917E+03 E0= -.19193770E+03  d E =-.108077E-01
       N       E                     dE             d eps       ncg     rms          rms(c)
DAV:   1    -0.192044149208E+03   -0.15049E-01   -0.27116E+00  8160   0.350E+00    0.413E-01
DAV:   2    -0.192050506324E+03   -0.63571E-02   -0.97372E-02 11280   0.864E-01    0.390E-01
DAV:   3    -0.192052558778E+03   -0.20525E-02   -0.13500E-02 11920   0.911E-01    0.595E-01
DAV:   4    -0.192048675903E+03    0.38829E-02   -0.80954E-03 11480   0.679E-01    0.229E-01
DAV:   5    -0.192048751831E+03   -0.75928E-04   -0.30187E-03 11160   0.432E-01    0.245E-01
DAV:   6    -0.192048126390E+03    0.62544E-03   -0.14977E-03 11760   0.277E-01    0.763E-02
DAV:   7    -0.192048021053E+03    0.10534E-03   -0.33188E-04 10040   0.959E-02    0.446E-02
DAV:   8    -0.192048014303E+03    0.67498E-05   -0.82959E-05  6920   0.793E-02
  31 F= -.19204801E+03 E0= -.19195814E+03  d E =-.188459E-01
       N       E                     dE             d eps       ncg     rms          rms(c)
DAV:   1    -0.192050085754E+03   -0.20647E-02   -0.67305E-02  8160   0.589E-01    0.108E-01
DAV:   2    -0.192050422566E+03   -0.33681E-03   -0.39755E-03 10640   0.278E-01    0.199E-01
DAV:   3    -0.192050120456E+03    0.30211E-03   -0.15973E-03 10360   0.295E-01    0.120E-01
DAV:   4    -0.192049934403E+03    0.18605E-03   -0.36632E-04  7800   0.129E-01    0.382E-02
DAV:   5    -0.192049954591E+03   -0.20188E-04   -0.16480E-04  6280   0.913E-02
  32 F= -.19204995E+03 E0= -.19195968E+03  d E =-.194029E-02
       N       E                     dE             d eps       ncg     rms          rms(c)
DAV:   1    -0.192055740220E+03   -0.58058E-02   -0.31802E-01  8160   0.120E+00    0.146E-01
DAV:   2    -0.192056645526E+03   -0.90531E-03   -0.11376E-02 10800   0.347E-01    0.181E-01
DAV:   3    -0.192056528851E+03    0.11668E-03   -0.15989E-03 12520   0.337E-01    0.156E-01
DAV:   4    -0.192056224585E+03    0.30427E-03   -0.49828E-04  9640   0.182E-01    0.667E-02
DAV:   5    -0.192056283659E+03   -0.59074E-04   -0.32640E-04  9040   0.152E-01
  33 F= -.19205628E+03 E0= -.19196686E+03  d E =-.632907E-02
       N       E                     dE             d eps       ncg     rms          rms(c)
DAV:   1    -0.192058792354E+03   -0.25678E-02   -0.56945E-02  8160   0.521E-01    0.704E-02
DAV:   2    -0.192059026820E+03   -0.23447E-03   -0.21884E-03 10400   0.187E-01    0.121E-01
DAV:   3    -0.192058899227E+03    0.12759E-03   -0.48258E-04  9280   0.180E-01    0.680E-02
DAV:   4    -0.192058877980E+03    0.21247E-04   -0.14229E-04  5840   0.962E-02
  34 F= -.19205888E+03 E0= -.19196970E+03  d E =-.259432E-02
       N       E                     dE             d eps       ncg     rms          rms(c)
DAV:   1    -0.192063692461E+03   -0.47932E-02   -0.19820E-01  8160   0.958E-01    0.120E-01
DAV:   2    -0.192064131178E+03   -0.43872E-03   -0.68851E-03 10680   0.239E-01    0.120E-01
DAV:   3    -0.192064339732E+03   -0.20855E-03   -0.13908E-03 11360   0.280E-01    0.189E-01
DAV:   4    -0.192063942103E+03    0.39763E-03   -0.62755E-04  8760   0.191E-01    0.389E-02
DAV:   5    -0.192063984535E+03   -0.42432E-04   -0.13755E-04  6160   0.811E-02
  35 F= -.19206398E+03 E0= -.19197561E+03  d E =-.510656E-02
       N       E                     dE             d eps       ncg     rms          rms(c)
DAV:   1    -0.192066260377E+03   -0.23183E-02   -0.44575E-02  8160   0.481E-01    0.713E-02
DAV:   2    -0.192066547201E+03   -0.28682E-03   -0.19983E-03 12320   0.204E-01    0.138E-01
DAV:   3    -0.192066312342E+03    0.23486E-03   -0.50458E-04 10160   0.200E-01    0.547E-02
DAV:   4    -0.192066290384E+03    0.21957E-04   -0.82052E-05  6240   0.679E-02
  36 F= -.19206629E+03 E0= -.19197780E+03  d E =-.230585E-02
       N       E                     dE             d eps       ncg     rms          rms(c)
DAV:   1    -0.192067936811E+03   -0.16245E-02   -0.42157E-02  8200   0.472E-01    0.947E-02
DAV:   2    -0.192068114771E+03   -0.17796E-03   -0.27963E-03 10400   0.234E-01    0.153E-01
DAV:   3    -0.192067947355E+03    0.16742E-03   -0.88216E-04 10080   0.242E-01    0.102E-01
DAV:   4    -0.192067819953E+03    0.12740E-03   -0.24958E-04  7240   0.114E-01    0.340E-02
DAV:   5    -0.192067841929E+03   -0.21975E-04   -0.12976E-04  6000   0.842E-02
  37 F= -.19206784E+03 E0= -.19197999E+03  d E =-.155154E-02
       N       E                     dE             d eps       ncg     rms          rms(c)
DAV:   1    -0.192074014114E+03   -0.61942E-02   -0.25331E-01  8160   0.113E+00    0.177E-01
DAV:   2    -0.192074081985E+03   -0.67871E-04   -0.90847E-03 10320   0.277E-01    0.160E-01
DAV:   3    -0.192074447116E+03   -0.36513E-03   -0.28135E-03 11920   0.383E-01    0.270E-01
DAV:   4    -0.192073685430E+03    0.76169E-03   -0.16774E-03 10160   0.312E-01    0.879E-02
DAV:   5    -0.192073637891E+03    0.47538E-04   -0.46349E-04  8720   0.143E-01
  38 F= -.19207364E+03 E0= -.19198617E+03  d E =-.579596E-02
       N       E                     dE             d eps       ncg     rms          rms(c)
DAV:   1    -0.192075114883E+03   -0.14295E-02   -0.15912E-02  8160   0.297E-01    0.647E-02
DAV:   2    -0.192075578197E+03   -0.46331E-03   -0.13766E-03 11640   0.268E-01    0.196E-01
DAV:   3    -0.192075089069E+03    0.48913E-03   -0.63884E-04  9800   0.227E-01    0.345E-02
DAV:   4    -0.192075106344E+03   -0.17275E-04   -0.74274E-05  5840   0.704E-02
  39 F= -.19207511E+03 E0= -.19198759E+03  d E =-.146845E-02
       N       E                     dE             d eps       ncg     rms          rms(c)
DAV:   1    -0.192080822352E+03   -0.57333E-02   -0.22702E-01  8160   0.103E+00    0.134E-01
DAV:   2    -0.192081243036E+03   -0.42068E-03   -0.80999E-03 10240   0.265E-01    0.109E-01
DAV:   3    -0.192081380967E+03   -0.13793E-03   -0.92812E-04 10760   0.260E-01    0.155E-01
DAV:   4    -0.192081073413E+03    0.30755E-03   -0.47085E-04  9120   0.198E-01    0.510E-02
DAV:   5    -0.192081087227E+03   -0.13815E-04   -0.18408E-04  6200   0.863E-02
  40 F= -.19208109E+03 E0= -.19199444E+03  d E =-.598088E-02
       N       E                     dE             d eps       ncg     rms          rms(c)
DAV:   1    -0.192082009287E+03   -0.93587E-03   -0.11855E-02  8160   0.261E-01    0.706E-02
DAV:   2    -0.192082959875E+03   -0.95059E-03   -0.19862E-03 12040   0.358E-01    0.287E-01
DAV:   3    -0.192081957904E+03    0.10020E-02   -0.11825E-03  9960   0.300E-01    0.315E-02
DAV:   4    -0.192081976573E+03   -0.18669E-04   -0.58522E-05  5840   0.600E-02
  41 F= -.19208198E+03 E0= -.19199541E+03  d E =-.889346E-03
       N       E                     dE             d eps       ncg     rms          rms(c)
DAV:   1    -0.192089700415E+03   -0.77425E-02   -0.38739E-01  8160   0.134E+00    0.173E-01
DAV:   2    -0.192091000756E+03   -0.13003E-02   -0.15288E-02 10760   0.450E-01    0.241E-01
DAV:   3    -0.192090770557E+03    0.23020E-03   -0.26754E-03 12520   0.427E-01    0.204E-01
DAV:   4    -0.192090292885E+03    0.47767E-03   -0.80729E-04  9720   0.222E-01    0.656E-02
DAV:   5    -0.192090281734E+03    0.11151E-04   -0.30340E-04  7520   0.906E-02
  42 F= -.19209028E+03 E0= -.19200469E+03  d E =-.830516E-02
       N       E                     dE             d eps       ncg     rms          rms(c)
DAV:   1    -0.192093407394E+03   -0.31145E-02   -0.58796E-02  8160   0.549E-01    0.118E-01
DAV:   2    -0.192095698580E+03   -0.22912E-02   -0.57704E-03 12080   0.547E-01    0.459E-01
DAV:   3    -0.192093317371E+03    0.23812E-02   -0.34910E-03 10120   0.478E-01    0.475E-02
DAV:   4    -0.192093343919E+03   -0.26548E-04   -0.12799E-04  5520   0.750E-02
  43 F= -.19209334E+03 E0= -.19200800E+03  d E =-.306219E-02
       N       E                     dE             d eps       ncg     rms          rms(c)
DAV:   1    -0.192098127727E+03   -0.48104E-02   -0.13477E-01  8160   0.807E-01    0.113E-01
DAV:   2    -0.192098546641E+03   -0.41891E-03   -0.55648E-03 10320   0.267E-01    0.155E-01
DAV:   3    -0.192098475592E+03    0.71048E-04   -0.11807E-03 11120   0.280E-01    0.140E-01
DAV:   4    -0.192098250560E+03    0.22503E-03   -0.37242E-04  8240   0.149E-01    0.412E-02
DAV:   5    -0.192098289547E+03   -0.38986E-04   -0.17286E-04  6400   0.961E-02
  44 F= -.19209829E+03 E0= -.19201371E+03  d E =-.494563E-02
       N       E                     dE             d eps       ncg     rms          rms(c)
DAV:   1    -0.192098332448E+03   -0.81888E-04   -0.54152E-02  8160   0.526E-01    0.113E-01
DAV:   2    -0.192099971375E+03   -0.16389E-02   -0.51049E-03 12320   0.472E-01    0.390E-01
DAV:   3    -0.192098245844E+03    0.17255E-02   -0.27366E-03 11280   0.426E-01    0.579E-02
DAV:   4    -0.192098247270E+03   -0.14260E-05   -0.19150E-04  6040   0.868E-02
  45 F= -.19209825E+03 E0= -.19201343E+03  d E =0.422763E-04
       N       E                     dE             d eps       ncg     rms          rms(c)
DAV:   1    -0.192108429061E+03   -0.10183E-01   -0.60900E-01  8160   0.168E+00    0.206E-01
DAV:   2    -0.192110455372E+03   -0.20263E-02   -0.22460E-02 10960   0.495E-01    0.293E-01
DAV:   3    -0.192110074902E+03    0.38047E-03   -0.41119E-03 12440   0.521E-01    0.246E-01
DAV:   4    -0.192109431951E+03    0.64295E-03   -0.11367E-03  9920   0.261E-01    0.835E-02
DAV:   5    -0.192109418059E+03    0.13892E-04   -0.45076E-04  9600   0.132E-01
  46 F= -.19210942E+03 E0= -.19202625E+03  d E =-.111708E-01
       N       E                     dE             d eps       ncg     rms          rms(c)
DAV:   1    -0.192111327408E+03   -0.18955E-02   -0.26811E-02  9440   0.415E-01    0.125E-01
DAV:   2    -0.192114003843E+03   -0.26764E-02   -0.59312E-03 11560   0.611E-01    0.494E-01
DAV:   3    -0.192111138973E+03    0.28649E-02   -0.37477E-03  9960   0.521E-01    0.539E-02
DAV:   4    -0.192111160714E+03   -0.21741E-04   -0.18982E-04  6080   0.903E-02
  47 F= -.19211116E+03 E0= -.19202792E+03  d E =-.174266E-02
       N       E                     dE             d eps       ncg     rms          rms(c)
DAV:   1    -0.192123994749E+03   -0.12856E-01   -0.86952E-01  8160   0.201E+00    0.248E-01
DAV:   2    -0.192125561923E+03   -0.15672E-02   -0.27178E-02 11000   0.461E-01    0.209E-01
DAV:   3    -0.192126342207E+03   -0.78028E-03   -0.38779E-03 12200   0.528E-01    0.347E-01
DAV:   4    -0.192124996018E+03    0.13462E-02   -0.22610E-03 11800   0.406E-01    0.127E-01
DAV:   5    -0.192125061790E+03   -0.65772E-04   -0.10231E-03 10520   0.252E-01    0.148E-01
DAV:   6    -0.192124882976E+03    0.17881E-03   -0.55987E-04  9680   0.189E-01    0.604E-02
DAV:   7    -0.192124811258E+03    0.71718E-04   -0.10521E-04  6560   0.603E-02
  48 F= -.19212481E+03 E0= -.19204334E+03  d E =-.136505E-01
       N       E                     dE             d eps       ncg     rms          rms(c)
DAV:   1    -0.192119139166E+03    0.57438E-02   -0.17035E-01  8160   0.896E-01    0.124E-01
DAV:   2    -0.192119728811E+03   -0.58965E-03   -0.61113E-03 10840   0.309E-01    0.201E-01
DAV:   3    -0.192119404696E+03    0.32411E-03   -0.14510E-03 11160   0.321E-01    0.131E-01
DAV:   4    -0.192119259674E+03    0.14502E-03   -0.50377E-04  8320   0.162E-01    0.779E-02
DAV:   5    -0.192119208399E+03    0.51275E-04   -0.26997E-04  7280   0.132E-01
  49 F= -.19211921E+03 E0= -.19203709E+03  d E =0.560286E-02
       N       E                     dE             d eps       ncg     rms          rms(c)
DAV:   1    -0.192122979054E+03   -0.37194E-02   -0.10585E-01  8160   0.717E-01    0.100E-01
DAV:   2    -0.192123427830E+03   -0.44878E-03   -0.45270E-03 11800   0.282E-01    0.178E-01
DAV:   3    -0.192123123325E+03    0.30451E-03   -0.11281E-03 10960   0.267E-01    0.964E-02
DAV:   4    -0.192123055444E+03    0.67881E-04   -0.32129E-04  7680   0.135E-01
  50 F= -.19212306E+03 E0= -.19204179E+03  d E =-.384704E-02
       N       E                     dE             d eps       ncg     rms          rms(c)
DAV:   1    -0.192117642776E+03    0.54805E-02   -0.16608E-01  8160   0.891E-01    0.147E-01
DAV:   2    -0.192119186319E+03   -0.15435E-02   -0.87047E-03 12000   0.538E-01    0.348E-01
DAV:   3    -0.192117701474E+03    0.14848E-02   -0.23803E-03 11320   0.435E-01    0.770E-02
DAV:   4    -0.192117749226E+03   -0.47753E-04   -0.46542E-04  8960   0.160E-01
  51 F= -.19211775E+03 E0= -.19203567E+03  d E =0.530622E-02
       N       E                     dE             d eps       ncg     rms          rms(c)
DAV:   1    -0.192099978727E+03    0.17723E-01   -0.38693E+00  8160   0.440E+00    0.788E-01
DAV:   2    -0.192116314460E+03   -0.16336E-01   -0.19433E-01 12520   0.208E+00    0.146E+00
DAV:   3    -0.192097598786E+03    0.18716E-01   -0.69946E-02 11880   0.204E+00    0.669E-01
DAV:   4    -0.192096075745E+03    0.15230E-02   -0.22425E-02 12200   0.113E+00    0.711E-01
DAV:   5    -0.192091411976E+03    0.46638E-02   -0.15177E-02 11960   0.104E+00    0.398E-01
DAV:   6    -0.192089317170E+03    0.20948E-02   -0.61150E-03 11240   0.484E-01    0.113E-01
DAV:   7    -0.192089191131E+03    0.12604E-03   -0.12571E-03 11160   0.155E-01    0.769E-02
DAV:   8    -0.192089134729E+03    0.56402E-04   -0.31416E-04  9560   0.131E-01
  52 F= -.19208913E+03 E0= -.19200150E+03  d E =0.286145E-01
       N       E                     dE             d eps       ncg     rms          rms(c)
DAV:   1    -0.192070119971E+03    0.19071E-01   -0.14741E+00  8160   0.265E+00    0.385E-01
DAV:   2    -0.192077280390E+03   -0.71604E-02   -0.63815E-02 12080   0.112E+00    0.755E-01
DAV:   3    -0.192072053015E+03    0.52274E-02   -0.18094E-02 11880   0.102E+00    0.336E-01
DAV:   4    -0.192071711132E+03    0.34188E-03   -0.49105E-03 12320   0.524E-01    0.325E-01
DAV:   5    -0.192070683166E+03    0.10280E-02   -0.29487E-03 11720   0.468E-01    0.171E-01
DAV:   6    -0.192070422173E+03    0.26099E-03   -0.14031E-03 10920   0.225E-01    0.758E-02
DAV:   7    -0.192070345210E+03    0.76963E-04   -0.40281E-04  9360   0.106E-01
  53 F= -.19207035E+03 E0= -.19197990E+03  d E =0.187895E-01
       N       E                     dE             d eps       ncg     rms          rms(c)
DAV:   1    -0.192173188667E+03   -0.10277E+00   -0.53010E+01  8160   0.160E+01    0.234E+00
DAV:   2    -0.192361404242E+03   -0.18822E+00   -0.22939E+00 11920   0.618E+00    0.342E+00
DAV:   3    -0.192255304337E+03    0.10610E+00   -0.41943E-01 11880   0.551E+00    0.233E+00
DAV:   4    -0.192208562672E+03    0.46742E-01   -0.17352E-01 12040   0.326E+00    0.156E+00
DAV:   5    -0.192193492134E+03    0.15071E-01   -0.90286E-02 11880   0.260E+00    0.116E+00
DAV:   6    -0.192178326887E+03    0.15165E-01   -0.41291E-02 12840   0.155E+00    0.432E-01
DAV:   7    -0.192175239050E+03    0.30878E-02   -0.11653E-02 12800   0.527E-01    0.226E-01
DAV:   8    -0.192175048383E+03    0.19067E-03   -0.28587E-03 12360   0.409E-01    0.231E-01
DAV:   9    -0.192174519702E+03    0.52868E-03   -0.11422E-03 10640   0.285E-01    0.859E-02
DAV:  10    -0.192174478285E+03    0.41417E-04   -0.52074E-04 10120   0.937E-02
  54 F= -.19217448E+03 E0= -.19210228E+03  d E =-.104133E+00
       N       E                     dE             d eps       ncg     rms          rms(c)
DAV:   1    -0.192159857089E+03    0.14663E-01   -0.33761E+00  8160   0.406E+00    0.665E-01
DAV:   2    -0.192178712146E+03   -0.18855E-01   -0.16808E-01 12280   0.200E+00    0.130E+00
DAV:   3    -0.192161699480E+03    0.17013E-01   -0.46351E-02 12040   0.179E+00    0.496E-01
DAV:   4    -0.192161415738E+03    0.28374E-03   -0.12570E-02 12240   0.886E-01    0.591E-01
DAV:   5    -0.192157924241E+03    0.34915E-02   -0.87893E-03 12160   0.829E-01    0.279E-01
DAV:   6    -0.192157008660E+03    0.91558E-03   -0.34757E-03 11320   0.344E-01    0.991E-02
DAV:   7    -0.192156853058E+03    0.15560E-03   -0.81538E-04 10880   0.124E-01    0.565E-02
DAV:   8    -0.192156813107E+03    0.39952E-04   -0.14065E-04  7480   0.923E-02
  55 F= -.19215681E+03 E0= -.19208007E+03  d E =0.176652E-01
       N       E                     dE             d eps       ncg     rms          rms(c)
DAV:   1    -0.192171608574E+03   -0.14756E-01   -0.11716E+00  8160   0.234E+00    0.294E-01
DAV:   2    -0.192175088480E+03   -0.34799E-02   -0.42989E-02 11080   0.710E-01    0.377E-01
DAV:   3    -0.192174226236E+03    0.86224E-03   -0.68950E-03 12200   0.689E-01    0.311E-01
DAV:   4    -0.192173353181E+03    0.87306E-03   -0.25687E-03 11520   0.401E-01    0.188E-01
DAV:   5    -0.192173111738E+03    0.24144E-03   -0.12569E-03 10880   0.302E-01    0.148E-01
DAV:   6    -0.192172989688E+03    0.12205E-03   -0.80484E-04 10240   0.214E-01    0.827E-02
DAV:   7    -0.192172868329E+03    0.12136E-03   -0.23019E-04  7080   0.845E-02    0.158E-02
DAV:   8    -0.192172871707E+03   -0.33780E-05   -0.44094E-05  7720   0.285E-02
  56 F= -.19217287E+03 E0= -.19209848E+03  d E =-.160586E-01
       N       E                     dE             d eps       ncg     rms          rms(c)
DAV:   1    -0.192183413285E+03   -0.10545E-01   -0.59863E-01  8160   0.166E+00    0.210E-01
DAV:   2    -0.192185159934E+03   -0.17466E-02   -0.21278E-02 10680   0.496E-01    0.267E-01
DAV:   3    -0.192184766179E+03    0.39375E-03   -0.35274E-03 12520   0.497E-01    0.227E-01
DAV:   4    -0.192184320543E+03    0.44564E-03   -0.12756E-03 10840   0.289E-01    0.132E-01
DAV:   5    -0.192184201568E+03    0.11897E-03   -0.58442E-04 10040   0.211E-01    0.103E-01
DAV:   6    -0.192184148353E+03    0.53214E-04   -0.36883E-04  8760   0.151E-01
  57 F= -.19218415E+03 E0= -.19211131E+03  d E =-.112766E-01
       N       E                     dE             d eps       ncg     rms          rms(c)
DAV:   1    -0.192206527949E+03   -0.22326E-01   -0.41933E+00  8160   0.441E+00    0.552E-01
DAV:   2    -0.192218179131E+03   -0.11651E-01   -0.15126E-01 11360   0.125E+00    0.635E-01
DAV:   3    -0.192216660456E+03    0.15187E-02   -0.21896E-02 12360   0.125E+00    0.598E-01
DAV:   4    -0.192212914611E+03    0.37458E-02   -0.80712E-03 12040   0.747E-01    0.292E-01
DAV:   5    -0.192212563869E+03    0.35074E-03   -0.35803E-03 12720   0.506E-01    0.287E-01
DAV:   6    -0.192212159841E+03    0.40403E-03   -0.28014E-03 11880   0.435E-01    0.175E-01
DAV:   7    -0.192211677418E+03    0.48242E-03   -0.93451E-04 10480   0.181E-01    0.300E-02
DAV:   8    -0.192211676184E+03    0.12339E-05   -0.90939E-05  7280   0.478E-02
  58 F= -.19221168E+03 E0= -.19214260E+03  d E =-.275278E-01
       N       E                     dE             d eps       ncg     rms          rms(c)
DAV:   1    -0.192230246564E+03   -0.18569E-01   -0.53456E+00  8160   0.496E+00    0.633E-01
DAV:   2    -0.192248250532E+03   -0.18004E-01   -0.20413E-01 11520   0.160E+00    0.851E-01
DAV:   3    -0.192242740889E+03    0.55096E-02   -0.31365E-02 12160   0.151E+00    0.634E-01
DAV:   4    -0.192239178131E+03    0.35628E-02   -0.10857E-02 12280   0.843E-01    0.385E-01
DAV:   5    -0.192238122211E+03    0.10559E-02   -0.50587E-03 12640   0.623E-01    0.308E-01
DAV:   6    -0.192237527096E+03    0.59511E-03   -0.32455E-03 12000   0.453E-01    0.173E-01
DAV:   7    -0.192237081329E+03    0.44577E-03   -0.11509E-03 11560   0.186E-01    0.526E-02
DAV:   8    -0.192237079381E+03    0.19482E-05   -0.17993E-04  8880   0.105E-01
  59 F= -.19223708E+03 E0= -.19217170E+03  d E =-.254032E-01
       N       E                     dE             d eps       ncg     rms          rms(c)
DAV:   1    -0.192243708500E+03   -0.66272E-02   -0.75103E-01  8160   0.185E+00    0.227E-01
DAV:   2    -0.192246135507E+03   -0.24270E-02   -0.30678E-02 11480   0.553E-01    0.263E-01
DAV:   3    -0.192246155046E+03   -0.19539E-04   -0.43798E-03 12680   0.544E-01    0.294E-01
DAV:   4    -0.192245278372E+03    0.87667E-03   -0.15948E-03 11840   0.353E-01    0.112E-01
DAV:   5    -0.192245173765E+03    0.10461E-03   -0.48486E-04  9720   0.166E-01    0.893E-02
DAV:   6    -0.192245206348E+03   -0.32584E-04   -0.41003E-04  9440   0.180E-01
  60 F= -.19224521E+03 E0= -.19218053E+03  d E =-.812697E-02
       N       E                     dE             d eps       ncg     rms          rms(c)
DAV:   1    -0.192253954977E+03   -0.87812E-02   -0.26103E+00  8160   0.346E+00    0.442E-01
DAV:   2    -0.192263329584E+03   -0.93746E-02   -0.10328E-01 12040   0.118E+00    0.606E-01
DAV:   3    -0.192260150463E+03    0.31791E-02   -0.14749E-02 12440   0.106E+00    0.405E-01
DAV:   4    -0.192258255543E+03    0.18949E-02   -0.39701E-03 12000   0.501E-01    0.189E-01
DAV:   5    -0.192258145772E+03    0.10977E-03   -0.18038E-03 12720   0.327E-01    0.203E-01
DAV:   6    -0.192258072325E+03    0.73447E-04   -0.16106E-03 11320   0.357E-01    0.166E-01
DAV:   7    -0.192257707043E+03    0.36528E-03   -0.61131E-04  9240   0.180E-01    0.342E-02
DAV:   8    -0.192257712696E+03   -0.56534E-05   -0.95230E-05  6840   0.735E-02
  61 F= -.19225771E+03 E0= -.19219476E+03  d E =-.125063E-01
       N       E                     dE             d eps       ncg     rms          rms(c)
DAV:   1    -0.192260680771E+03   -0.29737E-02   -0.25892E-01  8160   0.109E+00    0.142E-01
DAV:   2    -0.192261752669E+03   -0.10719E-02   -0.11330E-02 12320   0.419E-01    0.222E-01
DAV:   3    -0.192261330923E+03    0.42175E-03   -0.16528E-03 11640   0.359E-01    0.137E-01
DAV:   4    -0.192261174596E+03    0.15633E-03   -0.50985E-04  9480   0.190E-01    0.897E-02
DAV:   5    -0.192261128948E+03    0.45647E-04   -0.26238E-04  8240   0.149E-01
  62 F= -.19226113E+03 E0= -.19219862E+03  d E =-.341625E-02
       N       E                     dE             d eps       ncg     rms          rms(c)
DAV:   1    -0.192265357632E+03   -0.41830E-02   -0.93141E-01  8160   0.206E+00    0.270E-01
DAV:   2    -0.192268946488E+03   -0.35889E-02   -0.38117E-02 12600   0.762E-01    0.406E-01
DAV:   3    -0.192267472579E+03    0.14739E-02   -0.54390E-03 12160   0.663E-01    0.243E-01
DAV:   4    -0.192266926340E+03    0.54624E-03   -0.15658E-03 11360   0.329E-01    0.163E-01
DAV:   5    -0.192266798185E+03    0.12815E-03   -0.93591E-04 11480   0.280E-01    0.134E-01
DAV:   6    -0.192266666047E+03    0.13214E-03   -0.56429E-04  9480   0.177E-01    0.582E-02
DAV:   7    -0.192266616046E+03    0.50001E-04   -0.16130E-04  6520   0.765E-02
  63 F= -.19226662E+03 E0= -.19220487E+03  d E =-.548710E-02
       N       E                     dE             d eps       ncg     rms          rms(c)
DAV:   1    -0.192265978392E+03    0.68765E-03   -0.67428E-02  8160   0.577E-01    0.109E-01
DAV:   2    -0.192266492286E+03   -0.51389E-03   -0.38288E-03 11360   0.356E-01    0.228E-01
DAV:   3    -0.192265900539E+03    0.59175E-03   -0.11088E-03 10520   0.305E-01    0.754E-02
DAV:   4    -0.192265872756E+03    0.27783E-04   -0.27413E-04  8800   0.136E-01
  64 F= -.19226587E+03 E0= -.19220383E+03  d E =0.743290E-03
       N       E                     dE             d eps       ncg     rms          rms(c)
DAV:   1    -0.192268214072E+03   -0.23135E-02   -0.45522E-01  8160   0.146E+00    0.183E-01
DAV:   2    -0.192269486140E+03   -0.12721E-02   -0.19457E-02 11960   0.407E-01    0.185E-01
DAV:   3    -0.192269728906E+03   -0.24277E-03   -0.25217E-03 11840   0.415E-01    0.256E-01
DAV:   4    -0.192268980421E+03    0.74849E-03   -0.11075E-03 10760   0.301E-01    0.807E-02
DAV:   5    -0.192268947816E+03    0.32605E-04   -0.34665E-04  8520   0.126E-01
  65 F= -.19226895E+03 E0= -.19220711E+03  d E =-.307506E-02
       N       E                     dE             d eps       ncg     rms          rms(c)
DAV:   1    -0.192268597541E+03    0.38288E-03   -0.46527E-02  8160   0.474E-01    0.131E-01
DAV:   2    -0.192270646390E+03   -0.20488E-02   -0.61529E-03 11240   0.624E-01    0.413E-01
DAV:   3    -0.192268426770E+03    0.22196E-02   -0.25730E-03 10640   0.476E-01    0.665E-02
DAV:   4    -0.192268449236E+03   -0.22466E-04   -0.28469E-04  8440   0.138E-01
  66 F= -.19226845E+03 E0= -.19220657E+03  d E =0.498580E-03
       N       E                     dE             d eps       ncg     rms          rms(c)
DAV:   1    -0.192269692511E+03   -0.12657E-02   -0.64548E-02  8160   0.618E-01    0.161E-01
DAV:   2    -0.192269563735E+03    0.12878E-03   -0.44201E-03 11600   0.349E-01    0.224E-01
DAV:   3    -0.192269085700E+03    0.47804E-03   -0.16774E-03 11520   0.363E-01    0.120E-01
DAV:   4    -0.192268915795E+03    0.16990E-03   -0.67757E-04 10280   0.182E-01    0.891E-02
DAV:   5    -0.192268831904E+03    0.83891E-04   -0.37224E-04  8520   0.131E-01
  67 F= -.19226883E+03 E0= -.19220743E+03  d E =-.382668E-03
       N       E                     dE             d eps       ncg     rms          rms(c)
DAV:   1    -0.192269917192E+03   -0.10014E-02   -0.43801E-02  8160   0.475E-01    0.781E-02
DAV:   2    -0.192270076572E+03   -0.15938E-03   -0.23561E-03 11680   0.211E-01    0.115E-01
DAV:   3    -0.192269935743E+03    0.14083E-03   -0.42703E-04  9120   0.181E-01    0.586E-02
DAV:   4    -0.192269899775E+03    0.35968E-04   -0.12155E-04  6520   0.903E-02
  68 F= -.19226990E+03 E0= -.19220838E+03  d E =-.106787E-02
       N       E                     dE             d eps       ncg     rms          rms(c)
DAV:   1    -0.192270325783E+03   -0.39004E-03   -0.20185E-02  8160   0.318E-01    0.704E-02
DAV:   2    -0.192270637700E+03   -0.31192E-03   -0.15647E-03 12080   0.251E-01    0.179E-01
DAV:   3    -0.192270281857E+03    0.35584E-03   -0.55767E-04  9480   0.219E-01    0.474E-02
DAV:   4    -0.192270248869E+03    0.32988E-04   -0.60176E-05  5960   0.609E-02
  69 F= -.19227025E+03 E0= -.19220873E+03  d E =-.349094E-03
       N       E                     dE             d eps       ncg     rms          rms(c)
DAV:   1    -0.192271276068E+03   -0.99421E-03   -0.77174E-02  8160   0.594E-01    0.861E-02
DAV:   2    -0.192271983427E+03   -0.70736E-03   -0.39180E-03 12800   0.321E-01    0.204E-01
DAV:   3    -0.192271443454E+03    0.53997E-03   -0.87459E-04 10640   0.269E-01    0.506E-02
DAV:   4    -0.192271438166E+03    0.52876E-05   -0.76677E-05  5920   0.765E-02
  70 F= -.19227144E+03 E0= -.19220999E+03  d E =-.118930E-02
       N       E                     dE             d eps       ncg     rms          rms(c)
DAV:   1    -0.192272290689E+03   -0.84724E-03   -0.57906E-02  8160   0.519E-01    0.715E-02
DAV:   2    -0.192272514871E+03   -0.22418E-03   -0.25389E-03 12320   0.174E-01    0.981E-02
DAV:   3    -0.192272462757E+03    0.52115E-04   -0.39275E-04  9800   0.179E-01
  71 F= -.19227246E+03 E0= -.19221111E+03  d E =-.102459E-02
       N       E                     dE             d eps       ncg     rms          rms(c)
DAV:   1    -0.192273301467E+03   -0.78660E-03   -0.72070E-02  8160   0.579E-01    0.905E-02
DAV:   2    -0.192273707300E+03   -0.40583E-03   -0.31014E-03 13360   0.268E-01    0.163E-01
DAV:   3    -0.192273402537E+03    0.30476E-03   -0.74230E-04 11040   0.239E-01    0.772E-02
DAV:   4    -0.192273367633E+03    0.34904E-04   -0.18541E-04  7160   0.110E-01
  72 F= -.19227337E+03 E0= -.19221212E+03  d E =-.904876E-03
