<?xml version="1.0" encoding="ISO-8859-1"?>
<modeling>
 <generator>
  <i name="program" type="string">vasp </i>
  <i name="version" type="string">5.4.1  </i>
  <i name="subversion" type="string">05Feb16 (build Jul 05 2020 17:13:04) complex                          parallel </i>
  <i name="platform" type="string">IFC91_ompi </i>
  <i name="date" type="string">2024 04 24 </i>
  <i name="time" type="string">06:12:38 </i>
 </generator>
 <incar>
  <i type="int" name="ISTART">     0</i>
  <i type="string" name="PREC">normal</i>
  <i type="string" name="ALGO"> Normal</i>
  <i type="int" name="ISPIN">     1</i>
  <i type="int" name="ICHARG">     2</i>
  <i type="int" name="IBRION">     1</i>
  <i type="int" name="NSW">   100</i>
  <i type="int" name="ISIF">     3</i>
  <i type="int" name="ISYM">     0</i>
  <i name="SYMPREC">      0.00000001</i>
  <i name="POTIM">      0.50000000</i>
  <i type="logical" name="LREAL"> F  </i>
  <i type="logical" name="LPLANE"> F  </i>
  <i type="int" name="ISMEAR">     0</i>
  <i type="logical" name="LWAVE"> F  </i>
  <i type="logical" name="LCHARG"> F  </i>
  <v type="int" name="KPOINT_BSE">    -1     0     0     0</v>
 </incar>
 <kpoints>
  <generation param="Gamma">
   <v type="int" name="divisions">       8        8        1 </v>
   <v name="usershift">      0.00000000       0.00000000       0.00000000 </v>
   <v name="genvec1">      0.12500000       0.00000000       0.00000000 </v>
   <v name="genvec2">     -0.00000000       0.12500000       0.00000000 </v>
   <v name="genvec3">      0.00000000       0.00000000       1.00000000 </v>
   <v name="shift">      0.00000000       0.00000000       0.00000000 </v>
  </generation>
  <varray name="kpointlist" >
   <v>       0.00000000       0.00000000       0.00000000 </v>
   <v>       0.12500000       0.00000000       0.00000000 </v>
   <v>       0.25000000       0.00000000       0.00000000 </v>
   <v>       0.37500000       0.00000000       0.00000000 </v>
   <v>       0.50000000       0.00000000       0.00000000 </v>
   <v>       0.00000000       0.12500000       0.00000000 </v>
   <v>       0.12500000       0.12500000       0.00000000 </v>
   <v>       0.25000000       0.12500000       0.00000000 </v>
   <v>       0.37500000       0.12500000       0.00000000 </v>
   <v>       0.50000000       0.12500000       0.00000000 </v>
   <v>      -0.37500000       0.12500000       0.00000000 </v>
   <v>      -0.25000000       0.12500000       0.00000000 </v>
   <v>      -0.12500000       0.12500000       0.00000000 </v>
   <v>       0.00000000       0.25000000       0.00000000 </v>
   <v>       0.12500000       0.25000000       0.00000000 </v>
   <v>       0.25000000       0.25000000       0.00000000 </v>
   <v>       0.37500000       0.25000000       0.00000000 </v>
   <v>       0.50000000       0.25000000       0.00000000 </v>
   <v>      -0.37500000       0.25000000       0.00000000 </v>
   <v>      -0.25000000       0.25000000       0.00000000 </v>
   <v>      -0.12500000       0.25000000       0.00000000 </v>
   <v>      -0.00000000       0.37500000       0.00000000 </v>
   <v>       0.12500000       0.37500000       0.00000000 </v>
   <v>       0.25000000       0.37500000       0.00000000 </v>
   <v>       0.37500000       0.37500000       0.00000000 </v>
   <v>       0.50000000       0.37500000       0.00000000 </v>
   <v>      -0.37500000       0.37500000       0.00000000 </v>
   <v>      -0.25000000       0.37500000       0.00000000 </v>
   <v>      -0.12500000       0.37500000       0.00000000 </v>
   <v>       0.00000000       0.50000000       0.00000000 </v>
   <v>       0.12500000       0.50000000       0.00000000 </v>
   <v>       0.25000000       0.50000000       0.00000000 </v>
   <v>       0.37500000       0.50000000       0.00000000 </v>
   <v>       0.50000000       0.50000000       0.00000000 </v>
  </varray>
  <varray name="weights" >
   <v>       0.01562500 </v>
   <v>       0.03125000 </v>
   <v>       0.03125000 </v>
   <v>       0.03125000 </v>
   <v>       0.01562500 </v>
   <v>       0.03125000 </v>
   <v>       0.03125000 </v>
   <v>       0.03125000 </v>
   <v>       0.03125000 </v>
   <v>       0.03125000 </v>
   <v>       0.03125000 </v>
   <v>       0.03125000 </v>
   <v>       0.03125000 </v>
   <v>       0.03125000 </v>
   <v>       0.03125000 </v>
   <v>       0.03125000 </v>
   <v>       0.03125000 </v>
   <v>       0.03125000 </v>
   <v>       0.03125000 </v>
   <v>       0.03125000 </v>
   <v>       0.03125000 </v>
   <v>       0.03125000 </v>
   <v>       0.03125000 </v>
   <v>       0.03125000 </v>
   <v>       0.03125000 </v>
   <v>       0.03125000 </v>
   <v>       0.03125000 </v>
   <v>       0.03125000 </v>
   <v>       0.03125000 </v>
   <v>       0.01562500 </v>
   <v>       0.03125000 </v>
   <v>       0.03125000 </v>
   <v>       0.03125000 </v>
   <v>       0.01562500 </v>
  </varray>
 </kpoints>
 <parameters>
  <separator name="general" >
   <i type="string" name="SYSTEM">unknown system</i>
   <i type="logical" name="LCOMPAT"> F  </i>
  </separator>
  <separator name="electronic" >
   <i type="string" name="PREC">normal</i>
   <i name="ENMAX">    280.00000000</i>
   <i name="ENAUG">    373.43800000</i>
   <i name="EDIFF">      0.00010000</i>
   <i type="int" name="IALGO">    38</i>
   <i type="int" name="IWAVPR">    11</i>
   <i type="int" name="NBANDS">   120</i>
   <i name="NELECT">    159.00000000</i>
   <i type="int" name="TURBO">     0</i>
   <i type="int" name="IRESTART">     0</i>
   <i type="int" name="NREBOOT">     0</i>
   <i type="int" name="NMIN">     0</i>
   <i name="EREF">      0.00000000</i>
   <separator name="electronic smearing" >
    <i type="int" name="ISMEAR">     0</i>
    <i name="SIGMA">      0.20000000</i>
    <i name="KSPACING">      0.50000000</i>
    <i type="logical" name="KGAMMA"> T  </i>
   </separator>
   <separator name="electronic projectors" >
    <i type="logical" name="LREAL"> F  </i>
    <v name="ROPT">      0.00000000      0.00000000      0.00000000      0.00000000</v>
    <i type="int" name="LMAXPAW">  -100</i>
    <i type="int" name="LMAXMIX">     2</i>
    <i type="logical" name="NLSPLINE"> F  </i>
   </separator>
   <separator name="electronic startup" >
    <i type="int" name="ISTART">     0</i>
    <i type="int" name="ICHARG">     2</i>
    <i type="int" name="INIWAV">     1</i>
   </separator>
   <separator name="electronic spin" >
    <i type="int" name="ISPIN">     1</i>
    <i type="logical" name="LNONCOLLINEAR"> F  </i>
    <v name="MAGMOM">      1.00000000      1.00000000      1.00000000      1.00000000      1.00000000      1.00000000      1.00000000      1.00000000      1.00000000      1.00000000      1.00000000      1.00000000      1.00000000      1.00000000      1.00000000      1.00000000      1.00000000      1.00000000      1.00000000      1.00000000
      1.00000000      1.00000000      1.00000000      1.00000000      1.00000000      1.00000000      1.00000000</v>
    <i name="NUPDOWN">     -1.00000000</i>
    <i type="logical" name="LSORBIT"> F  </i>
    <v name="SAXIS">      0.00000000      0.00000000      1.00000000</v>
    <i type="logical" name="LSPIRAL"> F  </i>
    <v name="QSPIRAL">      0.00000000      0.00000000      0.00000000</v>
    <i type="logical" name="LZEROZ"> F  </i>
   </separator>
   <separator name="electronic exchange-correlation" >
    <i type="logical" name="LASPH"> F  </i>
    <i type="logical" name="LMETAGGA"> F  </i>
   </separator>
   <separator name="electronic convergence" >
    <i type="int" name="NELM">    60</i>
    <i type="int" name="NELMDL">    -5</i>
    <i type="int" name="NELMIN">     2</i>
    <i name="ENINI">    280.00000000</i>
    <separator name="electronic convergence detail" >
     <i type="logical" name="LDIAG"> T  </i>
     <i type="logical" name="LSUBROT"> F  </i>
     <i name="WEIMIN">      0.00100000</i>
     <i name="EBREAK">      0.00000021</i>
     <i name="DEPER">      0.30000000</i>
     <i type="int" name="NRMM">     4</i>
     <i name="TIME">      0.40000000</i>
    </separator>
   </separator>
   <separator name="electronic mixer" >
    <i name="AMIX">      0.40000000</i>
    <i name="BMIX">      1.00000000</i>
    <i name="AMIN">      0.10000000</i>
    <i name="AMIX_MAG">      1.60000000</i>
    <i name="BMIX_MAG">      1.00000000</i>
    <separator name="electronic mixer details" >
     <i type="int" name="IMIX">     4</i>
     <i type="logical" name="MIXFIRST"> F  </i>
     <i type="int" name="MAXMIX">   -45</i>
     <i name="WC">    100.00000000</i>
     <i type="int" name="INIMIX">     1</i>
     <i type="int" name="MIXPRE">     1</i>
     <i type="int" name="MREMOVE">     5</i>
    </separator>
   </separator>
   <separator name="electronic dipolcorrection" >
    <i type="logical" name="LDIPOL"> F  </i>
    <i type="logical" name="LMONO"> F  </i>
    <i type="int" name="IDIPOL">     0</i>
    <i name="EPSILON">      1.00000000</i>
    <v name="DIPOL">   -100.00000000   -100.00000000   -100.00000000</v>
    <i name="EFIELD">      0.00000000</i>
   </separator>
  </separator>
  <separator name="grids" >
   <i type="int" name="NGX">    42</i>
   <i type="int" name="NGY">    42</i>
   <i type="int" name="NGZ">   126</i>
   <i type="int" name="NGXF">    84</i>
   <i type="int" name="NGYF">    84</i>
   <i type="int" name="NGZF">   252</i>
   <i type="logical" name="ADDGRID"> F  </i>
  </separator>
  <separator name="ionic" >
   <i type="int" name="NSW">   100</i>
   <i type="int" name="IBRION">     1</i>
   <i type="int" name="ISIF">     3</i>
   <i name="PSTRESS">      0.00000000</i>
   <i name="EDIFFG">      0.00100000</i>
   <i type="int" name="NFREE">     0</i>
   <i name="POTIM">      0.50000000</i>
   <i name="SMASS">     -3.00000000</i>
   <i name="SCALEE">      1.00000000</i>
  </separator>
  <separator name="ionic md" >
   <i name="TEBEG">      0.00010000</i>
   <i name="TEEND">      0.00010000</i>
   <i type="int" name="NBLOCK">     1</i>
   <i type="int" name="KBLOCK">   100</i>
   <i type="int" name="NPACO">   256</i>
   <i name="APACO">     16.00000000</i>
  </separator>
  <separator name="symmetry" >
   <i type="int" name="ISYM">     0</i>
   <i name="SYMPREC">      0.00000001</i>
  </separator>
  <separator name="dos" >
   <i type="logical" name="LORBIT"> F  </i>
   <v name="RWIGS">     -1.00000000     -1.00000000     -1.00000000     -1.00000000</v>
   <i type="int" name="NEDOS">   301</i>
   <i name="EMIN">     10.00000000</i>
   <i name="EMAX">    -10.00000000</i>
   <i name="EFERMI">      0.00000000</i>
  </separator>
  <separator name="writing" >
   <i type="int" name="NWRITE">     2</i>
   <i type="logical" name="LWAVE"> F  </i>
   <i type="logical" name="LCHARG"> F  </i>
   <i type="logical" name="LPARD"> F  </i>
   <i type="logical" name="LVTOT"> F  </i>
   <i type="logical" name="LVHAR"> F  </i>
   <i type="logical" name="LELF"> F  </i>
   <i type="logical" name="LOPTICS"> F  </i>
   <v name="STM">      0.00000000      0.00000000      0.00000000      0.00000000      0.00000000      0.00000000      0.00000000</v>
  </separator>
  <separator name="performance" >
   <i type="int" name="NPAR">    40</i>
   <i type="int" name="NSIM">     4</i>
   <i type="int" name="NBLK">    -1</i>
   <i type="logical" name="LPLANE"> F  </i>
   <i type="logical" name="LSCALAPACK"> T  </i>
   <i type="logical" name="LSCAAWARE"> F  </i>
   <i type="logical" name="LSCALU"> F  </i>
   <i type="logical" name="LASYNC"> F  </i>
   <i type="logical" name="LORBITALREAL"> F  </i>
  </separator>
  <separator name="miscellaneous" >
   <i type="int" name="IDIOT">     3</i>
   <i type="logical" name="LMUSIC"> F  </i>
   <v name="POMASS">     50.94100000     95.94000000    183.85000000     32.06600000</v>
   <v name="DARWINR">      0.00000000      0.00000000      0.00000000      0.00000000</v>
   <v name="DARWINV">      1.00000000      1.00000000      1.00000000      1.00000000</v>
   <i type="logical" name="LCORR"> T  </i>
  </separator>
  <i type="logical" name="GGA_COMPAT"> T  </i>
  <i type="logical" name="LBERRY"> F  </i>
  <i type="int" name="ICORELEVEL">     0</i>
  <i type="logical" name="LDAU"> F  </i>
  <i type="int" name="I_CONSTRAINED_M">     0</i>
  <separator name="electronic exchange-correlation" >
   <i type="string" name="GGA">--</i>
   <i type="int" name="VOSKOWN">     0</i>
   <i type="logical" name="LHFCALC"> F  </i>
   <i type="string" name="PRECFOCK"></i>
   <i type="logical" name="LSYMGRAD"> F  </i>
   <i type="logical" name="LHFONE"> F  </i>
   <i type="logical" name="LRHFCALC"> F  </i>
   <i type="logical" name="LTHOMAS"> F  </i>
   <i type="logical" name="LMODELHF"> F  </i>
   <i name="ENCUT4O">     -1.00000000</i>
   <i type="int" name="EXXOEP">     0</i>
   <i type="int" name="FOURORBIT">     0</i>
   <i name="AEXX">      0.00000000</i>
   <i name="HFALPHA">      0.00000000</i>
   <i name="MCALPHA">      0.00000000</i>
   <i name="ALDAX">      1.00000000</i>
   <i name="AGGAX">      1.00000000</i>
   <i name="ALDAC">      1.00000000</i>
   <i name="AGGAC">      1.00000000</i>
   <i type="int" name="NKREDX">     1</i>
   <i type="int" name="NKREDY">     1</i>
   <i type="int" name="NKREDZ">     1</i>
   <i type="logical" name="SHIFTRED"> F  </i>
   <i type="logical" name="ODDONLY"> F  </i>
   <i type="logical" name="EVENONLY"> F  </i>
   <i type="int" name="LMAXFOCK">     0</i>
   <i type="int" name="NMAXFOCKAE">     0</i>
   <i type="logical" name="LFOCKAEDFT"> F  </i>
   <i name="HFSCREEN">      0.00000000</i>
   <i name="HFSCREENC">      0.00000000</i>
   <i type="int" name="NBANDSGWLOW">     0</i>
  </separator>
  <separator name="vdW DFT" >
   <i type="logical" name="LUSE_VDW"> F  </i>
   <i name="Zab_VDW">     -0.84910000</i>
   <i name="PARAM1">      0.12340000</i>
   <i name="PARAM2">      1.00000000</i>
   <i name="PARAM3">      0.00000000</i>
  </separator>
  <separator name="model GW" >
   <i type="int" name="MODEL_GW">     0</i>
   <i name="MODEL_EPS0">     58.26239943</i>
   <i name="MODEL_ALPHA">      1.00000000</i>
  </separator>
  <separator name="linear response parameters" >
   <i type="logical" name="LEPSILON"> F  </i>
   <i type="logical" name="LRPA"> F  </i>
   <i type="logical" name="LNABLA"> F  </i>
   <i type="logical" name="LVEL"> F  </i>
   <i type="int" name="KINTER">     0</i>
   <i name="CSHIFT">      0.10000000</i>
   <i name="OMEGAMAX">     -1.00000000</i>
   <i name="DEG_THRESHOLD">      0.00200000</i>
  </separator>
  <separator name="orbital magnetization" >
   <i type="logical" name="NUCIND"> F  </i>
   <v name="MAGPOS">      0.00000000      0.00000000      0.00000000</v>
   <i type="logical" name="LNICSALL"> T  </i>
   <i type="logical" name="ORBITALMAG"> F  </i>
   <i type="logical" name="LMAGBLOCH"> F  </i>
   <i type="logical" name="LCHIMAG"> F  </i>
   <i type="logical" name="LGAUGE"> T  </i>
   <i type="int" name="MAGATOM">     0</i>
   <v name="MAGDIPOL">      0.00000000      0.00000000      0.00000000</v>
   <v name="AVECCONST">      0.00000000      0.00000000      0.00000000</v>
  </separator>
  <separator name="response functions" >
   <i type="logical" name="LADDER"> F  </i>
   <i type="logical" name="LFXC"> F  </i>
   <i type="logical" name="LHARTREE"> T  </i>
   <i type="int" name="IBSE">     0</i>
   <v type="int" name="KPOINT">    -1     0     0     0</v>
   <i type="logical" name="LTCTE"> F  </i>
   <i type="logical" name="LTETE"> F  </i>
   <i type="logical" name="LTRIPLET"> F  </i>
   <i type="logical" name="LFXCEPS"> F  </i>
   <i type="logical" name="LFXHEG"> F  </i>
   <i type="int" name="NATURALO">     0</i>
   <i type="logical" name="L2ORDER"> F  </i>
   <i type="logical" name="LUSEW"> F  </i>
   <i name="ENCUTGW">     -2.00000000</i>
   <i name="ENCUTGWSOFT">     -2.00000000</i>
   <i name="ENCUTLF">     -1.00000000</i>
   <i type="int" name="LMAXMP2">    -1</i>
   <i name="SCISSOR">      0.00000000</i>
   <i type="int" name="NOMEGA">     0</i>
   <i type="int" name="NOMEGAR">     0</i>
   <i type="int" name="NBANDSGW">    -1</i>
   <i type="int" name="NBANDSO">    -1</i>
   <i type="int" name="NBANDSV">    -1</i>
   <i type="int" name="NELM">     1</i>
   <i type="int" name="NELMHF">     1</i>
   <i type="int" name="DIM">     3</i>
   <i type="int" name="ANTIRES">     0</i>
   <i name="OMEGAMAX">    -30.00000000</i>
   <i name="OMEGAMIN">    -30.00000000</i>
   <i name="OMEGATL">   -200.00000000</i>
   <i type="int" name="OMEGAGRID">     0</i>
   <i name="CSHIFT">     -0.10000000</i>
   <i type="logical" name="SELFENERGY"> F  </i>
   <i type="logical" name="LSPECTRAL"> F  </i>
   <i type="logical" name="LSPECTRALGW"> F  </i>
   <i type="logical" name="LSINGLES"> F  </i>
   <i type="logical" name="LFERMIGW"> F  </i>
   <i type="logical" name="ODDONLYGW"> F  </i>
   <i type="logical" name="EVENONLYGW"> F  </i>
   <i type="int" name="NKREDLFX">     1</i>
   <i type="int" name="NKREDLFY">     1</i>
   <i type="int" name="NKREDLFZ">     1</i>
   <i type="int" name="MAXMEM">  1800</i>
   <i type="int" name="TELESCOPE">     0</i>
   <i type="int" name="TAUPAR">     1</i>
   <i type="int" name="OMEGAPAR">    -1</i>
   <i name="LAMBDA">      1.00000000</i>
  </separator>
  <separator name="External order field" >
   <i name="OFIELD_KAPPA">      0.00000000</i>
   <v name="OFIELD_K">      0.00000000      0.00000000      0.00000000</v>
   <i name="OFIELD_Q6_NEAR">      0.00000000</i>
   <i name="OFIELD_Q6_FAR">      0.00000000</i>
   <i name="OFIELD_A">      0.00000000</i>
  </separator>
 </parameters>
 <atominfo>
  <atoms>      27 </atoms>
  <types>       4 </types>
  <array name="atoms" >
   <dimension dim="1">ion</dimension>
   <field type="string">element</field>
   <field type="int">atomtype</field>
   <set>
    <rc><c>V </c><c>   1</c></rc>
    <rc><c>V </c><c>   1</c></rc>
    <rc><c>V </c><c>   1</c></rc>
    <rc><c>Mo</c><c>   2</c></rc>
    <rc><c>Mo</c><c>   2</c></rc>
    <rc><c>Mo</c><c>   2</c></rc>
    <rc><c>W </c><c>   3</c></rc>
    <rc><c>W </c><c>   3</c></rc>
    <rc><c>W </c><c>   3</c></rc>
    <rc><c>S </c><c>   4</c></rc>
    <rc><c>S </c><c>   4</c></rc>
    <rc><c>S </c><c>   4</c></rc>
    <rc><c>S </c><c>   4</c></rc>
    <rc><c>S </c><c>   4</c></rc>
    <rc><c>S </c><c>   4</c></rc>
    <rc><c>S </c><c>   4</c></rc>
    <rc><c>S </c><c>   4</c></rc>
    <rc><c>S </c><c>   4</c></rc>
    <rc><c>S </c><c>   4</c></rc>
    <rc><c>S </c><c>   4</c></rc>
    <rc><c>S </c><c>   4</c></rc>
    <rc><c>S </c><c>   4</c></rc>
    <rc><c>S </c><c>   4</c></rc>
    <rc><c>S </c><c>   4</c></rc>
    <rc><c>S </c><c>   4</c></rc>
    <rc><c>S </c><c>   4</c></rc>
    <rc><c>S </c><c>   4</c></rc>
   </set>
  </array>
  <array name="atomtypes" >
   <dimension dim="1">type</dimension>
   <field type="int">atomspertype</field>
   <field type="string">element</field>
   <field>mass</field>
   <field>valence</field>
   <field type="string">pseudopotential</field>
   <set>
    <rc><c>   3</c><c>V </c><c>     50.94100000</c><c>      5.00000000</c><c> PAW_PBE V 08Apr2002                    </c></rc>
    <rc><c>   3</c><c>Mo</c><c>     95.94000000</c><c>      6.00000000</c><c> PAW_PBE Mo 08Apr2002                   </c></rc>
    <rc><c>   3</c><c>W </c><c>    183.85000000</c><c>      6.00000000</c><c> PAW_PBE W 08Apr2002                    </c></rc>
    <rc><c>  18</c><c>S </c><c>     32.06600000</c><c>      6.00000000</c><c>  PAW_PBE S 17Jan2003                   </c></rc>
   </set>
  </array>
 </atominfo>
 <structure name="initialpos" >
  <crystal>
   <varray name="basis" >
    <v>       8.66999996       5.03999989       0.00000000 </v>
    <v>      -8.66999982       5.04000013       0.00000000 </v>
    <v>       0.00000000       0.00000000      30.00000000 </v>
   </varray>
   <i name="volume">   2621.80797419 </i>
   <varray name="rec_basis" >
    <v>       0.05767013       0.09920635       0.00000000 </v>
    <v>      -0.05767013       0.09920635       0.00000000 </v>
    <v>       0.00000000       0.00000000       0.03333333 </v>
   </varray>
  </crystal>
  <varray name="positions" >
   <v>       0.00000000       0.66666669       0.00000000 </v>
   <v>       1.00000000       0.33333334       0.00000000 </v>
   <v>       0.66666669       0.66666669       0.00000000 </v>
   <v>       0.00000000       0.00000000       0.00000000 </v>
   <v>       0.33333334       0.66666669       0.00000000 </v>
   <v>       0.33333334       0.00000000       0.00000000 </v>
   <v>       0.33333334       0.33333334       0.00000000 </v>
   <v>       0.66666669       0.00000000       0.00000000 </v>
   <v>       0.66666669       0.33333334       0.00000000 </v>
   <v>       0.11068511       0.22244981       0.95539999 </v>
   <v>       0.22244981       0.11068511       0.04460000 </v>
   <v>       0.11068511       0.55578315       0.95539999 </v>
   <v>       0.22244981       0.44401845       0.04460000 </v>
   <v>       0.11068511       0.88911647       0.95539999 </v>
   <v>       0.22244981       0.77735180       0.04460000 </v>
   <v>       0.44401845       0.22244981       0.95539999 </v>
   <v>       0.55578315       0.11068511       0.04460000 </v>
   <v>       0.44401845       0.55578315       0.95539999 </v>
   <v>       0.55578315       0.44401845       0.04460000 </v>
   <v>       0.44401845       0.88911647       0.95539999 </v>
   <v>       0.55578315       0.77735180       0.04460000 </v>
   <v>       0.77735180       0.22244981       0.95539999 </v>
   <v>       0.88911647       0.11068511       0.04460000 </v>
   <v>       0.77735180       0.55578315       0.95539999 </v>
   <v>       0.88911647       0.44401845       0.04460000 </v>
   <v>       0.77735180       0.88911647       0.95539999 </v>
   <v>       0.88911647       0.77735180       0.04460000 </v>
  </varray>
 </structure>
 <calculation>
  <scstep>
   <time name="dav">   22.09   22.15</time>
   <time name="total">   22.13   22.19</time>
   <energy>
    <i name="alphaZ">     81.65567618 </i>
    <i name="ewald">  41890.25209520 </i>
    <i name="hartreedc"> -47722.88705302 </i>
    <i name="XCdc">   -242.92852165 </i>
    <i name="pawpsdc">   3467.42045192 </i>
    <i name="pawaedc">  -2871.19716117 </i>
    <i name="eentropy">     -0.53283323 </i>
    <i name="bandstr">   -243.45250193 </i>
    <i name="atom">   6761.44252427 </i>
    <i name="e_fr_energy">   1119.77267657 </i>
    <i name="e_wo_entrp">   1120.30550979 </i>
    <i name="e_0_energy">   1120.03909318 </i>
   </energy>
  </scstep>
  <scstep>
   <time name="dav">   28.58   28.65</time>
   <time name="total">   28.58   28.66</time>
   <energy>
    <i name="e_fr_energy">     -6.50251868 </i>
    <i name="e_wo_entrp">     -6.30622830 </i>
    <i name="e_0_energy">     -6.40437349 </i>
   </energy>
  </scstep>
  <scstep>
   <time name="dav">   27.72   27.79</time>
   <time name="total">   27.73   27.80</time>
   <energy>
    <i name="e_fr_energy">   -200.05248116 </i>
    <i name="e_wo_entrp">   -199.77544675 </i>
    <i name="e_0_energy">   -199.91396396 </i>
   </energy>
  </scstep>
  <scstep>
   <time name="dav">   30.66   30.74</time>
   <time name="total">   30.66   30.74</time>
   <energy>
    <i name="e_fr_energy">   -209.00590978 </i>
    <i name="e_wo_entrp">   -208.69681805 </i>
    <i name="e_0_energy">   -208.85136391 </i>
   </energy>
  </scstep>
  <scstep>
   <time name="dav">   28.90   28.97</time>
   <time name="total">   29.36   29.44</time>
   <energy>
    <i name="e_fr_energy">   -209.30413109 </i>
    <i name="e_wo_entrp">   -208.99780093 </i>
    <i name="e_0_energy">   -209.15096601 </i>
   </energy>
  </scstep>
  <scstep>
   <time name="dav">   31.85   31.92</time>
   <time name="total">   32.34   32.43</time>
   <energy>
    <i name="e_fr_energy">   -236.71664943 </i>
    <i name="e_wo_entrp">   -236.43401999 </i>
    <i name="e_0_energy">   -236.57533471 </i>
   </energy>
  </scstep>
  <scstep>
   <time name="dav">   32.27   32.35</time>
   <time name="total">   32.77   32.86</time>
   <energy>
    <i name="e_fr_energy">   -196.69753859 </i>
    <i name="e_wo_entrp">   -196.37596716 </i>
    <i name="e_0_energy">   -196.53675287 </i>
   </energy>
  </scstep>
  <scstep>
   <time name="dav">   29.40   29.47</time>
   <time name="total">   29.91   29.99</time>
   <energy>
    <i name="e_fr_energy">   -189.93415985 </i>
    <i name="e_wo_entrp">   -189.65756415 </i>
    <i name="e_0_energy">   -189.79586200 </i>
   </energy>
  </scstep>
  <scstep>
   <time name="dav">   29.94   30.01</time>
   <time name="total">   30.46   30.54</time>
   <energy>
    <i name="e_fr_energy">   -188.23777997 </i>
    <i name="e_wo_entrp">   -187.90713140 </i>
    <i name="e_0_energy">   -188.07245568 </i>
   </energy>
  </scstep>
  <scstep>
   <time name="dav">   32.87   32.95</time>
   <time name="total">   33.39   33.48</time>
   <energy>
    <i name="e_fr_energy">   -187.04977149 </i>
    <i name="e_wo_entrp">   -186.70751359 </i>
    <i name="e_0_energy">   -186.87864254 </i>
   </energy>
  </scstep>
  <scstep>
   <time name="dav">   33.34   33.42</time>
   <time name="total">   33.87   33.96</time>
   <energy>
    <i name="e_fr_energy">   -187.02692042 </i>
    <i name="e_wo_entrp">   -186.67478638 </i>
    <i name="e_0_energy">   -186.85085340 </i>
   </energy>
  </scstep>
  <scstep>
   <time name="dav">   32.40   32.48</time>
   <time name="total">   32.92   33.01</time>
   <energy>
    <i name="e_fr_energy">   -187.17333471 </i>
    <i name="e_wo_entrp">   -186.83932285 </i>
    <i name="e_0_energy">   -187.00632878 </i>
   </energy>
  </scstep>
  <scstep>
   <time name="dav">   31.63   31.71</time>
   <time name="total">   32.16   32.25</time>
   <energy>
    <i name="e_fr_energy">   -186.92185709 </i>
    <i name="e_wo_entrp">   -186.58841383 </i>
    <i name="e_0_energy">   -186.75513546 </i>
   </energy>
  </scstep>
  <scstep>
   <time name="dav">   32.51   32.59</time>
   <time name="total">   33.04   33.13</time>
   <energy>
    <i name="e_fr_energy">   -186.87563029 </i>
    <i name="e_wo_entrp">   -186.52958292 </i>
    <i name="e_0_energy">   -186.70260661 </i>
   </energy>
  </scstep>
  <scstep>
   <time name="dav">   31.51   31.59</time>
   <time name="total">   32.04   32.12</time>
   <energy>
    <i name="e_fr_energy">   -186.86912937 </i>
    <i name="e_wo_entrp">   -186.52492267 </i>
    <i name="e_0_energy">   -186.69702602 </i>
   </energy>
  </scstep>
  <scstep>
   <time name="dav">   32.42   32.49</time>
   <time name="total">   32.95   33.03</time>
   <energy>
    <i name="e_fr_energy">   -186.86947372 </i>
    <i name="e_wo_entrp">   -186.52643680 </i>
    <i name="e_0_energy">   -186.69795526 </i>
   </energy>
  </scstep>
  <scstep>
   <time name="dav">   30.68   30.75</time>
   <time name="total">   31.20   31.29</time>
   <energy>
    <i name="e_fr_energy">   -186.86841948 </i>
    <i name="e_wo_entrp">   -186.52546354 </i>
    <i name="e_0_energy">   -186.69694151 </i>
   </energy>
  </scstep>
  <scstep>
   <time name="dav">   28.78   28.85</time>
   <time name="total">   29.31   29.39</time>
   <energy>
    <i name="e_fr_energy">   -186.86769056 </i>
    <i name="e_wo_entrp">   -186.52439789 </i>
    <i name="e_0_energy">   -186.69604423 </i>
   </energy>
  </scstep>
  <scstep>
   <time name="dav">   24.85   24.91</time>
   <time name="total">   25.38   25.45</time>
   <energy>
    <i name="e_fr_energy">   -186.86832284 </i>
    <i name="e_wo_entrp">   -186.52520794 </i>
    <i name="e_0_energy">   -186.69676539 </i>
   </energy>
  </scstep>
  <scstep>
   <time name="dav">   20.42   20.47</time>
   <time name="total">   20.95   21.01</time>
   <energy>
    <i name="e_fr_energy">   -186.86875218 </i>
    <i name="e_wo_entrp">   -186.52561951 </i>
    <i name="e_0_energy">   -186.69718584 </i>
   </energy>
  </scstep>
  <scstep>
   <time name="dav">   22.35   22.41</time>
   <time name="total">   22.88   22.95</time>
   <energy>
    <i name="e_fr_energy">   -186.86980898 </i>
    <i name="e_wo_entrp">   -186.52661461 </i>
    <i name="e_0_energy">   -186.69821179 </i>
   </energy>
  </scstep>
  <scstep>
   <time name="dav">   21.12   21.17</time>
   <time name="total">   21.65   21.71</time>
   <energy>
    <i name="e_fr_energy">   -186.87121061 </i>
    <i name="e_wo_entrp">   -186.52817848 </i>
    <i name="e_0_energy">   -186.69969454 </i>
   </energy>
  </scstep>
  <scstep>
   <time name="dav">   18.60   18.64</time>
   <time name="total">   19.13   19.18</time>
   <energy>
    <i name="e_fr_energy">   -186.87185247 </i>
    <i name="e_wo_entrp">   -186.52874708 </i>
    <i name="e_0_energy">   -186.70029977 </i>
   </energy>
  </scstep>
  <scstep>
   <time name="dav">   17.28   17.32</time>
   <time name="total">   17.81   17.86</time>
   <energy>
    <i name="e_fr_energy">   -186.87211454 </i>
    <i name="e_wo_entrp">   -186.52899060 </i>
    <i name="e_0_energy">   -186.70055257 </i>
   </energy>
  </scstep>
  <scstep>
   <time name="dav">   16.77   16.81</time>
   <time name="total">   17.30   17.35</time>
   <energy>
    <i name="e_fr_energy">   -186.87246142 </i>
    <i name="e_wo_entrp">   -186.52933288 </i>
    <i name="e_0_energy">   -186.70089715 </i>
   </energy>
  </scstep>
  <scstep>
   <time name="dav">   19.25   19.30</time>
   <time name="total">   19.78   19.84</time>
   <energy>
    <i name="e_fr_energy">   -186.87269633 </i>
    <i name="e_wo_entrp">   -186.52957092 </i>
    <i name="e_0_energy">   -186.70113362 </i>
   </energy>
  </scstep>
  <scstep>
   <time name="dav">   20.13   20.18</time>
   <time name="total">   20.17   20.23</time>
   <energy>
    <i name="alphaZ">     81.65567618 </i>
    <i name="ewald">  41890.25209520 </i>
    <i name="hartreedc"> -47833.02397429 </i>
    <i name="XCdc">   -231.60488539 </i>
    <i name="pawpsdc">   4192.11756633 </i>
    <i name="pawaedc">  -3610.13041838 </i>
    <i name="eentropy">     -0.34312029 </i>
    <i name="bandstr">  -1437.23825652 </i>
    <i name="atom">   6761.44252427 </i>
    <i name="e_fr_energy">   -186.87279289 </i>
    <i name="e_wo_entrp">   -186.52967261 </i>
    <i name="e_0_energy">   -186.70123275 </i>
   </energy>
  </scstep>
  <structure>
   <crystal>
    <varray name="basis" >
     <v>       8.66999996       5.03999989       0.00000000 </v>
     <v>      -8.66999982       5.04000013       0.00000000 </v>
     <v>       0.00000000       0.00000000      30.00000000 </v>
    </varray>
    <i name="volume">   2621.80797419 </i>
    <varray name="rec_basis" >
     <v>       0.05767013       0.09920635       0.00000000 </v>
     <v>      -0.05767013       0.09920635       0.00000000 </v>
     <v>       0.00000000       0.00000000       0.03333333 </v>
    </varray>
   </crystal>
   <varray name="positions" >
    <v>       0.00000000       0.66666669       0.00000000 </v>
    <v>       1.00000000       0.33333334       0.00000000 </v>
    <v>       0.66666669       0.66666669       0.00000000 </v>
    <v>       0.00000000       0.00000000       0.00000000 </v>
    <v>       0.33333334       0.66666669       0.00000000 </v>
    <v>       0.33333334       0.00000000       0.00000000 </v>
    <v>       0.33333334       0.33333334       0.00000000 </v>
    <v>       0.66666669       0.00000000       0.00000000 </v>
    <v>       0.66666669       0.33333334       0.00000000 </v>
    <v>       0.11068511       0.22244981       0.95539999 </v>
    <v>       0.22244981       0.11068511       0.04460000 </v>
    <v>       0.11068511       0.55578315       0.95539999 </v>
    <v>       0.22244981       0.44401845       0.04460000 </v>
    <v>       0.11068511       0.88911647       0.95539999 </v>
    <v>       0.22244981       0.77735180       0.04460000 </v>
    <v>       0.44401845       0.22244981       0.95539999 </v>
    <v>       0.55578315       0.11068511       0.04460000 </v>
    <v>       0.44401845       0.55578315       0.95539999 </v>
    <v>       0.55578315       0.44401845       0.04460000 </v>
    <v>       0.44401845       0.88911647       0.95539999 </v>
    <v>       0.55578315       0.77735180       0.04460000 </v>
    <v>       0.77735180       0.22244981       0.95539999 </v>
    <v>       0.88911647       0.11068511       0.04460000 </v>
    <v>       0.77735180       0.55578315       0.95539999 </v>
    <v>       0.88911647       0.44401845       0.04460000 </v>
    <v>       0.77735180       0.88911647       0.95539999 </v>
    <v>       0.88911647       0.77735180       0.04460000 </v>
   </varray>
  </structure>
  <varray name="forces" >
   <v>      -0.00003232       0.39560134      -0.00000357 </v>
   <v>       0.12981393       0.15117283      -0.08910130 </v>
   <v>      -0.12982592       0.15118517       0.08909473 </v>
   <v>       0.29379622       0.10168616       0.06088944 </v>
   <v>      -0.29376781       0.10173995      -0.06089250 </v>
   <v>       0.00000736      -0.28829726      -0.00000141 </v>
   <v>      -0.05175964      -0.30810714      -0.14477156 </v>
   <v>       0.05179428      -0.30817341       0.14476096 </v>
   <v>      -0.00003325      -0.14530755      -0.00001089 </v>
   <v>      -0.68229636       0.18055110      -2.15918315 </v>
   <v>      -0.18549078       0.14902122       2.89188275 </v>
   <v>      -0.30906111      -0.67577774      -1.42690761 </v>
   <v>      -0.37871892      -0.68084361       2.14503639 </v>
   <v>       0.52444718      -0.68845209      -2.17866829 </v>
   <v>      -0.52444617      -0.68845681       2.17868085 </v>
   <v>       0.03889183       0.12357516      -2.91037988 </v>
   <v>      -0.03887455       0.12356025       2.91036667 </v>
   <v>       0.61709475       0.53632233      -2.10246683 </v>
   <v>      -0.46910426       0.61214930       2.17623929 </v>
   <v>       0.18548557       0.14904398      -2.89189127 </v>
   <v>       0.68234581       0.18055017       2.15917323 </v>
   <v>       0.46907676       0.61210120      -2.17623801 </v>
   <v>      -0.61705910       0.53626664       2.10248223 </v>
   <v>      -0.23766541       0.51780145      -1.39474779 </v>
   <v>       0.23762180       0.51781158       1.39477991 </v>
   <v>       0.37872266      -0.68089405      -2.14500754 </v>
   <v>       0.30903744      -0.67583019       1.42688515 </v>
  </varray>
  <varray name="stress" >
   <v>       7.29925547       0.00002420      -1.60721600 </v>
   <v>       0.00002426       4.46011838      -0.00001318 </v>
   <v>      -1.60721584      -0.00001322      30.28848111 </v>
  </varray>
  <energy>
   <i name="e_fr_energy">   -186.87279289 </i>
   <i name="e_wo_entrp">   -186.70123275 </i>
   <i name="e_0_energy">     -0.34312029 </i>
  </energy>
  <time name="totalsc">  781.68  783.81</time>
 </calculation>
 <calculation>
  <scstep>
   <time name="dav">   21.89   21.94</time>
   <time name="total">   22.43   22.48</time>
   <energy>
    <i name="alphaZ">     78.92020930 </i>
    <i name="ewald">  39379.62736403 </i>
    <i name="hartreedc"> -45337.10546591 </i>
    <i name="XCdc">   -239.06084718 </i>
    <i name="pawpsdc">   4192.09457505 </i>
    <i name="pawaedc">  -3610.10763289 </i>
    <i name="eentropy">     -0.28492133 </i>
    <i name="bandstr">  -1413.01937543 </i>
    <i name="atom">   6761.44252427 </i>
    <i name="e_fr_energy">   -187.49357008 </i>
    <i name="e_wo_entrp">   -187.20864874 </i>
    <i name="e_0_energy">   -187.35110941 </i>
   </energy>
  </scstep>
  <scstep>
   <time name="dav">   30.50   30.57</time>
   <time name="total">   31.03   31.11</time>
   <energy>
    <i name="e_fr_energy">   -189.30186522 </i>
    <i name="e_wo_entrp">   -188.97984508 </i>
    <i name="e_0_energy">   -189.14085515 </i>
   </energy>
  </scstep>
  <scstep>
   <time name="dav">   30.73   30.80</time>
   <time name="total">   31.27   31.35</time>
   <energy>
    <i name="e_fr_energy">   -189.41398540 </i>
    <i name="e_wo_entrp">   -189.13677971 </i>
    <i name="e_0_energy">   -189.27538256 </i>
   </energy>
  </scstep>
  <scstep>
   <time name="dav">   30.30   30.38</time>
   <time name="total">   30.85   30.93</time>
   <energy>
    <i name="e_fr_energy">   -188.76222132 </i>
    <i name="e_wo_entrp">   -188.47877886 </i>
    <i name="e_0_energy">   -188.62050009 </i>
   </energy>
  </scstep>
  <scstep>
   <time name="dav">   28.38   28.44</time>
   <time name="total">   28.91   28.99</time>
   <energy>
    <i name="e_fr_energy">   -188.87643096 </i>
    <i name="e_wo_entrp">   -188.58448410 </i>
    <i name="e_0_energy">   -188.73045753 </i>
   </energy>
  </scstep>
  <scstep>
   <time name="dav">   31.10   31.18</time>
   <time name="total">   31.64   31.73</time>
   <energy>
    <i name="e_fr_energy">   -188.74486677 </i>
    <i name="e_wo_entrp">   -188.45947004 </i>
    <i name="e_0_energy">   -188.60216841 </i>
   </energy>
  </scstep>
  <scstep>
   <time name="dav">   28.81   28.88</time>
   <time name="total">   29.36   29.44</time>
   <energy>
    <i name="e_fr_energy">   -188.68175459 </i>
    <i name="e_wo_entrp">   -188.39744688 </i>
    <i name="e_0_energy">   -188.53960074 </i>
   </energy>
  </scstep>
  <scstep>
   <time name="dav">   28.85   28.92</time>
   <time name="total">   29.39   29.47</time>
   <energy>
    <i name="e_fr_energy">   -188.66593306 </i>
    <i name="e_wo_entrp">   -188.38264111 </i>
    <i name="e_0_energy">   -188.52428709 </i>
   </energy>
  </scstep>
  <scstep>
   <time name="dav">   30.54   30.61</time>
   <time name="total">   31.08   31.16</time>
   <energy>
    <i name="e_fr_energy">   -188.66111307 </i>
    <i name="e_wo_entrp">   -188.37838730 </i>
    <i name="e_0_energy">   -188.51975018 </i>
   </energy>
  </scstep>
  <scstep>
   <time name="dav">   31.85   31.93</time>
   <time name="total">   32.40   32.48</time>
   <energy>
    <i name="e_fr_energy">   -188.66051183 </i>
    <i name="e_wo_entrp">   -188.37796465 </i>
    <i name="e_0_energy">   -188.51923824 </i>
   </energy>
  </scstep>
  <scstep>
   <time name="dav">   32.37   32.45</time>
   <time name="total">   32.91   33.00</time>
   <energy>
    <i name="e_fr_energy">   -188.66065388 </i>
    <i name="e_wo_entrp">   -188.37869239 </i>
    <i name="e_0_energy">   -188.51967314 </i>
   </energy>
  </scstep>
  <scstep>
   <time name="dav">   28.55   28.62</time>
   <time name="total">   29.10   29.17</time>
   <energy>
    <i name="e_fr_energy">   -188.66026862 </i>
    <i name="e_wo_entrp">   -188.37855494 </i>
    <i name="e_0_energy">   -188.51941178 </i>
   </energy>
  </scstep>
  <scstep>
   <time name="dav">   20.87   20.92</time>
   <time name="total">   20.91   20.96</time>
   <energy>
    <i name="alphaZ">     78.92020930 </i>
    <i name="ewald">  39379.62736403 </i>
    <i name="hartreedc"> -45347.85767165 </i>
    <i name="XCdc">   -237.97648052 </i>
    <i name="pawpsdc">   3950.53861466 </i>
    <i name="pawaedc">  -3365.04946006 </i>
    <i name="eentropy">     -0.28204840 </i>
    <i name="bandstr">  -1408.02328281 </i>
    <i name="atom">   6761.44252427 </i>
    <i name="e_fr_energy">   -188.66023118 </i>
    <i name="e_wo_entrp">   -188.37818278 </i>
    <i name="e_0_energy">   -188.51920698 </i>
   </energy>
  </scstep>
  <structure>
   <crystal>
    <varray name="basis" >
     <v>       8.85503596       5.10572612       0.00000000 </v>
     <v>      -8.85503510       5.10572513       0.00000000 </v>
     <v>       0.00000000       0.00000000      30.00000000 </v>
    </varray>
    <i name="volume">   2712.68290891 </i>
    <varray name="rec_basis" >
     <v>       0.05646504       0.09792927       0.00000000 </v>
     <v>      -0.05646505       0.09792928       0.00000000 </v>
     <v>       0.00000000       0.00000000       0.03333333 </v>
    </varray>
   </crystal>
   <varray name="positions" >
    <v>       0.00189325       0.66856012      -0.00000001 </v>
    <v>       1.00108467       0.33369569      -0.00014328 </v>
    <v>       0.66702906       0.66775145       0.00014327 </v>
    <v>       0.00130406      -0.00033072       0.00009792 </v>
    <v>       0.33300296       0.66797092      -0.00009792 </v>
    <v>       0.33195358      -0.00137980      -0.00000000 </v>
    <v>       0.33171475       0.33200275      -0.00023281 </v>
    <v>       0.66533588      -0.00161901       0.00023279 </v>
    <v>       0.66597116       0.33263800      -0.00000002 </v>
    <v>       0.10965097       0.22521218       0.95192783 </v>
    <v>       0.22264696       0.11191439       0.04925040 </v>
    <v>       0.10659100       0.55340875       0.95310540 </v>
    <v>       0.21813765       0.44181361       0.04804941 </v>
    <v>       0.10884929       0.88436245       0.95189650 </v>
    <v>       0.21769578       0.77551595       0.04810351 </v>
    <v>       0.44471808       0.22293303       0.95071984 </v>
    <v>       0.55626635       0.11138462       0.04928013 </v>
    <v>       0.44830214       0.55663312       0.95201904 </v>
    <v>       0.55740776       0.44825331       0.04809958 </v>
    <v>       0.44524782       0.88931374       0.95074957 </v>
    <v>       0.55854566       0.77631751       0.04807214 </v>
    <v>       0.78158635       0.22407427       0.95190041 </v>
    <v>       0.88996627       0.11496843       0.04798098 </v>
    <v>       0.77916876       0.55892256       0.95315711 </v>
    <v>       0.89225580       0.44583559       0.04684293 </v>
    <v>       0.77514672       0.88480406       0.95195063 </v>
    <v>       0.88674175       0.77325750       0.04689456 </v>
   </varray>
  </structure>
  <varray name="forces" >
   <v>      -0.00046520       0.38789723       0.00001988 </v>
   <v>       0.17043638       0.12787424       0.04639062 </v>
   <v>      -0.17121171       0.12785298      -0.04643787 </v>
   <v>       0.25209323       0.29084870       0.07353547 </v>
   <v>      -0.25114635       0.29238733      -0.07356135 </v>
   <v>      -0.00010278      -0.08827391       0.00006841 </v>
   <v>       0.09529297      -0.35178502      -0.04175193 </v>
   <v>      -0.09425730      -0.35299804       0.04176162 </v>
   <v>      -0.00094815      -0.35999293      -0.00000413 </v>
   <v>       0.01407402       0.10556618      -0.11729912 </v>
   <v>      -0.04831710       0.12283433       0.13453505 </v>
   <v>      -0.02765584      -0.03613604       0.03340808 </v>
   <v>       0.09734240      -0.04331275      -0.09224690 </v>
   <v>       0.03379629      -0.09163812      -0.14914159 </v>
   <v>      -0.03373744      -0.09171355       0.14894909 </v>
   <v>      -0.07467461       0.08236915      -0.04028563 </v>
   <v>       0.07484793       0.08247079       0.04013280 </v>
   <v>       0.08450485      -0.04892757       0.13035156 </v>
   <v>       0.04191700      -0.05321031      -0.14090097 </v>
   <v>       0.04828611       0.12286238      -0.13485578 </v>
   <v>      -0.01290645       0.10555465       0.11615313 </v>
   <v>      -0.04241964      -0.05361343       0.13945291 </v>
   <v>      -0.08416446      -0.04960837      -0.12888027 </v>
   <v>       0.06637681      -0.07306832       0.22433178 </v>
   <v>      -0.06694265      -0.07309282      -0.22297583 </v>
   <v>      -0.09708022      -0.04397507       0.09380847 </v>
   <v>       0.02706191      -0.03717172      -0.03455749 </v>
  </varray>
  <varray name="stress" >
   <v>     -19.88785451       0.00050885      -0.01320620 </v>
   <v>       0.00050902     -19.48678761      -0.00002336 </v>
   <v>      -0.01320622      -0.00002329      -1.72534667 </v>
  </varray>
  <energy>
   <i name="e_fr_energy">   -188.66023118 </i>
   <i name="e_wo_entrp">   -188.51920698 </i>
   <i name="e_0_energy">     -0.28204840 </i>
  </energy>
  <time name="totalsc">  422.91  424.02</time>
 </calculation>
 <calculation>
  <scstep>
   <time name="dav">   23.86   23.91</time>
   <time name="total">   24.39   24.45</time>
   <energy>
    <i name="alphaZ">     82.34213965 </i>
    <i name="ewald">  41301.62133008 </i>
    <i name="hartreedc"> -47300.25741030 </i>
    <i name="XCdc">   -233.85774402 </i>
    <i name="pawpsdc">   3949.33646215 </i>
    <i name="pawaedc">  -3363.83606614 </i>
    <i name="eentropy">     -0.23571836 </i>
    <i name="bandstr">  -1387.12751759 </i>
    <i name="atom">   6761.44252427 </i>
    <i name="e_fr_energy">   -190.57200025 </i>
    <i name="e_wo_entrp">   -190.33628188 </i>
    <i name="e_0_energy">   -190.45414107 </i>
   </energy>
  </scstep>
  <scstep>
   <time name="dav">   28.44   28.51</time>
   <time name="total">   28.96   29.03</time>
   <energy>
    <i name="e_fr_energy">   -190.56505850 </i>
    <i name="e_wo_entrp">   -190.32670914 </i>
    <i name="e_0_energy">   -190.44588382 </i>
   </energy>
  </scstep>
  <scstep>
   <time name="dav">   30.53   30.60</time>
   <time name="total">   31.05   31.13</time>
   <energy>
    <i name="e_fr_energy">   -190.05080277 </i>
    <i name="e_wo_entrp">   -189.80077431 </i>
    <i name="e_0_energy">   -189.92578854 </i>
   </energy>
  </scstep>
  <scstep>
   <time name="dav">   31.44   31.52</time>
   <time name="total">   31.97   32.06</time>
   <energy>
    <i name="e_fr_energy">   -189.85297203 </i>
    <i name="e_wo_entrp">   -189.61712375 </i>
    <i name="e_0_energy">   -189.73504789 </i>
   </energy>
  </scstep>
  <scstep>
   <time name="dav">   30.60   30.67</time>
   <time name="total">   31.12   31.20</time>
   <energy>
    <i name="e_fr_energy">   -189.89999229 </i>
    <i name="e_wo_entrp">   -189.65479342 </i>
    <i name="e_0_energy">   -189.77739286 </i>
   </energy>
  </scstep>
  <scstep>
   <time name="dav">   30.51   30.59</time>
   <time name="total">   31.05   31.13</time>
   <energy>
    <i name="e_fr_energy">   -189.74589024 </i>
    <i name="e_wo_entrp">   -189.50761541 </i>
    <i name="e_0_energy">   -189.62675282 </i>
   </energy>
  </scstep>
  <scstep>
   <time name="dav">   29.70   29.77</time>
   <time name="total">   30.23   30.31</time>
   <energy>
    <i name="e_fr_energy">   -189.74003895 </i>
    <i name="e_wo_entrp">   -189.50207611 </i>
    <i name="e_0_energy">   -189.62105753 </i>
   </energy>
  </scstep>
  <scstep>
   <time name="dav">   26.30   26.36</time>
   <time name="total">   26.83   26.90</time>
   <energy>
    <i name="e_fr_energy">   -189.74005547 </i>
    <i name="e_wo_entrp">   -189.50209903 </i>
    <i name="e_0_energy">   -189.62107725 </i>
   </energy>
  </scstep>
  <scstep>
   <time name="dav">   27.10   27.16</time>
   <time name="total">   27.63   27.70</time>
   <energy>
    <i name="e_fr_energy">   -189.74019488 </i>
    <i name="e_wo_entrp">   -189.50210571 </i>
    <i name="e_0_energy">   -189.62115029 </i>
   </energy>
  </scstep>
  <scstep>
   <time name="dav">   26.72   26.78</time>
   <time name="total">   27.24   27.32</time>
   <energy>
    <i name="e_fr_energy">   -189.74073557 </i>
    <i name="e_wo_entrp">   -189.50262024 </i>
    <i name="e_0_energy">   -189.62167791 </i>
   </energy>
  </scstep>
  <scstep>
   <time name="dav">   24.82   24.88</time>
   <time name="total">   25.35   25.42</time>
   <energy>
    <i name="e_fr_energy">   -189.74009142 </i>
    <i name="e_wo_entrp">   -189.50200276 </i>
    <i name="e_0_energy">   -189.62104709 </i>
   </energy>
  </scstep>
  <scstep>
   <time name="dav">   17.11   17.15</time>
   <time name="total">   17.14   17.19</time>
   <energy>
    <i name="alphaZ">     82.34213965 </i>
    <i name="ewald">  41301.62133008 </i>
    <i name="hartreedc"> -47273.89398677 </i>
    <i name="XCdc">   -235.24899606 </i>
    <i name="pawpsdc">   4038.72219095 </i>
    <i name="pawaedc">  -3454.42413824 </i>
    <i name="eentropy">     -0.23807989 </i>
    <i name="bandstr">  -1410.06309661 </i>
    <i name="atom">   6761.44252427 </i>
    <i name="e_fr_energy">   -189.74011261 </i>
    <i name="e_wo_entrp">   -189.50203272 </i>
    <i name="e_0_energy">   -189.62107266 </i>
   </energy>
  </scstep>
  <structure>
   <crystal>
    <varray name="basis" >
     <v>       8.66719608       4.99960690       0.00000000 </v>
     <v>      -8.66718970       4.99959632       0.00000000 </v>
     <v>       0.00000000       0.00000000      30.00000000 </v>
    </varray>
    <i name="volume">   2599.95069171 </i>
    <varray name="rec_basis" >
     <v>       0.05768874       0.10000793       0.00000000 </v>
     <v>      -0.05768887       0.10000801       0.00000000 </v>
     <v>       0.00000000       0.00000000       0.03333333 </v>
    </varray>
   </crystal>
   <varray name="positions" >
    <v>       0.00253893       0.66920669       0.00000001 </v>
    <v>       1.00146137       0.33374500      -0.00011698 </v>
    <v>       0.66707759       0.66812886       0.00011694 </v>
    <v>       0.00203065      -0.00008837       0.00013961 </v>
    <v>       0.33324879       0.66869917      -0.00013963 </v>
    <v>       0.33180644      -0.00152675       0.00000004 </v>
    <v>       0.33122029       0.33132525      -0.00025648 </v>
    <v>       0.66465735      -0.00211648       0.00025647 </v>
    <v>       0.66537059       0.33203926      -0.00000002 </v>
    <v>       0.10984033       0.22537451       0.95186133 </v>
    <v>       0.22280516       0.11216540       0.04932668 </v>
    <v>       0.10650424       0.55337512       0.95312434 </v>
    <v>       0.21815899       0.44164797       0.04799710 </v>
    <v>       0.10872911       0.88417735       0.95181194 </v>
    <v>       0.21751060       0.77539558       0.04818796 </v>
    <v>       0.44478357       0.22314196       0.95069700 </v>
    <v>       0.55647561       0.11145011       0.04930288 </v>
    <v>       0.44830180       0.55647046       0.95209294 </v>
    <v>       0.55735939       0.44812442       0.04801970 </v>
    <v>       0.44549886       0.88947202       0.95067311 </v>
    <v>       0.55870909       0.77650573       0.04813800 </v>
    <v>       0.78145630       0.22402570       0.95197947 </v>
    <v>       0.88980280       0.11496663       0.04790790 </v>
    <v>       0.77911080       0.55873710       0.95328430 </v>
    <v>       0.89206976       0.44577813       0.04671650 </v>
    <v>       0.77498023       0.88482404       0.95200382 </v>
    <v>       0.88670582       0.77316959       0.04687496 </v>
   </varray>
  </structure>
  <varray name="forces" >
   <v>      -0.00028164       0.38788860       0.00000218 </v>
   <v>       0.20865946       0.10315888       0.06848375 </v>
   <v>      -0.20897541       0.10301947      -0.06858830 </v>
   <v>       0.22693904       0.35281758       0.05186513 </v>
   <v>      -0.22654448       0.35376114      -0.05180845 </v>
   <v>       0.00005588      -0.01065064       0.00005078 </v>
   <v>       0.15090510      -0.37143932      -0.00299372 </v>
   <v>      -0.15042521      -0.37226820       0.00299232 </v>
   <v>      -0.00032473      -0.43305723      -0.00003570 </v>
   <v>      -0.09907395       0.01907199      -0.64226641 </v>
   <v>      -0.00222447       0.06457505       0.69568080 </v>
   <v>      -0.06993080      -0.09932825      -0.41769565 </v>
   <v>      -0.01922755      -0.08493714       0.38413661 </v>
   <v>       0.07275393      -0.15298179      -0.65052648 </v>
   <v>      -0.07274956      -0.15293773       0.65052784 </v>
   <v>      -0.03325496       0.00563743      -0.61262542 </v>
   <v>       0.03318830       0.00559828       0.61250759 </v>
   <v>       0.07991240       0.07538734      -0.34942872 </v>
   <v>      -0.04320433       0.05874597       0.35867489 </v>
   <v>       0.00228584       0.06455503      -0.69570039 </v>
   <v>       0.09990460       0.01894055       0.64226669 </v>
   <v>       0.04282220       0.05811314      -0.35854707 </v>
   <v>      -0.07950250       0.07467405       0.34946711 </v>
   <v>      -0.00303503       0.05878836      -0.22004526 </v>
   <v>       0.00202752       0.05873478       0.22038929 </v>
   <v>       0.01972284      -0.08570128      -0.38411330 </v>
   <v>       0.06957749      -0.10016606       0.41732991 </v>
  </varray>
  <varray name="stress" >
   <v>     -10.16473615       0.00039508      -0.02534834 </v>
   <v>       0.00039497      -9.82972147       0.00006712 </v>
   <v>      -0.02534845       0.00006707       6.50009782 </v>
  </varray>
  <energy>
   <i name="e_fr_energy">   -189.74011261 </i>
   <i name="e_wo_entrp">   -189.62107266 </i>
   <i name="e_0_energy">     -0.23807989 </i>
  </energy>
  <time name="totalsc">  374.54  375.53</time>
 </calculation>
 <calculation>
  <scstep>
   <time name="dav">   21.86   21.91</time>
   <time name="total">   22.38   22.43</time>
   <energy>
    <i name="alphaZ">     85.82284693 </i>
    <i name="ewald">  42833.27820734 </i>
    <i name="hartreedc"> -48850.26454235 </i>
    <i name="XCdc">   -232.96154400 </i>
    <i name="pawpsdc">   4038.56719066 </i>
    <i name="pawaedc">  -3454.26239362 </i>
    <i name="eentropy">     -0.19704444 </i>
    <i name="bandstr">  -1372.70809688 </i>
    <i name="atom">   6761.44252427 </i>
    <i name="e_fr_energy">   -191.28285209 </i>
    <i name="e_wo_entrp">   -191.08580765 </i>
    <i name="e_0_energy">   -191.18432987 </i>
   </energy>
  </scstep>
  <scstep>
   <time name="dav">   33.02   33.10</time>
   <time name="total">   33.53   33.62</time>
   <energy>
    <i name="e_fr_energy">   -191.15861051 </i>
    <i name="e_wo_entrp">   -190.95683409 </i>
    <i name="e_0_energy">   -191.05772230 </i>
   </energy>
  </scstep>
  <scstep>
   <time name="dav">   30.24   30.31</time>
   <time name="total">   30.75   30.83</time>
   <energy>
    <i name="e_fr_energy">   -191.19676417 </i>
    <i name="e_wo_entrp">   -190.97850120 </i>
    <i name="e_0_energy">   -191.08763269 </i>
   </energy>
  </scstep>
  <scstep>
   <time name="dav">   31.96   32.03</time>
   <time name="total">   32.47   32.56</time>
   <energy>
    <i name="e_fr_energy">   -190.80892554 </i>
    <i name="e_wo_entrp">   -190.60938388 </i>
    <i name="e_0_energy">   -190.70915471 </i>
   </energy>
  </scstep>
  <scstep>
   <time name="dav">   28.24   28.31</time>
   <time name="total">   28.76   28.83</time>
   <energy>
    <i name="e_fr_energy">   -190.71130371 </i>
    <i name="e_wo_entrp">   -190.50797669 </i>
    <i name="e_0_energy">   -190.60964020 </i>
   </energy>
  </scstep>
  <scstep>
   <time name="dav">   31.42   31.50</time>
   <time name="total">   31.94   32.02</time>
   <energy>
    <i name="e_fr_energy">   -190.70850321 </i>
    <i name="e_wo_entrp">   -190.50470928 </i>
    <i name="e_0_energy">   -190.60660625 </i>
   </energy>
  </scstep>
  <scstep>
   <time name="dav">   29.07   29.14</time>
   <time name="total">   29.59   29.67</time>
   <energy>
    <i name="e_fr_energy">   -190.69864172 </i>
    <i name="e_wo_entrp">   -190.49590295 </i>
    <i name="e_0_energy">   -190.59727234 </i>
   </energy>
  </scstep>
  <scstep>
   <time name="dav">   27.88   27.95</time>
   <time name="total">   28.40   28.47</time>
   <energy>
    <i name="e_fr_energy">   -190.69274695 </i>
    <i name="e_wo_entrp">   -190.48997981 </i>
    <i name="e_0_energy">   -190.59136338 </i>
   </energy>
  </scstep>
  <scstep>
   <time name="dav">   26.69   26.75</time>
   <time name="total">   27.21   27.28</time>
   <energy>
    <i name="e_fr_energy">   -190.69298910 </i>
    <i name="e_wo_entrp">   -190.49003723 </i>
    <i name="e_0_energy">   -190.59151316 </i>
   </energy>
  </scstep>
  <scstep>
   <time name="dav">   27.81   27.88</time>
   <time name="total">   28.33   28.40</time>
   <energy>
    <i name="e_fr_energy">   -190.69289162 </i>
    <i name="e_wo_entrp">   -190.49008613 </i>
    <i name="e_0_energy">   -190.59148887 </i>
   </energy>
  </scstep>
  <scstep>
   <time name="dav">   24.31   24.37</time>
   <time name="total">   24.35   24.42</time>
   <energy>
    <i name="alphaZ">     85.82284693 </i>
    <i name="ewald">  42833.27820734 </i>
    <i name="hartreedc"> -48821.40022557 </i>
    <i name="XCdc">   -234.30003666 </i>
    <i name="pawpsdc">   4062.74236898 </i>
    <i name="pawaedc">  -3478.61019647 </i>
    <i name="eentropy">     -0.20275926 </i>
    <i name="bandstr">  -1399.46569167 </i>
    <i name="atom">   6761.44252427 </i>
    <i name="e_fr_energy">   -190.69296210 </i>
    <i name="e_wo_entrp">   -190.49020283 </i>
    <i name="e_0_energy">   -190.59158246 </i>
   </energy>
  </scstep>
  <structure>
   <crystal>
    <varray name="basis" >
     <v>       8.48488008       4.89992310       0.00000000 </v>
     <v>      -8.48486152       4.89989138       0.00000000 </v>
     <v>       0.00000000       0.00000000      30.00000000 </v>
    </varray>
    <i name="volume">   2494.50479196 </i>
    <varray name="rec_basis" >
     <v>       0.05892823       0.10204264       0.00000000 </v>
     <v>      -0.05892861       0.10204286       0.00000000 </v>
     <v>       0.00000000       0.00000000       0.03333333 </v>
    </varray>
   </crystal>
   <varray name="positions" >
    <v>       0.00496940       0.67163867      -0.00000000 </v>
    <v>       1.00285582       0.33352016       0.00004368 </v>
    <v>       0.66685110       0.66952263      -0.00004398 </v>
    <v>       0.00518137       0.00149355       0.00022861 </v>
    <v>       0.33483576       0.67185369      -0.00022844 </v>
    <v>       0.33193414      -0.00139991       0.00000013 </v>
    <v>       0.32946888       0.32832213      -0.00022970 </v>
    <v>       0.66165093      -0.00387306       0.00022968 </v>
    <v>       0.66247334       0.32914255      -0.00000012 </v>
    <v>       0.10922232       0.22579919       0.95008425 </v>
    <v>       0.22312267       0.11236614       0.05124518 </v>
    <v>       0.10540989       0.55290840       0.95187530 </v>
    <v>       0.21728504       0.44124909       0.04919814 </v>
    <v>       0.10793614       0.88274590       0.95003782 </v>
    <v>       0.21607967       0.77460325       0.04996225 </v>
    <v>       0.44456654       0.22304606       0.94894102 </v>
    <v>       0.55637853       0.11123307       0.05105864 </v>
    <v>       0.44936742       0.55697136       0.95096091 </v>
    <v>       0.55772853       0.44905139       0.04918772 </v>
    <v>       0.44569970       0.88978893       0.94875483 </v>
    <v>       0.55913517       0.77588408       0.04991605 </v>
    <v>       0.78237753       0.22439151       0.95081305 </v>
    <v>       0.89030073       0.11602611       0.04903879 </v>
    <v>       0.77969785       0.55954618       0.95245041 </v>
    <v>       0.89287415       0.44636905       0.04755025 </v>
    <v>       0.77457843       0.88394291       0.95080152 </v>
    <v>       0.88623341       0.77207141       0.04812391 </v>
   </varray>
  </structure>
  <varray name="forces" >
   <v>       0.00778898       0.33109731       0.00018781 </v>
   <v>       0.25729108       0.09038680       0.07865647 </v>
   <v>      -0.24885692       0.08966317      -0.07633044 </v>
   <v>       0.20178539       0.43326972      -0.00514004 </v>
   <v>      -0.21328940       0.41473093       0.00497923 </v>
   <v>       0.00144540       0.10765371      -0.00111127 </v>
   <v>       0.21901988      -0.42826056       0.03160731 </v>
   <v>      -0.23324032      -0.41214080      -0.03173923 </v>
   <v>       0.00926823      -0.44609061       0.00008409 </v>
   <v>      -0.02028877      -0.01408547      -0.48983062 </v>
   <v>       0.04299432       0.00218238       0.53977147 </v>
   <v>      -0.02565860       0.01212904      -0.30950965 </v>
   <v>      -0.02340928       0.03206902       0.19175056 </v>
   <v>       0.03596691      -0.03510915      -0.45977263 </v>
   <v>      -0.03604964      -0.03475744       0.46160332 </v>
   <v>      -0.01088606      -0.07287827      -0.48715004 </v>
   <v>       0.01113043      -0.07349113       0.48932077 </v>
   <v>      -0.00262014      -0.01810901      -0.18803780 </v>
   <v>      -0.03429782      -0.01431198       0.20516886 </v>
   <v>      -0.04295999       0.00225354      -0.53836663 </v>
   <v>       0.01263452      -0.01403379       0.49221414 </v>
   <v>       0.03811273      -0.00845482      -0.20217863 </v>
   <v>      -0.00160964      -0.01144791       0.18323865 </v>
   <v>       0.03277016       0.00474526      -0.09810849 </v>
   <v>      -0.02535959       0.00505068       0.09213644 </v>
   <v>       0.01932802       0.03912143      -0.19667596 </v>
   <v>       0.02899011       0.01881793       0.31323231 </v>
  </varray>
  <varray name="stress" >
   <v>      -5.88713752      -0.01316043      -0.03925044 </v>
   <v>      -0.01316042      -5.83984126      -0.00105494 </v>
   <v>      -0.03925050      -0.00105509       4.50536606 </v>
  </varray>
  <energy>
   <i name="e_fr_energy">   -190.69296210 </i>
   <i name="e_wo_entrp">   -190.59158246 </i>
   <i name="e_0_energy">     -0.20275926 </i>
  </energy>
  <time name="totalsc">  359.87  360.82</time>
 </calculation>
 <calculation>
  <scstep>
   <time name="dav">   21.90   21.95</time>
   <time name="total">   22.40   22.46</time>
   <energy>
    <i name="alphaZ">     90.37114147 </i>
    <i name="ewald">  44754.38192351 </i>
    <i name="hartreedc"> -50799.97434471 </i>
    <i name="XCdc">   -231.70463129 </i>
    <i name="pawpsdc">   4062.91589789 </i>
    <i name="pawaedc">  -3478.78236425 </i>
    <i name="eentropy">     -0.18280145 </i>
    <i name="bandstr">  -1350.61840440 </i>
    <i name="atom">   6761.44252427 </i>
    <i name="e_fr_energy">   -192.15105895 </i>
    <i name="e_wo_entrp">   -191.96825750 </i>
    <i name="e_0_energy">   -192.05965822 </i>
   </energy>
  </scstep>
  <scstep>
   <time name="dav">   30.55   30.63</time>
   <time name="total">   31.05   31.14</time>
   <energy>
    <i name="e_fr_energy">   -191.83329574 </i>
    <i name="e_wo_entrp">   -191.64373981 </i>
    <i name="e_0_energy">   -191.73851777 </i>
   </energy>
  </scstep>
  <scstep>
   <time name="dav">   30.37   30.44</time>
   <time name="total">   30.88   30.96</time>
   <energy>
    <i name="e_fr_energy">   -191.91980818 </i>
    <i name="e_wo_entrp">   -191.72002701 </i>
    <i name="e_0_energy">   -191.81991760 </i>
   </energy>
  </scstep>
  <scstep>
   <time name="dav">   30.44   30.52</time>
   <time name="total">   30.95   31.03</time>
   <energy>
    <i name="e_fr_energy">   -191.63149422 </i>
    <i name="e_wo_entrp">   -191.44828365 </i>
    <i name="e_0_energy">   -191.53988893 </i>
   </energy>
  </scstep>
  <scstep>
   <time name="dav">   29.97   30.04</time>
   <time name="total">   30.48   30.56</time>
   <energy>
    <i name="e_fr_energy">   -191.38497094 </i>
    <i name="e_wo_entrp">   -191.19314314 </i>
    <i name="e_0_energy">   -191.28905704 </i>
   </energy>
  </scstep>
  <scstep>
   <time name="dav">   31.40   31.48</time>
   <time name="total">   31.90   31.99</time>
   <energy>
    <i name="e_fr_energy">   -191.40086653 </i>
    <i name="e_wo_entrp">   -191.20778942 </i>
    <i name="e_0_energy">   -191.30432797 </i>
   </energy>
  </scstep>
  <scstep>
   <time name="dav">   30.04   30.12</time>
   <time name="total">   30.55   30.63</time>
   <energy>
    <i name="e_fr_energy">   -191.36970301 </i>
    <i name="e_wo_entrp">   -191.17845522 </i>
    <i name="e_0_energy">   -191.27407912 </i>
   </energy>
  </scstep>
  <scstep>
   <time name="dav">   26.10   26.16</time>
   <time name="total">   26.60   26.67</time>
   <energy>
    <i name="e_fr_energy">   -191.36313409 </i>
    <i name="e_wo_entrp">   -191.17167478 </i>
    <i name="e_0_energy">   -191.26740444 </i>
   </energy>
  </scstep>
  <scstep>
   <time name="dav">   31.86   31.94</time>
   <time name="total">   32.37   32.45</time>
   <energy>
    <i name="e_fr_energy">   -191.36380569 </i>
    <i name="e_wo_entrp">   -191.17214183 </i>
    <i name="e_0_energy">   -191.26797376 </i>
   </energy>
  </scstep>
  <scstep>
   <time name="dav">   28.13   28.19</time>
   <time name="total">   28.63   28.71</time>
   <energy>
    <i name="e_fr_energy">   -191.36308419 </i>
    <i name="e_wo_entrp">   -191.17144981 </i>
    <i name="e_0_energy">   -191.26726700 </i>
   </energy>
  </scstep>
  <scstep>
   <time name="dav">   26.96   27.02</time>
   <time name="total">   26.99   27.07</time>
   <energy>
    <i name="alphaZ">     90.37114147 </i>
    <i name="ewald">  44754.38192351 </i>
    <i name="hartreedc"> -50764.20252182 </i>
    <i name="XCdc">   -233.31895724 </i>
    <i name="pawpsdc">   4085.14761204 </i>
    <i name="pawaedc">  -3501.09213248 </i>
    <i name="eentropy">     -0.19162631 </i>
    <i name="bandstr">  -1383.90105257 </i>
    <i name="atom">   6761.44252427 </i>
    <i name="e_fr_energy">   -191.36308913 </i>
    <i name="e_wo_entrp">   -191.17146282 </i>
    <i name="e_0_energy">   -191.26727598 </i>
   </energy>
  </scstep>
  <structure>
   <crystal>
    <varray name="basis" >
     <v>       8.26638587       4.77539817       0.00000000 </v>
     <v>      -8.26715693       4.77673375       0.00000000 </v>
     <v>       0.00000000       0.00000000      30.00000000 </v>
    </varray>
    <i name="volume">   2368.95871250 </i>
    <varray name="rec_basis" >
     <v>       0.06049156       0.10469355       0.00000000 </v>
     <v>      -0.06047465       0.10468379       0.00000000 </v>
     <v>       0.00000000       0.00000000       0.03333333 </v>
    </varray>
   </crystal>
   <varray name="positions" >
    <v>       0.00928023       0.67585192       0.00000064 </v>
    <v>       1.00582617       0.33271882       0.00038294 </v>
    <v>       0.66609461       0.67243127      -0.00037513 </v>
    <v>       0.01212324       0.00554165       0.00021713 </v>
    <v>       0.33861017       0.67866704      -0.00021742 </v>
    <v>       0.33332526      -0.00002755      -0.00000380 </v>
    <v>       0.32574158       0.32135771      -0.00007981 </v>
    <v>       0.65477148      -0.00733641       0.00007931 </v>
    <v>       0.65672561       0.32327726       0.00000012 </v>
    <v>       0.10842059       0.22584196       0.94745512 </v>
    <v>       0.22343008       0.11198000       0.05411791 </v>
    <v>       0.10487530       0.55298160       0.95008531 </v>
    <v>       0.21699251       0.44169205       0.05057830 </v>
    <v>       0.10747135       0.88155009       0.94753464 </v>
    <v>       0.21488750       0.77414332       0.05247211 </v>
    <v>       0.44352607       0.22206497       0.94628944 </v>
    <v>       0.55539135       0.11018441       0.05371788 </v>
    <v>       0.44973108       0.55722368       0.94960976 </v>
    <v>       0.55760624       0.44973999       0.05062493 </v>
    <v>       0.44531460       0.89009649       0.94588737 </v>
    <v>       0.55913024       0.77512999       0.05255479 </v>
    <v>       0.78315153       0.22430722       0.94938812 </v>
    <v>       0.89059798       0.11648660       0.05037151 </v>
    <v>       0.78032931       0.56001393       0.95152597 </v>
    <v>       0.89338965       0.44695903       0.04845270 </v>
    <v>       0.77507157       0.88374985       0.94940236 </v>
    <v>       0.88639918       0.77158754       0.04992768 </v>
   </varray>
  </structure>
  <varray name="forces" >
   <v>      -0.00283747       0.25553909      -0.00081409 </v>
   <v>       0.27299333       0.12701514      -0.00791274 </v>
   <v>      -0.27807754       0.12574691       0.00265088 </v>
   <v>       0.16842165       0.32607615      -0.02555180 </v>
   <v>      -0.16076639       0.34302497       0.02490883 </v>
   <v>       0.00635776       0.18653201      -0.00112134 </v>
   <v>       0.29472552      -0.35976414      -0.00504744 </v>
   <v>      -0.28789679      -0.38205156       0.00716647 </v>
   <v>      -0.00892912      -0.41273372      -0.00001560 </v>
   <v>       0.06372066       0.00443832      -0.18249941 </v>
   <v>       0.12153375      -0.03992077       0.27817315 </v>
   <v>       0.03819523       0.12257635       0.00631605 </v>
   <v>       0.06544988       0.19256480      -0.09084995 </v>
   <v>      -0.01165403       0.10548348      -0.10984994 </v>
   <v>       0.01076710       0.10666181       0.11182920 </v>
   <v>      -0.03259193      -0.09709659      -0.23715624 </v>
   <v>       0.02981659      -0.09733658       0.24342741 </v>
   <v>      -0.08083932      -0.17969868       0.16677605 </v>
   <v>      -0.00938355      -0.11776854      -0.08106533 </v>
   <v>      -0.11958064      -0.04487066      -0.27501418 </v>
   <v>      -0.06248160       0.00565940       0.16036853 </v>
   <v>       0.00852120      -0.11996686       0.06672326 </v>
   <v>       0.08285024      -0.18437513      -0.15253383 </v>
   <v>       0.04156232      -0.08452206       0.18527565 </v>
   <v>      -0.04564145      -0.08295506      -0.17310746 </v>
   <v>      -0.06287342       0.18221202       0.10820080 </v>
   <v>      -0.04136197       0.11952989      -0.01927694 </v>
  </varray>
  <varray name="stress" >
   <v>      -0.22501007       0.03833402       0.34467094 </v>
   <v>       0.03833401       0.27654857       0.01582492 </v>
   <v>       0.34467096       0.01582502      -0.48408183 </v>
  </varray>
  <energy>
   <i name="e_fr_energy">   -191.36308913 </i>
   <i name="e_wo_entrp">   -191.26727598 </i>
   <i name="e_0_energy">     -0.19162631 </i>
  </energy>
  <time name="totalsc">  364.47  365.43</time>
 </calculation>
 <calculation>
  <scstep>
   <time name="dav">   21.87   21.92</time>
   <time name="total">   22.37   22.43</time>
   <energy>
    <i name="alphaZ">     90.37134288 </i>
    <i name="ewald">  44734.98991915 </i>
    <i name="hartreedc"> -50745.45749140 </i>
    <i name="XCdc">   -233.40267235 </i>
    <i name="pawpsdc">   4085.33812102 </i>
    <i name="pawaedc">  -3501.28015059 </i>
    <i name="eentropy">     -0.19516475 </i>
    <i name="bandstr">  -1383.25946078 </i>
    <i name="atom">   6761.44252427 </i>
    <i name="e_fr_energy">   -191.45303255 </i>
    <i name="e_wo_entrp">   -191.25786780 </i>
    <i name="e_0_energy">   -191.35545018 </i>
   </energy>
  </scstep>
  <scstep>
   <time name="dav">   31.89   31.97</time>
   <time name="total">   32.40   32.48</time>
   <energy>
    <i name="e_fr_energy">   -191.53612625 </i>
    <i name="e_wo_entrp">   -191.33041081 </i>
    <i name="e_0_energy">   -191.43326853 </i>
   </energy>
  </scstep>
  <scstep>
   <time name="dav">   30.83   30.91</time>
   <time name="total">   31.34   31.42</time>
   <energy>
    <i name="e_fr_energy">   -191.46568474 </i>
    <i name="e_wo_entrp">   -191.26907738 </i>
    <i name="e_0_energy">   -191.36738106 </i>
   </energy>
  </scstep>
  <scstep>
   <time name="dav">   28.01   28.08</time>
   <time name="total">   28.51   28.59</time>
   <energy>
    <i name="e_fr_energy">   -191.46455738 </i>
    <i name="e_wo_entrp">   -191.26754530 </i>
    <i name="e_0_energy">   -191.36605134 </i>
   </energy>
  </scstep>
  <scstep>
   <time name="dav">   29.05   29.12</time>
   <time name="total">   29.55   29.63</time>
   <energy>
    <i name="e_fr_energy">   -191.46383075 </i>
    <i name="e_wo_entrp">   -191.26610729 </i>
    <i name="e_0_energy">   -191.36496902 </i>
   </energy>
  </scstep>
  <scstep>
   <time name="dav">   29.62   29.69</time>
   <time name="total">   30.13   30.20</time>
   <energy>
    <i name="e_fr_energy">   -191.46283460 </i>
    <i name="e_wo_entrp">   -191.26528875 </i>
    <i name="e_0_energy">   -191.36406167 </i>
   </energy>
  </scstep>
  <scstep>
   <time name="dav">   28.81   28.88</time>
   <time name="total">   29.31   29.39</time>
   <energy>
    <i name="e_fr_energy">   -191.46251134 </i>
    <i name="e_wo_entrp">   -191.26487030 </i>
    <i name="e_0_energy">   -191.36369082 </i>
   </energy>
  </scstep>
  <scstep>
   <time name="dav">   24.89   24.95</time>
   <time name="total">   24.93   25.00</time>
   <energy>
    <i name="alphaZ">     90.37134288 </i>
    <i name="ewald">  44734.98991915 </i>
    <i name="hartreedc"> -50746.48361738 </i>
    <i name="XCdc">   -233.37983676 </i>
    <i name="pawpsdc">   4083.69423251 </i>
    <i name="pawaedc">  -3499.60023574 </i>
    <i name="eentropy">     -0.19758613 </i>
    <i name="bandstr">  -1382.29925334 </i>
    <i name="atom">   6761.44252427 </i>
    <i name="e_fr_energy">   -191.46251054 </i>
    <i name="e_wo_entrp">   -191.26492441 </i>
    <i name="e_0_energy">   -191.36371748 </i>
   </energy>
  </scstep>
  <structure>
   <crystal>
    <varray name="basis" >
     <v>       8.26133752       4.77942715       0.00000000 </v>
     <v>      -8.26113677       4.77908244       0.00000000 </v>
     <v>       0.00000000       0.00000000      30.00000000 </v>
    </varray>
    <i name="volume">   2368.95343272 </i>
    <varray name="rec_basis" >
     <v>       0.06052144       0.10461755       0.00000000 </v>
     <v>      -0.06052581       0.10462009       0.00000000 </v>
     <v>       0.00000000       0.00000000       0.03333333 </v>
    </varray>
   </crystal>
   <varray name="positions" >
    <v>       0.01059167       0.67717953      -0.00000067 </v>
    <v>       1.00728820       0.33255889       0.00037169 </v>
    <v>       0.66591329       0.67390125      -0.00037237 </v>
    <v>       0.01430866       0.00672393       0.00017571 </v>
    <v>       0.33990009       0.68091539      -0.00017704 </v>
    <v>       0.33429934       0.00090899      -0.00000563 </v>
    <v>       0.32476101       0.31863000      -0.00008725 </v>
    <v>       0.65195038      -0.00844943       0.00009018 </v>
    <v>       0.65457300       0.32117686       0.00000010 </v>
    <v>       0.10862552       0.22567767       0.94714590 </v>
    <v>       0.22358553       0.11141770       0.05458332 </v>
    <v>       0.10560740       0.55349251       0.95008601 </v>
    <v>       0.21816185       0.44248098       0.05043903 </v>
    <v>       0.10797087       0.88211420       0.94734368 </v>
    <v>       0.21545507       0.77465143       0.05266630 </v>
    <v>       0.44293143       0.22166196       0.94589148 </v>
    <v>       0.55497892       0.10959675       0.05412603 </v>
    <v>       0.44858253       0.55654952       0.94987220 </v>
    <v>       0.55697979       0.44917330       0.05050178 </v>
    <v>       0.44473273       0.89022094       0.94542710 </v>
    <v>       0.55897555       0.77533762       0.05282821 </v>
    <v>       0.78257142       0.22367233       0.94948809 </v>
    <v>       0.88990609       0.11530888       0.05013207 </v>
    <v>       0.78002525       0.55946575       0.95182045 </v>
    <v>       0.89283755       0.44667477       0.04817784 </v>
    <v>       0.77581563       0.88485920       0.94956965 </v>
    <v>       0.88688567       0.77231357       0.04990604 </v>
   </varray>
  </structure>
  <varray name="forces" >
   <v>       0.00247175       0.28553388       0.00065571 </v>
   <v>       0.28452168       0.17905546       0.04020770 </v>
   <v>      -0.26818666       0.17705026      -0.03984139 </v>
   <v>       0.21420722       0.34545570       0.00372379 </v>
   <v>      -0.22366546       0.33100577      -0.00073447 </v>
   <v>       0.00153727       0.16822484       0.00364803 </v>
   <v>       0.29879770      -0.39861981       0.02537605 </v>
   <v>      -0.31414209      -0.38567537      -0.02606255 </v>
   <v>       0.00464476      -0.45245363      -0.00056043 </v>
   <v>       0.04973759       0.00758726      -0.16462955 </v>
   <v>       0.10282444      -0.03291069       0.22785177 </v>
   <v>       0.03303419       0.07506714       0.03771662 </v>
   <v>       0.07214701       0.13853319      -0.13641300 </v>
   <v>       0.00090485       0.07680363      -0.09318139 </v>
   <v>      -0.00139027       0.07644773       0.09449176 </v>
   <v>      -0.01824923      -0.06399807      -0.22649484 </v>
   <v>       0.01854297      -0.06528278       0.22667838 </v>
   <v>      -0.04697585      -0.15103574       0.21353684 </v>
   <v>      -0.00530212      -0.10016375      -0.09721075 </v>
   <v>      -0.10293359      -0.03077793      -0.23478894 </v>
   <v>      -0.05094913       0.00587927       0.16998729 </v>
   <v>       0.00613596      -0.09971418       0.10098960 </v>
   <v>       0.04531176      -0.14903311      -0.21824681 </v>
   <v>       0.03103816      -0.07799824       0.24220993 </v>
   <v>      -0.02759003      -0.07924425      -0.24559675 </v>
   <v>      -0.07434246       0.14344399       0.13396486 </v>
   <v>      -0.03213044       0.07681944      -0.03727743 </v>
  </varray>
  <varray name="stress" >
   <v>      -0.02527221      -0.02093619       0.26486871 </v>
   <v>      -0.02093630       0.20195108      -0.01178712 </v>
   <v>       0.26486871      -0.01178701      -1.18179721 </v>
  </varray>
  <energy>
   <i name="e_fr_energy">   -191.46251054 </i>
   <i name="e_wo_entrp">   -191.36371748 </i>
   <i name="e_0_energy">     -0.19758613 </i>
  </energy>
  <time name="totalsc">  270.30  271.02</time>
 </calculation>
 <calculation>
  <scstep>
   <time name="dav">   26.26   26.32</time>
   <time name="total">   26.76   26.83</time>
   <energy>
    <i name="alphaZ">     90.37094923 </i>
    <i name="ewald">  44734.81255714 </i>
    <i name="hartreedc"> -50746.34532159 </i>
    <i name="XCdc">   -233.37828629 </i>
    <i name="pawpsdc">   4083.64734779 </i>
    <i name="pawaedc">  -3499.55317587 </i>
    <i name="eentropy">     -0.19752034 </i>
    <i name="bandstr">  -1382.26208479 </i>
    <i name="atom">   6761.44252427 </i>
    <i name="e_fr_energy">   -191.46301046 </i>
    <i name="e_wo_entrp">   -191.26549012 </i>
    <i name="e_0_energy">   -191.36425029 </i>
   </energy>
  </scstep>
  <scstep>
   <time name="dav">   20.97   21.02</time>
   <time name="total">   21.47   21.53</time>
   <energy>
    <i name="e_fr_energy">   -191.46315270 </i>
    <i name="e_wo_entrp">   -191.26543948 </i>
    <i name="e_0_energy">   -191.36429609 </i>
   </energy>
  </scstep>
  <scstep>
   <time name="dav">   20.34   20.38</time>
   <time name="total">   20.84   20.90</time>
   <energy>
    <i name="e_fr_energy">   -191.46302382 </i>
    <i name="e_wo_entrp">   -191.26543561 </i>
    <i name="e_0_energy">   -191.36422972 </i>
   </energy>
  </scstep>
  <scstep>
   <time name="dav">   17.89   17.93</time>
   <time name="total">   17.92   17.97</time>
   <energy>
    <i name="alphaZ">     90.37094923 </i>
    <i name="ewald">  44734.81255714 </i>
    <i name="hartreedc"> -50746.54328264 </i>
    <i name="XCdc">   -233.37700387 </i>
    <i name="pawpsdc">   4083.60978548 </i>
    <i name="pawaedc">  -3499.51534751 </i>
    <i name="eentropy">     -0.19753346 </i>
    <i name="bandstr">  -1382.06568241 </i>
    <i name="atom">   6761.44252427 </i>
    <i name="e_fr_energy">   -191.46303377 </i>
    <i name="e_wo_entrp">   -191.26550031 </i>
    <i name="e_0_energy">   -191.36426704 </i>
   </energy>
  </scstep>
  <structure>
   <crystal>
    <varray name="basis" >
     <v>       8.26133994       4.77944293       0.00000000 </v>
     <v>      -8.26114235       4.77910367       0.00000000 </v>
     <v>       0.00000000       0.00000000      30.00000000 </v>
    </varray>
    <i name="volume">   2368.96375181 </i>
    <varray name="rec_basis" >
     <v>       0.06052145       0.10461716       0.00000000 </v>
     <v>      -0.06052574       0.10461967       0.00000000 </v>
     <v>       0.00000000       0.00000000       0.03333333 </v>
    </varray>
   </crystal>
   <varray name="positions" >
    <v>       0.01059985       0.67718762      -0.00000067 </v>
    <v>       1.00729812       0.33255938       0.00037206 </v>
    <v>       0.66591400       0.67391083      -0.00037273 </v>
    <v>       0.01432205       0.00673019       0.00017575 </v>
    <v>       0.33990577       0.68092850      -0.00017705 </v>
    <v>       0.33430420       0.00091380      -0.00000560 </v>
    <v>       0.32475459       0.31861363      -0.00008702 </v>
    <v>       0.65193414      -0.00845521       0.00008994 </v>
    <v>       0.65456014       0.32116384       0.00000010 </v>
    <v>       0.10862664       0.22567705       0.94714452 </v>
    <v>       0.22358629       0.11141502       0.05458527 </v>
[...]
      <set comment="kpoint 31">
       <r>  -17.5607    1.0000 </r>
       <r>  -17.3010    1.0000 </r>
       <r>  -16.8955    1.0000 </r>
       <r>  -16.7274    1.0000 </r>
       <r>  -16.5340    1.0000 </r>
       <r>  -16.4696    1.0000 </r>
       <r>  -16.3240    1.0000 </r>
       <r>  -16.2103    1.0000 </r>
       <r>  -16.1634    1.0000 </r>
       <r>  -16.0591    1.0000 </r>
       <r>  -15.9453    1.0000 </r>
       <r>  -15.8811    1.0000 </r>
       <r>  -15.7465    1.0000 </r>
       <r>  -15.5931    1.0000 </r>
       <r>  -15.5569    1.0000 </r>
       <r>  -15.4313    1.0000 </r>
       <r>  -15.3286    1.0000 </r>
       <r>  -15.2641    1.0000 </r>
       <r>   -9.7989    1.0000 </r>
       <r>   -9.5164    1.0000 </r>
       <r>   -9.3496    1.0000 </r>
       <r>   -9.0619    1.0000 </r>
       <r>   -8.8224    1.0000 </r>
       <r>   -8.7302    1.0000 </r>
       <r>   -8.6112    1.0000 </r>
       <r>   -8.5487    1.0000 </r>
       <r>   -8.4716    1.0000 </r>
       <r>   -8.2925    1.0000 </r>
       <r>   -8.2618    1.0000 </r>
       <r>   -8.1955    1.0000 </r>
       <r>   -8.1124    1.0000 </r>
       <r>   -8.0537    1.0000 </r>
       <r>   -7.9822    1.0000 </r>
       <r>   -7.9271    1.0000 </r>
       <r>   -7.8343    1.0000 </r>
       <r>   -7.7805    1.0000 </r>
       <r>   -7.5821    1.0000 </r>
       <r>   -7.4212    1.0000 </r>
       <r>   -7.3511    1.0000 </r>
       <r>   -7.2458    1.0000 </r>
       <r>   -7.1701    1.0000 </r>
       <r>   -7.0933    1.0000 </r>
       <r>   -6.9804    1.0000 </r>
       <r>   -6.9277    1.0000 </r>
       <r>   -6.8453    1.0000 </r>
       <r>   -6.7371    1.0000 </r>
       <r>   -6.6281    1.0000 </r>
       <r>   -6.5802    1.0000 </r>
       <r>   -6.5341    1.0000 </r>
       <r>   -6.5004    1.0000 </r>
       <r>   -6.4708    1.0000 </r>
       <r>   -6.3497    1.0000 </r>
       <r>   -6.3081    1.0000 </r>
       <r>   -6.2246    1.0000 </r>
       <r>   -6.1619    1.0000 </r>
       <r>   -6.0194    1.0000 </r>
       <r>   -5.9823    1.0000 </r>
       <r>   -5.8885    1.0000 </r>
       <r>   -5.8321    1.0000 </r>
       <r>   -5.7170    1.0000 </r>
       <r>   -5.6743    1.0000 </r>
       <r>   -5.5394    1.0000 </r>
       <r>   -5.4455    1.0000 </r>
       <r>   -5.4027    1.0000 </r>
       <r>   -5.1853    1.0000 </r>
       <r>   -5.0837    1.0000 </r>
       <r>   -5.0451    1.0000 </r>
       <r>   -4.8994    1.0000 </r>
       <r>   -4.8120    1.0000 </r>
       <r>   -4.7078    1.0000 </r>
       <r>   -4.6060    1.0000 </r>
       <r>   -4.5050    1.0000 </r>
       <r>   -4.3325    1.0000 </r>
       <r>   -4.2286    1.0000 </r>
       <r>   -4.1307    1.0000 </r>
       <r>   -3.9222    1.0000 </r>
       <r>   -3.8519    1.0000 </r>
       <r>   -3.7274    0.9997 </r>
       <r>   -3.6361    0.9973 </r>
       <r>   -3.2112    0.4123 </r>
       <r>   -2.9772    0.0303 </r>
       <r>   -2.8222    0.0015 </r>
       <r>   -2.7434    0.0002 </r>
       <r>   -2.5937    0.0000 </r>
       <r>   -2.5551    0.0000 </r>
       <r>   -2.4510    0.0000 </r>
       <r>   -2.2972    0.0000 </r>
       <r>   -2.1948    0.0000 </r>
       <r>   -2.0463    0.0000 </r>
       <r>   -1.9491    0.0000 </r>
       <r>   -1.7753    0.0000 </r>
       <r>   -1.3822    0.0000 </r>
       <r>   -1.2988    0.0000 </r>
       <r>   -1.2637    0.0000 </r>
       <r>   -1.2220    0.0000 </r>
       <r>   -1.1386    0.0000 </r>
       <r>   -1.0679    0.0000 </r>
       <r>   -0.9857    0.0000 </r>
       <r>   -0.9114    0.0000 </r>
       <r>   -0.8625    0.0000 </r>
       <r>   -0.8222    0.0000 </r>
       <r>   -0.7549    0.0000 </r>
       <r>   -0.6315    0.0000 </r>
       <r>   -0.5289    0.0000 </r>
       <r>   -0.4977    0.0000 </r>
       <r>   -0.3621    0.0000 </r>
       <r>   -0.3216    0.0000 </r>
       <r>   -0.0787    0.0000 </r>
       <r>   -0.0192    0.0000 </r>
       <r>    0.2437    0.0000 </r>
       <r>    0.4053    0.0000 </r>
       <r>    0.5651    0.0000 </r>
       <r>    0.6863    0.0000 </r>
       <r>    0.9795    0.0000 </r>
       <r>    1.1293    0.0000 </r>
       <r>    1.2060    0.0000 </r>
       <r>    1.6019    0.0000 </r>
       <r>    2.1462    0.0000 </r>
       <r>    2.3042    0.0000 </r>
       <r>    2.3926    0.0000 </r>
      </set>
      <set comment="kpoint 32">
       <r>  -17.5624    1.0000 </r>
       <r>  -17.2687    1.0000 </r>
       <r>  -16.9762    1.0000 </r>
       <r>  -16.7275    1.0000 </r>
       <r>  -16.5179    1.0000 </r>
       <r>  -16.3910    1.0000 </r>
       <r>  -16.2928    1.0000 </r>
       <r>  -16.2300    1.0000 </r>
       <r>  -16.1626    1.0000 </r>
       <r>  -16.1102    1.0000 </r>
       <r>  -15.9806    1.0000 </r>
       <r>  -15.8717    1.0000 </r>
       <r>  -15.7487    1.0000 </r>
       <r>  -15.5791    1.0000 </r>
       <r>  -15.5505    1.0000 </r>
       <r>  -15.4313    1.0000 </r>
       <r>  -15.3261    1.0000 </r>
       <r>  -15.2628    1.0000 </r>
       <r>   -9.7406    1.0000 </r>
       <r>   -9.6151    1.0000 </r>
       <r>   -9.4238    1.0000 </r>
       <r>   -9.0259    1.0000 </r>
       <r>   -8.7047    1.0000 </r>
       <r>   -8.6733    1.0000 </r>
       <r>   -8.6054    1.0000 </r>
       <r>   -8.4695    1.0000 </r>
       <r>   -8.4148    1.0000 </r>
       <r>   -8.3689    1.0000 </r>
       <r>   -8.2662    1.0000 </r>
       <r>   -8.2583    1.0000 </r>
       <r>   -8.1659    1.0000 </r>
       <r>   -8.1140    1.0000 </r>
       <r>   -8.0083    1.0000 </r>
       <r>   -7.9456    1.0000 </r>
       <r>   -7.8339    1.0000 </r>
       <r>   -7.8021    1.0000 </r>
       <r>   -7.5712    1.0000 </r>
       <r>   -7.4116    1.0000 </r>
       <r>   -7.3392    1.0000 </r>
       <r>   -7.2873    1.0000 </r>
       <r>   -7.1546    1.0000 </r>
       <r>   -7.0378    1.0000 </r>
       <r>   -6.9592    1.0000 </r>
       <r>   -6.9286    1.0000 </r>
       <r>   -6.8466    1.0000 </r>
       <r>   -6.7371    1.0000 </r>
       <r>   -6.6457    1.0000 </r>
       <r>   -6.5938    1.0000 </r>
       <r>   -6.5304    1.0000 </r>
       <r>   -6.4878    1.0000 </r>
       <r>   -6.4565    1.0000 </r>
       <r>   -6.3744    1.0000 </r>
       <r>   -6.3606    1.0000 </r>
       <r>   -6.1729    1.0000 </r>
       <r>   -6.1280    1.0000 </r>
       <r>   -6.0290    1.0000 </r>
       <r>   -5.9559    1.0000 </r>
       <r>   -5.8745    1.0000 </r>
       <r>   -5.7735    1.0000 </r>
       <r>   -5.7308    1.0000 </r>
       <r>   -5.6392    1.0000 </r>
       <r>   -5.5602    1.0000 </r>
       <r>   -5.4950    1.0000 </r>
       <r>   -5.4005    1.0000 </r>
       <r>   -5.1699    1.0000 </r>
       <r>   -5.0763    1.0000 </r>
       <r>   -4.9875    1.0000 </r>
       <r>   -4.8599    1.0000 </r>
       <r>   -4.8412    1.0000 </r>
       <r>   -4.7830    1.0000 </r>
       <r>   -4.7369    1.0000 </r>
       <r>   -4.5119    1.0000 </r>
       <r>   -4.3344    1.0000 </r>
       <r>   -4.2269    1.0000 </r>
       <r>   -4.1060    1.0000 </r>
       <r>   -3.9624    1.0000 </r>
       <r>   -3.7962    1.0000 </r>
       <r>   -3.7130    0.9996 </r>
       <r>   -3.6361    0.9973 </r>
       <r>   -3.1694    0.3026 </r>
       <r>   -3.0083    0.0488 </r>
       <r>   -2.8517    0.0029 </r>
       <r>   -2.7170    0.0001 </r>
       <r>   -2.5827    0.0000 </r>
       <r>   -2.5543    0.0000 </r>
       <r>   -2.4556    0.0000 </r>
       <r>   -2.3037    0.0000 </r>
       <r>   -2.1829    0.0000 </r>
       <r>   -2.0418    0.0000 </r>
       <r>   -1.9674    0.0000 </r>
       <r>   -1.7859    0.0000 </r>
       <r>   -1.4288    0.0000 </r>
       <r>   -1.3120    0.0000 </r>
       <r>   -1.2273    0.0000 </r>
       <r>   -1.2137    0.0000 </r>
       <r>   -1.1380    0.0000 </r>
       <r>   -1.0372    0.0000 </r>
       <r>   -0.9723    0.0000 </r>
       <r>   -0.9116    0.0000 </r>
       <r>   -0.8555    0.0000 </r>
       <r>   -0.8032    0.0000 </r>
       <r>   -0.6825    0.0000 </r>
       <r>   -0.6737    0.0000 </r>
       <r>   -0.6100    0.0000 </r>
       <r>   -0.4959    0.0000 </r>
       <r>   -0.3432    0.0000 </r>
       <r>   -0.3199    0.0000 </r>
       <r>   -0.0357    0.0000 </r>
       <r>    0.0630    0.0000 </r>
       <r>    0.2159    0.0000 </r>
       <r>    0.4156    0.0000 </r>
       <r>    0.5165    0.0000 </r>
       <r>    0.7061    0.0000 </r>
       <r>    0.9238    0.0000 </r>
       <r>    1.0948    0.0000 </r>
       <r>    1.2169    0.0000 </r>
       <r>    1.5902    0.0000 </r>
       <r>    2.1179    0.0000 </r>
       <r>    2.2707    0.0000 </r>
       <r>    2.5785    0.0000 </r>
      </set>
      <set comment="kpoint 33">
       <r>  -17.5373    1.0000 </r>
       <r>  -17.3369    1.0000 </r>
       <r>  -16.8829    1.0000 </r>
       <r>  -16.7252    1.0000 </r>
       <r>  -16.5240    1.0000 </r>
       <r>  -16.4888    1.0000 </r>
       <r>  -16.3150    1.0000 </r>
       <r>  -16.2083    1.0000 </r>
       <r>  -16.1751    1.0000 </r>
       <r>  -16.0989    1.0000 </r>
       <r>  -15.8998    1.0000 </r>
       <r>  -15.8591    1.0000 </r>
       <r>  -15.7500    1.0000 </r>
       <r>  -15.6083    1.0000 </r>
       <r>  -15.5624    1.0000 </r>
       <r>  -15.4341    1.0000 </r>
       <r>  -15.3211    1.0000 </r>
       <r>  -15.2617    1.0000 </r>
       <r>   -9.8012    1.0000 </r>
       <r>   -9.5265    1.0000 </r>
       <r>   -9.3943    1.0000 </r>
       <r>   -8.9910    1.0000 </r>
       <r>   -8.8120    1.0000 </r>
       <r>   -8.7374    1.0000 </r>
       <r>   -8.6691    1.0000 </r>
       <r>   -8.5849    1.0000 </r>
       <r>   -8.4294    1.0000 </r>
       <r>   -8.2996    1.0000 </r>
       <r>   -8.2531    1.0000 </r>
       <r>   -8.1553    1.0000 </r>
       <r>   -8.1256    1.0000 </r>
       <r>   -8.0401    1.0000 </r>
       <r>   -7.9976    1.0000 </r>
       <r>   -7.8935    1.0000 </r>
       <r>   -7.8376    1.0000 </r>
       <r>   -7.8136    1.0000 </r>
       <r>   -7.5386    1.0000 </r>
       <r>   -7.4456    1.0000 </r>
       <r>   -7.4137    1.0000 </r>
       <r>   -7.3494    1.0000 </r>
       <r>   -7.1204    1.0000 </r>
       <r>   -7.0141    1.0000 </r>
       <r>   -6.9601    1.0000 </r>
       <r>   -6.8957    1.0000 </r>
       <r>   -6.8085    1.0000 </r>
       <r>   -6.7556    1.0000 </r>
       <r>   -6.6828    1.0000 </r>
       <r>   -6.5989    1.0000 </r>
       <r>   -6.5301    1.0000 </r>
       <r>   -6.4968    1.0000 </r>
       <r>   -6.4433    1.0000 </r>
       <r>   -6.3645    1.0000 </r>
       <r>   -6.2830    1.0000 </r>
       <r>   -6.1764    1.0000 </r>
       <r>   -6.1176    1.0000 </r>
       <r>   -6.0475    1.0000 </r>
       <r>   -5.9886    1.0000 </r>
       <r>   -5.9156    1.0000 </r>
       <r>   -5.8448    1.0000 </r>
       <r>   -5.7215    1.0000 </r>
       <r>   -5.6515    1.0000 </r>
       <r>   -5.5262    1.0000 </r>
       <r>   -5.4856    1.0000 </r>
       <r>   -5.4227    1.0000 </r>
       <r>   -5.1762    1.0000 </r>
       <r>   -5.0955    1.0000 </r>
       <r>   -5.0346    1.0000 </r>
       <r>   -4.8732    1.0000 </r>
       <r>   -4.8192    1.0000 </r>
       <r>   -4.6635    1.0000 </r>
       <r>   -4.6508    1.0000 </r>
       <r>   -4.5235    1.0000 </r>
       <r>   -4.3466    1.0000 </r>
       <r>   -4.2540    1.0000 </r>
       <r>   -4.1055    1.0000 </r>
       <r>   -4.0435    1.0000 </r>
       <r>   -3.8073    1.0000 </r>
       <r>   -3.7150    0.9996 </r>
       <r>   -3.6104    0.9954 </r>
       <r>   -3.1223    0.1976 </r>
       <r>   -3.0370    0.0731 </r>
       <r>   -2.9265    0.0127 </r>
       <r>   -2.6837    0.0000 </r>
       <r>   -2.6058    0.0000 </r>
       <r>   -2.5610    0.0000 </r>
       <r>   -2.4191    0.0000 </r>
       <r>   -2.2781    0.0000 </r>
       <r>   -2.1534    0.0000 </r>
       <r>   -2.0312    0.0000 </r>
       <r>   -1.9636    0.0000 </r>
       <r>   -1.7950    0.0000 </r>
       <r>   -1.4692    0.0000 </r>
       <r>   -1.3088    0.0000 </r>
       <r>   -1.2224    0.0000 </r>
       <r>   -1.1986    0.0000 </r>
       <r>   -1.1162    0.0000 </r>
       <r>   -1.0435    0.0000 </r>
       <r>   -0.9654    0.0000 </r>
       <r>   -0.9101    0.0000 </r>
       <r>   -0.8650    0.0000 </r>
       <r>   -0.8079    0.0000 </r>
       <r>   -0.7052    0.0000 </r>
       <r>   -0.6289    0.0000 </r>
       <r>   -0.6102    0.0000 </r>
       <r>   -0.5180    0.0000 </r>
       <r>   -0.3883    0.0000 </r>
       <r>   -0.3637    0.0000 </r>
       <r>    0.0110    0.0000 </r>
       <r>    0.1247    0.0000 </r>
       <r>    0.2353    0.0000 </r>
       <r>    0.4433    0.0000 </r>
       <r>    0.5047    0.0000 </r>
       <r>    0.7250    0.0000 </r>
       <r>    0.8829    0.0000 </r>
       <r>    1.0724    0.0000 </r>
       <r>    1.2291    0.0000 </r>
       <r>    1.5804    0.0000 </r>
       <r>    2.1511    0.0000 </r>
       <r>    2.3043    0.0000 </r>
       <r>    2.4075    0.0000 </r>
      </set>
      <set comment="kpoint 34">
       <r>  -17.5073    1.0000 </r>
       <r>  -17.3946    1.0000 </r>
       <r>  -16.7612    1.0000 </r>
       <r>  -16.6892    1.0000 </r>
       <r>  -16.6685    1.0000 </r>
       <r>  -16.5157    1.0000 </r>
       <r>  -16.3149    1.0000 </r>
       <r>  -16.2058    1.0000 </r>
       <r>  -16.1810    1.0000 </r>
       <r>  -16.0900    1.0000 </r>
       <r>  -15.8602    1.0000 </r>
       <r>  -15.7993    1.0000 </r>
       <r>  -15.7606    1.0000 </r>
       <r>  -15.6548    1.0000 </r>
       <r>  -15.5696    1.0000 </r>
       <r>  -15.4360    1.0000 </r>
       <r>  -15.3184    1.0000 </r>
       <r>  -15.2612    1.0000 </r>
       <r>   -9.8360    1.0000 </r>
       <r>   -9.4579    1.0000 </r>
       <r>   -9.3362    1.0000 </r>
       <r>   -8.9636    1.0000 </r>
       <r>   -8.9343    1.0000 </r>
       <r>   -8.8182    1.0000 </r>
       <r>   -8.7150    1.0000 </r>
       <r>   -8.5945    1.0000 </r>
       <r>   -8.4387    1.0000 </r>
       <r>   -8.3019    1.0000 </r>
       <r>   -8.2282    1.0000 </r>
       <r>   -8.1515    1.0000 </r>
       <r>   -8.1048    1.0000 </r>
       <r>   -7.9897    1.0000 </r>
       <r>   -7.9199    1.0000 </r>
       <r>   -7.8744    1.0000 </r>
       <r>   -7.8227    1.0000 </r>
       <r>   -7.6892    1.0000 </r>
       <r>   -7.6250    1.0000 </r>
       <r>   -7.5217    1.0000 </r>
       <r>   -7.4436    1.0000 </r>
       <r>   -7.3527    1.0000 </r>
       <r>   -7.0895    1.0000 </r>
       <r>   -7.0160    1.0000 </r>
       <r>   -7.0013    1.0000 </r>
       <r>   -6.8930    1.0000 </r>
       <r>   -6.7897    1.0000 </r>
       <r>   -6.7174    1.0000 </r>
       <r>   -6.6639    1.0000 </r>
       <r>   -6.6049    1.0000 </r>
       <r>   -6.5138    1.0000 </r>
       <r>   -6.4995    1.0000 </r>
       <r>   -6.4193    1.0000 </r>
       <r>   -6.3502    1.0000 </r>
       <r>   -6.2903    1.0000 </r>
       <r>   -6.2539    1.0000 </r>
       <r>   -6.1715    1.0000 </r>
       <r>   -6.0558    1.0000 </r>
       <r>   -5.9684    1.0000 </r>
       <r>   -5.8423    1.0000 </r>
       <r>   -5.8301    1.0000 </r>
       <r>   -5.8019    1.0000 </r>
       <r>   -5.6254    1.0000 </r>
       <r>   -5.6120    1.0000 </r>
       <r>   -5.4898    1.0000 </r>
       <r>   -5.3994    1.0000 </r>
       <r>   -5.1898    1.0000 </r>
       <r>   -5.1021    1.0000 </r>
       <r>   -5.0042    1.0000 </r>
       <r>   -4.9163    1.0000 </r>
       <r>   -4.8269    1.0000 </r>
       <r>   -4.5573    1.0000 </r>
       <r>   -4.5505    1.0000 </r>
       <r>   -4.5101    1.0000 </r>
       <r>   -4.3419    1.0000 </r>
       <r>   -4.2724    1.0000 </r>
       <r>   -4.2096    1.0000 </r>
       <r>   -4.0471    1.0000 </r>
       <r>   -3.8348    1.0000 </r>
       <r>   -3.6973    0.9993 </r>
       <r>   -3.6078    0.9951 </r>
       <r>   -3.0932    0.1454 </r>
       <r>   -3.0541    0.0913 </r>
       <r>   -2.9685    0.0263 </r>
       <r>   -2.6691    0.0000 </r>
       <r>   -2.6252    0.0000 </r>
       <r>   -2.5645    0.0000 </r>
       <r>   -2.3949    0.0000 </r>
       <r>   -2.2573    0.0000 </r>
       <r>   -2.1383    0.0000 </r>
       <r>   -2.0142    0.0000 </r>
       <r>   -1.9677    0.0000 </r>
       <r>   -1.7992    0.0000 </r>
       <r>   -1.4838    0.0000 </r>
       <r>   -1.3006    0.0000 </r>
       <r>   -1.2324    0.0000 </r>
       <r>   -1.1926    0.0000 </r>
       <r>   -1.1073    0.0000 </r>
       <r>   -1.0227    0.0000 </r>
       <r>   -0.9853    0.0000 </r>
       <r>   -0.9119    0.0000 </r>
       <r>   -0.8497    0.0000 </r>
       <r>   -0.8365    0.0000 </r>
       <r>   -0.7210    0.0000 </r>
       <r>   -0.6368    0.0000 </r>
       <r>   -0.5714    0.0000 </r>
       <r>   -0.5492    0.0000 </r>
       <r>   -0.3940    0.0000 </r>
       <r>   -0.3815    0.0000 </r>
       <r>    0.0110    0.0000 </r>
       <r>    0.1184    0.0000 </r>
       <r>    0.2838    0.0000 </r>
       <r>    0.4637    0.0000 </r>
       <r>    0.5082    0.0000 </r>
       <r>    0.7277    0.0000 </r>
       <r>    0.8763    0.0000 </r>
       <r>    1.0647    0.0000 </r>
       <r>    1.2345    0.0000 </r>
       <r>    1.5768    0.0000 </r>
       <r>    2.2324    0.0000 </r>
       <r>    2.2636    0.0000 </r>
       <r>    2.3957    0.0000 </r>
      </set>
     </set>
    </set>
   </array>
  </eigenvalues>
  <separator name="orbital magnetization" >
   <v name="MAGDIPOLOUT">      0.00000000      0.00000000      0.00000000</v>
  </separator>
 </calculation>
 <structure name="finalpos" >
  <crystal>
   <varray name="basis" >
    <v>       8.31364745       4.82886802       0.00000000 </v>
    <v>      -8.29850173       4.80294011       0.00000000 </v>
    <v>       0.00000000       0.00000000      30.00000000 </v>
   </varray>
   <i name="volume">   2400.06961372 </i>
   <varray name="rec_basis" >
    <v>       0.06003501       0.10372826       0.00000000 </v>
    <v>      -0.06035910       0.10391758       0.00000000 </v>
    <v>       0.00000000       0.00000000       0.03333333 </v>
   </varray>
  </crystal>
  <varray name="positions" >
   <v>       0.03093570       0.68733801      -0.00102814 </v>
   <v>       1.03884219       0.34797926      -0.00266773 </v>
   <v>       0.63016916       0.65458808       0.00271936 </v>
   <v>       0.03765767       0.01639700      -0.00173512 </v>
   <v>       0.33880110       0.68932956      -0.00009800 </v>
   <v>       0.33560174       0.00121797      -0.00015208 </v>
   <v>       0.33078861       0.31219608       0.00000468 </v>
   <v>       0.63028868      -0.01584886       0.00165781 </v>
   <v>       0.63243878       0.31092615       0.00116530 </v>
   <v>       0.11761479       0.22658781       0.94414234 </v>
   <v>       0.22765274       0.11089574       0.05614453 </v>
   <v>       0.10964015       0.55761935       0.94738904 </v>
   <v>       0.22725355       0.44611987       0.04987501 </v>
   <v>       0.11093676       0.88307669       0.94487379 </v>
   <v>       0.21813178       0.77778075       0.05428357 </v>
   <v>       0.43967327       0.21752215       0.94348677 </v>
   <v>       0.55210908       0.10857815       0.05711249 </v>
   <v>       0.44073216       0.55418566       0.95005177 </v>
   <v>       0.55365453       0.44524236       0.05409586 </v>
   <v>       0.44100646       0.88997393       0.94352963 </v>
   <v>       0.55191408       0.77656498       0.05605683 </v>
   <v>       0.78156225       0.22232197       0.95454353 </v>
   <v>       0.88963612       0.11473984       0.04315494 </v>
   <v>       0.77682539       0.55898660       0.95819231 </v>
   <v>       0.89151569       0.44295200       0.04191125 </v>
   <v>       0.77636605       0.88578208       0.95680921 </v>
   <v>       0.88646598       0.77516130       0.04448096 </v>
  </varray>
 </structure>
</modeling>
