unknown system                          
           1
     8.855036    5.105726    0.000000
    -8.855035    5.105725    0.000000
     0.000000    0.000000   30.000000
   V    Mo   W    S 
   3   3   3  18
Direct configuration=     1
   0.00000000  0.66666669  0.00000000
   1.00000000  0.33333334  0.00000000
   0.66666669  0.66666669  0.00000000
   0.00000000  0.00000000  0.00000000
   0.33333334  0.66666669  0.00000000
   0.33333334  0.00000000  0.00000000
   0.33333334  0.33333334  0.00000000
   0.66666669  0.00000000  0.00000000
   0.66666669  0.33333334  0.00000000
   0.11068511  0.22244981  0.95539999
   0.22244981  0.11068511  0.04460000
   0.11068511  0.55578315  0.95539999
   0.22244981  0.44401845  0.04460000
   0.11068511  0.88911647  0.95539999
   0.22244981  0.77735180  0.04460000
   0.44401845  0.22244981  0.95539999
   0.55578315  0.11068511  0.04460000
   0.44401845  0.55578315  0.95539999
   0.55578315  0.44401845  0.04460000
   0.44401845  0.88911647  0.95539999
   0.55578315  0.77735180  0.04460000
   0.77735180  0.22244981  0.95539999
   0.88911647  0.11068511  0.04460000
   0.77735180  0.55578315  0.95539999
   0.88911647  0.44401845  0.04460000
   0.77735180  0.88911647  0.95539999
   0.88911647  0.77735180  0.04460000
unknown system                          
           1
     8.667196    4.999607    0.000000
    -8.667190    4.999596    0.000000
     0.000000    0.000000   30.000000
   V    Mo   W    S 
   3   3   3  18
Direct configuration=     2
   0.00189325  0.66856012 -0.00000001
   1.00108467  0.33369569 -0.00014328
   0.66702906  0.66775145  0.00014327
   0.00130406 -0.00033072  0.00009792
   0.33300296  0.66797092 -0.00009792
   0.33195358 -0.00137980 -0.00000000
   0.33171475  0.33200275 -0.00023281
   0.66533588 -0.00161901  0.00023279
   0.66597116  0.33263800 -0.00000002
   0.10965097  0.22521218  0.95192783
   0.22264696  0.11191439  0.04925040
   0.10659100  0.55340875  0.95310540
   0.21813765  0.44181361  0.04804941
   0.10884929  0.88436245  0.95189650
   0.21769578  0.77551595  0.04810351
   0.44471808  0.22293303  0.95071984
   0.55626635  0.11138462  0.04928013
   0.44830214  0.55663312  0.95201904
   0.55740776  0.44825331  0.04809958
   0.44524782  0.88931374  0.95074957
   0.55854566  0.77631751  0.04807214
   0.78158635  0.22407427  0.95190041
   0.88996627  0.11496843  0.04798098
   0.77916876  0.55892256  0.95315711
   0.89225580  0.44583559  0.04684293
   0.77514672  0.88480406  0.95195063
   0.88674175  0.77325750  0.04689456
unknown system                          
           1
     8.484880    4.899923    0.000000
    -8.484862    4.899891    0.000000
     0.000000    0.000000   30.000000
   V    Mo   W    S 
   3   3   3  18
Direct configuration=     3
   0.00253893  0.66920669  0.00000001
   1.00146137  0.33374500 -0.00011698
   0.66707759  0.66812886  0.00011694
   0.00203065 -0.00008837  0.00013961
   0.33324879  0.66869917 -0.00013963
   0.33180644 -0.00152675  0.00000004
   0.33122029  0.33132525 -0.00025648
   0.66465735 -0.00211648  0.00025647
   0.66537059  0.33203926 -0.00000002
   0.10984033  0.22537451  0.95186133
   0.22280516  0.11216540  0.04932668
   0.10650424  0.55337512  0.95312434
   0.21815899  0.44164797  0.04799710
   0.10872911  0.88417735  0.95181194
   0.21751060  0.77539558  0.04818796
   0.44478357  0.22314196  0.95069700
   0.55647561  0.11145011  0.04930288
   0.44830180  0.55647046  0.95209294
   0.55735939  0.44812442  0.04801970
   0.44549886  0.88947202  0.95067311
   0.55870909  0.77650573  0.04813800
   0.78145630  0.22402570  0.95197947
   0.88980280  0.11496663  0.04790790
   0.77911080  0.55873710  0.95328430
   0.89206976  0.44577813  0.04671650
   0.77498023  0.88482404  0.95200382
   0.88670582  0.77316959  0.04687496
unknown system                          
           1
     8.266386    4.775398    0.000000
    -8.267157    4.776734    0.000000
     0.000000    0.000000   30.000000
   V    Mo   W    S 
   3   3   3  18
Direct configuration=     4
   0.00496940  0.67163867 -0.00000000
   1.00285582  0.33352016  0.00004368
   0.66685110  0.66952263 -0.00004398
   0.00518137  0.00149355  0.00022861
   0.33483576  0.67185369 -0.00022844
   0.33193414 -0.00139991  0.00000013
   0.32946888  0.32832213 -0.00022970
   0.66165093 -0.00387306  0.00022968
   0.66247334  0.32914255 -0.00000012
   0.10922232  0.22579919  0.95008425
   0.22312267  0.11236614  0.05124518
   0.10540989  0.55290840  0.95187530
   0.21728504  0.44124909  0.04919814
   0.10793614  0.88274590  0.95003782
   0.21607967  0.77460325  0.04996225
   0.44456654  0.22304606  0.94894102
   0.55637853  0.11123307  0.05105864
   0.44936742  0.55697136  0.95096091
   0.55772853  0.44905139  0.04918772
   0.44569970  0.88978893  0.94875483
   0.55913517  0.77588408  0.04991605
   0.78237753  0.22439151  0.95081305
   0.89030073  0.11602611  0.04903879
   0.77969785  0.55954618  0.95245041
   0.89287415  0.44636905  0.04755025
   0.77457843  0.88394291  0.95080152
   0.88623341  0.77207141  0.04812391
unknown system                          
           1
     8.261338    4.779427    0.000000
    -8.261137    4.779082    0.000000
     0.000000    0.000000   30.000000
   V    Mo   W    S 
   3   3   3  18
Direct configuration=     5
   0.00928023  0.67585192  0.00000064
   1.00582617  0.33271882  0.00038294
   0.66609461  0.67243127 -0.00037513
   0.01212324  0.00554165  0.00021713
   0.33861017  0.67866704 -0.00021742
   0.33332526 -0.00002755 -0.00000380
   0.32574158  0.32135771 -0.00007981
   0.65477148 -0.00733641  0.00007931
   0.65672561  0.32327726  0.00000012
   0.10842059  0.22584196  0.94745512
   0.22343008  0.11198000  0.05411791
   0.10487530  0.55298160  0.95008531
   0.21699251  0.44169205  0.05057830
   0.10747135  0.88155009  0.94753464
   0.21488750  0.77414332  0.05247211
   0.44352607  0.22206497  0.94628944
   0.55539135  0.11018441  0.05371788
   0.44973108  0.55722368  0.94960976
   0.55760624  0.44973999  0.05062493
   0.44531460  0.89009649  0.94588737
   0.55913024  0.77512999  0.05255479
   0.78315153  0.22430722  0.94938812
   0.89059798  0.11648660  0.05037151
   0.78032931  0.56001393  0.95152597
   0.89338965  0.44695903  0.04845270
   0.77507157  0.88374985  0.94940236
   0.88639918  0.77158754  0.04992768
unknown system                          
           1
     8.261340    4.779443    0.000000
    -8.261142    4.779104    0.000000
     0.000000    0.000000   30.000000
   V    Mo   W    S 
   3   3   3  18
Direct configuration=     6
   0.01059167  0.67717953 -0.00000067
   1.00728820  0.33255889  0.00037169
   0.66591329  0.67390125 -0.00037237
   0.01430866  0.00672393  0.00017571
   0.33990009  0.68091539 -0.00017704
   0.33429934  0.00090899 -0.00000563
   0.32476101  0.31863000 -0.00008725
   0.65195038 -0.00844943  0.00009018
   0.65457300  0.32117686  0.00000010
   0.10862552  0.22567767  0.94714590
   0.22358553  0.11141770  0.05458332
   0.10560740  0.55349251  0.95008601
   0.21816185  0.44248098  0.05043903
   0.10797087  0.88211420  0.94734368
   0.21545507  0.77465143  0.05266630
   0.44293143  0.22166196  0.94589148
   0.55497892  0.10959675  0.05412603
   0.44858253  0.55654952  0.94987220
   0.55697979  0.44917330  0.05050178
   0.44473273  0.89022094  0.94542710
   0.55897555  0.77533762  0.05282821
   0.78257142  0.22367233  0.94948809
   0.88990609  0.11530888  0.05013207
   0.78002525  0.55946575  0.95182045
   0.89283755  0.44667477  0.04817784
   0.77581563  0.88485920  0.94956965
   0.88688567  0.77231357  0.04990604
unknown system                          
           1
     8.258973    4.780671    0.000000
    -8.257249    4.777693    0.000000
     0.000000    0.000000   30.000000
   V    Mo   W    S 
   3   3   3  18
Direct configuration=     7
   0.01059985  0.67718762 -0.00000067
   1.00729812  0.33255938  0.00037206
   0.66591400  0.67391083 -0.00037273
   0.01432205  0.00673019  0.00017575
   0.33990577  0.68092850 -0.00017705
   0.33430420  0.00091380 -0.00000560
   0.32475459  0.31861363 -0.00008702
   0.65193414 -0.00845521  0.00008994
   0.65456014  0.32116384  0.00000010
   0.10862664  0.22567705  0.94714452
   0.22358629  0.11141502  0.05458527
   0.10561018  0.55349413  0.95008648
   0.21816713  0.44248377  0.05043766
   0.10797316  0.88211649  0.94734296
   0.21545735  0.77465371  0.05266703
   0.44292932  0.22166046  0.94588953
   0.55497739  0.10959460  0.05412798
   0.44857730  0.55654587  0.94987428
   0.55697678  0.44917041  0.05050077
   0.44473012  0.89022177  0.94542509
   0.55897487  0.77533871  0.05282963
   0.78256855  0.22366932  0.94948913
   0.88990247  0.11530374  0.05012993
   0.78002345  0.55946290  0.95182278
   0.89283473  0.44667287  0.04817548
   0.77581852  0.88486466  0.94957100
   0.88688736  0.77231638  0.04990558
unknown system                          
           1
     8.260777    4.784986    0.000000
    -8.257986    4.780160    0.000000
     0.000000    0.000000   30.000000
   V    Mo   W    S 
   3   3   3  18
Direct configuration=     8
   0.01065347  0.67745043 -0.00000393
   1.00759318  0.33255021  0.00036772
   0.66576694  0.67455103 -0.00039002
   0.01475693  0.00686477  0.00017631
   0.34073706  0.68163843 -0.00017539
   0.33457088  0.00126635  0.00000254
   0.32464826  0.31794726 -0.00007657
   0.65119788 -0.00919620  0.00007768
   0.65392345  0.32074424 -0.00000276
   0.10869198  0.22565010  0.94709374
   0.22360607  0.11134902  0.05465068
   0.10572847  0.55355304  0.95008324
   0.21840415  0.44260714  0.05041449
   0.10805913  0.88223360  0.94730121
   0.21554129  0.77471837  0.05269376
   0.44280250  0.22158728  0.94580757
   0.55491975  0.10950174  0.05419781
   0.44855541  0.55647880  0.94995709
   0.55691837  0.44922528  0.05045555
   0.44465348  0.89023312  0.94535031
   0.55902027  0.77530588  0.05285866
   0.78248232  0.22356366  0.94950660
   0.88974092  0.11508398  0.05008720
   0.77989896  0.55945358  0.95189849
   0.89273684  0.44662280  0.04815002
   0.77582831  0.88489251  0.94963792
   0.88677816  0.77233804  0.04987999
unknown system                          
           1
     8.260443    4.781310    0.000000
    -8.260545    4.781489    0.000000
     0.000000    0.000000   30.000000
   V    Mo   W    S 
   3   3   3  18
Direct configuration=     9
   0.01045089  0.67753521 -0.00000822
   1.00789519  0.33262383  0.00037011
   0.66552076  0.67539500 -0.00039832
   0.01495731  0.00687948  0.00018500
   0.34175651  0.68221161 -0.00017892
   0.33476287  0.00170840  0.00002795
   0.32463621  0.31741882 -0.00006546
   0.65067619 -0.01007338  0.00005859
   0.65340338  0.32049937 -0.00000475
   0.10880439  0.22561873  0.94710006
   0.22359105  0.11125299  0.05468946
   0.10588332  0.55359207  0.95012884
   0.21863486  0.44269758  0.05035486
   0.10815674  0.88237745  0.94728569
   0.21565533  0.77474126  0.05265792
   0.44269974  0.22153138  0.94572750
   0.55493148  0.10942296  0.05421261
   0.44864617  0.55642365  0.95004911
   0.55690162  0.44937456  0.05037944
   0.44458965  0.89026853  0.94528871
   0.55912316  0.77520062  0.05292798
   0.78235671  0.22344662  0.94957297
   0.88955441  0.11487749  0.05001534
   0.77967452  0.55949286  0.95199560
   0.89260998  0.44653204  0.04811321
   0.77582811  0.88487782  0.94968244
   0.88651389  0.77228751  0.04983217
unknown system                          
           1
     8.251094    4.770035    0.000000
    -8.251233    4.770289    0.000000
     0.000000    0.000000   30.000000
   V    Mo   W    S 
   3   3   3  18
Direct configuration=    10
   0.01193492  0.67852296 -0.00000061
   1.00890840  0.33263936  0.00042891
   0.66600655  0.67550488 -0.00043002
   0.01653066  0.00775401  0.00018169
   0.34091010  0.68312669 -0.00018026
   0.33510509  0.00171494 -0.00000430
   0.32370538  0.31590531 -0.00004882
   0.64923402 -0.00947514  0.00005010
   0.65242609  0.31902139 -0.00000216
   0.10880108  0.22557577  0.94690716
   0.22370841  0.11098863  0.05491400
   0.10605808  0.55375750  0.95014985
   0.21902225  0.44294019  0.05023043
   0.10833796  0.88247854  0.94721591
   0.21581463  0.77501677  0.05279625
   0.44257952  0.22141103  0.94556453
   0.55472474  0.10923994  0.05445485
   0.44774633  0.55596176  0.95020024
   0.55649265  0.44871787  0.05034664
   0.44430986  0.89035419  0.94509059
   0.55886778  0.77551253  0.05307250
   0.78211708  0.22318202  0.94964635
   0.88931926  0.11447634  0.04979943
   0.77973307  0.55901487  0.95219111
   0.89238462  0.44637571  0.04780721
   0.77628350  0.88573344  0.94977725
   0.88715242  0.77276297  0.04984106
unknown system                          
           1
     8.258850    4.778422    0.000000
    -8.258983    4.778665    0.000000
     0.000000    0.000000   30.000000
   V    Mo   W    S 
   3   3   3  18
Direct configuration=    11
   0.01037137  0.67684065  0.00001030
   1.00645580  0.33198749  0.00036450
   0.66590587  0.67250670 -0.00041032
   0.01419003  0.00697993  0.00017739
   0.33924325  0.68045712 -0.00015520
   0.33451589  0.00073859  0.00002074
   0.32484303  0.31918223 -0.00004040
   0.65241594 -0.00754980  0.00005968
   0.65520651  0.32168446  0.00000895
   0.10852782  0.22573683  0.94704069
   0.22361544  0.11159765  0.05453654
   0.10559170  0.55360086  0.94994225
   0.21792507  0.44250153  0.05054877
   0.10798485  0.88212251  0.94727916
   0.21543877  0.77477530  0.05279393
   0.44292414  0.22160896  0.94590091
   0.55479217  0.10961424  0.05420445
   0.44847813  0.55672923  0.94969798
   0.55696238  0.44907490  0.05066333
   0.44485952  0.89012322  0.94542556
   0.55889049  0.77533614  0.05273324
   0.78266881  0.22376959  0.94929203
   0.89012455  0.11535312  0.05035870
   0.78030407  0.55943346  0.95159866
   0.89295544  0.44678813  0.04836548
   0.77578536  0.88469160  0.94960040
   0.88723804  0.77252983  0.04998219
unknown system                          
           1
     8.255429    4.779376    0.000000
    -8.255283    4.779137    0.000000
     0.000000    0.000000   30.000000
   V    Mo   W    S 
   3   3   3  18
Direct configuration=    12
   0.01032443  0.67703464 -0.00000069
   1.00662862  0.33154556  0.00036505
   0.66542244  0.67271505 -0.00042270
   0.01501025  0.00757697  0.00014087
   0.34024478  0.68147341 -0.00016041
   0.33502471  0.00125022 -0.00000795
   0.32462923  0.31838505 -0.00007368
   0.65149133 -0.00806037  0.00005554
   0.65442899  0.32110842  0.00000966
   0.10867696  0.22578215  0.94695262
   0.22368030  0.11139210  0.05473349
   0.10590407  0.55371478  0.95001026
   0.21821745  0.44270717  0.05044981
   0.10827233  0.88245078  0.94725522
   0.21569107  0.77495237  0.05281500
   0.44276918  0.22151616  0.94575126
   0.55480033  0.10951193  0.05434748
   0.44824268  0.55652157  0.94976935
   0.55680933  0.44905936  0.05065954
   0.44467797  0.89021076  0.94525029
   0.55903722  0.77530905  0.05287711
   0.78245069  0.22357623  0.94931907
   0.88982149  0.11493879  0.05030635
   0.78006151  0.55929975  0.95165593
   0.89272877  0.44656077  0.04830641
   0.77600524  0.88494210  0.94968638
   0.88716311  0.77273969  0.04994864
unknown system                          
           1
     8.254851    4.781420    0.000000
    -8.254607    4.781013    0.000000
     0.000000    0.000000   30.000000
   V    Mo   W    S 
   3   3   3  18
Direct configuration=    13
   0.01170295  0.67838610  0.00000554
   1.00814396  0.33171361  0.00041922
   0.66563795  0.67414536 -0.00046866
   0.01689231  0.00831349  0.00014778
   0.34085149  0.68330407 -0.00014783
   0.33547072  0.00165687 -0.00000243
   0.32378083  0.31618866 -0.00005658
   0.64928782 -0.00883082  0.00006503
   0.65256047  0.31922980  0.00001529
   0.10881952  0.22569423  0.94679211
   0.22382830  0.11104449  0.05498157
   0.10614461  0.55385808  0.95010636
   0.21894078  0.44303093  0.05024100
   0.10848413  0.88264929  0.94717996
   0.21590485  0.77517899  0.05288510
   0.44254604  0.22139684  0.94551696
   0.55467290  0.10928278  0.05458199
   0.44756205  0.55600006  0.95011242
   0.55641836  0.44862626  0.05048696
   0.44431420  0.89034641  0.94499151
   0.55893382  0.77552454  0.05300975
   0.78207057  0.22320271  0.94949717
   0.88932710  0.11430845  0.04994775
   0.77984894  0.55890563  0.95203515
   0.89236499  0.44633148  0.04790872
   0.77634047  0.88570849  0.94989231
   0.88736432  0.77301765  0.04985576
unknown system                          
           1
     8.257015    4.782329    0.000000
    -8.256971    4.782266    0.000000
     0.000000    0.000000   30.000000
   V    Mo   W    S 
   3   3   3  18
Direct configuration=    14
   0.01251222  0.67929584  0.00000924
   1.00913605  0.33166720  0.00045614
   0.66560417  0.67512713 -0.00050684
   0.01830768  0.00893402  0.00015769
   0.34157741  0.68476235 -0.00014717
   0.33583853  0.00202852  0.00000652
   0.32320387  0.31459485 -0.00003562
   0.64767796 -0.00951027  0.00005350
   0.65118287  0.31795330  0.00002020
   0.10895836  0.22565289  0.94667128
   0.22394469  0.11079824  0.05516777
   0.10635680  0.55395639  0.95020152
   0.21945347  0.44327765  0.05007224
   0.10867473  0.88283587  0.94712040
   0.21608231  0.77533854  0.05292603
   0.44238939  0.22130740  0.94532679
   0.55461014  0.10913636  0.05475697
   0.44711749  0.55563743  0.95034426
   0.55614501  0.44837815  0.05037672
   0.44407306  0.89046630  0.94478864
   0.55891879  0.77562929  0.05314110
   0.78176706  0.22292767  0.94962836
   0.88894397  0.11381574  0.04970716
   0.77964509  0.55863976  0.95229384
   0.89207682  0.44613048  0.04763332
   0.77659418  0.88622459  0.95004963
   0.88742230  0.77320875  0.04978021
unknown system                          
           1
     8.252349    4.773989    0.000000
    -8.252454    4.774180    0.000000
     0.000000    0.000000   30.000000
   V    Mo   W    S 
   3   3   3  18
Direct configuration=    15
   0.01268299  0.67938694  0.00000900
   1.00935214  0.33179693  0.00045957
   0.66576803  0.67529119 -0.00051118
   0.01841595  0.00896931  0.00015612
   0.34145185  0.68480729 -0.00014726
   0.33588168  0.00204307  0.00000492
   0.32305323  0.31440325 -0.00003588
   0.64749873 -0.00951875  0.00005037
   0.65108062  0.31777465  0.00001717
   0.10893060  0.22564413  0.94665646
   0.22393592  0.11077753  0.05518884
   0.10633119  0.55394272  0.95017870
   0.21947492  0.44327614  0.05007881
   0.10866884  0.88282220  0.94709875
   0.21607555  0.77535435  0.05295837
   0.44237525  0.22129566  0.94530776
   0.55457428  0.10911179  0.05478941
   0.44706563  0.55561392  0.95036924
   0.55613147  0.44834611  0.05036725
   0.44404764  0.89045180  0.94477222
   0.55887905  0.77564209  0.05314328
   0.78178663  0.22292063  0.94963170
   0.88894020  0.11381637  0.04968269
   0.77966760  0.55862511  0.95231321
   0.89208957  0.44613223  0.04761484
   0.77659802  0.88627514  0.95005131
   0.88745686  0.77321268  0.04979424
unknown system                          
           1
     8.246016    4.767950    0.000000
    -8.246517    4.768820    0.000000
     0.000000    0.000000   30.000000
   V    Mo   W    S 
   3   3   3  18
Direct configuration=    16
   0.01048067  0.67726025  0.00001195
   1.00651114  0.33113082  0.00040942
   0.66496945  0.67249588 -0.00043449
   0.01589393  0.00809307  0.00016072
   0.34073379  0.68235357 -0.00014140
   0.33512474  0.00134833  0.00001629
   0.32436238  0.31765800 -0.00001230
   0.65077271 -0.00828889  0.00002328
   0.65410792  0.32082673  0.00001278
   0.10874163  0.22584944  0.94688863
   0.22375292  0.11137174  0.05478915
   0.10605313  0.55379193  0.95013034
   0.21828491  0.44279728  0.05030551
   0.10837720  0.88248357  0.94728564
   0.21575026  0.77501358  0.05273991
   0.44280965  0.22151849  0.94565156
   0.55484153  0.10952524  0.05440942
   0.44799740  0.55637900  0.94976050
   0.55669277  0.44891175  0.05068345
   0.44468173  0.89032089  0.94515821
   0.55910838  0.77541306  0.05298485
   0.78232454  0.22347232  0.94934654
   0.88972776  0.11476320  0.05025798
   0.77999054  0.55921860  0.95171273
   0.89265598  0.44648017  0.04820729
   0.77617984  0.88513177  0.94976632
   0.88728757  0.77289468  0.04987564
unknown system                          
           1
     8.239901    4.764683    0.000000
    -8.240020    4.764887    0.000000
     0.000000    0.000000   30.000000
   V    Mo   W    S 
   3   3   3  18
Direct configuration=    17
   0.00749524  0.67437317 -0.00000042
   1.00233722  0.32909307  0.00035926
   0.66284479  0.66808081 -0.00036731
   0.01408385  0.00833928  0.00009651
   0.34097101  0.68058639 -0.00013106
   0.33470129  0.00085841 -0.00003365
   0.32577011  0.32107393 -0.00009808
   0.65410198 -0.00682368  0.00007031
   0.65760283  0.32435722  0.00000004
   0.10862643  0.22623440  0.94712844
   0.22372913  0.11198464  0.05451547
   0.10599968  0.55368864  0.95018719
   0.21705121  0.44245655  0.05041405
   0.10821265  0.88229417  0.94753952
   0.21557108  0.77478720  0.05250171
   0.44332047  0.22186908  0.94606954
   0.55525927  0.11002499  0.05400226
   0.44867209  0.55708389  0.94903813
   0.55716662  0.44932167  0.05112195
   0.44533730  0.89032733  0.94547127
   0.55952403  0.77537467  0.05281490
   0.78281430  0.22397812  0.94896840
   0.89046310  0.11550522  0.05093773
   0.78019953  0.55978536  0.95094709
   0.89320977  0.44671091  0.04893415
   0.77591284  0.88399617  0.94962045
   0.88723665  0.77285286  0.04989206
unknown system                          
           1
     8.240262    4.765892    0.000000
    -8.240330    4.766008    0.000000
     0.000000    0.000000   30.000000
   V    Mo   W    S 
   3   3   3  18
Direct configuration=    18
   0.00560179  0.67265069  0.00002153
   0.99881917  0.32667182  0.00036670
   0.66034421  0.66431327 -0.00034995
   0.01427011  0.00941781  0.00014039
   0.34222019  0.68082209 -0.00011440
   0.33425418  0.00028323  0.00000982
   0.32686032  0.32286686  0.00001057
   0.65577283 -0.00585456  0.00001191
   0.65977784  0.32668897  0.00001315
   0.10866387  0.22661894  0.94709215
   0.22406451  0.11245660  0.05434208
   0.10619829  0.55365448  0.95036747
   0.21661212  0.44252562  0.05028352
   0.10821546  0.88238221  0.94771005
   0.21566391  0.77479015  0.05229377
   0.44376435  0.22219318  0.94623021
   0.55556995  0.11048621  0.05381795
   0.44878665  0.55727772  0.94863708
   0.55720249  0.44925346  0.05136761
   0.44581818  0.89064277  0.94556555
   0.55993418  0.77545688  0.05277453
   0.78277358  0.22406073  0.94872340
   0.89061863  0.11553188  0.05133437
   0.78008198  0.55985514  0.95055358
   0.89324611  0.44664705  0.04930837
   0.77591464  0.88345498  0.94979268
   0.88716492  0.77306628  0.04969579
unknown system                          
           1
     8.245053    4.771850    0.000000
    -8.244685    4.771214    0.000000
     0.000000    0.000000   30.000000
   V    Mo   W    S 
   3   3   3  18
Direct configuration=    19
   0.00534116  0.67244416  0.00002080
   0.99799460  0.32591037  0.00036414
   0.65955356  0.66339042 -0.00035540
   0.01472576  0.00991873  0.00013228
   0.34277094  0.68128892 -0.00011405
   0.33412468  0.00010778  0.00000681
   0.32706044  0.32303126  0.00000882
   0.65588065 -0.00569791  0.00000282
   0.66007012  0.32704354  0.00000904
   0.10872404  0.22673429  0.94707057
   0.22421807  0.11253207  0.05436395
   0.10628384  0.55364036  0.95044493
   0.21660396  0.44262435  0.05020618
   0.10823045  0.88244100  0.94774041
   0.21571416  0.77480000  0.05226533
   0.44384901  0.22226696  0.94624688
   0.55564468  0.11058528  0.05380850
   0.44871335  0.55724991  0.94858049
   0.55716038  0.44918686  0.05143366
   0.44589913  0.89078378  0.94553906
   0.56006486  0.77551088  0.05278602
   0.78270065  0.22403221  0.94866691
   0.89056960  0.11541918  0.05139910
   0.78001075  0.55982124  0.95050321
   0.89320041  0.44659157  0.04935661
   0.77598514  0.88340757  0.94989414
   0.88712010  0.77314968  0.04961868
unknown system                          
           1
     8.246158    4.774845    0.000000
    -8.246020    4.774608    0.000000
     0.000000    0.000000   30.000000
   V    Mo   W    S 
   3   3   3  18
Direct configuration=    20
   0.00739663  0.67448496  0.00000142
   1.00117744  0.32737779  0.00037115
   0.66101352  0.66671249 -0.00041876
   0.01604413  0.00986149  0.00009709
   0.34283761  0.68264300 -0.00013854
   0.33471281  0.00074200 -0.00002731
   0.32598998  0.32046361 -0.00007108
   0.65328780 -0.00696015  0.00002176
   0.65728377  0.32430116 -0.00000933
   0.10885066  0.22643446  0.94692810
   0.22417915  0.11195934  0.05469178
   0.10638648  0.55377718  0.95038447
   0.21756140  0.44291233  0.05017665
   0.10839750  0.88261255  0.94756466
   0.21585448  0.77497910  0.05247815
   0.44339885  0.22201908  0.94594641
   0.55538212  0.11015666  0.05414887
   0.44814768  0.55669182  0.94910700
   0.55680504  0.44891924  0.05116860
   0.44531841  0.89072658  0.94526718
   0.55978067  0.77557457  0.05293043
   0.78234654  0.22363357  0.94891702
   0.88995935  0.11477672  0.05092973
   0.77987665  0.55944712  0.95101932
   0.89281856  0.44645524  0.04888105
   0.77620613  0.88428775  0.94996774
   0.88720110  0.77322478  0.04966634
unknown system                          
           1
     8.246053    4.774990    0.000000
    -8.246131    4.775125    0.000000
     0.000000    0.000000   30.000000
   V    Mo   W    S 
   3   3   3  18
Direct configuration=    21
   0.00878012  0.67588477  0.00002110
   1.00253895  0.32729879  0.00042972
   0.66096766  0.66797006 -0.00045112
   0.01808562  0.01070575  0.00012892
   0.34358292  0.68460635 -0.00011425
   0.33506496  0.00108672  0.00001138
   0.32519837  0.31827477 -0.00000345
   0.65111282 -0.00769706  0.00001565
   0.65542123  0.32248667  0.00001620
   0.10902689  0.22634246  0.94676110
   0.22438393  0.11165770  0.05492187
   0.10663114  0.55387654  0.95049071
   0.21828374  0.44327789  0.04992337
   0.10857867  0.88282290  0.94742962
   0.21607668  0.77516277  0.05258026
   0.44317262  0.22183856  0.94568953
   0.55521220  0.10994500  0.05436492
   0.44751339  0.55625164  0.94942537
   0.55646238  0.44859415  0.05100526
   0.44499383  0.89091654  0.94498122
   0.55968342  0.77572816  0.05307296
   0.78199848  0.22330359  0.94908529
   0.88952120  0.11413967  0.05058143
   0.77962066  0.55907768  0.95139728
   0.89244273  0.44618504  0.04847339
   0.77658002  0.88500325  0.95021442
   0.88727977  0.77347409  0.04954774
unknown system                          
           1
     8.254862    4.784466    0.000000
    -8.254948    4.784616    0.000000
     0.000000    0.000000   30.000000
   V    Mo   W    S 
   3   3   3  18
Direct configuration=    22
   0.00841153  0.67552904  0.00002830
   1.00159911  0.32660543  0.00043331
   0.66028482  0.66695048 -0.00043897
   0.01830497  0.01110393  0.00014047
   0.34393169  0.68480028 -0.00010312
   0.33485206  0.00083285  0.00002728
   0.32541562  0.31864628  0.00001971
   0.65147200 -0.00740853  0.00001570
   0.65597482  0.32304280  0.00002441
   0.10904912  0.22647419  0.94676866
   0.22450729  0.11179340  0.05487982
   0.10665992  0.55382304  0.95056050
   0.21814101  0.44329717  0.04985714
   0.10856198  0.88283973  0.94746915
   0.21609708  0.77514271  0.05252800
   0.44329143  0.22191584  0.94574145
   0.55529147  0.11006700  0.05430024
   0.44754137  0.55629368  0.94932774
   0.55647165  0.44856577  0.05107172
   0.44512857  0.89103571  0.94499455
   0.55981615  0.77575601  0.05305529
   0.78198927  0.22333491  0.94902186
   0.88956814  0.11416783  0.05066502
   0.77958085  0.55908962  0.95130968
   0.89245220  0.44614870  0.04854673
   0.77660407  0.88486136  0.95027880
   0.88721626  0.77350523  0.04947647
unknown system                          
           1
     8.253999    4.787037    0.000000
    -8.254078    4.787176    0.000000
     0.000000    0.000000   30.000000
   V    Mo   W    S 
   3   3   3  18
Direct configuration=    23
   0.01007645  0.67725970  0.00001537
   1.00292575  0.32620862  0.00046376
   0.65990822  0.66807431 -0.00051676
   0.02072371  0.01206743  0.00008722
   0.34486680  0.68719517 -0.00011997
   0.33518310  0.00114199 -0.00002344
   0.32464433  0.31624636 -0.00001566
   0.64902301 -0.00821602 -0.00001933
   0.65379770  0.32099267  0.00000226
   0.10929374  0.22637381  0.94659917
   0.22480194  0.11139984  0.05528276
   0.10694936  0.55394979  0.95071408
   0.21900918  0.44382152  0.04954756
   0.10873967  0.88305777  0.94731743
   0.21629649  0.77531690  0.05271300
   0.44301200  0.22170966  0.94546858
   0.55510186  0.10982380  0.05461626
   0.44673638  0.55581801  0.94970715
   0.55611733  0.44824109  0.05095062
   0.44473469  0.89128998  0.94465210
   0.55972362  0.77597612  0.05323949
   0.78163544  0.22299507  0.94919790
   0.88907222  0.11334786  0.05030013
   0.77930967  0.55871093  0.95175885
   0.89208146  0.44586725  0.04808448
   0.77711301  0.88572030  0.95063584
   0.88733731  0.77382452  0.04934104
unknown system                          
           1
     8.257885    4.793085    0.000000
    -8.257934    4.793172    0.000000
     0.000000    0.000000   30.000000
   V    Mo   W    S 
   3   3   3  18
Direct configuration=    24
   0.01116300  0.67840782  0.00002870
   1.00335400  0.32551601  0.00050241
   0.65920708  0.66826430 -0.00054883
   0.02246763  0.01287313  0.00009934
   0.34561408  0.68888021 -0.00010535
   0.33528016  0.00121759 -0.00000663
   0.32426989  0.31484608  0.00002168
   0.64758941 -0.00859183 -0.00002120
   0.65249022  0.31980235  0.00001979
   0.10949047  0.22635204  0.94649349
   0.22506800  0.11123630  0.05546625
   0.10716983  0.55402754  0.95086466
   0.21953420  0.44419085  0.04926120
   0.10884949  0.88320720  0.94721906
   0.21645460  0.77543268  0.05279229
   0.44288046  0.22159717  0.94531193
   0.55500136  0.10971431  0.05475005
   0.44616026  0.55552721  0.94991794
   0.55588506  0.44799492  0.05087600
   0.44455571  0.89153256  0.94443963