   27   27  100    1
  0.9710400E+02  0.1002848E-08  0.1002848E-08  0.3000000E-08  0.5000000E-15
  1.000000000000000E-004
  CAR 
 unknown system                          
    159     34    120
 
  0.0000000E+00  0.0000000E+00  0.0000000E+00  0.1562500E-01
    1      -17.811656   1.000000
    2      -16.716784   1.000000
    3      -16.652223   1.000000
    4      -16.619360   1.000000
    5      -16.532457   1.000000
    6      -16.444969   1.000000
    7      -16.426843   1.000000
    8      -16.249441   1.000000
    9      -16.169019   1.000000
   10      -16.118225   1.000000
   11      -16.071022   1.000000
   12      -15.918763   1.000000
   13      -15.883382   1.000000
   14      -15.693693   1.000000
   15      -15.538253   1.000000
   16      -15.510921   1.000000
   17      -15.398275   1.000000
   18      -15.305347   1.000000
   19       -9.356982   1.000000
   20       -9.051794   1.000000
   21       -8.983812   1.000000
   22       -8.894249   1.000000
   23       -8.740442   1.000000
   24       -8.655187   1.000000
   25       -8.619365   1.000000
   26       -8.545769   1.000000
   27       -8.446537   1.000000
   28       -8.439486   1.000000
   29       -8.429354   1.000000
   30       -8.322220   1.000000
   31       -8.236175   1.000000
   32       -8.168755   1.000000
   33       -8.070616   1.000000
   34       -8.010395   1.000000
   35       -7.887085   1.000000
   36       -7.744413   1.000000
   37       -7.711047   1.000000
   38       -7.524637   1.000000
   39       -7.479985   1.000000
   40       -7.459979   1.000000
   41       -7.380562   1.000000
   42       -7.179486   1.000000
   43       -7.105518   1.000000
   44       -6.959504   1.000000
   45       -6.830107   1.000000
   46       -6.766530   1.000000
   47       -6.740933   1.000000
   48       -6.703290   1.000000
   49       -6.586697   1.000000
   50       -6.504165   1.000000
   51       -6.443724   1.000000
   52       -6.389587   1.000000
   53       -6.275061   1.000000
   54       -6.236318   1.000000
   55       -6.184690   1.000000
   56       -6.094938   1.000000
   57       -5.988682   1.000000
   58       -5.869692   1.000000
   59       -5.780638   1.000000
   60       -5.590611   1.000000
   61       -5.483391   1.000000
   62       -5.450504   1.000000
   63       -5.184269   1.000000
   64       -5.141546   1.000000
   65       -5.062884   1.000000
   66       -5.027168   1.000000
   67       -4.884881   1.000000
   68       -4.838238   1.000000
   69       -4.790994   1.000000
   70       -4.739770   1.000000
   71       -4.644493   1.000000
   72       -4.534074   1.000000
   73       -4.491942   1.000000
   74       -4.415378   1.000000
   75       -4.197502   1.000000
   76       -4.051156   1.000000
   77       -3.779304   0.999087
   78       -3.666621   0.989841
   79       -3.618680   0.976229
   80       -3.353093   0.541195
   81       -3.229981   0.221515
   82       -2.749530   0.000016
   83       -2.698364   0.000003
   84       -2.612871   0.000000
   85       -2.536724   0.000000
   86       -2.464610   0.000000
   87       -2.284184   0.000000
   88       -2.231041   0.000000
   89       -2.197152   0.000000
   90       -2.110290   0.000000
   91       -1.729244   0.000000
   92       -1.683166   0.000000
   93       -1.478802   0.000000
   94       -1.259489   0.000000
   95       -1.188204   0.000000
   96       -1.046517   0.000000
   97       -0.980157   0.000000
   98       -0.892240   0.000000
   99       -0.725375   0.000000
  100       -0.662369   0.000000
  101       -0.577604   0.000000
  102       -0.547362   0.000000
  103       -0.500859   0.000000
  104       -0.464302   0.000000
  105       -0.218296   0.000000
  106       -0.076109   0.000000
  107       -0.052513   0.000000
  108       -0.016906   0.000000
  109        0.187414   0.000000
  110        0.389591   0.000000
  111        0.463540   0.000000
  112        0.482702   0.000000
  113        0.594019   0.000000
  114        0.739181   0.000000
  115        0.837277   0.000000
  116        0.952826   0.000000
  117        1.239958   0.000000
  118        1.641243   0.000000
  119        1.833574   0.000000
  120        2.146917   0.000000
 
  0.1250000E+00  0.2775558E-16  0.0000000E+00  0.3125000E-01
    1      -17.787258   1.000000
    2      -16.806479   1.000000
    3      -16.713223   1.000000
    4      -16.610884   1.000000
    5      -16.514401   1.000000
    6      -16.460228   1.000000
    7      -16.364842   1.000000
    8      -16.256342   1.000000
    9      -16.187554   1.000000
   10      -16.072701   1.000000
   11      -16.023973   1.000000
   12      -15.906496   1.000000
   13      -15.861640   1.000000
   14      -15.710014   1.000000
   15      -15.553235   1.000000
   16      -15.510513   1.000000
   17      -15.400146   1.000000
   18      -15.310417   1.000000
   19       -9.357695   1.000000
   20       -9.171173   1.000000
   21       -9.035308   1.000000
   22       -9.000297   1.000000
   23       -8.751279   1.000000
   24       -8.722024   1.000000
   25       -8.626162   1.000000
   26       -8.519016   1.000000
   27       -8.490035   1.000000
   28       -8.417640   1.000000
   29       -8.323862   1.000000
   30       -8.265309   1.000000
   31       -8.199394   1.000000
   32       -8.124053   1.000000
   33       -8.008964   1.000000
   34       -7.929251   1.000000
   35       -7.810618   1.000000
   36       -7.710243   1.000000
   37       -7.656959   1.000000
   38       -7.557110   1.000000
   39       -7.506479   1.000000
   40       -7.493098   1.000000
   41       -7.350130   1.000000
   42       -7.171438   1.000000
   43       -7.105696   1.000000
   44       -7.017672   1.000000
   45       -6.890241   1.000000
   46       -6.807294   1.000000
   47       -6.710818   1.000000
   48       -6.621314   1.000000
   49       -6.542186   1.000000
   50       -6.500673   1.000000
   51       -6.436541   1.000000
   52       -6.406230   1.000000
   53       -6.300330   1.000000
   54       -6.242784   1.000000
   55       -6.177484   1.000000
   56       -6.102493   1.000000
   57       -5.948997   1.000000
   58       -5.897124   1.000000
   59       -5.762150   1.000000
   60       -5.584458   1.000000
   61       -5.552862   1.000000
   62       -5.439160   1.000000
   63       -5.324993   1.000000
   64       -5.283774   1.000000
   65       -5.059640   1.000000
   66       -4.946516   1.000000
   67       -4.899246   1.000000
   68       -4.849029   1.000000
   69       -4.763084   1.000000
   70       -4.683547   1.000000
   71       -4.579014   1.000000
   72       -4.563365   1.000000
   73       -4.440766   1.000000
   74       -4.369740   1.000000
   75       -4.176753   1.000000
   76       -4.095452   1.000000
   77       -3.826999   0.999724
   78       -3.737139   0.997592
   79       -3.635189   0.982055
   80       -3.310299   0.421073
   81       -3.227918   0.217203
   82       -2.719081   0.000006
   83       -2.676804   0.000001
   84       -2.606919   0.000000
   85       -2.529105   0.000000
   86       -2.448610   0.000000
   87       -2.255622   0.000000
   88       -2.214768   0.000000
   89       -2.181266   0.000000
   90       -2.091277   0.000000
   91       -1.755136   0.000000
   92       -1.659189   0.000000
   93       -1.470382   0.000000
   94       -1.268097   0.000000
   95       -1.182280   0.000000
   96       -1.050475   0.000000
   97       -0.989296   0.000000
   98       -0.909602   0.000000
   99       -0.789626   0.000000
  100       -0.742252   0.000000
  101       -0.648457   0.000000
  102       -0.569455   0.000000
  103       -0.543226   0.000000
  104       -0.468348   0.000000
  105       -0.253747   0.000000
  106       -0.131223   0.000000
  107       -0.041845   0.000000
  108        0.002744   0.000000
  109        0.165148   0.000000
  110        0.357528   0.000000
  111        0.457484   0.000000
  112        0.520801   0.000000
  113        0.616467   0.000000
  114        0.759351   0.000000
  115        0.898726   0.000000
  116        0.960523   0.000000
  117        1.230022   0.000000
  118        1.682667   0.000000
  119        1.873825   0.000000
  120        2.181515   0.000000
 
  0.2500000E+00  0.5551115E-16  0.0000000E+00  0.3125000E-01
    1      -17.715448   1.000000
    2      -17.013376   1.000000
    3      -16.712444   1.000000
    4      -16.656288   1.000000
    5      -16.572005   1.000000
    6      -16.407718   1.000000
    7      -16.321375   1.000000
    8      -16.223821   1.000000
    9      -16.160656   1.000000
   10      -16.057582   1.000000
   11      -15.942397   1.000000
   12      -15.868885   1.000000
   13      -15.799903   1.000000
   14      -15.741265   1.000000
   15      -15.596047   1.000000
   16      -15.503890   1.000000
   17      -15.407589   1.000000
   18      -15.324669   1.000000
   19       -9.487374   1.000000
   20       -9.287042   1.000000
   21       -9.179261   1.000000
   22       -9.054556   1.000000
   23       -8.849587   1.000000
   24       -8.767293   1.000000
   25       -8.591327   1.000000
   26       -8.524690   1.000000
   27       -8.444989   1.000000
   28       -8.395795   1.000000
   29       -8.288166   1.000000
   30       -8.210475   1.000000
   31       -8.125077   1.000000
   32       -8.049878   1.000000
   33       -7.897717   1.000000
   34       -7.816572   1.000000
   35       -7.758196   1.000000
   36       -7.669249   1.000000
   37       -7.604227   1.000000
   38       -7.529735   1.000000
   39       -7.461297   1.000000
   40       -7.424747   1.000000
   41       -7.290447   1.000000
   42       -7.196604   1.000000
   43       -7.114307   1.000000
   44       -7.025416   1.000000
   45       -6.920687   1.000000
   46       -6.812794   1.000000
   47       -6.702791   1.000000
   48       -6.612371   1.000000
   49       -6.546355   1.000000
   50       -6.466151   1.000000
   51       -6.415725   1.000000
   52       -6.349568   1.000000
   53       -6.328831   1.000000
   54       -6.218613   1.000000
   55       -6.167477   1.000000
   56       -6.103793   1.000000
   57       -5.931966   1.000000
   58       -5.903843   1.000000
   59       -5.769220   1.000000
   60       -5.690599   1.000000
   61       -5.619247   1.000000
   62       -5.537505   1.000000
   63       -5.507008   1.000000
   64       -5.418364   1.000000
   65       -5.228999   1.000000
   66       -4.866504   1.000000
   67       -4.817657   1.000000
   68       -4.763258   1.000000
   69       -4.713816   1.000000
   70       -4.650549   1.000000
   71       -4.592803   1.000000
   72       -4.489643   1.000000
   73       -4.363213   1.000000
   74       -4.299478   1.000000
   75       -4.279845   1.000000
   76       -4.081165   1.000000
   77       -3.949466   0.999992
   78       -3.811586   0.999589
   79       -3.644400   0.984741
   80       -3.285148   0.353087
   81       -3.198098   0.160469
   82       -2.698350   0.000003
   83       -2.628041   0.000000
   84       -2.553626   0.000000
   85       -2.497188   0.000000
   86       -2.409209   0.000000
   87       -2.212023   0.000000
   88       -2.185256   0.000000
   89       -2.115595   0.000000
   90       -2.026142   0.000000
   91       -1.765302   0.000000
   92       -1.634028   0.000000
   93       -1.459209   0.000000
   94       -1.305977   0.000000
   95       -1.176324   0.000000
   96       -1.099779   0.000000
   97       -1.029392   0.000000
   98       -0.989564   0.000000
   99       -0.911186   0.000000
  100       -0.879925   0.000000
  101       -0.734238   0.000000
  102       -0.636649   0.000000
  103       -0.592181   0.000000
  104       -0.497395   0.000000
  105       -0.389587   0.000000
  106       -0.197468   0.000000
  107       -0.066366   0.000000
  108        0.001696   0.000000
  109        0.123765   0.000000
  110        0.298951   0.000000
  111        0.429428   0.000000
  112        0.572696   0.000000
  113        0.648189   0.000000
  114        0.826995   0.000000
  115        0.959060   0.000000
  116        1.034561   0.000000
  117        1.255651   0.000000
  118        1.800397   0.000000
  119        1.988248   0.000000
  120        2.284134   0.000000
 
  0.3750000E+00  0.0000000E+00  0.0000000E+00  0.3125000E-01
    1      -17.602337   1.000000
    2      -17.218987   1.000000
    3      -16.729204   1.000000
    4      -16.664960   1.000000
    5      -16.620442   1.000000
    6      -16.402323   1.000000
    7      -16.300389   1.000000
    8      -16.200723   1.000000
    9      -16.082914   1.000000
   10      -16.007303   1.000000
   11      -15.920292   1.000000
   12      -15.860644   1.000000
   13      -15.804766   1.000000
   14      -15.706170   1.000000
   15      -15.619966   1.000000
   16      -15.496853   1.000000
   17      -15.418803   1.000000
   18      -15.342802   1.000000
   19       -9.672109   1.000000
   20       -9.349925   1.000000
   21       -9.241466   1.000000
   22       -9.052450   1.000000
   23       -8.935177   1.000000
   24       -8.813605   1.000000
   25       -8.509169   1.000000
   26       -8.478049   1.000000
   27       -8.429970   1.000000
   28       -8.339853   1.000000
   29       -8.295512   1.000000
   30       -8.229310   1.000000
   31       -8.116368   1.000000
   32       -8.022490   1.000000
   33       -7.876631   1.000000
   34       -7.828062   1.000000
   35       -7.756381   1.000000
   36       -7.700406   1.000000
   37       -7.570850   1.000000
   38       -7.430777   1.000000
   39       -7.389444   1.000000
   40       -7.283611   1.000000
   41       -7.197365   1.000000
   42       -7.155596   1.000000
   43       -7.058670   1.000000
   44       -6.962870   1.000000
   45       -6.893733   1.000000
   46       -6.781221   1.000000
   47       -6.692223   1.000000
   48       -6.642260   1.000000
   49       -6.543708   1.000000
   50       -6.450116   1.000000
   51       -6.404457   1.000000
   52       -6.356680   1.000000
   53       -6.322493   1.000000
   54       -6.201905   1.000000
   55       -6.110579   1.000000
   56       -6.012450   1.000000
   57       -5.988438   1.000000
   58       -5.936944   1.000000
   59       -5.862502   1.000000
   60       -5.816271   1.000000
   61       -5.751116   1.000000
   62       -5.634411   1.000000
   63       -5.585564   1.000000
   64       -5.524553   1.000000
   65       -5.226478   1.000000
   66       -4.905966   1.000000
   67       -4.817220   1.000000
   68       -4.741214   1.000000
   69       -4.703071   1.000000
   70       -4.642887   1.000000
   71       -4.577233   1.000000
   72       -4.465471   1.000000
   73       -4.364776   1.000000
   74       -4.278492   1.000000
   75       -4.230649   1.000000
   76       -4.106952   1.000000
   77       -3.984631   0.999998
   78       -3.820792   0.999676
   79       -3.625517   0.978810
   80       -3.306649   0.411004
   81       -3.160150   0.103679
   82       -2.701101   0.000003
   83       -2.610218   0.000000
   84       -2.483734   0.000000
   85       -2.437152   0.000000
   86       -2.357484   0.000000
   87       -2.194157   0.000000
   88       -2.140024   0.000000
   89       -2.030692   0.000000
   90       -1.947868   0.000000
   91       -1.724907   0.000000
   92       -1.617111   0.000000
   93       -1.464277   0.000000
   94       -1.381728   0.000000
   95       -1.225200   0.000000
   96       -1.209664   0.000000
   97       -1.124349   0.000000
   98       -1.047533   0.000000
   99       -1.021556   0.000000
  100       -0.900685   0.000000
  101       -0.774299   0.000000
  102       -0.699306   0.000000
  103       -0.607056   0.000000
  104       -0.586677   0.000000
  105       -0.466446   0.000000
  106       -0.240376   0.000000
  107       -0.132192   0.000000
  108       -0.044433   0.000000
  109        0.073597   0.000000
  110        0.250483   0.000000
  111        0.416099   0.000000
  112        0.564957   0.000000
  113        0.698590   0.000000
  114        0.875472   0.000000
  115        1.009724   0.000000
  116        1.094972   0.000000
  117        1.333660   0.000000
  118        1.978907   0.000000
  119        2.163411   0.000000
  120        2.437783   0.000000
 
  0.5000000E+00  0.1110223E-15  0.0000000E+00  0.1562500E-01
    1      -17.500380   1.000000
    2      -17.353456   1.000000
    3      -16.739999   1.000000
    4      -16.652381   1.000000
    5      -16.647148   1.000000
    6      -16.406070   1.000000
    7      -16.295097   1.000000
    8      -16.193948   1.000000
    9      -16.030675   1.000000
   10      -15.967323   1.000000
   11      -15.934568   1.000000
   12      -15.867250   1.000000
   13      -15.820379   1.000000
   14      -15.711573   1.000000
   15      -15.596822   1.000000
   16      -15.495471   1.000000
   17      -15.424652   1.000000
   18      -15.352001   1.000000
   19       -9.741747   1.000000
   20       -9.384276   1.000000
   21       -9.258657   1.000000
   22       -9.036409   1.000000
   23       -8.958579   1.000000
   24       -8.831153   1.000000
   25       -8.507233   1.000000
   26       -8.457094   1.000000
   27       -8.413903   1.000000
   28       -8.306700   1.000000
   29       -8.268803   1.000000
   30       -8.217373   1.000000
   31       -8.114762   1.000000
   32       -8.037600   1.000000
   33       -7.929212   1.000000
   34       -7.873399   1.000000
   35       -7.803678   1.000000
   36       -7.698291   1.000000
   37       -7.508081   1.000000
   38       -7.404067   1.000000
   39       -7.342551   1.000000
   40       -7.197139   1.000000
   41       -7.162065   1.000000
   42       -7.099833   1.000000
   43       -7.058496   1.000000
   44       -6.938434   1.000000
   45       -6.895076   1.000000
   46       -6.739643   1.000000
   47       -6.665665   1.000000
   48       -6.625614   1.000000
   49       -6.503204   1.000000
   50       -6.489859   1.000000
   51       -6.419303   1.000000
   52       -6.347873   1.000000
   53       -6.247833   1.000000
   54       -6.234377   1.000000
   55       -6.163418   1.000000
   56       -6.120265   1.000000
   57       -6.020322   1.000000
   58       -5.913992   1.000000
   59       -5.862178   1.000000
   60       -5.783501   1.000000
   61       -5.759890   1.000000
   62       -5.672305   1.000000
   63       -5.592861   1.000000
   64       -5.564558   1.000000
   65       -5.172170   1.000000
   66       -5.161967   1.000000
   67       -4.797572   1.000000
   68       -4.734489   1.000000
   69       -4.683787   1.000000
   70       -4.616949   1.000000
   71       -4.580316   1.000000
   72       -4.425192   1.000000
   73       -4.356684   1.000000
   74       -4.258444   1.000000
   75       -4.221993   1.000000
   76       -4.159902   1.000000
   77       -3.952330   0.999993
   78       -3.819237   0.999663
   79       -3.603003   0.969298
   80       -3.325711   0.464075
   81       -3.146188   0.086980
   82       -2.704764   0.000004
   83       -2.604081   0.000000
   84       -2.462860   0.000000
   85       -2.406829   0.000000
   86       -2.328437   0.000000
   87       -2.183368   0.000000
   88       -2.119964   0.000000
   89       -1.989704   0.000000
   90       -1.915131   0.000000
   91       -1.682716   0.000000
   92       -1.608594   0.000000
   93       -1.489200   0.000000
   94       -1.417848   0.000000
   95       -1.282272   0.000000
   96       -1.267513   0.000000
   97       -1.136228   0.000000
   98       -1.093062   0.000000
   99       -1.060402   0.000000
  100       -0.883476   0.000000
  101       -0.780279   0.000000
  102       -0.719456   0.000000
  103       -0.660204   0.000000
  104       -0.594730   0.000000
  105       -0.478593   0.000000
  106       -0.259187   0.000000
  107       -0.171181   0.000000
  108       -0.064599   0.000000
  109        0.049933   0.000000
  110        0.230183   0.000000
  111        0.411501   0.000000
  112        0.562322   0.000000
  113        0.713508   0.000000
  114        0.891629   0.000000
  115        1.032058   0.000000
  116        1.116198   0.000000
  117        1.371649   0.000000
  118        2.183474   0.000000
  119        2.228776   0.000000
  120        2.377026   0.000000
 
  0.0000000E+00  0.1250000E+00  0.0000000E+00  0.3125000E-01
    1      -17.787429   1.000000
    2      -16.762027   1.000000
    3      -16.713351   1.000000
    4      -16.661897   1.000000
    5      -16.541889   1.000000
    6      -16.422782   1.000000
    7      -16.384759   1.000000
    8      -16.261988   1.000000
    9      -16.167048   1.000000
   10      -16.090013   1.000000
   11      -16.017200   1.000000
   12      -15.912927   1.000000
   13      -15.843062   1.000000
   14      -15.704153   1.000000
   15      -15.560450   1.000000
   16      -15.495087   1.000000
   17      -15.400748   1.000000
   18      -15.322423   1.000000
   19       -9.359467   1.000000
   20       -9.137648   1.000000
   21       -9.085019   1.000000
   22       -8.984897   1.000000
   23       -8.765193   1.000000
   24       -8.681087   1.000000
   25       -8.656552   1.000000
   26       -8.559497   1.000000
   27       -8.472092   1.000000
   28       -8.434017   1.000000
   29       -8.333085   1.000000
   30       -8.276932   1.000000
   31       -8.193276   1.000000
   32       -8.071195   1.000000
   33       -8.017238   1.000000
   34       -7.905218   1.000000
   35       -7.784322   1.000000
   36       -7.765047   1.000000
   37       -7.663786   1.000000
   38       -7.574566   1.000000
   39       -7.504278   1.000000
   40       -7.405633   1.000000
   41       -7.338930   1.000000
   42       -7.192218   1.000000
   43       -7.119791   1.000000
   44       -6.979579   1.000000
   45       -6.935796   1.000000
   46       -6.846296   1.000000
   47       -6.704239   1.000000
   48       -6.644199   1.000000
   49       -6.606836   1.000000
   50       -6.506525   1.000000
   51       -6.431285   1.000000
   52       -6.337814   1.000000
   53       -6.290379   1.000000
   54       -6.211739   1.000000
   55       -6.176304   1.000000
   56       -6.094338   1.000000
   57       -5.964200   1.000000
   58       -5.873601   1.000000
   59       -5.748446   1.000000
   60       -5.590589   1.000000
   61       -5.539767   1.000000
   62       -5.425822   1.000000
   63       -5.330220   1.000000
   64       -5.176274   1.000000
   65       -5.083369   1.000000
   66       -5.061941   1.000000
   67       -4.950773   1.000000
   68       -4.871218   1.000000
   69       -4.764462   1.000000
   70       -4.699620   1.000000
   71       -4.610582   1.000000
   72       -4.523842   1.000000
   73       -4.441259   1.000000
   74       -4.349346   1.000000
   75       -4.160492   1.000000
   76       -4.006519   0.999999
   77       -3.825654   0.999714
   78       -3.744407   0.997951
   79       -3.613889   0.974266
   80       -3.469542   0.823003
   81       -3.097258   0.044044
   82       -2.768758   0.000028
   83       -2.701038   0.000003
   84       -2.591796   0.000000
   85       -2.556691   0.000000
   86       -2.431926   0.000000
   87       -2.292858   0.000000
   88       -2.203698   0.000000
   89       -2.174930   0.000000
   90       -2.087727   0.000000
   91       -1.757610   0.000000
   92       -1.661224   0.000000
   93       -1.456595   0.000000
   94       -1.261419   0.000000
   95       -1.192520   0.000000
   96       -1.050284   0.000000
   97       -0.982507   0.000000
   98       -0.905164   0.000000
   99       -0.794602   0.000000
  100       -0.710875   0.000000
  101       -0.617538   0.000000
  102       -0.570025   0.000000
  103       -0.545762   0.000000
  104       -0.412736   0.000000
  105       -0.252045   0.000000
  106       -0.189326   0.000000
  107       -0.062610   0.000000
  108       -0.036475   0.000000
  109        0.149655   0.000000
  110        0.390965   0.000000
  111        0.420245   0.000000
  112        0.539639   0.000000
  113        0.653598   0.000000
  114        0.720545   0.000000
  115        0.874296   0.000000
  116        0.996951   0.000000
  117        1.250856   0.000000
  118        1.686024   0.000000
  119        1.870973   0.000000
  120        2.182061   0.000000
 
  0.1250000E+00  0.1250000E+00  0.0000000E+00  0.3125000E-01
    1      -17.739406   1.000000
    2      -16.917973   1.000000
    3      -16.759895   1.000000
    4      -16.694245   1.000000
    5      -16.474845   1.000000
    6      -16.404345   1.000000
    7      -16.357808   1.000000
    8      -16.253267   1.000000
    9      -16.208292   1.000000
   10      -16.012870   1.000000
   11      -15.973464   1.000000
   12      -15.892532   1.000000
   13      -15.783615   1.000000
   14      -15.738864   1.000000
   15      -15.580078   1.000000
   16      -15.509105   1.000000
   17      -15.398576   1.000000
   18      -15.332068   1.000000
   19       -9.401686   1.000000
   20       -9.306152   1.000000
   21       -9.189037   1.000000
   22       -9.046355   1.000000
   23       -8.779721   1.000000
   24       -8.742319   1.000000
   25       -8.615069   1.000000
   26       -8.540724   1.000000
   27       -8.465790   1.000000
   28       -8.381721   1.000000
   29       -8.269685   1.000000
   30       -8.233350   1.000000
   31       -8.137541   1.000000
   32       -8.072466   1.000000
   33       -7.941018   1.000000
   34       -7.884645   1.000000
   35       -7.773542   1.000000
   36       -7.664889   1.000000
   37       -7.595397   1.000000
   38       -7.534421   1.000000
   39       -7.472888   1.000000
   40       -7.410229   1.000000
   41       -7.292799   1.000000
   42       -7.190794   1.000000
   43       -7.109788   1.000000
   44       -7.058992   1.000000
   45       -6.938138   1.000000
   46       -6.832793   1.000000
   47       -6.718924   1.000000
   48       -6.639331   1.000000
   49       -6.552895   1.000000
   50       -6.455357   1.000000
   51       -6.408862   1.000000
   52       -6.360013   1.000000
   53       -6.295259   1.000000
   54       -6.219336   1.000000
   55       -6.154382   1.000000
   56       -6.109149   1.000000
   57       -5.928417   1.000000
   58       -5.900152   1.000000
   59       -5.734293   1.000000
   60       -5.673206   1.000000
   61       -5.624198   1.000000
   62       -5.513481   1.000000
   63       -5.417402   1.000000
   64       -5.283656   1.000000
   65       -5.181497   1.000000
   66       -5.023313   1.000000
   67       -4.915127   1.000000
   68       -4.805670   1.000000
   69       -4.786828   1.000000
   70       -4.646478   1.000000
   71       -4.536851   1.000000
   72       -4.445018   1.000000
   73       -4.357627   1.000000
   74       -4.349779   1.000000
   75       -4.205438   1.000000
   76       -4.097344   1.000000
   77       -3.913301   0.999976
   78       -3.804821   0.999513
   79       -3.603948   0.969759
   80       -3.386338   0.632517
   81       -3.110574   0.053544
   82       -2.745564   0.000014
   83       -2.644412   0.000000
   84       -2.600437   0.000000
   85       -2.535423   0.000000
   86       -2.406377   0.000000
   87       -2.246929   0.000000
   88       -2.181557   0.000000
   89       -2.135498   0.000000
   90       -2.027733   0.000000
   91       -1.769492   0.000000
   92       -1.646881   0.000000
   93       -1.436107   0.000000
   94       -1.299773   0.000000
   95       -1.195120   0.000000
   96       -1.085377   0.000000
   97       -0.993026   0.000000
   98       -0.968070   0.000000
   99       -0.887903   0.000000
  100       -0.818654   0.000000
  101       -0.681188   0.000000
  102       -0.601145   0.000000
  103       -0.558507   0.000000
  104       -0.473568   0.000000
  105       -0.319149   0.000000
  106       -0.194484   0.000000
  107       -0.137303   0.000000
  108       -0.011209   0.000000
  109        0.152698   0.000000
  110        0.354055   0.000000
  111        0.424955   0.000000
  112        0.519372   0.000000
  113        0.670927   0.000000
  114        0.785658   0.000000
  115        0.948059   0.000000
  116        1.028071   0.000000
  117        1.228910   0.000000
  118        1.764870   0.000000
  119        1.947706   0.000000
  120        2.250445   0.000000
 
  0.2500000E+00  0.1250000E+00  0.0000000E+00  0.3125000E-01
    1      -17.646856   1.000000
    2      -17.110451   1.000000
    3      -16.845646   1.000000
    4      -16.680927   1.000000
    5      -16.462739   1.000000
    6      -16.389284   1.000000
    7      -16.317471   1.000000
    8      -16.239076   1.000000
    9      -16.172587   1.000000
   10      -15.989589   1.000000
   11      -15.914959   1.000000
   12      -15.867986   1.000000
   13      -15.787220   1.000000
   14      -15.701370   1.000000
   15      -15.615308   1.000000
   16      -15.524476   1.000000
   17      -15.397620   1.000000
   18      -15.342107   1.000000
   19       -9.577667   1.000000
   20       -9.427441   1.000000
   21       -9.246098   1.000000
   22       -9.093749   1.000000
   23       -8.810111   1.000000
   24       -8.746214   1.000000
   25       -8.532803   1.000000
   26       -8.499020   1.000000
   27       -8.408291   1.000000
   28       -8.354786   1.000000
   29       -8.304608   1.000000
   30       -8.196919   1.000000
   31       -8.128799   1.000000
   32       -8.074054   1.000000
   33       -7.947065   1.000000
   34       -7.859293   1.000000
   35       -7.775589   1.000000
   36       -7.633314   1.000000
   37       -7.551318   1.000000
   38       -7.494933   1.000000
   39       -7.387498   1.000000
   40       -7.280538   1.000000
   41       -7.209380   1.000000
   42       -7.179632   1.000000
   43       -7.099388   1.000000
   44       -7.014677   1.000000
   45       -6.901242   1.000000
   46       -6.783353   1.000000
   47       -6.708116   1.000000