       N       E                     dE             d eps       ncg     rms          rms(c)
DAV:   1     0.112620700681E+04    0.11262E+04   -0.35978E+04  8160   0.577E+02
DAV:   2    -0.598005703387E-01   -0.11263E+04   -0.10838E+04 10960   0.173E+02
DAV:   3    -0.199394042536E+03   -0.19933E+03   -0.19072E+03 10880   0.823E+01
DAV:   4    -0.208938128215E+03   -0.95441E+01   -0.92256E+01 11880   0.265E+01
DAV:   5    -0.209312607388E+03   -0.37448E+00   -0.37343E+00 11600   0.390E+00    0.275E+01
DAV:   6    -0.237235187385E+03   -0.27923E+02   -0.10592E+02 12600   0.605E+01    0.595E+01
DAV:   7    -0.196468971749E+03    0.40766E+02   -0.17605E+02 13320   0.152E+02    0.200E+01
DAV:   8    -0.189435591679E+03    0.70334E+01   -0.17553E+01 11800   0.127E+01    0.125E+01
DAV:   9    -0.188231662879E+03    0.12039E+01   -0.36027E+00 12400   0.614E+00    0.929E+00
DAV:  10    -0.187080885115E+03    0.11508E+01   -0.19964E+00 13400   0.735E+00    0.317E+00
DAV:  11    -0.187030793309E+03    0.50092E-01   -0.72311E-01 13520   0.318E+00    0.341E+00
DAV:  12    -0.187177431570E+03   -0.14664E+00   -0.11554E+00 12600   0.556E+00    0.488E+00
DAV:  13    -0.186930486788E+03    0.24694E+00   -0.49596E-01 13160   0.361E+00    0.217E+00
DAV:  14    -0.186882021452E+03    0.48465E-01   -0.11326E-01 13440   0.165E+00    0.755E-01
DAV:  15    -0.186883475510E+03   -0.14541E-02   -0.40367E-02 12360   0.114E+00    0.114E+00
DAV:  16    -0.186875173541E+03    0.83020E-02   -0.19606E-02 13440   0.791E-01    0.567E-01
DAV:  17    -0.186871792066E+03    0.33815E-02   -0.97085E-03 12640   0.518E-01    0.217E-01
DAV:  18    -0.186871607375E+03    0.18469E-03   -0.20667E-03 11840   0.150E-01    0.152E-01
DAV:  19    -0.186871265637E+03    0.34174E-03   -0.88904E-04 11320   0.102E-01    0.509E-02
DAV:  20    -0.186872024684E+03   -0.75905E-03   -0.73197E-04  9200   0.620E-02    0.532E-02
DAV:  21    -0.186872642167E+03   -0.61748E-03   -0.20844E-04  8280   0.451E-02    0.328E-02
DAV:  22    -0.186873749482E+03   -0.11073E-02   -0.18193E-04  7600   0.426E-02    0.337E-02
DAV:  23    -0.186874971540E+03   -0.12221E-02   -0.13158E-04  7480   0.414E-02    0.120E-02
DAV:  24    -0.186875555502E+03   -0.58396E-03   -0.25145E-05  6840   0.133E-02    0.805E-03
DAV:  25    -0.186875932535E+03   -0.37703E-03   -0.15629E-05  5440   0.120E-02    0.490E-03
DAV:  26    -0.186876153948E+03   -0.22141E-03   -0.84362E-06  6840   0.717E-03    0.207E-03
DAV:  27    -0.186876255405E+03   -0.10146E-03   -0.37980E-06  7040   0.415E-03    0.130E-03
DAV:  28    -0.186876305898E+03   -0.50493E-04   -0.20948E-06  7200   0.307E-03
   1 F= -.18687631E+03 E0= -.18670455E+03  d E =-.186876E+03
       N       E                     dE             d eps       ncg     rms          rms(c)
DAV:   1    -0.187498007276E+03   -0.62175E+00   -0.26980E+02  8160   0.349E+01    0.463E+00
DAV:   2    -0.189499125162E+03   -0.20011E+01   -0.20236E+01 12240   0.156E+01    0.990E+00
DAV:   3    -0.189331845961E+03    0.16728E+00   -0.49125E+00 12400   0.126E+01    0.623E+00
DAV:   4    -0.188767197628E+03    0.56465E+00   -0.54859E-01 11840   0.432E+00    0.202E+00
DAV:   5    -0.188894095914E+03   -0.12690E+00   -0.49192E-01 12400   0.389E+00    0.538E+00
DAV:   6    -0.188746490505E+03    0.14761E+00   -0.73412E-01 12680   0.429E+00    0.236E+00
DAV:   7    -0.188706794815E+03    0.39696E-01   -0.21042E-01 11680   0.219E+00    0.194E+00
DAV:   8    -0.188694427670E+03    0.12367E-01   -0.11789E-01 12880   0.210E+00    0.172E+00
DAV:   9    -0.188668655424E+03    0.25772E-01   -0.47215E-02 11880   0.114E+00    0.480E-01
DAV:  10    -0.188667282677E+03    0.13727E-02   -0.60117E-03 11280   0.263E-01    0.271E-01
DAV:  11    -0.188666540330E+03    0.74235E-03   -0.29561E-03 13200   0.230E-01    0.131E-01
DAV:  12    -0.188666589137E+03   -0.48807E-04   -0.98875E-04 12040   0.950E-02
   2 F= -.18866659E+03 E0= -.18852683E+03  d E =-.179028E+01
       N       E                     dE             d eps       ncg     rms          rms(c)
DAV:   1    -0.190581877158E+03   -0.19153E+01   -0.30767E+01  9200   0.141E+01    0.445E+00
DAV:   2    -0.190566018622E+03    0.15859E-01   -0.28041E+00 11040   0.966E+00    0.739E+00
DAV:   3    -0.190056654425E+03    0.50936E+00   -0.13010E+00 12280   0.865E+00    0.414E+00
DAV:   4    -0.189852170960E+03    0.20448E+00   -0.68338E-01 12720   0.411E+00    0.247E+00
DAV:   5    -0.189786895254E+03    0.65276E-01   -0.30889E-01 11120   0.235E+00    0.196E+00
DAV:   6    -0.189756506196E+03    0.30389E-01   -0.10373E-01 12640   0.192E+00    0.850E-01
DAV:   7    -0.189748935601E+03    0.75706E-02   -0.15031E-02 12560   0.592E-01    0.193E-01
DAV:   8    -0.189749043209E+03   -0.10761E-03   -0.27193E-03 11240   0.198E-01    0.182E-01
DAV:   9    -0.189749321589E+03   -0.27838E-03   -0.14281E-03 10840   0.263E-01    0.228E-01
DAV:  10    -0.189749235589E+03    0.86001E-04   -0.10744E-03 10200   0.202E-01    0.106E-01
DAV:  11    -0.189749057228E+03    0.17836E-03   -0.38177E-04  7760   0.745E-02    0.290E-02
DAV:  12    -0.189749068312E+03   -0.11084E-04   -0.74727E-05  7720   0.301E-02
   3 F= -.18974907E+03 E0= -.18963166E+03  d E =-.108248E+01
       N       E                     dE             d eps       ncg     rms          rms(c)
DAV:   1    -0.191289821589E+03   -0.15408E+01   -0.70381E+01  8160   0.192E+01    0.460E+00
DAV:   2    -0.191181724327E+03    0.10810E+00   -0.53587E+00 13400   0.838E+00    0.521E+00
DAV:   3    -0.191222756076E+03   -0.41032E-01   -0.15642E+00 11800   0.919E+00    0.678E+00
DAV:   4    -0.190900651418E+03    0.32210E+00   -0.15341E+00 12480   0.778E+00    0.406E+00
DAV:   5    -0.190889137660E+03    0.11514E-01   -0.85279E-01 11200   0.584E+00    0.359E+00
DAV:   6    -0.190707684423E+03    0.18145E+00   -0.20553E-01 11080   0.297E+00    0.605E-01
DAV:   7    -0.190706018728E+03    0.16657E-02   -0.37040E-02 11360   0.701E-01    0.454E-01
DAV:   8    -0.190702937078E+03    0.30817E-02   -0.77162E-03 10400   0.408E-01    0.246E-01
DAV:   9    -0.190702876582E+03    0.60496E-04   -0.20299E-03 12480   0.313E-01    0.200E-01
DAV:  10    -0.190702913724E+03   -0.37142E-04   -0.12190E-03 11520   0.189E-01    0.101E-01
DAV:  11    -0.190702812777E+03    0.10095E-03   -0.56391E-04  9760   0.875E-02    0.445E-02
DAV:  12    -0.190702820719E+03   -0.79415E-05   -0.13706E-04  7680   0.438E-02
   4 F= -.19070282E+03 E0= -.19060428E+03  d E =-.953752E+00
       N       E                     dE             d eps       ncg     rms          rms(c)
DAV:   1    -0.192117001109E+03   -0.14142E+01   -0.15224E+02  8160   0.277E+01    0.585E+00
DAV:   2    -0.191965978834E+03    0.15102E+00   -0.99806E+00 12200   0.958E+00    0.556E+00
DAV:   3    -0.192425338249E+03   -0.45936E+00   -0.33901E+00 12240   0.127E+01    0.945E+00
DAV:   4    -0.191546215246E+03    0.87912E+00   -0.21993E+00 12320   0.106E+01    0.307E+00
DAV:   5    -0.191522270620E+03    0.23945E-01   -0.56369E-01 11800   0.505E+00    0.428E+00
DAV:   6    -0.191374652312E+03    0.14762E+00   -0.62276E-01 12200   0.527E+00    0.160E+00
DAV:   7    -0.191350155318E+03    0.24497E-01   -0.72820E-02 11920   0.147E+00    0.716E-01
DAV:   8    -0.191348552003E+03    0.16033E-02   -0.26179E-02 12120   0.115E+00    0.770E-01
DAV:   9    -0.191342652143E+03    0.58999E-02   -0.10276E-02 11480   0.760E-01    0.231E-01
DAV:  10    -0.191342793644E+03   -0.14150E-03   -0.28599E-03 11840   0.225E-01    0.116E-01
DAV:  11    -0.191342663343E+03    0.13030E-03   -0.87002E-04 10720   0.109E-01    0.653E-02
DAV:  12    -0.191342624670E+03    0.38673E-04   -0.14337E-04  7120   0.481E-02
   5 F= -.19134262E+03 E0= -.19124939E+03  d E =-.639804E+00
       N       E                     dE             d eps       ncg     rms          rms(c)
DAV:   1    -0.191395391379E+03   -0.52728E-01   -0.47849E+00  8160   0.464E+00    0.636E-01
DAV:   2    -0.191454536639E+03   -0.59145E-01   -0.24793E-01 12360   0.259E+00    0.229E+00
DAV:   3    -0.191406433786E+03    0.48103E-01   -0.11954E-01 12000   0.231E+00    0.565E-01
DAV:   4    -0.191406702216E+03   -0.26843E-03   -0.16319E-02 11400   0.863E-01    0.608E-01
DAV:   5    -0.191402887852E+03    0.38144E-02   -0.75799E-03 11440   0.642E-01    0.196E-01
DAV:   6    -0.191402903232E+03   -0.15379E-04   -0.23757E-03 11320   0.299E-01    0.226E-01
DAV:   7    -0.191402926003E+03   -0.22771E-04   -0.26187E-03 11680   0.386E-01    0.221E-01
DAV:   8    -0.191402365988E+03    0.56001E-03   -0.94824E-04  9880   0.210E-01    0.318E-02
DAV:   9    -0.191402378592E+03   -0.12604E-04   -0.90936E-05  6080   0.381E-02
   6 F= -.19140238E+03 E0= -.19130680E+03  d E =-.597539E-01
       N       E                     dE             d eps       ncg     rms          rms(c)
DAV:   1    -0.191465923402E+03   -0.63557E-01   -0.83578E+00  8160   0.611E+00    0.833E-01
DAV:   2    -0.191575578329E+03   -0.10965E+00   -0.39266E-01 13120   0.356E+00    0.335E+00
DAV:   3    -0.191479804118E+03    0.95774E-01   -0.25625E-01 12080   0.322E+00    0.770E-01
DAV:   4    -0.191479017820E+03    0.78630E-03   -0.28482E-02 11640   0.115E+00    0.763E-01
DAV:   5    -0.191473098020E+03    0.59198E-02   -0.12574E-02 11680   0.791E-01    0.266E-01
DAV:   6    -0.191473340109E+03   -0.24209E-03   -0.48463E-03 11440   0.463E-01    0.352E-01
DAV:   7    -0.191472635841E+03    0.70427E-03   -0.43710E-03 11400   0.497E-01    0.214E-01
DAV:   8    -0.191472055829E+03    0.58001E-03   -0.10987E-03  9960   0.206E-01    0.383E-02
DAV:   9    -0.191472050778E+03    0.50509E-05   -0.12857E-04  6720   0.456E-02
   7 F= -.19147205E+03 E0= -.19137445E+03  d E =-.696722E-01
       N       E                     dE             d eps       ncg     rms          rms(c)
DAV:   1    -0.191516517045E+03   -0.44461E-01   -0.39744E+00  8160   0.425E+00    0.590E-01
DAV:   2    -0.191567952938E+03   -0.51436E-01   -0.19388E-01 12680   0.251E+00    0.227E+00
DAV:   3    -0.191522776572E+03    0.45176E-01   -0.11124E-01 12080   0.217E+00    0.516E-01
DAV:   4    -0.191523268402E+03   -0.49183E-03   -0.14583E-02 11480   0.827E-01    0.581E-01
DAV:   5    -0.191519859381E+03    0.34090E-02   -0.73985E-03 11480   0.603E-01    0.206E-01
DAV:   6    -0.191520041010E+03   -0.18163E-03   -0.28386E-03 11280   0.364E-01    0.268E-01
DAV:   7    -0.191519558098E+03    0.48291E-03   -0.23733E-03 11440   0.365E-01    0.144E-01
DAV:   8    -0.191519273900E+03    0.28420E-03   -0.53714E-04  8760   0.142E-01    0.297E-02
DAV:   9    -0.191519268557E+03    0.53432E-05   -0.82278E-05  6960   0.373E-02
   8 F= -.19151927E+03 E0= -.19142145E+03  d E =-.472178E-01
       N       E                     dE             d eps       ncg     rms          rms(c)
DAV:   1    -0.191568560769E+03   -0.49287E-01   -0.50525E+00  8160   0.479E+00    0.586E-01
DAV:   2    -0.191611689337E+03   -0.43129E-01   -0.19657E-01 13120   0.223E+00    0.202E+00
DAV:   3    -0.191576936040E+03    0.34753E-01   -0.96391E-02 12200   0.201E+00    0.536E-01
DAV:   4    -0.191577811042E+03   -0.87500E-03   -0.15098E-02 11440   0.830E-01    0.629E-01
DAV:   5    -0.191573764069E+03    0.40470E-02   -0.84974E-03 11200   0.666E-01    0.221E-01
DAV:   6    -0.191573824291E+03   -0.60223E-04   -0.27822E-03 11440   0.349E-01    0.248E-01
DAV:   7    -0.191573610826E+03    0.21347E-03   -0.25301E-03 11160   0.392E-01    0.188E-01
DAV:   8    -0.191573123249E+03    0.48758E-03   -0.77220E-04  9480   0.194E-01    0.297E-02
DAV:   9    -0.191573124172E+03   -0.92338E-06   -0.85189E-05  6800   0.369E-02
   9 F= -.19157312E+03 E0= -.19147690E+03  d E =-.538556E-01
       N       E                     dE             d eps       ncg     rms          rms(c)
DAV:   1    -0.191578352632E+03   -0.52294E-02   -0.46243E-02  8160   0.462E-01    0.587E-02
DAV:   2    -0.191578712114E+03   -0.35948E-03   -0.19735E-03 13040   0.215E-01    0.171E-01
DAV:   3    -0.191578429962E+03    0.28215E-03   -0.69220E-04  8720   0.183E-01    0.543E-02
DAV:   4    -0.191578440180E+03   -0.10219E-04   -0.13491E-04  5640   0.833E-02
  10 F= -.19157844E+03 E0= -.19148246E+03  d E =-.531601E-02
       N       E                     dE             d eps       ncg     rms          rms(c)
DAV:   1    -0.191544585108E+03    0.33845E-01   -0.20966E+00  8160   0.311E+00    0.450E-01
DAV:   2    -0.191562834466E+03   -0.18249E-01   -0.10233E-01 12520   0.173E+00    0.118E+00
DAV:   3    -0.191546639920E+03    0.16195E-01   -0.28363E-02 11840   0.133E+00    0.293E-01
DAV:   4    -0.191547147626E+03   -0.50771E-03   -0.63690E-03 11240   0.548E-01    0.430E-01
DAV:   5    -0.191545475972E+03    0.16717E-02   -0.49618E-03 11280   0.510E-01    0.206E-01
DAV:   6    -0.191545570793E+03   -0.94821E-04   -0.25907E-03 11360   0.310E-01    0.243E-01
DAV:   7    -0.191545104644E+03    0.46615E-03   -0.16547E-03  9760   0.291E-01    0.110E-01
DAV:   8    -0.191544974100E+03    0.13054E-03   -0.28965E-04  7240   0.107E-01    0.265E-02
DAV:   9    -0.191544969017E+03    0.50823E-05   -0.49860E-05  6800   0.291E-02
  11 F= -.19154497E+03 E0= -.19144821E+03  d E =0.334712E-01
       N       E                     dE             d eps       ncg     rms          rms(c)
DAV:   1    -0.191526268785E+03    0.18705E-01   -0.73241E-01  8160   0.182E+00    0.202E-01
DAV:   2    -0.191529287872E+03   -0.30191E-02   -0.23358E-02 13040   0.622E-01    0.416E-01
DAV:   3    -0.191527551042E+03    0.17368E-02   -0.53846E-03 12360   0.554E-01    0.199E-01
DAV:   4    -0.191527335292E+03    0.21575E-03   -0.13274E-03  9840   0.244E-01    0.153E-01
DAV:   5    -0.191527141752E+03    0.19354E-03   -0.75256E-04  9360   0.207E-01    0.107E-01
DAV:   6    -0.191527103703E+03    0.38049E-04   -0.48151E-04  8360   0.144E-01
  12 F= -.19152710E+03 E0= -.19143028E+03  d E =0.178653E-01
       N       E                     dE             d eps       ncg     rms          rms(c)
DAV:   1    -0.191506874006E+03    0.20268E-01   -0.40790E+00  8160   0.435E+00    0.460E-01
DAV:   2    -0.191516548091E+03   -0.96741E-02   -0.11417E-01 12760   0.102E+00    0.630E-01
DAV:   3    -0.191516132249E+03    0.41584E-03   -0.22450E-02 12440   0.109E+00    0.688E-01
DAV:   4    -0.191512691838E+03    0.34404E-02   -0.10947E-02 12240   0.702E-01    0.386E-01
DAV:   5    -0.191511510678E+03    0.11812E-02   -0.47681E-03 10800   0.484E-01    0.258E-01
DAV:   6    -0.191511261395E+03    0.24928E-03   -0.29140E-03 11840   0.361E-01    0.180E-01
DAV:   7    -0.191511160982E+03    0.10041E-03   -0.17761E-03  9880   0.294E-01    0.191E-01
DAV:   8    -0.191510756664E+03    0.40432E-03   -0.63913E-04  8680   0.193E-01    0.269E-02
DAV:   9    -0.191510759373E+03   -0.27096E-05   -0.48963E-05  6440   0.298E-02
  13 F= -.19151076E+03 E0= -.19141486E+03  d E =0.163443E-01
       N       E                     dE             d eps       ncg     rms          rms(c)
DAV:   1    -0.191526196929E+03   -0.15440E-01   -0.12332E+00  8160   0.240E+00    0.304E-01
DAV:   2    -0.191534397413E+03   -0.82005E-02   -0.43200E-02 13480   0.101E+00    0.879E-01
DAV:   3    -0.191527520016E+03    0.68774E-02   -0.16848E-02 12280   0.921E-01    0.267E-01
DAV:   4    -0.191527747362E+03   -0.22735E-03   -0.35316E-03 11520   0.384E-01    0.316E-01
DAV:   5    -0.191526911541E+03    0.83582E-03   -0.29903E-03 10280   0.402E-01    0.176E-01
DAV:   6    -0.191526647770E+03    0.26377E-03   -0.10210E-03  9560   0.190E-01    0.730E-02
DAV:   7    -0.191526631940E+03    0.15830E-04   -0.37106E-04  9360   0.131E-01
  14 F= -.19152663E+03 E0= -.19143232E+03  d E =-.158726E-01
       N       E                     dE             d eps       ncg     rms          rms(c)
DAV:   1    -0.191573772535E+03   -0.47125E-01   -0.58745E+00  8160   0.526E+00    0.695E-01
DAV:   2    -0.191627036653E+03   -0.53264E-01   -0.24674E-01 13160   0.257E+00    0.228E+00
DAV:   3    -0.191582735263E+03    0.44301E-01   -0.10505E-01 12280   0.229E+00    0.583E-01
DAV:   4    -0.191585495452E+03   -0.27602E-02   -0.19079E-02 11640   0.100E+00    0.813E-01
DAV:   5    -0.191578631364E+03    0.68641E-02   -0.13337E-02 11160   0.890E-01    0.265E-01
DAV:   6    -0.191578400937E+03    0.23043E-03   -0.36661E-03 11400   0.357E-01    0.218E-01
DAV:   7    -0.191578285477E+03    0.11546E-03   -0.23742E-03 11720   0.400E-01    0.208E-01
DAV:   8    -0.191577703217E+03    0.58226E-03   -0.73318E-04 10400   0.213E-01    0.322E-02
DAV:   9    -0.191577702792E+03    0.42480E-06   -0.85802E-05  5840   0.364E-02
  15 F= -.19157770E+03 E0= -.19148718E+03  d E =-.510709E-01
       N       E                     dE             d eps       ncg     rms          rms(c)
DAV:   1    -0.191599330638E+03   -0.21627E-01   -0.10562E+00  8160   0.225E+00    0.334E-01
DAV:   2    -0.191608764585E+03   -0.94339E-02   -0.48041E-02 13280   0.116E+00    0.975E-01
DAV:   3    -0.191600198292E+03    0.85663E-02   -0.19081E-02 12240   0.103E+00    0.280E-01
DAV:   4    -0.191600626718E+03   -0.42843E-03   -0.42004E-03 11440   0.470E-01    0.376E-01
DAV:   5    -0.191599262615E+03    0.13641E-02   -0.31480E-03 10280   0.431E-01    0.150E-01
DAV:   6    -0.191599182986E+03    0.79629E-04   -0.10273E-03  9640   0.213E-01    0.131E-01
DAV:   7    -0.191599050703E+03    0.13228E-03   -0.60647E-04 10160   0.200E-01    0.824E-02
DAV:   8    -0.191598965660E+03    0.85043E-04   -0.13415E-04  6280   0.927E-02
  16 F= -.19159897E+03 E0= -.19151003E+03  d E =-.212629E-01
       N       E                     dE             d eps       ncg     rms          rms(c)
DAV:   1    -0.191642407051E+03   -0.43356E-01   -0.56492E+00  8160   0.514E+00    0.633E-01
DAV:   2    -0.191677185690E+03   -0.34779E-01   -0.20017E-01 13560   0.212E+00    0.174E+00
DAV:   3    -0.191651105086E+03    0.26081E-01   -0.64049E-02 12240   0.191E+00    0.558E-01
DAV:   4    -0.191652017063E+03   -0.91198E-03   -0.12656E-02 12160   0.845E-01    0.681E-01
DAV:   5    -0.191647365264E+03    0.46518E-02   -0.97358E-03 11680   0.805E-01    0.265E-01
DAV:   6    -0.191646908020E+03    0.45724E-03   -0.29497E-03 11280   0.292E-01    0.142E-01
DAV:   7    -0.191646672265E+03    0.23576E-03   -0.11887E-03 10520   0.203E-01    0.122E-01
DAV:   8    -0.191646495849E+03    0.17642E-03   -0.34217E-04  8880   0.155E-01    0.447E-02
DAV:   9    -0.191646474298E+03    0.21551E-04   -0.74896E-05  6240   0.617E-02
  17 F= -.19164647E+03 E0= -.19156203E+03  d E =-.475086E-01
       N       E                     dE             d eps       ncg     rms          rms(c)
DAV:   1    -0.191668277432E+03   -0.21782E-01   -0.12320E+00  8160   0.242E+00    0.307E-01
DAV:   2    -0.191672878365E+03   -0.46009E-02   -0.43806E-02 13520   0.847E-01    0.594E-01
DAV:   3    -0.191670257251E+03    0.26211E-02   -0.10081E-02 12280   0.792E-01    0.324E-01
DAV:   4    -0.191669641457E+03    0.61579E-03   -0.27192E-03 11320   0.398E-01    0.267E-01
DAV:   5    -0.191669114979E+03    0.52648E-03   -0.21163E-03 10040   0.370E-01    0.173E-01
DAV:   6    -0.191668951613E+03    0.16337E-03   -0.99281E-04  9560   0.219E-01    0.115E-01
DAV:   7    -0.191668847478E+03    0.10413E-03   -0.46753E-04  8840   0.179E-01    0.807E-02
DAV:   8    -0.191668767644E+03    0.79834E-04   -0.12700E-04  6400   0.967E-02
  18 F= -.19166877E+03 E0= -.19158620E+03  d E =-.222933E-01
       N       E                     dE             d eps       ncg     rms          rms(c)
DAV:   1    -0.191690435742E+03   -0.21588E-01   -0.13030E+00  8160   0.246E+00    0.276E-01
DAV:   2    -0.191693754342E+03   -0.33186E-02   -0.37684E-02 13520   0.693E-01    0.429E-01
DAV:   3    -0.191692879547E+03    0.87479E-03   -0.70219E-03 12360   0.687E-01    0.333E-01
DAV:   4    -0.191691847691E+03    0.10319E-02   -0.18354E-03 11120   0.339E-01    0.177E-01
DAV:   5    -0.191691838292E+03    0.93993E-05   -0.14190E-03 10000   0.306E-01    0.189E-01
DAV:   6    -0.191691573773E+03    0.26452E-03   -0.85475E-04  9520   0.211E-01    0.745E-02
DAV:   7    -0.191691485351E+03    0.88422E-04   -0.19693E-04  6640   0.810E-02
  19 F= -.19169149E+03 E0= -.19161082E+03  d E =-.227177E-01
       N       E                     dE             d eps       ncg     rms          rms(c)
DAV:   1    -0.191701811152E+03   -0.10237E-01   -0.27515E-01  8160   0.114E+00    0.131E-01
DAV:   2    -0.191702347821E+03   -0.53667E-03   -0.81188E-03 13400   0.281E-01    0.156E-01
DAV:   3    -0.191702409286E+03   -0.61464E-04   -0.14151E-03 11240   0.314E-01    0.181E-01
DAV:   4    -0.191702062528E+03    0.34676E-03   -0.47550E-04  8360   0.191E-01    0.697E-02
DAV:   5    -0.191702091334E+03   -0.28806E-04   -0.27993E-04  7960   0.129E-01
  20 F= -.19170209E+03 E0= -.19162215E+03  d E =-.106060E-01
       N       E                     dE             d eps       ncg     rms          rms(c)
DAV:   1    -0.191680192883E+03    0.21870E-01   -0.13051E+00  8160   0.249E+00    0.329E-01
DAV:   2    -0.191685409608E+03   -0.52167E-02   -0.43329E-02 12720   0.893E-01    0.683E-01
DAV:   3    -0.191681402159E+03    0.40074E-02   -0.11136E-02 12040   0.854E-01    0.340E-01
DAV:   4    -0.191680658338E+03    0.74382E-03   -0.34410E-03 10880   0.408E-01    0.241E-01
DAV:   5    -0.191680189856E+03    0.46848E-03   -0.19526E-03 10040   0.360E-01    0.177E-01
DAV:   6    -0.191679907749E+03    0.28211E-03   -0.10213E-03 10280   0.245E-01    0.881E-02
DAV:   7    -0.191679835327E+03    0.72422E-04   -0.37181E-04  9040   0.126E-01
  21 F= -.19167984E+03 E0= -.19159814E+03  d E =0.222560E-01
       N       E                     dE             d eps       ncg     rms          rms(c)
DAV:   1    -0.191730489723E+03   -0.50582E-01   -0.68774E+00  8160   0.572E+00    0.691E-01
DAV:   2    -0.191750016710E+03   -0.19527E-01   -0.21019E-01 13480   0.178E+00    0.125E+00
DAV:   3    -0.191740339797E+03    0.96769E-02   -0.46037E-02 11120   0.171E+00    0.745E-01
DAV:   4    -0.191736147877E+03    0.41919E-02   -0.12774E-02 12240   0.930E-01    0.555E-01
DAV:   5    -0.191733485191E+03    0.26627E-02   -0.91768E-03 11280   0.826E-01    0.349E-01
DAV:   6    -0.191732459223E+03    0.10260E-02   -0.44921E-03 10320   0.449E-01    0.195E-01
DAV:   7    -0.191732266968E+03    0.19226E-03   -0.16571E-03 10560   0.346E-01    0.172E-01
DAV:   8    -0.191731903489E+03    0.36348E-03   -0.57786E-04  9640   0.197E-01    0.399E-02
DAV:   9    -0.191731886562E+03    0.16927E-04   -0.90017E-05  6240   0.431E-02
  22 F= -.19173189E+03 E0= -.19165334E+03  d E =-.520512E-01
       N       E                     dE             d eps       ncg     rms          rms(c)
DAV:   1    -0.191751081261E+03   -0.19178E-01   -0.98222E-01  8160   0.214E+00    0.228E-01
DAV:   2    -0.191752448264E+03   -0.13670E-02   -0.25509E-02 12240   0.458E-01    0.188E-01
DAV:   3    -0.191753388200E+03   -0.93994E-03   -0.38339E-03 11960   0.474E-01    0.362E-01
DAV:   4    -0.191752021465E+03    0.13667E-02   -0.20308E-03 11040   0.397E-01    0.122E-01
DAV:   5    -0.191752069581E+03   -0.48116E-04   -0.80201E-04  9680   0.205E-01
  23 F= -.19175207E+03 E0= -.19167379E+03  d E =-.201830E-01
       N       E                     dE             d eps       ncg     rms          rms(c)
DAV:   1    -0.191748782116E+03    0.32393E-02   -0.38383E-02  9400   0.545E-01    0.141E-01
DAV:   2    -0.191750653907E+03   -0.18718E-02   -0.46613E-03 11920   0.524E-01    0.436E-01
DAV:   3    -0.191748486098E+03    0.21678E-02   -0.28330E-03 11240   0.494E-01    0.110E-01
DAV:   4    -0.191748439902E+03    0.46197E-04   -0.44568E-04  8600   0.143E-01
  24 F= -.19174844E+03 E0= -.19167073E+03  d E =0.362968E-02
       N       E                     dE             d eps       ncg     rms          rms(c)
DAV:   1    -0.191760056589E+03   -0.11570E-01   -0.71907E-01  8160   0.188E+00    0.344E-01
DAV:   2    -0.191760517502E+03   -0.46091E-03   -0.34116E-02 11400   0.732E-01    0.422E-01
DAV:   3    -0.191759993839E+03    0.52366E-03   -0.83522E-03 12040   0.789E-01    0.400E-01
DAV:   4    -0.191758499720E+03    0.14941E-02   -0.37280E-03 11240   0.531E-01    0.261E-01
DAV:   5    -0.191758387082E+03    0.11264E-03   -0.26722E-03  9960   0.435E-01    0.246E-01
DAV:   6    -0.191757644080E+03    0.74300E-03   -0.13094E-03 10160   0.264E-01    0.495E-02
DAV:   7    -0.191757682606E+03   -0.38526E-04   -0.22207E-04  6760   0.104E-01
  25 F= -.19175768E+03 E0= -.19168130E+03  d E =-.924270E-02
       N       E                     dE             d eps       ncg     rms          rms(c)
DAV:   1    -0.191776850373E+03   -0.19206E-01   -0.54998E-01  8160   0.175E+00    0.422E-01
DAV:   2    -0.191775291696E+03    0.15587E-02   -0.31289E-02 11360   0.771E-01    0.533E-01
DAV:   3    -0.191774078145E+03    0.12136E-02   -0.12747E-02 11280   0.982E-01    0.453E-01
DAV:   4    -0.191771600729E+03    0.24774E-02   -0.55287E-03 11320   0.596E-01    0.255E-01
DAV:   5    -0.191771664526E+03   -0.63797E-04   -0.33550E-03 10720   0.485E-01    0.295E-01
DAV:   6    -0.191770635065E+03    0.10295E-02   -0.16956E-03 10320   0.318E-01    0.759E-02
DAV:   7    -0.191770646785E+03   -0.11720E-04   -0.28217E-04  7720   0.132E-01
  26 F= -.19177065E+03 E0= -.19169340E+03  d E =-.129642E-01
       N       E                     dE             d eps       ncg     rms          rms(c)
DAV:   1    -0.191798167701E+03   -0.27533E-01   -0.20489E+00  8160   0.310E+00    0.349E-01
DAV:   2    -0.191801416082E+03   -0.32484E-02   -0.57415E-02 12920   0.772E-01    0.356E-01
DAV:   3    -0.191802029156E+03   -0.61307E-03   -0.77422E-03 11480   0.763E-01    0.432E-01
DAV:   4    -0.191799700853E+03    0.23283E-02   -0.32383E-03 11560   0.503E-01    0.175E-01
DAV:   5    -0.191800044266E+03   -0.34341E-03   -0.19472E-03 10200   0.373E-01    0.256E-01
DAV:   6    -0.191799442101E+03    0.60216E-03   -0.13972E-03 10120   0.294E-01    0.939E-02
DAV:   7    -0.191799365200E+03    0.76901E-04   -0.42544E-04  8400   0.144E-01
  27 F= -.19179937E+03 E0= -.19172222E+03  d E =-.287184E-01
       N       E                     dE             d eps       ncg     rms          rms(c)
DAV:   1    -0.191829544818E+03   -0.30103E-01   -0.26410E+00  8160   0.350E+00    0.389E-01
DAV:   2    -0.191835251090E+03   -0.57063E-02   -0.77331E-02 12680   0.964E-01    0.487E-01
DAV:   3    -0.191834677086E+03    0.57400E-03   -0.11958E-02 11520   0.915E-01    0.442E-01
DAV:   4    -0.191832262433E+03    0.24147E-02   -0.42508E-03 11760   0.511E-01    0.178E-01
DAV:   5    -0.191832512853E+03   -0.25042E-03   -0.26483E-03 10920   0.390E-01    0.240E-01
DAV:   6    -0.191831988585E+03    0.52427E-03   -0.15738E-03 11560   0.318E-01    0.997E-02
DAV:   7    -0.191831822567E+03    0.16602E-03   -0.37981E-04  8680   0.108E-01    0.476E-02
DAV:   8    -0.191831812041E+03    0.10526E-04   -0.82428E-05  6720   0.789E-02
  28 F= -.19183181E+03 E0= -.19175461E+03  d E =-.324468E-01
       N       E                     dE             d eps       ncg     rms          rms(c)
DAV:   1    -0.191843001137E+03   -0.11179E-01   -0.34687E-01  8160   0.126E+00    0.138E-01
DAV:   2    -0.191844023100E+03   -0.10220E-02   -0.10033E-02 12440   0.400E-01    0.231E-01
DAV:   3    -0.191843586636E+03    0.43646E-03   -0.19152E-03 11960   0.360E-01    0.133E-01
DAV:   4    -0.191843389610E+03    0.19703E-03   -0.39001E-04  8200   0.149E-01    0.588E-02
DAV:   5    -0.191843431423E+03   -0.41812E-04   -0.24731E-04  8880   0.133E-01
  29 F= -.19184343E+03 E0= -.19176606E+03  d E =-.116194E-01
       N       E                     dE             d eps       ncg     rms          rms(c)
DAV:   1    -0.191847761034E+03   -0.43714E-02   -0.88053E-02  8160   0.677E-01    0.102E-01
DAV:   2    -0.191847822750E+03   -0.61716E-04   -0.32267E-03 11320   0.196E-01    0.112E-01
DAV:   3    -0.191847863201E+03   -0.40452E-04   -0.72228E-04 10360   0.230E-01
  30 F= -.19184786E+03 E0= -.19177110E+03  d E =-.443178E-02
       N       E                     dE             d eps       ncg     rms          rms(c)
DAV:   1    -0.191873711400E+03   -0.25889E-01   -0.18000E+00  8160   0.291E+00    0.362E-01
DAV:   2    -0.191879560546E+03   -0.58491E-02   -0.58932E-02 12440   0.102E+00    0.620E-01
DAV:   3    -0.191876252683E+03    0.33079E-02   -0.12401E-02 12080   0.928E-01    0.329E-01
DAV:   4    -0.191874998641E+03    0.12540E-02   -0.29701E-03 12240   0.404E-01    0.189E-01
DAV:   5    -0.191875079435E+03   -0.80794E-04   -0.21658E-03 10840   0.384E-01    0.221E-01
DAV:   6    -0.191874650033E+03    0.42940E-03   -0.14184E-03 10240   0.285E-01    0.108E-01
DAV:   7    -0.191874553811E+03    0.96222E-04   -0.48442E-04  8240   0.164E-01
  31 F= -.19187455E+03 E0= -.19179744E+03  d E =-.266906E-01
       N       E                     dE             d eps       ncg     rms          rms(c)
DAV:   1    -0.191903099947E+03   -0.28450E-01   -0.26830E+00  8160   0.349E+00    0.390E-01
DAV:   2    -0.191909835289E+03   -0.67353E-02   -0.79334E-02 11960   0.103E+00    0.565E-01
DAV:   3    -0.191908041709E+03    0.17936E-02   -0.15816E-02 12040   0.988E-01    0.431E-01
DAV:   4    -0.191905790041E+03    0.22517E-02   -0.45353E-03 11320   0.484E-01    0.145E-01
DAV:   5    -0.191906152736E+03   -0.36270E-03   -0.19833E-03 11320   0.335E-01    0.239E-01
DAV:   6    -0.191905702043E+03    0.45069E-03   -0.15223E-03 10960   0.336E-01    0.132E-01
DAV:   7    -0.191905533145E+03    0.16890E-03   -0.45550E-04  8240   0.169E-01    0.682E-02
DAV:   8    -0.191905486657E+03    0.46488E-04   -0.10674E-04  5960   0.978E-02
  32 F= -.19190549E+03 E0= -.19182937E+03  d E =-.309328E-01
       N       E                     dE             d eps       ncg     rms          rms(c)
DAV:   1    -0.191907141894E+03   -0.16087E-02   -0.10686E-01  8160   0.753E-01    0.171E-01
DAV:   2    -0.191907727145E+03   -0.58525E-03   -0.71543E-03 11360   0.451E-01    0.321E-01
DAV:   3    -0.191906742751E+03    0.98439E-03   -0.24140E-03 11440   0.443E-01    0.143E-01
DAV:   4    -0.191906621933E+03    0.12082E-03   -0.82206E-04 10000   0.233E-01    0.136E-01
DAV:   5    -0.191906467527E+03    0.15441E-03   -0.59255E-04  9080   0.213E-01    0.865E-02
DAV:   6    -0.191906361112E+03    0.10641E-03   -0.24469E-04  6760   0.105E-01    0.225E-02
DAV:   7    -0.191906359880E+03    0.12323E-05   -0.53383E-05  6400   0.380E-02
  33 F= -.19190636E+03 E0= -.19182963E+03  d E =-.873223E-03
       N       E                     dE             d eps       ncg     rms          rms(c)
DAV:   1    -0.191933903206E+03   -0.27542E-01   -0.20706E+00  8160   0.308E+00    0.367E-01
DAV:   2    -0.191942404606E+03   -0.85014E-02   -0.68155E-02 12360   0.118E+00    0.749E-01
DAV:   3    -0.191936669855E+03    0.57348E-02   -0.16657E-02 11960   0.103E+00    0.281E-01
DAV:   4    -0.191935742867E+03    0.92699E-03   -0.27864E-03 12240   0.348E-01    0.175E-01
DAV:   5    -0.191935829359E+03   -0.86492E-04   -0.20411E-03 11120   0.374E-01    0.202E-01
DAV:   6    -0.191935379115E+03    0.45024E-03   -0.11188E-03  9960   0.245E-01    0.557E-02
DAV:   7    -0.191935353330E+03    0.25785E-04   -0.12355E-04  6520   0.943E-02
  34 F= -.19193535E+03 E0= -.19185863E+03  d E =-.289934E-01
       N       E                     dE             d eps       ncg     rms          rms(c)
DAV:   1    -0.191953832825E+03   -0.18454E-01   -0.94412E-01  8160   0.207E+00    0.233E-01
DAV:   2    -0.191957763124E+03   -0.39303E-02   -0.30055E-02 12600   0.773E-01    0.482E-01
DAV:   3    -0.191955370151E+03    0.23930E-02   -0.69200E-03 11880   0.666E-01    0.183E-01
DAV:   4    -0.191955002968E+03    0.36718E-03   -0.10122E-03  9760   0.205E-01    0.943E-02
DAV:   5    -0.191955093488E+03   -0.90520E-04   -0.68790E-04  9840   0.214E-01
  35 F= -.19195509E+03 E0= -.19187848E+03  d E =-.197402E-01
       N       E                     dE             d eps       ncg     rms          rms(c)
DAV:   1    -0.191963615249E+03   -0.86123E-02   -0.20674E-01  8160   0.982E-01    0.116E-01
DAV:   2    -0.191964444348E+03   -0.82910E-03   -0.67207E-03 13000   0.323E-01    0.219E-01
DAV:   3    -0.191963956228E+03    0.48812E-03   -0.16088E-03 11280   0.323E-01    0.109E-01
DAV:   4    -0.191963864721E+03    0.91507E-04   -0.26973E-04  7560   0.126E-01
  36 F= -.19196386E+03 E0= -.19188770E+03  d E =-.877123E-02
       N       E                     dE             d eps       ncg     rms          rms(c)
DAV:   1    -0.191997240365E+03   -0.33284E-01   -0.36072E+00  8160   0.404E+00    0.444E-01
DAV:   2    -0.192010465031E+03   -0.13225E-01   -0.10890E-01 12480   0.139E+00    0.862E-01
DAV:   3    -0.192003293076E+03    0.71720E-02   -0.24692E-02 12160   0.125E+00    0.375E-01
DAV:   4    -0.192001383150E+03    0.19099E-02   -0.32753E-03 11480   0.357E-01    0.121E-01
DAV:   5    -0.192001943603E+03   -0.56045E-03   -0.21877E-03 12720   0.277E-01    0.217E-01
DAV:   6    -0.192001358803E+03    0.58480E-03   -0.14362E-03 10480   0.308E-01    0.867E-02
DAV:   7    -0.192001253009E+03    0.10579E-03   -0.20744E-04  7720   0.104E-01    0.259E-02
DAV:   8    -0.192001257205E+03   -0.41961E-05   -0.55240E-05  7640   0.525E-02
  37 F= -.19200126E+03 E0= -.19192566E+03  d E =-.373925E-01
       N       E                     dE             d eps       ncg     rms          rms(c)
DAV:   1    -0.192011242344E+03   -0.99893E-02   -0.28036E-01  8160   0.116E+00    0.170E-01
DAV:   2    -0.192012574752E+03   -0.13324E-02   -0.11639E-02 12240   0.518E-01    0.336E-01
DAV:   3    -0.192011395590E+03    0.11792E-02   -0.32970E-03 12200   0.463E-01    0.129E-01
DAV:   4    -0.192011217880E+03    0.17771E-03   -0.70071E-04  8880   0.182E-01    0.937E-02
DAV:   5    -0.192011199580E+03    0.18299E-04   -0.50046E-04 10040   0.185E-01
  38 F= -.19201120E+03 E0= -.19193548E+03  d E =-.994238E-02
       N       E                     dE             d eps       ncg     rms          rms(c)
DAV:   1    -0.192036476166E+03   -0.25258E-01   -0.19768E+00  8160   0.300E+00    0.352E-01
DAV:   2    -0.192045308540E+03   -0.88324E-02   -0.65533E-02 12280   0.119E+00    0.753E-01
DAV:   3    -0.192039364250E+03    0.59443E-02   -0.15757E-02 11880   0.102E+00    0.259E-01
DAV:   4    -0.192038539315E+03    0.82493E-03   -0.21625E-03 11480   0.295E-01    0.142E-01
DAV:   5    -0.192038750673E+03   -0.21136E-03   -0.16706E-03 11080   0.329E-01    0.195E-01
DAV:   6    -0.192038363197E+03    0.38748E-03   -0.95119E-04  9760   0.249E-01    0.679E-02
DAV:   7    -0.192038290475E+03    0.72722E-04   -0.12267E-04  6680   0.882E-02
  39 F= -.19203829E+03 E0= -.19196287E+03  d E =-.270909E-01
       N       E                     dE             d eps       ncg     rms          rms(c)
DAV:   1    -0.192058268183E+03   -0.19905E-01   -0.14202E+00  8160   0.253E+00    0.288E-01
DAV:   2    -0.192063086606E+03   -0.48184E-02   -0.47704E-02 11920   0.849E-01    0.481E-01
DAV:   3    -0.192061230340E+03    0.18563E-02   -0.97370E-03 12240   0.792E-01    0.291E-01
DAV:   4    -0.192060199208E+03    0.10311E-02   -0.19951E-03 11320   0.323E-01    0.981E-02
DAV:   5    -0.192060309487E+03   -0.11028E-03   -0.88704E-04 11040   0.212E-01    0.135E-01
DAV:   6    -0.192060197170E+03    0.11232E-03   -0.71538E-04  9800   0.227E-01    0.890E-02
DAV:   7    -0.192060097998E+03    0.99171E-04   -0.22219E-04  7200   0.105E-01
  40 F= -.19206010E+03 E0= -.19198526E+03  d E =-.218075E-01
       N       E                     dE             d eps       ncg     rms          rms(c)
DAV:   1    -0.192072529919E+03   -0.12333E-01   -0.52819E-01  8160   0.156E+00    0.195E-01
DAV:   2    -0.192075047047E+03   -0.25171E-02   -0.20110E-02 12440   0.654E-01    0.393E-01
DAV:   3    -0.192073410980E+03    0.16361E-02   -0.41418E-03 11880   0.542E-01    0.149E-01
DAV:   4    -0.192073209576E+03    0.20140E-03   -0.86946E-04  9600   0.205E-01    0.102E-01
DAV:   5    -0.192073164814E+03    0.44761E-04   -0.58042E-04  9320   0.195E-01
  41 F= -.19207316E+03 E0= -.19199814E+03  d E =-.130668E-01
       N       E                     dE             d eps       ncg     rms          rms(c)
DAV:   1    -0.192109103339E+03   -0.35894E-01   -0.82942E+00  8160   0.615E+00    0.720E-01
DAV:   2    -0.192143987516E+03   -0.34884E-01   -0.28110E-01 12360   0.236E+00    0.147E+00
DAV:   3    -0.192122750347E+03    0.21237E-01   -0.62884E-02 12160   0.205E+00    0.553E-01
DAV:   4    -0.192118768878E+03    0.39815E-02   -0.10045E-02 12360   0.656E-01    0.306E-01
DAV:   5    -0.192119253236E+03   -0.48436E-03   -0.73196E-03 11880   0.687E-01    0.395E-01
DAV:   6    -0.192117850917E+03    0.14023E-02   -0.45348E-03 11600   0.535E-01    0.163E-01
DAV:   7    -0.192117376963E+03    0.47395E-03   -0.90274E-04 10960   0.203E-01    0.876E-02
DAV:   8    -0.192117319432E+03    0.57530E-04   -0.24323E-04  9400   0.130E-01
  42 F= -.19211732E+03 E0= -.19204183E+03  d E =-.441546E-01
       N       E                     dE             d eps       ncg     rms          rms(c)
DAV:   1    -0.192120192141E+03   -0.28152E-02   -0.93462E-02  8160   0.772E-01    0.213E-01
DAV:   2    -0.192119595835E+03    0.59631E-03   -0.57550E-03 10400   0.395E-01    0.270E-01
DAV:   3    -0.192119131175E+03    0.46466E-03   -0.27748E-03 10840   0.474E-01    0.202E-01
DAV:   4    -0.192118596091E+03    0.53508E-03   -0.14314E-03 10160   0.288E-01    0.116E-01
DAV:   5    -0.192118602757E+03   -0.66658E-05   -0.85949E-04 10280   0.242E-01
  43 F= -.19211860E+03 E0= -.19204392E+03  d E =-.128332E-02
       N       E                     dE             d eps       ncg     rms          rms(c)
DAV:   1    -0.192130004758E+03   -0.11409E-01   -0.10139E+00  8160   0.214E+00    0.226E-01
DAV:   2    -0.192133245189E+03   -0.32404E-02   -0.34306E-02 11680   0.633E-01    0.327E-01
DAV:   3    -0.192132598281E+03    0.64691E-03   -0.53762E-03 12360   0.595E-01    0.259E-01
DAV:   4    -0.192131865912E+03    0.73237E-03   -0.16652E-03 10520   0.307E-01    0.985E-02
DAV:   5    -0.192131822220E+03    0.43692E-04   -0.58997E-04  9720   0.165E-01
  44 F= -.19213182E+03 E0= -.19205716E+03  d E =-.132195E-01
       N       E                     dE             d eps       ncg     rms          rms(c)
DAV:   1    -0.192136599833E+03   -0.47339E-02   -0.14754E-01  8160   0.831E-01    0.142E-01
DAV:   2    -0.192138595796E+03   -0.19960E-02   -0.71977E-03 12040   0.559E-01    0.402E-01
DAV:   3    -0.192136603170E+03    0.19926E-02   -0.25618E-03 11200   0.473E-01    0.722E-02
DAV:   4    -0.192136674366E+03   -0.71196E-04   -0.29827E-04  8640   0.149E-01
  45 F= -.19213667E+03 E0= -.19206198E+03  d E =-.485215E-02
       N       E                     dE             d eps       ncg     rms          rms(c)
DAV:   1    -0.192147677393E+03   -0.11074E-01   -0.12457E+00  8160   0.237E+00    0.259E-01
DAV:   2    -0.192151318217E+03   -0.36408E-02   -0.38514E-02 12120   0.676E-01    0.380E-01
DAV:   3    -0.192150395636E+03    0.92258E-03   -0.69855E-03 12320   0.686E-01    0.286E-01
DAV:   4    -0.192149461680E+03    0.93396E-03   -0.18834E-03 11160   0.319E-01    0.955E-02
DAV:   5    -0.192149429707E+03    0.31973E-04   -0.71180E-04 10960   0.144E-01
  46 F= -.19214943E+03 E0= -.19207480E+03  d E =-.127553E-01
       N       E                     dE             d eps       ncg     rms          rms(c)
DAV:   1    -0.192160346634E+03   -0.10885E-01   -0.13606E+01  8160   0.782E+00    0.840E-01
DAV:   2    -0.192207697878E+03   -0.47351E-01   -0.43699E-01 11840   0.253E+00    0.143E+00
DAV:   3    -0.192190223704E+03    0.17474E-01   -0.78610E-02 12280   0.237E+00    0.828E-01
DAV:   4    -0.192182022288E+03    0.82014E-02   -0.16848E-02 12600   0.930E-01    0.311E-01
DAV:   5    -0.192181064657E+03    0.95763E-03   -0.67747E-03 12320   0.432E-01    0.250E-01
DAV:   6    -0.192181959440E+03   -0.89478E-03   -0.51411E-03 12760   0.603E-01    0.352E-01
DAV:   7    -0.192180341334E+03    0.16181E-02   -0.24083E-03 12360   0.427E-01    0.735E-02
DAV:   8    -0.192180328825E+03    0.12509E-04   -0.31858E-04  9000   0.140E-01
  47 F= -.19218033E+03 E0= -.19210539E+03  d E =-.308991E-01
       N       E                     dE             d eps       ncg     rms          rms(c)
DAV:   1    -0.192182579731E+03   -0.22384E-02   -0.12484E-01  8240   0.812E-01    0.147E-01
DAV:   2    -0.192182447644E+03    0.13209E-03   -0.50739E-03 11800   0.270E-01    0.150E-01
DAV:   3    -0.192182365195E+03    0.82449E-04   -0.16045E-03 11600   0.309E-01    0.151E-01
DAV:   4    -0.192182123462E+03    0.24173E-03   -0.77929E-04 11640   0.239E-01    0.919E-02
DAV:   5    -0.192182037560E+03    0.85902E-04   -0.33939E-04  8360   0.140E-01
  48 F= -.19218204E+03 E0= -.19210668E+03  d E =-.170873E-02
       N       E                     dE             d eps       ncg     rms          rms(c)
DAV:   1    -0.192187391688E+03   -0.52682E-02   -0.30049E+00  8160   0.367E+00    0.377E-01
DAV:   2    -0.192195583589E+03   -0.81919E-02   -0.91166E-02 12200   0.100E+00    0.500E-01
DAV:   3    -0.192194324434E+03    0.12592E-02   -0.13985E-02 12520   0.962E-01    0.442E-01
DAV:   4    -0.192192215081E+03    0.21094E-02   -0.46114E-03 12320   0.533E-01    0.162E-01
DAV:   5    -0.192191851440E+03    0.36364E-03   -0.15599E-03 11440   0.186E-01    0.996E-02
DAV:   6    -0.192192222530E+03   -0.37109E-03   -0.10686E-03 10720   0.267E-01    0.192E-01
DAV:   7    -0.192191794285E+03    0.42825E-03   -0.52448E-04 10640   0.224E-01    0.325E-02
DAV:   8    -0.192191790462E+03    0.38225E-05   -0.56895E-05  6160   0.542E-02
  49 F= -.19219179E+03 E0= -.19211661E+03  d E =-.975290E-02
       N       E                     dE             d eps       ncg     rms          rms(c)
DAV:   1    -0.192193461705E+03   -0.16674E-02   -0.11527E-01  8160   0.720E-01    0.765E-02
DAV:   2    -0.192193818966E+03   -0.35726E-03   -0.30670E-03 12440   0.247E-01    0.137E-01
DAV:   3    -0.192193598883E+03    0.22008E-03   -0.55495E-04  9640   0.203E-01    0.584E-02
DAV:   4    -0.192193577215E+03    0.21668E-04   -0.10436E-04  6360   0.830E-02
  50 F= -.19219358E+03 E0= -.19211851E+03  d E =-.178675E-02
       N       E                     dE             d eps       ncg     rms          rms(c)
DAV:   1    -0.192192487295E+03    0.11116E-02   -0.31518E-02  8160   0.382E-01    0.515E-02
DAV:   2    -0.192192894589E+03   -0.40729E-03   -0.13238E-03 12760   0.243E-01    0.170E-01
DAV:   3    -0.192192511324E+03    0.38326E-03   -0.50779E-04  8840   0.206E-01    0.234E-02
DAV:   4    -0.192192518561E+03   -0.72372E-05   -0.43642E-05  6000   0.454E-02
  51 F= -.19219252E+03 E0= -.19211743E+03  d E =0.105865E-02
       N       E                     dE             d eps       ncg     rms          rms(c)
DAV:   1    -0.192190125354E+03    0.23860E-02   -0.27643E-01  8160   0.113E+00    0.143E-01
DAV:   2    -0.192190818076E+03   -0.69272E-03   -0.79525E-03 12600   0.413E-01    0.226E-01
DAV:   3    -0.192190210126E+03    0.60795E-03   -0.17947E-03 11560   0.347E-01    0.104E-01
DAV:   4    -0.192190136713E+03    0.73413E-04   -0.51207E-04  9960   0.161E-01
  52 F= -.19219014E+03 E0= -.19211455E+03  d E =0.238185E-02
       N       E                     dE             d eps       ncg     rms          rms(c)
DAV:   1    -0.192189683968E+03    0.52616E-03   -0.10225E-02  8200   0.246E-01    0.721E-02
DAV:   2    -0.192190309437E+03   -0.62547E-03   -0.13495E-03 10920   0.313E-01    0.242E-01
DAV:   3    -0.192189596844E+03    0.71259E-03   -0.79810E-04  9920   0.271E-01    0.294E-02
DAV:   4    -0.192189600001E+03   -0.31561E-05   -0.55679E-05  6000   0.370E-02
  53 F= -.19218960E+03 E0= -.19211401E+03  d E =0.536713E-03
       N       E                     dE             d eps       ncg     rms          rms(c)
DAV:   1    -0.192192130214E+03   -0.25334E-02   -0.23690E-01  8160   0.103E+00    0.960E-02
DAV:   2    -0.192192551060E+03   -0.42085E-03   -0.56153E-03 12000   0.231E-01    0.959E-02
DAV:   3    -0.192192470591E+03    0.80469E-04   -0.68445E-04 11080   0.166E-01
  54 F= -.19219247E+03 E0= -.19211681E+03  d E =-.287059E-02
       N       E                     dE             d eps       ncg     rms          rms(c)
DAV:   1    -0.192186729588E+03    0.58215E-02   -0.79022E-01  8160   0.188E+00    0.186E-01
DAV:   2    -0.192190314324E+03   -0.35847E-02   -0.19519E-02 12520   0.685E-01    0.484E-01
DAV:   3    -0.192187634100E+03    0.26802E-02   -0.42468E-03 12040   0.611E-01    0.120E-01
DAV:   4    -0.192187559817E+03    0.74283E-04   -0.55084E-04  9600   0.164E-01
  55 F= -.19218756E+03 E0= -.19211196E+03  d E =0.491077E-02
       N       E                     dE             d eps       ncg     rms          rms(c)
DAV:   1    -0.192179110508E+03    0.85236E-02   -0.21770E+00  8160   0.311E+00    0.323E-01
DAV:   2    -0.192182425276E+03   -0.33148E-02   -0.43663E-02 11800   0.694E-01    0.386E-01
DAV:   3    -0.192181343482E+03    0.10818E-02   -0.86835E-03 12240   0.689E-01    0.355E-01
DAV:   4    -0.192180446192E+03    0.89729E-03   -0.30822E-03 11920   0.508E-01    0.208E-01
DAV:   5    -0.192179763924E+03    0.68227E-03   -0.12738E-03 10520   0.219E-01    0.637E-02
DAV:   6    -0.192179938546E+03   -0.17462E-03   -0.59560E-04 11200   0.178E-01    0.114E-01
DAV:   7    -0.192179772751E+03    0.16579E-03   -0.28773E-04  9560   0.151E-01    0.275E-02
DAV:   8    -0.192179769585E+03    0.31665E-05   -0.30480E-05  6440   0.433E-02
  56 F= -.19217977E+03 E0= -.19210446E+03  d E =0.779023E-02
       N       E                     dE             d eps       ncg     rms          rms(c)
DAV:   1    -0.192176725596E+03    0.30472E-02   -0.48752E-01  8160   0.147E+00    0.142E-01
DAV:   2    -0.192177462689E+03   -0.73709E-03   -0.10068E-02 11280   0.301E-01    0.149E-01
DAV:   3    -0.192177313034E+03    0.14965E-03   -0.16369E-03 11920   0.296E-01    0.147E-01
DAV:   4    -0.192177137600E+03    0.17543E-03   -0.48750E-04  9240   0.207E-01    0.835E-02
DAV:   5    -0.192177061197E+03    0.76403E-04   -0.18868E-04  6120   0.111E-01
  57 F= -.19217706E+03 E0= -.19210213E+03  d E =0.270839E-02
       N       E                     dE             d eps       ncg     rms          rms(c)
DAV:   1    -0.192183713820E+03   -0.65762E-02   -0.25429E+00  8160   0.337E+00    0.325E-01
DAV:   2    -0.192188438955E+03   -0.47251E-02   -0.56255E-02 12840   0.838E-01    0.409E-01
DAV:   3    -0.192186866197E+03    0.15728E-02   -0.84789E-03 11440   0.709E-01    0.341E-01
DAV:   4    -0.192185975467E+03    0.89073E-03   -0.30569E-03 12000   0.504E-01    0.202E-01
DAV:   5    -0.192185388094E+03    0.58737E-03   -0.11725E-03 11480   0.225E-01    0.857E-02
DAV:   6    -0.192185670725E+03   -0.28263E-03   -0.92887E-04 10800   0.253E-01    0.159E-01
DAV:   7    -0.192185351024E+03    0.31970E-03   -0.46980E-04  9080   0.185E-01    0.319E-02
DAV:   8    -0.192185347956E+03    0.30680E-05   -0.45790E-05  6720   0.560E-02
  58 F= -.19218535E+03 E0= -.19211022E+03  d E =-.828676E-02
       N       E                     dE             d eps       ncg     rms          rms(c)
DAV:   1    -0.192189174506E+03   -0.38235E-02   -0.77091E-01  8160   0.186E+00    0.185E-01
DAV:   2    -0.192190449938E+03   -0.12754E-02   -0.19005E-02 12120   0.383E-01    0.153E-01
DAV:   3    -0.192190159763E+03    0.29017E-03   -0.21985E-03 11560   0.236E-01    0.133E-01
DAV:   4    -0.192190065543E+03    0.94220E-04   -0.64237E-04 10640   0.235E-01
  59 F= -.19219007E+03 E0= -.19211491E+03  d E =-.471759E-02
       N       E                     dE             d eps       ncg     rms          rms(c)
DAV:   1    -0.192190608180E+03   -0.44842E-03   -0.19539E-02  8160   0.337E-01    0.682E-02
DAV:   2    -0.192190998140E+03   -0.38996E-03   -0.97167E-04 13000   0.243E-01    0.187E-01
DAV:   3    -0.192190575864E+03    0.42228E-03   -0.45140E-04  8880   0.220E-01    0.381E-02
DAV:   4    -0.192190605338E+03   -0.29474E-04   -0.82487E-05  5880   0.710E-02
  60 F= -.19219061E+03 E0= -.19211547E+03  d E =-.539795E-03
       N       E                     dE             d eps       ncg     rms          rms(c)
DAV:   1    -0.192192045045E+03   -0.14692E-02   -0.94628E-02  8160   0.651E-01    0.649E-02
DAV:   2    -0.192192182764E+03   -0.13772E-03   -0.21995E-03 11720   0.132E-01    0.532E-02
DAV:   3    -0.192192191016E+03   -0.82517E-05   -0.21187E-04  8120   0.113E-01
  61 F= -.19219219E+03 E0= -.19211718E+03  d E =-.158568E-02
       N       E                     dE             d eps       ncg     rms          rms(c)
DAV:   1    -0.192192337939E+03   -0.15517E-03   -0.14282E-03  8280   0.131E-01    0.413E-02
DAV:   2    -0.192192531494E+03   -0.19355E-03   -0.46015E-04  9720   0.166E-01    0.127E-01
DAV:   3    -0.192192323973E+03    0.20752E-03   -0.26761E-04  7680   0.154E-01    0.274E-02
DAV:   4    -0.192192320006E+03    0.39668E-05   -0.27121E-05  5760   0.329E-02
  62 F= -.19219232E+03 E0= -.19211726E+03  d E =-.128990E-03
       N       E                     dE             d eps       ncg     rms          rms(c)
DAV:   1    -0.192194596889E+03   -0.22729E-02   -0.20709E-01  8160   0.963E-01    0.993E-02
DAV:   2    -0.192195034600E+03   -0.43771E-03   -0.51931E-03 12560   0.277E-01    0.132E-01
DAV:   3    -0.192194846065E+03    0.18853E-03   -0.80446E-04 10600   0.225E-01    0.859E-02
DAV:   4    -0.192194786929E+03    0.59136E-04   -0.25173E-04  8240   0.126E-01
  63 F= -.19219479E+03 E0= -.19211993E+03  d E =-.246692E-02
       N       E                     dE             d eps       ncg     rms          rms(c)
DAV:   1    -0.192189602648E+03    0.52434E-02   -0.78198E-01  8160   0.187E+00    0.195E-01
DAV:   2    -0.192192205387E+03   -0.26027E-02   -0.21167E-02 12720   0.668E-01    0.370E-01
DAV:   3    -0.192190502608E+03    0.17028E-02   -0.44329E-03 12200   0.545E-01    0.155E-01
DAV:   4    -0.192190348303E+03    0.15431E-03   -0.96932E-04 10160   0.236E-01    0.119E-01
DAV:   5    -0.192190224615E+03    0.12369E-03   -0.47935E-04  9280   0.181E-01    0.908E-02
DAV:   6    -0.192190168080E+03    0.56535E-04   -0.32009E-04  9360   0.141E-01
  64 F= -.19219017E+03 E0= -.19211496E+03  d E =0.461885E-02
       N       E                     dE             d eps       ncg     rms          rms(c)
DAV:   1    -0.192176157249E+03    0.14067E-01   -0.54665E+00  8160   0.494E+00    0.493E-01
DAV:   2    -0.192187305274E+03   -0.11148E-01   -0.12718E-01 12760   0.138E+00    0.662E-01
DAV:   3    -0.192182399775E+03    0.49055E-02   -0.20516E-02 12400   0.114E+00    0.412E-01
DAV:   4    -0.192180974513E+03    0.14253E-02   -0.58677E-03 12840   0.598E-01    0.267E-01
DAV:   5    -0.192179810001E+03    0.11645E-02   -0.26976E-03 11360   0.279E-01    0.103E-01
DAV:   6    -0.192180346528E+03   -0.53653E-03   -0.15643E-03 12120   0.308E-01    0.222E-01
DAV:   7    -0.192179756072E+03    0.59046E-03   -0.84188E-04 10320   0.258E-01    0.341E-02
DAV:   8    -0.192179746610E+03    0.94622E-05   -0.47625E-05  6320   0.370E-02
  65 F= -.19217975E+03 E0= -.19210441E+03  d E =0.104215E-01
       N       E                     dE             d eps       ncg     rms          rms(c)
DAV:   1    -0.192183651285E+03   -0.38952E-02   -0.13816E+00  8160   0.248E+00    0.241E-01
DAV:   2    -0.192186476834E+03   -0.28255E-02   -0.30760E-02 12320   0.682E-01    0.339E-01
DAV:   3    -0.192185188884E+03    0.12879E-02   -0.52426E-03 12320   0.572E-01    0.216E-01
DAV:   4    -0.192184857904E+03    0.33098E-03   -0.15293E-03 11080   0.311E-01    0.146E-01
DAV:   5    -0.192184626105E+03    0.23180E-03   -0.71094E-04 10600   0.202E-01    0.986E-02
DAV:   6    -0.192184649009E+03   -0.22904E-04   -0.58847E-04  9560   0.202E-01
  66 F= -.19218465E+03 E0= -.19210909E+03  d E =-.490240E-02
       N       E                     dE             d eps       ncg     rms          rms(c)
DAV:   1    -0.192180262987E+03    0.43631E-02   -0.86622E-01  8160   0.198E+00    0.238E-01
DAV:   2    -0.192182317673E+03   -0.20547E-02   -0.23520E-02 13320   0.684E-01    0.378E-01
DAV:   3    -0.192180720262E+03    0.15974E-02   -0.52229E-03 12200   0.596E-01    0.192E-01
DAV:   4    -0.192180444212E+03    0.27605E-03   -0.15518E-03 12120   0.290E-01    0.153E-01
DAV:   5    -0.192180219814E+03    0.22440E-03   -0.93523E-04  9960   0.239E-01    0.119E-01
DAV:   6    -0.192180113690E+03    0.10612E-03   -0.61427E-04  9800   0.197E-01    0.686E-02
DAV:   7    -0.192180048291E+03    0.65399E-04   -0.14077E-04  5920   0.790E-02
  67 F= -.19218005E+03 E0= -.19210430E+03  d E =0.460072E-02
       N       E                     dE             d eps       ncg     rms          rms(c)
DAV:   1    -0.192188279415E+03   -0.81657E-02   -0.30048E+00  8160   0.369E+00    0.435E-01
DAV:   2    -0.192195363570E+03   -0.70842E-02   -0.85219E-02 12640   0.125E+00    0.645E-01
DAV:   3    -0.192190704689E+03    0.46589E-02   -0.16006E-02 12320   0.104E+00    0.348E-01
DAV:   4    -0.192189736373E+03    0.96832E-03   -0.49962E-03 12240   0.536E-01    0.262E-01
DAV:   5    -0.192189054418E+03    0.68196E-03   -0.26567E-03 12440   0.408E-01    0.207E-01
DAV:   6    -0.192188865683E+03    0.18873E-03   -0.18056E-03 12800   0.352E-01    0.146E-01
DAV:   7    -0.192188582202E+03    0.28348E-03   -0.52125E-04  9040   0.154E-01    0.257E-02
DAV:   8    -0.192188581984E+03    0.21804E-06   -0.59406E-05  6800   0.336E-02
  68 F= -.19218858E+03 E0= -.19211338E+03  d E =-.853369E-02
       N       E                     dE             d eps       ncg     rms          rms(c)
DAV:   1    -0.192190298395E+03   -0.17162E-02   -0.14250E-01  8160   0.799E-01    0.867E-02
DAV:   2    -0.192190811161E+03   -0.51277E-03   -0.37454E-03 11680   0.267E-01    0.173E-01
DAV:   3    -0.192190458867E+03    0.35229E-03   -0.87044E-04 10920   0.249E-01    0.717E-02
DAV:   4    -0.192190425836E+03    0.33031E-04   -0.13685E-04  5640   0.936E-02
  69 F= -.19219043E+03 E0= -.19211530E+03  d E =-.184385E-02
       N       E                     dE             d eps       ncg     rms          rms(c)
DAV:   1    -0.192191048019E+03   -0.58915E-03   -0.18488E-02  8160   0.299E-01    0.459E-02
DAV:   2    -0.192191164812E+03   -0.11679E-03   -0.63437E-04 12240   0.139E-01    0.972E-02
DAV:   3    -0.192191048045E+03    0.11677E-03   -0.23556E-04  8360   0.130E-01    0.330E-02
DAV:   4    -0.192191053943E+03   -0.58976E-05   -0.42514E-05  5800   0.519E-02
  70 F= -.19219105E+03 E0= -.19211605E+03  d E =-.628106E-03
       N       E                     dE             d eps       ncg     rms          rms(c)
DAV:   1    -0.192192703613E+03   -0.16556E-02   -0.11430E-01  8160   0.715E-01    0.900E-02
DAV:   2    -0.192193174759E+03   -0.47115E-03   -0.34766E-03 12480   0.307E-01    0.175E-01
DAV:   3    -0.192192770847E+03    0.40391E-03   -0.85162E-04 10040   0.251E-01    0.599E-02
DAV:   4    -0.192192752298E+03    0.18548E-04   -0.14886E-04  5760   0.904E-02
  71 F= -.19219275E+03 E0= -.19211792E+03  d E =-.169836E-02
       N       E                     dE             d eps       ncg     rms          rms(c)
DAV:   1    -0.192191598336E+03    0.11725E-02   -0.47893E-02  8160   0.472E-01    0.628E-02
DAV:   2    -0.192192195642E+03   -0.59731E-03   -0.19222E-03 12600   0.287E-01    0.210E-01
DAV:   3    -0.192191642510E+03    0.55313E-03   -0.68126E-04 10000   0.243E-01    0.304E-02
DAV:   4    -0.192191648252E+03   -0.57428E-05   -0.51558E-05  5760   0.553E-02
  72 F= -.19219165E+03 E0= -.19211670E+03  d E =0.110405E-02
       N       E                     dE             d eps       ncg     rms          rms(c)
DAV:   1    -0.192192482362E+03   -0.83985E-03   -0.41868E-02  8160   0.457E-01    0.679E-02
DAV:   2    -0.192192505155E+03   -0.22793E-04   -0.16241E-03 11480   0.134E-01    0.636E-02
DAV:   3    -0.192192500222E+03    0.49335E-05   -0.25423E-04  8880   0.138E-01
  73 F= -.19219250E+03 E0= -.19211749E+03  d E =-.851970E-03
       N       E                     dE             d eps       ncg     rms          rms(c)
DAV:   1    -0.192193914630E+03   -0.14095E-02   -0.74890E-02  8160   0.586E-01    0.910E-02
DAV:   2    -0.192194545756E+03   -0.63113E-03   -0.29487E-03 11920   0.364E-01    0.225E-01
DAV:   3    -0.192193863849E+03    0.68191E-03   -0.96035E-04 10040   0.283E-01    0.450E-02
DAV:   4    -0.192193870373E+03   -0.65242E-05   -0.12737E-04  5520   0.813E-02
  74 F= -.19219387E+03 E0= -.19211905E+03  d E =-.137015E-02
       N       E                     dE             d eps       ncg     rms          rms(c)
DAV:   1    -0.192191024424E+03    0.28394E-02   -0.49782E-01  8160   0.152E+00    0.232E-01
DAV:   2    -0.192194241122E+03   -0.32167E-02   -0.19235E-02 12360   0.858E-01    0.531E-01
DAV:   3    -0.192190740123E+03    0.35010E-02   -0.58468E-03 11880   0.682E-01    0.127E-01
DAV:   4    -0.192190794761E+03   -0.54637E-04   -0.11695E-03 11400   0.238E-01    0.169E-01
DAV:   5    -0.192190517608E+03    0.27715E-03   -0.88643E-04 11000   0.264E-01    0.111E-01
DAV:   6    -0.192190376573E+03    0.14104E-03   -0.37432E-04  8120   0.149E-01    0.394E-02
DAV:   7    -0.192190356325E+03    0.20247E-04   -0.80690E-05  6040   0.526E-02
  75 F= -.19219036E+03 E0= -.19211490E+03  d E =0.351405E-02
       N       E                     dE             d eps       ncg     rms          rms(c)
DAV:   1    -0.192199284381E+03   -0.89078E-02   -0.19075E+00  8160   0.296E+00    0.410E-01
DAV:   2    -0.192205098719E+03   -0.58143E-02   -0.59302E-02 12160   0.126E+00    0.710E-01
DAV:   3    -0.192198758414E+03    0.63403E-02   -0.15185E-02 12280   0.104E+00    0.261E-01
DAV:   4    -0.192198173508E+03    0.58491E-03   -0.39049E-03 11440   0.366E-01    0.208E-01
DAV:   5    -0.192197413904E+03    0.75960E-03   -0.22620E-03 10600   0.238E-01    0.110E-01
DAV:   6    -0.192197564409E+03   -0.15050E-03   -0.10106E-03 11480   0.269E-01    0.155E-01
DAV:   7    -0.192197287649E+03    0.27676E-03   -0.38023E-04  8760   0.183E-01    0.288E-02
DAV:   8    -0.192197282796E+03    0.48537E-05   -0.40694E-05  5960   0.315E-02
  76 F= -.19219728E+03 E0= -.19212293E+03  d E =-.692647E-02
       N       E                     dE             d eps       ncg     rms          rms(c)
DAV:   1    -0.192197520302E+03   -0.23265E-03   -0.46748E-02  8160   0.506E-01    0.125E-01
DAV:   2    -0.192197545036E+03   -0.24734E-04   -0.27908E-03 11440   0.296E-01    0.193E-01
DAV:   3    -0.192197156905E+03    0.38813E-03   -0.10621E-03 10120   0.298E-01    0.916E-02
DAV:   4    -0.192197068361E+03    0.88544E-04   -0.35687E-04  8600   0.144E-01
  77 F= -.19219707E+03 E0= -.19212239E+03  d E =0.214434E-03
       N       E                     dE             d eps       ncg     rms          rms(c)
DAV:   1    -0.192199244392E+03   -0.20875E-02   -0.22742E-01  8160   0.102E+00    0.120E-01
DAV:   2    -0.192199905986E+03   -0.66159E-03   -0.62134E-03 12720   0.323E-01    0.201E-01
DAV:   3    -0.192199462141E+03    0.44385E-03   -0.14470E-03 11000   0.325E-01    0.122E-01
DAV:   4    -0.192199331478E+03    0.13066E-03   -0.34568E-04  8520   0.150E-01    0.633E-02
DAV:   5    -0.192199292359E+03    0.39119E-04   -0.17919E-04  7480   0.113E-01
  78 F= -.19219929E+03 E0= -.19212452E+03  d E =-.222400E-02
       N       E                     dE             d eps       ncg     rms          rms(c)
DAV:   1    -0.192200247611E+03   -0.91613E-03   -0.22899E-02  8160   0.331E-01    0.688E-02
DAV:   2    -0.192200676261E+03   -0.42865E-03   -0.14159E-03 11640   0.296E-01    0.192E-01
DAV:   3    -0.192200180750E+03    0.49551E-03   -0.58116E-04  9160   0.229E-01    0.264E-02
DAV:   4    -0.192200188196E+03   -0.74459E-05   -0.49568E-05  5600   0.480E-02
  79 F= -.19220019E+03 E0= -.19212553E+03  d E =-.895837E-03
       N       E                     dE             d eps       ncg     rms          rms(c)
DAV:   1    -0.192199516518E+03    0.66423E-03   -0.15688E-02  8160   0.276E-01    0.532E-02
DAV:   2    -0.192199918239E+03   -0.40172E-03   -0.10512E-03 10400   0.263E-01    0.184E-01
DAV:   3    -0.192199483749E+03    0.43449E-03   -0.48753E-04  8760   0.209E-01    0.232E-02
DAV:   4    -0.192199495262E+03   -0.11512E-04   -0.48570E-05  5960   0.546E-02
  80 F= -.19219950E+03 E0= -.19212475E+03  d E =0.692934E-03
       N       E                     dE             d eps       ncg     rms          rms(c)
DAV:   1    -0.192198048951E+03    0.14348E-02   -0.31062E-01  8160   0.125E+00    0.247E-01
DAV:   2    -0.192198642773E+03   -0.59382E-03   -0.13414E-02 11480   0.627E-01    0.395E-01
DAV:   3    -0.192196916303E+03    0.17265E-02   -0.49452E-03 11400   0.607E-01    0.175E-01
DAV:   4    -0.192196691160E+03    0.22514E-03   -0.17267E-03 12240   0.272E-01    0.156E-01
DAV:   5    -0.192196431732E+03    0.25943E-03   -0.11661E-03 10440   0.265E-01    0.127E-01
DAV:   6    -0.192196243170E+03    0.18856E-03   -0.45089E-04  8440   0.177E-01    0.418E-02
DAV:   7    -0.192196222752E+03    0.20418E-04   -0.83115E-05  6000   0.529E-02
  81 F= -.19219622E+03 E0= -.19212075E+03  d E =0.327251E-02
       N       E                     dE             d eps       ncg     rms          rms(c)
DAV:   1    -0.192197162803E+03   -0.91963E-03   -0.20014E-02  8160   0.307E-01    0.547E-02
DAV:   2    -0.192197319975E+03   -0.15717E-03   -0.86947E-04 10240   0.198E-01    0.127E-01
DAV:   3    -0.192197116435E+03    0.20354E-03   -0.29683E-04  8400   0.161E-01    0.311E-02
DAV:   4    -0.192197121310E+03   -0.48746E-05   -0.63763E-05  5520   0.649E-02
  82 F= -.19219712E+03 E0= -.19212180E+03  d E =-.898558E-03
       N       E                     dE             d eps       ncg     rms          rms(c)
DAV:   1    -0.192207645501E+03   -0.10529E-01   -0.10376E+00  8160   0.228E+00    0.442E-01
DAV:   2    -0.192209477934E+03   -0.18324E-02   -0.41166E-02 11880   0.115E+00    0.704E-01
DAV:   3    -0.192203763904E+03    0.57140E-02   -0.14385E-02 11680   0.106E+00    0.293E-01
DAV:   4    -0.192202853965E+03    0.90994E-03   -0.48703E-03 11400   0.455E-01    0.243E-01
DAV:   5    -0.192202320633E+03    0.53333E-03   -0.32904E-03 11600   0.413E-01    0.219E-01
DAV:   6    -0.192201809831E+03    0.51080E-03   -0.14568E-03 10600   0.319E-01    0.872E-02
DAV:   7    -0.192201713229E+03    0.96602E-04   -0.25215E-04  7880   0.993E-02
  83 F= -.19220171E+03 E0= -.19212763E+03  d E =-.459192E-02
       N       E                     dE             d eps       ncg     rms          rms(c)
DAV:   1    -0.192204737135E+03   -0.29273E-02   -0.13875E-01  8160   0.859E-01    0.194E-01
DAV:   2    -0.192204871315E+03   -0.13418E-03   -0.76085E-03 10960   0.474E-01    0.291E-01
DAV:   3    -0.192204021149E+03    0.85017E-03   -0.25372E-03 11400   0.461E-01    0.142E-01
DAV:   4    -0.192203704954E+03    0.31620E-03   -0.88694E-04 10240   0.216E-01    0.964E-02
DAV:   5    -0.192203734162E+03   -0.29208E-04   -0.63894E-04 10040   0.206E-01
  84 F= -.19220373E+03 E0= -.19212936E+03  d E =-.202093E-02
       N       E                     dE             d eps       ncg     rms          rms(c)
DAV:   1    -0.192206488021E+03   -0.27831E-02   -0.32021E-01  8160   0.120E+00    0.109E-01
DAV:   2    -0.192206998449E+03   -0.51043E-03   -0.63849E-03 12920   0.280E-01    0.124E-01
DAV:   3    -0.192206865855E+03    0.13259E-03   -0.93349E-04 10840   0.233E-01    0.108E-01
DAV:   4    -0.192206776326E+03    0.89529E-04   -0.26993E-04  8400   0.155E-01
  85 F= -.19220678E+03 E0= -.19213249E+03  d E =-.304216E-02
       N       E                     dE             d eps       ncg     rms          rms(c)
DAV:   1    -0.192206882018E+03   -0.16163E-04   -0.66965E-04  8480   0.104E-01    0.380E-02
DAV:   2    -0.192207074332E+03   -0.19231E-03   -0.32156E-04  9480   0.173E-01    0.127E-01
DAV:   3    -0.192206866752E+03    0.20758E-03   -0.20023E-04  7600   0.146E-01    0.173E-02
DAV:   4    -0.192206875178E+03   -0.84261E-05   -0.18405E-05  5720   0.346E-02
  86 F= -.19220688E+03 E0= -.19213265E+03  d E =-.988519E-04
       N       E                     dE             d eps       ncg     rms          rms(c)
DAV:   1    -0.192207326708E+03   -0.45996E-03   -0.57533E-02  8160   0.535E-01    0.110E-01
DAV:   2    -0.192207784901E+03   -0.45819E-03   -0.33843E-03 11040   0.345E-01    0.226E-01
DAV:   3    -0.192207198409E+03    0.58649E-03   -0.11173E-03 10160   0.311E-01    0.786E-02
DAV:   4    -0.192207132449E+03    0.65960E-04   -0.25641E-04  7000   0.112E-01
  87 F= -.19220713E+03 E0= -.19213312E+03  d E =-.257271E-03
       N       E                     dE             d eps       ncg     rms          rms(c)
DAV:   1    -0.192210330641E+03   -0.31322E-02   -0.37940E-01  8160   0.138E+00    0.250E-01
DAV:   2    -0.192210625018E+03   -0.29438E-03   -0.16773E-02 11600   0.537E-01    0.324E-01
DAV:   3    -0.192210054871E+03    0.57015E-03   -0.49004E-03 11960   0.603E-01    0.263E-01
DAV:   4    -0.192209193170E+03    0.86170E-03   -0.19552E-03 11280   0.356E-01    0.116E-01
DAV:   5    -0.192209100129E+03    0.93041E-04   -0.87534E-04 10040   0.206E-01
  88 F= -.19220910E+03 E0= -.19213595E+03  d E =-.196768E-02
       N       E                     dE             d eps       ncg     rms          rms(c)
DAV:   1    -0.192210168494E+03   -0.97532E-03   -0.38232E-02  8160   0.455E-01    0.621E-02
DAV:   2    -0.192210568240E+03   -0.39975E-03   -0.15431E-03 12920   0.239E-01    0.170E-01
DAV:   3    -0.192210204018E+03    0.36422E-03   -0.46733E-04  8960   0.208E-01    0.370E-02
DAV:   4    -0.192210219148E+03   -0.15131E-04   -0.65056E-05  5680   0.665E-02
  89 F= -.19221022E+03 E0= -.19213702E+03  d E =-.111902E-02
       N       E                     dE             d eps       ncg     rms          rms(c)
DAV:   1    -0.192212774353E+03   -0.25703E-02   -0.15117E-01  8160   0.834E-01    0.121E-01
DAV:   2    -0.192213772210E+03   -0.99786E-03   -0.52477E-03 13560   0.438E-01    0.284E-01
DAV:   3    -0.192212796392E+03    0.97582E-03   -0.16318E-03 10520   0.376E-01    0.843E-02
DAV:   4    -0.192212746104E+03    0.50288E-04   -0.32988E-04  8240   0.112E-01
  90 F= -.19221275E+03 E0= -.19213972E+03  d E =-.252696E-02
       N       E                     dE             d eps       ncg     rms          rms(c)
DAV:   1    -0.192215291442E+03   -0.24951E-02   -0.16705E-01  8160   0.867E-01    0.989E-02
DAV:   2    -0.192215453138E+03   -0.16170E-03   -0.33062E-03 11960   0.176E-01    0.935E-02
DAV:   3    -0.192215363153E+03    0.89986E-04   -0.59607E-04 11240   0.150E-01
  91 F= -.19221536E+03 E0= -.19214255E+03  d E =-.261705E-02
       N       E                     dE             d eps       ncg     rms          rms(c)
DAV:   1    -0.192221879473E+03   -0.64263E-02   -0.11188E+00  8160   0.224E+00    0.256E-01
DAV:   2    -0.192224550881E+03   -0.26714E-02   -0.25720E-02 12240   0.584E-01    0.365E-01
DAV:   3    -0.192222612980E+03    0.19379E-02   -0.63881E-03 12360   0.578E-01    0.222E-01
DAV:   4    -0.192222350988E+03    0.26199E-03   -0.17178E-03 11680   0.336E-01    0.152E-01
DAV:   5    -0.192222112454E+03    0.23853E-03   -0.79766E-04 10480   0.224E-01    0.113E-01
DAV:   6    -0.192222085706E+03    0.26749E-04   -0.49155E-04  9800   0.202E-01
  92 F= -.19222209E+03 E0= -.19214946E+03  d E =-.672255E-02
       N       E                     dE             d eps       ncg     rms          rms(c)
DAV:   1    -0.192224227427E+03   -0.21150E-02   -0.12300E-01  8160   0.745E-01    0.762E-02
DAV:   2    -0.192224488190E+03   -0.26076E-03   -0.30204E-03 11920   0.182E-01    0.927E-02
DAV:   3    -0.192224373568E+03    0.11462E-03   -0.49462E-04 10560   0.148E-01    0.630E-02
DAV:   4    -0.192224352701E+03    0.20867E-04   -0.12262E-04  7080   0.105E-01
  93 F= -.19222435E+03 E0= -.19215192E+03  d E =-.226700E-02
       N       E                     dE             d eps       ncg     rms          rms(c)
DAV:   1    -0.192227216860E+03   -0.28433E-02   -0.20760E-01  8160   0.962E-01    0.112E-01
DAV:   2    -0.192228219876E+03   -0.10030E-02   -0.58196E-03 12280   0.388E-01    0.255E-01
DAV:   3    -0.192227401665E+03    0.81821E-03   -0.15298E-03 10760   0.339E-01    0.783E-02
DAV:   4    -0.192227392610E+03    0.90553E-05   -0.27963E-04  7040   0.121E-01
  94 F= -.19222739E+03 E0= -.19215517E+03  d E =-.303991E-02
       N       E                     dE             d eps       ncg     rms          rms(c)
DAV:   1    -0.192228035041E+03   -0.63338E-03   -0.12836E-02  8160   0.257E-01    0.569E-02
DAV:   2    -0.192228347728E+03   -0.31269E-03   -0.82106E-04 11000   0.220E-01    0.159E-01
DAV:   3    -0.192228006893E+03    0.34084E-03   -0.40192E-04  8960   0.187E-01    0.308E-02
DAV:   4    -0.192228018083E+03   -0.11190E-04   -0.55137E-05  5760   0.570E-02
  95 F= -.19222802E+03 E0= -.19215582E+03  d E =-.625473E-03
       N       E                     dE             d eps       ncg     rms          rms(c)
DAV:   1    -0.192232402542E+03   -0.43956E-02   -0.60523E-01  8160   0.164E+00    0.171E-01
DAV:   2    -0.192233942266E+03   -0.15397E-02   -0.15257E-02 11560   0.419E-01    0.242E-01
DAV:   3    -0.192233201269E+03    0.74100E-03   -0.29919E-03 12440   0.400E-01    0.156E-01
DAV:   4    -0.192233043236E+03    0.15803E-03   -0.77271E-04 10080   0.228E-01    0.997E-02
DAV:   5    -0.192232932898E+03    0.11034E-03   -0.32543E-04  8720   0.143E-01    0.698E-02
DAV:   6    -0.192232948518E+03   -0.15620E-04   -0.24595E-04  8600   0.136E-01
  96 F= -.19223295E+03 E0= -.19216092E+03  d E =-.493044E-02
       N       E                     dE             d eps       ncg     rms          rms(c)
DAV:   1    -0.192239118964E+03   -0.61861E-02   -0.22336E+00  8160   0.315E+00    0.312E-01
DAV:   2    -0.192244234735E+03   -0.51158E-02   -0.55453E-02 11160   0.790E-01    0.400E-01
DAV:   3    -0.192242342960E+03    0.18918E-02   -0.92688E-03 12520   0.689E-01    0.276E-01
DAV:   4    -0.192241736934E+03    0.60603E-03   -0.23505E-03 12120   0.402E-01    0.162E-01
DAV:   5    -0.192241336669E+03    0.40026E-03   -0.96765E-04 10680   0.195E-01    0.838E-02
DAV:   6    -0.192241653836E+03   -0.31717E-03   -0.69506E-04 10840   0.243E-01    0.173E-01
DAV:   7    -0.192241289447E+03    0.36439E-03   -0.35217E-04  8520   0.191E-01    0.194E-02
DAV:   8    -0.192241295924E+03   -0.64772E-05   -0.35161E-05  5720   0.289E-02
  97 F= -.19224130E+03 E0= -.19216976E+03  d E =-.834741E-02
       N       E                     dE             d eps       ncg     rms          rms(c)
DAV:   1    -0.192244881555E+03   -0.35921E-02   -0.64402E-01  8160   0.169E+00    0.187E-01
DAV:   2    -0.192247417961E+03   -0.25364E-02   -0.18640E-02 12800   0.659E-01    0.371E-01
DAV:   3    -0.192245594722E+03    0.18232E-02   -0.40589E-03 12280   0.523E-01    0.134E-01
DAV:   4    -0.192245513562E+03    0.81159E-04   -0.83269E-04  9720   0.210E-01
  98 F= -.19224551E+03 E0= -.19217463E+03  d E =-.421764E-02
       N       E                     dE             d eps       ncg     rms          rms(c)
DAV:   1    -0.192247752874E+03   -0.21582E-02   -0.31397E-01  8160   0.120E+00    0.155E-01
DAV:   2    -0.192249100251E+03   -0.13474E-02   -0.92355E-03 13000   0.438E-01    0.306E-01
DAV:   3    -0.192248032194E+03    0.10681E-02   -0.26329E-03 12280   0.430E-01    0.138E-01
DAV:   4    -0.192247906016E+03    0.12618E-03   -0.66623E-04  9680   0.180E-01    0.798E-02
DAV:   5    -0.192247793022E+03    0.11299E-03   -0.24669E-04  7520   0.774E-02    0.303E-02
DAV:   6    -0.192247832504E+03   -0.39481E-04   -0.13279E-04  6640   0.842E-02
  99 F= -.19224783E+03 E0= -.19217717E+03  d E =-.231894E-02
       N       E                     dE             d eps       ncg     rms          rms(c)
DAV:   1    -0.192248770038E+03   -0.97702E-03   -0.49873E-02  8160   0.480E-01    0.685E-02
DAV:   2    -0.192248932853E+03   -0.16282E-03   -0.21009E-03 10320   0.177E-01    0.976E-02
DAV:   3    -0.192248852142E+03    0.80711E-04   -0.36345E-04  8800   0.170E-01
 100 F= -.19224885E+03 E0= -.19217828E+03  d E =-.101964E-02
