<?xml version="1.0" encoding="ISO-8859-1"?>
<modeling>
 <generator>
  <i name="program" type="string">vasp </i>
  <i name="version" type="string">5.4.1  </i>
  <i name="subversion" type="string">05Feb16 (build Jul 05 2020 17:13:04) complex                          parallel </i>
  <i name="platform" type="string">IFC91_ompi </i>
  <i name="date" type="string">2024 04 27 </i>
  <i name="time" type="string">11:04:58 </i>
 </generator>
 <incar>
  <i type="int" name="ISTART">     0</i>
  <i type="string" name="PREC">normal</i>
  <i type="string" name="ALGO"> Normal</i>
  <i type="int" name="ISPIN">     1</i>
  <i type="int" name="ICHARG">     2</i>
  <i type="int" name="IBRION">     1</i>
  <i type="int" name="NSW">   100</i>
  <i type="int" name="ISIF">     3</i>
  <i type="int" name="ISYM">     0</i>
  <i name="SYMPREC">      0.00000001</i>
  <i name="POTIM">      0.50000000</i>
  <i type="logical" name="LREAL"> F  </i>
  <i type="logical" name="LPLANE"> F  </i>
  <i type="int" name="ISMEAR">     0</i>
  <i type="logical" name="LWAVE"> F  </i>
  <i type="logical" name="LCHARG"> F  </i>
  <v type="int" name="KPOINT_BSE">    -1     0     0     0</v>
 </incar>
 <kpoints>
  <generation param="Gamma">
   <v type="int" name="divisions">       8        8        1 </v>
   <v name="usershift">      0.00000000       0.00000000       0.00000000 </v>
   <v name="genvec1">      0.12500000       0.00000000       0.00000000 </v>
   <v name="genvec2">     -0.00000000       0.12500000       0.00000000 </v>
   <v name="genvec3">      0.00000000       0.00000000       1.00000000 </v>
   <v name="shift">      0.00000000       0.00000000       0.00000000 </v>
  </generation>
  <varray name="kpointlist" >
   <v>       0.00000000       0.00000000       0.00000000 </v>
   <v>       0.12500000       0.00000000       0.00000000 </v>
   <v>       0.25000000       0.00000000       0.00000000 </v>
   <v>       0.37500000       0.00000000       0.00000000 </v>
   <v>       0.50000000       0.00000000       0.00000000 </v>
   <v>       0.00000000       0.12500000       0.00000000 </v>
   <v>       0.12500000       0.12500000       0.00000000 </v>
   <v>       0.25000000       0.12500000       0.00000000 </v>
   <v>       0.37500000       0.12500000       0.00000000 </v>
   <v>       0.50000000       0.12500000       0.00000000 </v>
   <v>      -0.37500000       0.12500000       0.00000000 </v>
   <v>      -0.25000000       0.12500000       0.00000000 </v>
   <v>      -0.12500000       0.12500000       0.00000000 </v>
   <v>       0.00000000       0.25000000       0.00000000 </v>
   <v>       0.12500000       0.25000000       0.00000000 </v>
   <v>       0.25000000       0.25000000       0.00000000 </v>
   <v>       0.37500000       0.25000000       0.00000000 </v>
   <v>       0.50000000       0.25000000       0.00000000 </v>
   <v>      -0.37500000       0.25000000       0.00000000 </v>
   <v>      -0.25000000       0.25000000       0.00000000 </v>
   <v>      -0.12500000       0.25000000       0.00000000 </v>
   <v>      -0.00000000       0.37500000       0.00000000 </v>
   <v>       0.12500000       0.37500000       0.00000000 </v>
   <v>       0.25000000       0.37500000       0.00000000 </v>
   <v>       0.37500000       0.37500000       0.00000000 </v>
   <v>       0.50000000       0.37500000       0.00000000 </v>
   <v>      -0.37500000       0.37500000       0.00000000 </v>
   <v>      -0.25000000       0.37500000       0.00000000 </v>
   <v>      -0.12500000       0.37500000       0.00000000 </v>
   <v>       0.00000000       0.50000000       0.00000000 </v>
   <v>       0.12500000       0.50000000       0.00000000 </v>
   <v>       0.25000000       0.50000000       0.00000000 </v>
   <v>       0.37500000       0.50000000       0.00000000 </v>
   <v>       0.50000000       0.50000000       0.00000000 </v>
  </varray>
  <varray name="weights" >
   <v>       0.01562500 </v>
   <v>       0.03125000 </v>
   <v>       0.03125000 </v>
   <v>       0.03125000 </v>
   <v>       0.01562500 </v>
   <v>       0.03125000 </v>
   <v>       0.03125000 </v>
   <v>       0.03125000 </v>
   <v>       0.03125000 </v>
   <v>       0.03125000 </v>
   <v>       0.03125000 </v>
   <v>       0.03125000 </v>
   <v>       0.03125000 </v>
   <v>       0.03125000 </v>
   <v>       0.03125000 </v>
   <v>       0.03125000 </v>
   <v>       0.03125000 </v>
   <v>       0.03125000 </v>
   <v>       0.03125000 </v>
   <v>       0.03125000 </v>
   <v>       0.03125000 </v>
   <v>       0.03125000 </v>
   <v>       0.03125000 </v>
   <v>       0.03125000 </v>
   <v>       0.03125000 </v>
   <v>       0.03125000 </v>
   <v>       0.03125000 </v>
   <v>       0.03125000 </v>
   <v>       0.03125000 </v>
   <v>       0.01562500 </v>
   <v>       0.03125000 </v>
   <v>       0.03125000 </v>
   <v>       0.03125000 </v>
   <v>       0.01562500 </v>
  </varray>
 </kpoints>
 <parameters>
  <separator name="general" >
   <i type="string" name="SYSTEM">unknown system</i>
   <i type="logical" name="LCOMPAT"> F  </i>
  </separator>
  <separator name="electronic" >
   <i type="string" name="PREC">normal</i>
   <i name="ENMAX">    280.00000000</i>
   <i name="ENAUG">    373.43800000</i>
   <i name="EDIFF">      0.00010000</i>
   <i type="int" name="IALGO">    38</i>
   <i type="int" name="IWAVPR">    11</i>
   <i type="int" name="NBANDS">   120</i>
   <i name="NELECT">    159.00000000</i>
   <i type="int" name="TURBO">     0</i>
   <i type="int" name="IRESTART">     0</i>
   <i type="int" name="NREBOOT">     0</i>
   <i type="int" name="NMIN">     0</i>
   <i name="EREF">      0.00000000</i>
   <separator name="electronic smearing" >
    <i type="int" name="ISMEAR">     0</i>
    <i name="SIGMA">      0.20000000</i>
    <i name="KSPACING">      0.50000000</i>
    <i type="logical" name="KGAMMA"> T  </i>
   </separator>
   <separator name="electronic projectors" >
    <i type="logical" name="LREAL"> F  </i>
    <v name="ROPT">      0.00000000      0.00000000      0.00000000      0.00000000</v>
    <i type="int" name="LMAXPAW">  -100</i>
    <i type="int" name="LMAXMIX">     2</i>
    <i type="logical" name="NLSPLINE"> F  </i>
   </separator>
   <separator name="electronic startup" >
    <i type="int" name="ISTART">     0</i>
    <i type="int" name="ICHARG">     2</i>
    <i type="int" name="INIWAV">     1</i>
   </separator>
   <separator name="electronic spin" >
    <i type="int" name="ISPIN">     1</i>
    <i type="logical" name="LNONCOLLINEAR"> F  </i>
    <v name="MAGMOM">      1.00000000      1.00000000      1.00000000      1.00000000      1.00000000      1.00000000      1.00000000      1.00000000      1.00000000      1.00000000      1.00000000      1.00000000      1.00000000      1.00000000      1.00000000      1.00000000      1.00000000      1.00000000      1.00000000      1.00000000
      1.00000000      1.00000000      1.00000000      1.00000000      1.00000000      1.00000000      1.00000000</v>
    <i name="NUPDOWN">     -1.00000000</i>
    <i type="logical" name="LSORBIT"> F  </i>
    <v name="SAXIS">      0.00000000      0.00000000      1.00000000</v>
    <i type="logical" name="LSPIRAL"> F  </i>
    <v name="QSPIRAL">      0.00000000      0.00000000      0.00000000</v>
    <i type="logical" name="LZEROZ"> F  </i>
   </separator>
   <separator name="electronic exchange-correlation" >
    <i type="logical" name="LASPH"> F  </i>
    <i type="logical" name="LMETAGGA"> F  </i>
   </separator>
   <separator name="electronic convergence" >
    <i type="int" name="NELM">    60</i>
    <i type="int" name="NELMDL">    -5</i>
    <i type="int" name="NELMIN">     2</i>
    <i name="ENINI">    280.00000000</i>
    <separator name="electronic convergence detail" >
     <i type="logical" name="LDIAG"> T  </i>
     <i type="logical" name="LSUBROT"> F  </i>
     <i name="WEIMIN">      0.00100000</i>
     <i name="EBREAK">      0.00000021</i>
     <i name="DEPER">      0.30000000</i>
     <i type="int" name="NRMM">     4</i>
     <i name="TIME">      0.40000000</i>
    </separator>
   </separator>
   <separator name="electronic mixer" >
    <i name="AMIX">      0.40000000</i>
    <i name="BMIX">      1.00000000</i>
    <i name="AMIN">      0.10000000</i>
    <i name="AMIX_MAG">      1.60000000</i>
    <i name="BMIX_MAG">      1.00000000</i>
    <separator name="electronic mixer details" >
     <i type="int" name="IMIX">     4</i>
     <i type="logical" name="MIXFIRST"> F  </i>
     <i type="int" name="MAXMIX">   -45</i>
     <i name="WC">    100.00000000</i>
     <i type="int" name="INIMIX">     1</i>
     <i type="int" name="MIXPRE">     1</i>
     <i type="int" name="MREMOVE">     5</i>
    </separator>
   </separator>
   <separator name="electronic dipolcorrection" >
    <i type="logical" name="LDIPOL"> F  </i>
    <i type="logical" name="LMONO"> F  </i>
    <i type="int" name="IDIPOL">     0</i>
    <i name="EPSILON">      1.00000000</i>
    <v name="DIPOL">   -100.00000000   -100.00000000   -100.00000000</v>
    <i name="EFIELD">      0.00000000</i>
   </separator>
  </separator>
  <separator name="grids" >
   <i type="int" name="NGX">    42</i>
   <i type="int" name="NGY">    42</i>
   <i type="int" name="NGZ">   126</i>
   <i type="int" name="NGXF">    84</i>
   <i type="int" name="NGYF">    84</i>
   <i type="int" name="NGZF">   252</i>
   <i type="logical" name="ADDGRID"> F  </i>
  </separator>
  <separator name="ionic" >
   <i type="int" name="NSW">   100</i>
   <i type="int" name="IBRION">     1</i>
   <i type="int" name="ISIF">     3</i>
   <i name="PSTRESS">      0.00000000</i>
   <i name="EDIFFG">      0.00100000</i>
   <i type="int" name="NFREE">     0</i>
   <i name="POTIM">      0.50000000</i>
   <i name="SMASS">     -3.00000000</i>
   <i name="SCALEE">      1.00000000</i>
  </separator>
  <separator name="ionic md" >
   <i name="TEBEG">      0.00010000</i>
   <i name="TEEND">      0.00010000</i>
   <i type="int" name="NBLOCK">     1</i>
   <i type="int" name="KBLOCK">   100</i>
   <i type="int" name="NPACO">   256</i>
   <i name="APACO">     16.00000000</i>
  </separator>
  <separator name="symmetry" >
   <i type="int" name="ISYM">     0</i>
   <i name="SYMPREC">      0.00000001</i>
  </separator>
  <separator name="dos" >
   <i type="logical" name="LORBIT"> F  </i>
   <v name="RWIGS">     -1.00000000     -1.00000000     -1.00000000     -1.00000000</v>
   <i type="int" name="NEDOS">   301</i>
   <i name="EMIN">     10.00000000</i>
   <i name="EMAX">    -10.00000000</i>
   <i name="EFERMI">      0.00000000</i>
  </separator>
  <separator name="writing" >
   <i type="int" name="NWRITE">     2</i>
   <i type="logical" name="LWAVE"> F  </i>
   <i type="logical" name="LCHARG"> F  </i>
   <i type="logical" name="LPARD"> F  </i>
   <i type="logical" name="LVTOT"> F  </i>
   <i type="logical" name="LVHAR"> F  </i>
   <i type="logical" name="LELF"> F  </i>
   <i type="logical" name="LOPTICS"> F  </i>
   <v name="STM">      0.00000000      0.00000000      0.00000000      0.00000000      0.00000000      0.00000000      0.00000000</v>
  </separator>
  <separator name="performance" >
   <i type="int" name="NPAR">    40</i>
   <i type="int" name="NSIM">     4</i>
   <i type="int" name="NBLK">    -1</i>
   <i type="logical" name="LPLANE"> F  </i>
   <i type="logical" name="LSCALAPACK"> T  </i>
   <i type="logical" name="LSCAAWARE"> F  </i>
   <i type="logical" name="LSCALU"> F  </i>
   <i type="logical" name="LASYNC"> F  </i>
   <i type="logical" name="LORBITALREAL"> F  </i>
  </separator>
  <separator name="miscellaneous" >
   <i type="int" name="IDIOT">     3</i>
   <i type="logical" name="LMUSIC"> F  </i>
   <v name="POMASS">     50.94100000     95.94000000    183.85000000     32.06600000</v>
   <v name="DARWINR">      0.00000000      0.00000000      0.00000000      0.00000000</v>
   <v name="DARWINV">      1.00000000      1.00000000      1.00000000      1.00000000</v>
   <i type="logical" name="LCORR"> T  </i>
  </separator>
  <i type="logical" name="GGA_COMPAT"> T  </i>
  <i type="logical" name="LBERRY"> F  </i>
  <i type="int" name="ICORELEVEL">     0</i>
  <i type="logical" name="LDAU"> F  </i>
  <i type="int" name="I_CONSTRAINED_M">     0</i>
  <separator name="electronic exchange-correlation" >
   <i type="string" name="GGA">--</i>
   <i type="int" name="VOSKOWN">     0</i>
   <i type="logical" name="LHFCALC"> F  </i>
   <i type="string" name="PRECFOCK"></i>
   <i type="logical" name="LSYMGRAD"> F  </i>
   <i type="logical" name="LHFONE"> F  </i>
   <i type="logical" name="LRHFCALC"> F  </i>
   <i type="logical" name="LTHOMAS"> F  </i>
   <i type="logical" name="LMODELHF"> F  </i>
   <i name="ENCUT4O">     -1.00000000</i>
   <i type="int" name="EXXOEP">     0</i>
   <i type="int" name="FOURORBIT">     0</i>
   <i name="AEXX">      0.00000000</i>
   <i name="HFALPHA">      0.00000000</i>
   <i name="MCALPHA">      0.00000000</i>
   <i name="ALDAX">      1.00000000</i>
   <i name="AGGAX">      1.00000000</i>
   <i name="ALDAC">      1.00000000</i>
   <i name="AGGAC">      1.00000000</i>
   <i type="int" name="NKREDX">     1</i>
   <i type="int" name="NKREDY">     1</i>
   <i type="int" name="NKREDZ">     1</i>
   <i type="logical" name="SHIFTRED"> F  </i>
   <i type="logical" name="ODDONLY"> F  </i>
   <i type="logical" name="EVENONLY"> F  </i>
   <i type="int" name="LMAXFOCK">     0</i>
   <i type="int" name="NMAXFOCKAE">     0</i>
   <i type="logical" name="LFOCKAEDFT"> F  </i>
   <i name="HFSCREEN">      0.00000000</i>
   <i name="HFSCREENC">      0.00000000</i>
   <i type="int" name="NBANDSGWLOW">     0</i>
  </separator>
  <separator name="vdW DFT" >
   <i type="logical" name="LUSE_VDW"> F  </i>
   <i name="Zab_VDW">     -0.84910000</i>
   <i name="PARAM1">      0.12340000</i>
   <i name="PARAM2">      1.00000000</i>
   <i name="PARAM3">      0.00000000</i>
  </separator>
  <separator name="model GW" >
   <i type="int" name="MODEL_GW">     0</i>
   <i name="MODEL_EPS0">     58.26239943</i>
   <i name="MODEL_ALPHA">      1.00000000</i>
  </separator>
  <separator name="linear response parameters" >
   <i type="logical" name="LEPSILON"> F  </i>
   <i type="logical" name="LRPA"> F  </i>
   <i type="logical" name="LNABLA"> F  </i>
   <i type="logical" name="LVEL"> F  </i>
   <i type="int" name="KINTER">     0</i>
   <i name="CSHIFT">      0.10000000</i>
   <i name="OMEGAMAX">     -1.00000000</i>
   <i name="DEG_THRESHOLD">      0.00200000</i>
  </separator>
  <separator name="orbital magnetization" >
   <i type="logical" name="NUCIND"> F  </i>
   <v name="MAGPOS">      0.00000000      0.00000000      0.00000000</v>
   <i type="logical" name="LNICSALL"> T  </i>
   <i type="logical" name="ORBITALMAG"> F  </i>
   <i type="logical" name="LMAGBLOCH"> F  </i>
   <i type="logical" name="LCHIMAG"> F  </i>
   <i type="logical" name="LGAUGE"> T  </i>
   <i type="int" name="MAGATOM">     0</i>
   <v name="MAGDIPOL">      0.00000000      0.00000000      0.00000000</v>
   <v name="AVECCONST">      0.00000000      0.00000000      0.00000000</v>
  </separator>
  <separator name="response functions" >
   <i type="logical" name="LADDER"> F  </i>
   <i type="logical" name="LFXC"> F  </i>
   <i type="logical" name="LHARTREE"> T  </i>
   <i type="int" name="IBSE">     0</i>
   <v type="int" name="KPOINT">    -1     0     0     0</v>
   <i type="logical" name="LTCTE"> F  </i>
   <i type="logical" name="LTETE"> F  </i>
   <i type="logical" name="LTRIPLET"> F  </i>
   <i type="logical" name="LFXCEPS"> F  </i>
   <i type="logical" name="LFXHEG"> F  </i>
   <i type="int" name="NATURALO">     0</i>
   <i type="logical" name="L2ORDER"> F  </i>
   <i type="logical" name="LUSEW"> F  </i>
   <i name="ENCUTGW">     -2.00000000</i>
   <i name="ENCUTGWSOFT">     -2.00000000</i>
   <i name="ENCUTLF">     -1.00000000</i>
   <i type="int" name="LMAXMP2">    -1</i>
   <i name="SCISSOR">      0.00000000</i>
   <i type="int" name="NOMEGA">     0</i>
   <i type="int" name="NOMEGAR">     0</i>
   <i type="int" name="NBANDSGW">    -1</i>
   <i type="int" name="NBANDSO">    -1</i>
   <i type="int" name="NBANDSV">    -1</i>
   <i type="int" name="NELM">     1</i>
   <i type="int" name="NELMHF">     1</i>
   <i type="int" name="DIM">     3</i>
   <i type="int" name="ANTIRES">     0</i>
   <i name="OMEGAMAX">    -30.00000000</i>
   <i name="OMEGAMIN">    -30.00000000</i>
   <i name="OMEGATL">   -200.00000000</i>
   <i type="int" name="OMEGAGRID">     0</i>
   <i name="CSHIFT">     -0.10000000</i>
   <i type="logical" name="SELFENERGY"> F  </i>
   <i type="logical" name="LSPECTRAL"> F  </i>
   <i type="logical" name="LSPECTRALGW"> F  </i>
   <i type="logical" name="LSINGLES"> F  </i>
   <i type="logical" name="LFERMIGW"> F  </i>
   <i type="logical" name="ODDONLYGW"> F  </i>
   <i type="logical" name="EVENONLYGW"> F  </i>
   <i type="int" name="NKREDLFX">     1</i>
   <i type="int" name="NKREDLFY">     1</i>
   <i type="int" name="NKREDLFZ">     1</i>
   <i type="int" name="MAXMEM">  1800</i>
   <i type="int" name="TELESCOPE">     0</i>
   <i type="int" name="TAUPAR">     1</i>
   <i type="int" name="OMEGAPAR">    -1</i>
   <i name="LAMBDA">      1.00000000</i>
  </separator>
  <separator name="External order field" >
   <i name="OFIELD_KAPPA">      0.00000000</i>
   <v name="OFIELD_K">      0.00000000      0.00000000      0.00000000</v>
   <i name="OFIELD_Q6_NEAR">      0.00000000</i>
   <i name="OFIELD_Q6_FAR">      0.00000000</i>
   <i name="OFIELD_A">      0.00000000</i>
  </separator>
 </parameters>
 <atominfo>
  <atoms>      27 </atoms>
  <types>       4 </types>
  <array name="atoms" >
   <dimension dim="1">ion</dimension>
   <field type="string">element</field>
   <field type="int">atomtype</field>
   <set>
    <rc><c>V </c><c>   1</c></rc>
    <rc><c>V </c><c>   1</c></rc>
    <rc><c>V </c><c>   1</c></rc>
    <rc><c>Mo</c><c>   2</c></rc>
    <rc><c>Mo</c><c>   2</c></rc>
    <rc><c>Mo</c><c>   2</c></rc>
    <rc><c>W </c><c>   3</c></rc>
    <rc><c>W </c><c>   3</c></rc>
    <rc><c>W </c><c>   3</c></rc>
    <rc><c>S </c><c>   4</c></rc>
    <rc><c>S </c><c>   4</c></rc>
    <rc><c>S </c><c>   4</c></rc>
    <rc><c>S </c><c>   4</c></rc>
    <rc><c>S </c><c>   4</c></rc>
    <rc><c>S </c><c>   4</c></rc>
    <rc><c>S </c><c>   4</c></rc>
    <rc><c>S </c><c>   4</c></rc>
    <rc><c>S </c><c>   4</c></rc>
    <rc><c>S </c><c>   4</c></rc>
    <rc><c>S </c><c>   4</c></rc>
    <rc><c>S </c><c>   4</c></rc>
    <rc><c>S </c><c>   4</c></rc>
    <rc><c>S </c><c>   4</c></rc>
    <rc><c>S </c><c>   4</c></rc>
    <rc><c>S </c><c>   4</c></rc>
    <rc><c>S </c><c>   4</c></rc>
    <rc><c>S </c><c>   4</c></rc>
   </set>
  </array>
  <array name="atomtypes" >
   <dimension dim="1">type</dimension>
   <field type="int">atomspertype</field>
   <field type="string">element</field>
   <field>mass</field>
   <field>valence</field>
   <field type="string">pseudopotential</field>
   <set>
    <rc><c>   3</c><c>V </c><c>     50.94100000</c><c>      5.00000000</c><c> PAW_PBE V 08Apr2002                    </c></rc>
    <rc><c>   3</c><c>Mo</c><c>     95.94000000</c><c>      6.00000000</c><c> PAW_PBE Mo 08Apr2002                   </c></rc>
    <rc><c>   3</c><c>W </c><c>    183.85000000</c><c>      6.00000000</c><c> PAW_PBE W 08Apr2002                    </c></rc>
    <rc><c>  18</c><c>S </c><c>     32.06600000</c><c>      6.00000000</c><c>  PAW_PBE S 17Jan2003                   </c></rc>
   </set>
  </array>
 </atominfo>
 <structure name="initialpos" >
  <crystal>
   <varray name="basis" >
    <v>       8.66999996       5.03999989       0.00000000 </v>
    <v>      -8.66999982       5.04000013       0.00000000 </v>
    <v>       0.00000000       0.00000000      30.00000000 </v>
   </varray>
   <i name="volume">   2621.80797419 </i>
   <varray name="rec_basis" >
    <v>       0.05767013       0.09920635       0.00000000 </v>
    <v>      -0.05767013       0.09920635       0.00000000 </v>
    <v>       0.00000000       0.00000000       0.03333333 </v>
   </varray>
  </crystal>
  <varray name="positions" >
   <v>       0.00000000       0.00000000       0.00000000 </v>
   <v>       1.00000000       0.33333334       0.00000000 </v>
   <v>       0.33333334       0.66666669       0.00000000 </v>
   <v>       0.66666669       0.00000000       0.00000000 </v>
   <v>       0.33333334       0.00000000       0.00000000 </v>
   <v>       0.66666669       0.66666669       0.00000000 </v>
   <v>       0.00000000       0.66666669       0.00000000 </v>
   <v>       0.33333334       0.33333334       0.00000000 </v>
   <v>       0.66666669       0.33333334       0.00000000 </v>
   <v>       0.11068511       0.22244981       0.95539999 </v>
   <v>       0.22244981       0.11068511       0.04460000 </v>
   <v>       0.11068511       0.55578315       0.95539999 </v>
   <v>       0.22244981       0.44401845       0.04460000 </v>
   <v>       0.11068511       0.88911647       0.95539999 </v>
   <v>       0.22244981       0.77735180       0.04460000 </v>
   <v>       0.44401845       0.22244981       0.95539999 </v>
   <v>       0.55578315       0.11068511       0.04460000 </v>
   <v>       0.44401845       0.55578315       0.95539999 </v>
   <v>       0.55578315       0.44401845       0.04460000 </v>
   <v>       0.44401845       0.88911647       0.95539999 </v>
   <v>       0.55578315       0.77735180       0.04460000 </v>
   <v>       0.77735180       0.22244981       0.95539999 </v>
   <v>       0.88911647       0.11068511       0.04460000 </v>
   <v>       0.77735180       0.55578315       0.95539999 </v>
   <v>       0.88911647       0.44401845       0.04460000 </v>
   <v>       0.77735180       0.88911647       0.95539999 </v>
   <v>       0.88911647       0.77735180       0.04460000 </v>
  </varray>
 </structure>
 <calculation>
  <scstep>
   <time name="dav">   21.83   21.89</time>
   <time name="total">   21.88   21.94</time>
   <energy>
    <i name="alphaZ">     81.65567618 </i>
    <i name="ewald">  41890.23010355 </i>
    <i name="hartreedc"> -47722.86569349 </i>
    <i name="XCdc">   -242.92873460 </i>
    <i name="pawpsdc">   3467.42045192 </i>
    <i name="pawaedc">  -2871.19716117 </i>
    <i name="eentropy">     -0.53345690 </i>
    <i name="bandstr">   -237.01670295 </i>
    <i name="atom">   6761.44252427 </i>
    <i name="e_fr_energy">   1126.20700681 </i>
    <i name="e_wo_entrp">   1126.74046371 </i>
    <i name="e_0_energy">   1126.47373526 </i>
   </energy>
  </scstep>
  <scstep>
   <time name="dav">   27.81   27.88</time>
   <time name="total">   27.82   27.89</time>
   <energy>
    <i name="e_fr_energy">     -0.05980057 </i>
    <i name="e_wo_entrp">      0.11366032 </i>
    <i name="e_0_energy">      0.02692988 </i>
   </energy>
  </scstep>
  <scstep>
   <time name="dav">   27.65   27.71</time>
   <time name="total">   27.65   27.72</time>
   <energy>
    <i name="e_fr_energy">   -199.39404254 </i>
    <i name="e_wo_entrp">   -199.14423340 </i>
    <i name="e_0_energy">   -199.26913797 </i>
   </energy>
  </scstep>
  <scstep>
   <time name="dav">   29.73   29.80</time>
   <time name="total">   29.73   29.81</time>
   <energy>
    <i name="e_fr_energy">   -208.93812822 </i>
    <i name="e_wo_entrp">   -208.65381054 </i>
    <i name="e_0_energy">   -208.79596938 </i>
   </energy>
  </scstep>
  <scstep>
   <time name="dav">   29.09   29.16</time>
   <time name="total">   29.56   29.64</time>
   <energy>
    <i name="e_fr_energy">   -209.31260739 </i>
    <i name="e_wo_entrp">   -209.03204033 </i>
    <i name="e_0_energy">   -209.17232386 </i>
   </energy>
  </scstep>
  <scstep>
   <time name="dav">   31.04   31.12</time>
   <time name="total">   31.54   31.63</time>
   <energy>
    <i name="e_fr_energy">   -237.23518738 </i>
    <i name="e_wo_entrp">   -236.96026045 </i>
    <i name="e_0_energy">   -237.09772392 </i>
   </energy>
  </scstep>
  <scstep>
   <time name="dav">   32.67   32.75</time>
   <time name="total">   33.17   33.26</time>
   <energy>
    <i name="e_fr_energy">   -196.46897175 </i>
    <i name="e_wo_entrp">   -196.14073055 </i>
    <i name="e_0_energy">   -196.30485115 </i>
   </energy>
  </scstep>
  <scstep>
   <time name="dav">   29.48   29.55</time>
   <time name="total">   29.99   30.07</time>
   <energy>
    <i name="e_fr_energy">   -189.43559168 </i>
    <i name="e_wo_entrp">   -189.14389479 </i>
    <i name="e_0_energy">   -189.28974323 </i>
   </energy>
  </scstep>
  <scstep>
   <time name="dav">   30.81   30.88</time>
   <time name="total">   31.33   31.41</time>
   <energy>
    <i name="e_fr_energy">   -188.23166288 </i>
    <i name="e_wo_entrp">   -187.91105311 </i>
    <i name="e_0_energy">   -188.07135799 </i>
   </energy>
  </scstep>
  <scstep>
   <time name="dav">   32.83   32.91</time>
   <time name="total">   33.36   33.44</time>
   <energy>
    <i name="e_fr_energy">   -187.08088512 </i>
    <i name="e_wo_entrp">   -186.73371325 </i>
    <i name="e_0_energy">   -186.90729918 </i>
   </energy>
  </scstep>
  <scstep>
   <time name="dav">   33.09   33.17</time>
   <time name="total">   33.62   33.71</time>
   <energy>
    <i name="e_fr_energy">   -187.03079331 </i>
    <i name="e_wo_entrp">   -186.68262272 </i>
    <i name="e_0_energy">   -186.85670801 </i>
   </energy>
  </scstep>
  <scstep>
   <time name="dav">   31.15   31.22</time>
   <time name="total">   31.69   31.77</time>
   <energy>
    <i name="e_fr_energy">   -187.17743157 </i>
    <i name="e_wo_entrp">   -186.83892361 </i>
    <i name="e_0_energy">   -187.00817759 </i>
   </energy>
  </scstep>
  <scstep>
   <time name="dav">   32.27   32.35</time>
   <time name="total">   32.80   32.89</time>
   <energy>
    <i name="e_fr_energy">   -186.93048679 </i>
    <i name="e_wo_entrp">   -186.59559561 </i>
    <i name="e_0_energy">   -186.76304120 </i>
   </energy>
  </scstep>
  <scstep>
   <time name="dav">   32.92   33.00</time>
   <time name="total">   33.46   33.54</time>
   <energy>
    <i name="e_fr_energy">   -186.88202145 </i>
    <i name="e_wo_entrp">   -186.53809310 </i>
    <i name="e_0_energy">   -186.71005727 </i>
   </energy>
  </scstep>
  <scstep>
   <time name="dav">   30.64   30.72</time>
   <time name="total">   31.18   31.26</time>
   <energy>
    <i name="e_fr_energy">   -186.88347551 </i>
    <i name="e_wo_entrp">   -186.53828696 </i>
    <i name="e_0_energy">   -186.71088124 </i>
   </energy>
  </scstep>
  <scstep>
   <time name="dav">   32.92   33.00</time>
   <time name="total">   33.45   33.54</time>
   <energy>
    <i name="e_fr_energy">   -186.87517354 </i>
    <i name="e_wo_entrp">   -186.52962383 </i>
    <i name="e_0_energy">   -186.70239869 </i>
   </energy>
  </scstep>
  <scstep>
   <time name="dav">   31.09   31.17</time>
   <time name="total">   31.63   31.71</time>
   <energy>
    <i name="e_fr_energy">   -186.87179207 </i>
    <i name="e_wo_entrp">   -186.52855190 </i>
    <i name="e_0_energy">   -186.70017198 </i>
   </energy>
  </scstep>
  <scstep>
   <time name="dav">   29.51   29.58</time>
   <time name="total">   30.04   30.12</time>
   <energy>
    <i name="e_fr_energy">   -186.87160738 </i>
    <i name="e_wo_entrp">   -186.52797393 </i>
    <i name="e_0_energy">   -186.69979065 </i>
   </energy>
  </scstep>
  <scstep>
   <time name="dav">   28.46   28.53</time>
   <time name="total">   29.00   29.08</time>
   <energy>
    <i name="e_fr_energy">   -186.87126564 </i>
    <i name="e_wo_entrp">   -186.52751288 </i>
    <i name="e_0_energy">   -186.69938926 </i>
   </energy>
  </scstep>
  <scstep>
   <time name="dav">   23.98   24.03</time>
   <time name="total">   24.51   24.58</time>
   <energy>
    <i name="e_fr_energy">   -186.87202468 </i>
    <i name="e_wo_entrp">   -186.52853437 </i>
    <i name="e_0_energy">   -186.70027953 </i>
   </energy>
  </scstep>
  <scstep>
   <time name="dav">   22.16   22.22</time>
   <time name="total">   22.70   22.76</time>
   <energy>
    <i name="e_fr_energy">   -186.87264217 </i>
    <i name="e_wo_entrp">   -186.52913514 </i>
    <i name="e_0_energy">   -186.70088865 </i>
   </energy>
  </scstep>
  <scstep>
   <time name="dav">   20.77   20.82</time>
   <time name="total">   21.30   21.36</time>
   <energy>
    <i name="e_fr_energy">   -186.87374948 </i>
    <i name="e_wo_entrp">   -186.53021255 </i>
    <i name="e_0_energy">   -186.70198101 </i>
   </energy>
  </scstep>
  <scstep>
   <time name="dav">   20.50   20.55</time>
   <time name="total">   21.04   21.09</time>
   <energy>
    <i name="e_fr_energy">   -186.87497154 </i>
    <i name="e_wo_entrp">   -186.53151333 </i>
    <i name="e_0_energy">   -186.70324244 </i>
   </energy>
  </scstep>
  <scstep>
   <time name="dav">   19.25   19.29</time>
   <time name="total">   19.78   19.83</time>
   <energy>
    <i name="e_fr_energy">   -186.87555550 </i>
    <i name="e_wo_entrp">   -186.53207185 </i>
    <i name="e_0_energy">   -186.70381368 </i>
   </energy>
  </scstep>
  <scstep>
   <time name="dav">   16.35   16.39</time>
   <time name="total">   16.89   16.93</time>
   <energy>
    <i name="e_fr_energy">   -186.87593254 </i>
    <i name="e_wo_entrp">   -186.53241073 </i>
    <i name="e_0_energy">   -186.70417163 </i>
   </energy>
  </scstep>
  <scstep>
   <time name="dav">   19.27   19.32</time>
   <time name="total">   19.80   19.86</time>
   <energy>
    <i name="e_fr_energy">   -186.87615395 </i>
    <i name="e_wo_entrp">   -186.53264636 </i>
    <i name="e_0_energy">   -186.70440015 </i>
   </energy>
  </scstep>
  <scstep>
   <time name="dav">   19.74   19.79</time>
   <time name="total">   20.27   20.33</time>
   <energy>
    <i name="e_fr_energy">   -186.87625541 </i>
    <i name="e_wo_entrp">   -186.53275192 </i>
    <i name="e_0_energy">   -186.70450366 </i>
   </energy>
  </scstep>
  <scstep>
   <time name="dav">   20.05   20.10</time>
   <time name="total">   20.09   20.14</time>
   <energy>
    <i name="alphaZ">     81.65567618 </i>
    <i name="ewald">  41890.23010355 </i>
    <i name="hartreedc"> -47833.05117575 </i>
    <i name="XCdc">   -231.60063434 </i>
    <i name="pawpsdc">   4192.09545086 </i>
    <i name="pawaedc">  -3610.11450971 </i>
    <i name="eentropy">     -0.34350361 </i>
    <i name="bandstr">  -1437.19023735 </i>
    <i name="atom">   6761.44252427 </i>
    <i name="e_fr_energy">   -186.87630590 </i>
    <i name="e_wo_entrp">   -186.53280229 </i>
    <i name="e_0_energy">   -186.70455410 </i>
   </energy>
  </scstep>
  <structure>
   <crystal>
    <varray name="basis" >
     <v>       8.66999996       5.03999989       0.00000000 </v>
     <v>      -8.66999982       5.04000013       0.00000000 </v>
     <v>       0.00000000       0.00000000      30.00000000 </v>
    </varray>
    <i name="volume">   2621.80797419 </i>
    <varray name="rec_basis" >
     <v>       0.05767013       0.09920635       0.00000000 </v>
     <v>      -0.05767013       0.09920635       0.00000000 </v>
     <v>       0.00000000       0.00000000       0.03333333 </v>
    </varray>
   </crystal>
   <varray name="positions" >
    <v>       0.00000000       0.00000000       0.00000000 </v>
    <v>       1.00000000       0.33333334       0.00000000 </v>
    <v>       0.33333334       0.66666669       0.00000000 </v>
    <v>       0.66666669       0.00000000       0.00000000 </v>
    <v>       0.33333334       0.00000000       0.00000000 </v>
    <v>       0.66666669       0.66666669       0.00000000 </v>
    <v>       0.00000000       0.66666669       0.00000000 </v>
    <v>       0.33333334       0.33333334       0.00000000 </v>
    <v>       0.66666669       0.33333334       0.00000000 </v>
    <v>       0.11068511       0.22244981       0.95539999 </v>
    <v>       0.22244981       0.11068511       0.04460000 </v>
    <v>       0.11068511       0.55578315       0.95539999 </v>
    <v>       0.22244981       0.44401845       0.04460000 </v>
    <v>       0.11068511       0.88911647       0.95539999 </v>
    <v>       0.22244981       0.77735180       0.04460000 </v>
    <v>       0.44401845       0.22244981       0.95539999 </v>
    <v>       0.55578315       0.11068511       0.04460000 </v>
    <v>       0.44401845       0.55578315       0.95539999 </v>
    <v>       0.55578315       0.44401845       0.04460000 </v>
    <v>       0.44401845       0.88911647       0.95539999 </v>
    <v>       0.55578315       0.77735180       0.04460000 </v>
    <v>       0.77735180       0.22244981       0.95539999 </v>
    <v>       0.88911647       0.11068511       0.04460000 </v>
    <v>       0.77735180       0.55578315       0.95539999 </v>
    <v>       0.88911647       0.44401845       0.04460000 </v>
    <v>       0.77735180       0.88911647       0.95539999 </v>
    <v>       0.88911647       0.77735180       0.04460000 </v>
   </varray>
  </structure>
  <varray name="forces" >
   <v>      -0.08170620      -0.21303973       0.12264099 </v>
   <v>       0.06577731      -0.19349177       0.00981906 </v>
   <v>       0.00271285       0.41760846      -0.10220100 </v>
   <v>       0.05211764      -0.27736697       0.01494477 </v>
   <v>       0.24629522       0.15856751      -0.09986118 </v>
   <v>      -0.26437584       0.12994053       0.08404360 </v>
   <v>      -0.18453494       0.21107367      -0.05912258 </v>
   <v>       0.12301801       0.06654536       0.03915878 </v>
   <v>       0.04361937      -0.32390005      -0.02808269 </v>
   <v>      -0.23712909      -0.52298161      -1.40789617 </v>
   <v>      -0.63833641      -0.56702554       2.12570338 </v>
   <v>       0.74265647       0.01441498      -1.45801034 </v>
   <v>      -0.73505053      -0.00159950       1.43892887 </v>
   <v>      -0.64243447      -0.14357494      -2.10510647 </v>
   <v>       0.66137854      -0.15888567       2.09784337 </v>
   <v>       0.07312293       0.13129567      -2.95640685 </v>
   <v>      -0.20266327       0.17948335       2.89598639 </v>
   <v>      -0.69752467      -0.15648510      -2.12088008 </v>
   <v>      -0.05291617      -0.10055785       2.92481581 </v>
   <v>       0.52393016      -0.72613309      -2.19617777 </v>
   <v>      -0.51123902      -0.69000154       2.17497776 </v>
   <v>       0.35270470       0.69945946      -2.14756655 </v>
   <v>       0.35140524       0.67278927       1.42516900 </v>
   <v>       0.29273428      -0.01446206      -2.84119722 </v>
   <v>       0.58510463      -0.00971515       2.11138012 </v>
   <v>       0.51355436       0.70341891      -2.15610021 </v>
   <v>      -0.38222110       0.71462341       2.21319722 </v>
  </varray>
  <varray name="stress" >
   <v>       7.27551635       0.08566546      -1.50642329 </v>
   <v>       0.08566554       4.47013614       0.04430920 </v>
   <v>      -1.50642330       0.04430917      30.30702061 </v>
  </varray>
  <energy>
   <i name="e_fr_energy">   -186.87630590 </i>
   <i name="e_wo_entrp">   -186.70455410 </i>
   <i name="e_0_energy">     -0.34350361 </i>
  </energy>
  <time name="totalsc">  811.54  813.69</time>
 </calculation>
 <calculation>
  <scstep>
   <time name="dav">   21.83   21.89</time>
   <time name="total">   22.38   22.43</time>
   <energy>
    <i name="alphaZ">     78.92329582 </i>
    <i name="ewald">  39380.74283468 </i>
    <i name="hartreedc"> -45338.30676939 </i>
    <i name="XCdc">   -239.05504539 </i>
    <i name="pawpsdc">   4192.09532407 </i>
    <i name="pawaedc">  -3610.11439673 </i>
    <i name="eentropy">     -0.28039116 </i>
    <i name="bandstr">  -1412.94538345 </i>
    <i name="atom">   6761.44252427 </i>
    <i name="e_fr_energy">   -187.49800728 </i>
    <i name="e_wo_entrp">   -187.21761612 </i>
    <i name="e_0_energy">   -187.35781170 </i>
   </energy>
  </scstep>
  <scstep>
   <time name="dav">   30.41   30.48</time>
   <time name="total">   30.94   31.02</time>
   <energy>
    <i name="e_fr_energy">   -189.49912516 </i>
    <i name="e_wo_entrp">   -189.16652388 </i>
    <i name="e_0_energy">   -189.33282452 </i>
   </energy>
  </scstep>
  <scstep>
   <time name="dav">   30.55   30.63</time>
   <time name="total">   31.10   31.19</time>
   <energy>
    <i name="e_fr_energy">   -189.33184596 </i>
    <i name="e_wo_entrp">   -189.06842736 </i>
    <i name="e_0_energy">   -189.20013666 </i>
   </energy>
  </scstep>
  <scstep>
   <time name="dav">   29.43   29.50</time>
   <time name="total">   29.96   30.04</time>
   <energy>
    <i name="e_fr_energy">   -188.76719763 </i>
    <i name="e_wo_entrp">   -188.48350931 </i>
    <i name="e_0_energy">   -188.62535347 </i>
   </energy>
  </scstep>
  <scstep>
   <time name="dav">   30.60   30.67</time>
   <time name="total">   31.14   31.22</time>
   <energy>
    <i name="e_fr_energy">   -188.89409591 </i>
    <i name="e_wo_entrp">   -188.60841280 </i>
    <i name="e_0_energy">   -188.75125436 </i>
   </energy>
  </scstep>
  <scstep>
   <time name="dav">   31.24   31.32</time>
   <time name="total">   31.78   31.87</time>
   <energy>
    <i name="e_fr_energy">   -188.74649051 </i>
    <i name="e_wo_entrp">   -188.46349752 </i>
    <i name="e_0_energy">   -188.60499401 </i>
   </energy>
  </scstep>
  <scstep>
   <time name="dav">   29.16   29.23</time>
   <time name="total">   29.70   29.78</time>
   <energy>
    <i name="e_fr_energy">   -188.70679482 </i>
    <i name="e_wo_entrp">   -188.42190175 </i>
    <i name="e_0_energy">   -188.56434828 </i>
   </energy>
  </scstep>
  <scstep>
   <time name="dav">   31.69   31.77</time>
   <time name="total">   32.23   32.32</time>
   <energy>
    <i name="e_fr_energy">   -188.69442767 </i>
    <i name="e_wo_entrp">   -188.41285446 </i>
    <i name="e_0_energy">   -188.55364107 </i>
   </energy>
  </scstep>
  <scstep>
   <time name="dav">   29.58   29.65</time>
   <time name="total">   30.12   30.20</time>
   <energy>
    <i name="e_fr_energy">   -188.66865542 </i>
    <i name="e_wo_entrp">   -188.38714538 </i>
    <i name="e_0_energy">   -188.52790040 </i>
   </energy>
  </scstep>
  <scstep>
   <time name="dav">   28.27   28.34</time>
   <time name="total">   28.81   28.89</time>
   <energy>
    <i name="e_fr_energy">   -188.66728268 </i>
    <i name="e_wo_entrp">   -188.38684174 </i>
    <i name="e_0_energy">   -188.52706221 </i>
   </energy>
  </scstep>
  <scstep>
   <time name="dav">   32.36   32.43</time>
   <time name="total">   32.90   32.99</time>
   <energy>
    <i name="e_fr_energy">   -188.66654033 </i>
    <i name="e_wo_entrp">   -188.38705537 </i>
    <i name="e_0_energy">   -188.52679785 </i>
   </energy>
  </scstep>
  <scstep>
   <time name="dav">   29.98   30.05</time>
   <time name="total">   30.01   30.09</time>
   <energy>
    <i name="alphaZ">     78.92329582 </i>
    <i name="ewald">  39380.74283468 </i>
    <i name="hartreedc"> -45349.18109542 </i>
    <i name="XCdc">   -237.96892600 </i>
    <i name="pawpsdc">   3952.51455567 </i>
    <i name="pawaedc">  -3367.05128821 </i>
    <i name="eentropy">     -0.27952341 </i>
    <i name="bandstr">  -1407.80896655 </i>
    <i name="atom">   6761.44252427 </i>
    <i name="e_fr_energy">   -188.66658914 </i>
    <i name="e_wo_entrp">   -188.38706573 </i>
    <i name="e_0_energy">   -188.52682743 </i>
   </energy>
  </scstep>
  <structure>
   <crystal>
    <varray name="basis" >
     <v>       8.85569621       5.10804475       0.00000000 </v>
     <v>      -8.85317128       5.10370176       0.00000000 </v>
     <v>       0.00000000       0.00000000      30.00000000 </v>
    </varray>
    <i name="volume">   2712.57682170 </i>
    <varray name="rec_basis" >
     <v>       0.05644487       0.09791249       0.00000000 </v>
     <v>      -0.05649290       0.09794041       0.00000000 </v>
     <v>       0.00000000       0.00000000       0.03333333 </v>
    </varray>
   </crystal>
   <varray name="positions" >
    <v>      -0.00124692      -0.00079228       0.00019722 </v>
    <v>       0.99925696       0.33222429       0.00001579 </v>
    <v>       0.33533956       0.66865780      -0.00016435 </v>
    <v>       0.66548421      -0.00147247       0.00002403 </v>
    <v>       0.33477748       0.00007367      -0.00016059 </v>
    <v>       0.66655304       0.66802411       0.00013515 </v>
    <v>       0.00049679       0.66819029      -0.00009507 </v>
    <v>       0.33399408       0.33330957       0.00006297 </v>
    <v>       0.66523786       0.33166181      -0.00004516 </v>
    <v>       0.10752240       0.22060656       0.95313597 </v>
    <v>       0.21796008       0.10974729       0.04801832 </v>
    <v>       0.11282029       0.55378595       0.95305538 </v>
    <v>       0.22039713       0.44605583       0.04691392 </v>
    <v>       0.10821061       0.89021667       0.95201479 </v>
    <v>       0.22352945       0.77475131       0.04797352 </v>
    <v>       0.44485027       0.22287475       0.95064583 </v>
    <v>       0.55607831       0.11210796       0.04925700 </v>
    <v>       0.44132889       0.55697484       0.95198943 </v>
    <v>       0.55515466       0.44368441       0.04930336 </v>
    <v>       0.44200085       0.88418355       0.95186834 </v>
    <v>       0.55105847       0.77547181       0.04809756 </v>
    <v>       0.78168067       0.22481613       0.95194651 </v>
    <v>       0.89331409       0.11292740       0.04689180 </v>
    <v>       0.77809702       0.55489950       0.95083109 </v>
    <v>       0.89069782       0.44234410       0.04799528 </v>
    <v>       0.78214713       0.89105422       0.95193279 </v>
    <v>       0.89147324       0.78183537       0.04815902 </v>
   </varray>
  </structure>
  <varray name="forces" >
   <v>      -0.02719564      -0.27425716       0.04448643 </v>
   <v>       0.00509270      -0.15700696       0.01328828 </v>
   <v>      -0.01149796       0.39070712      -0.03020497 </v>
   <v>      -0.09437382      -0.30886059      -0.00492167 </v>
   <v>       0.20145260       0.36851169       0.03423912 </v>
   <v>      -0.10319780       0.09700748      -0.04158908 </v>
   <v>      -0.25286888       0.11037427      -0.08406005 </v>
   <v>       0.38866805       0.21377578       0.09881136 </v>
   <v>      -0.11412250      -0.44328246      -0.00474818 </v>
   <v>       0.06807473       0.07102275       0.15158719 </v>
   <v>      -0.08131254       0.05736727      -0.10271420 </v>
   <v>      -0.10400496       0.01188489       0.20709346 </v>
   <v>       0.10384120       0.00796006      -0.24627744 </v>
   <v>       0.01208147      -0.09434291       0.01599988 </v>
   <v>      -0.00933702      -0.11515051      -0.05147482 </v>
   <v>      -0.06680490       0.09698222      -0.14264277 </v>
   <v>      -0.04485344       0.10620344       0.14133588 </v>
   <v>       0.00234088      -0.11637203       0.00555807 </v>
   <v>       0.07546153      -0.09226647       0.02660011 </v>
   <v>       0.05017373      -0.08307453      -0.20113772 </v>
   <v>      -0.03988171      -0.07838855       0.15756619 </v>
   <v>      -0.09481130       0.04352796       0.04584526 </v>
   <v>       0.01558761       0.03013061      -0.03924084 </v>
   <v>       0.10850162      -0.00148858       0.10285364 </v>
   <v>      -0.09838183       0.00275702      -0.14397519 </v>
   <v>       0.02127865       0.08154865      -0.04174062 </v>
   <v>       0.09008952       0.07472957       0.08946271 </v>
  </varray>
  <varray name="stress" >
   <v>     -20.01387709      -0.01404424       0.01449668 </v>
   <v>      -0.01404430     -19.58041901      -0.02049987 </v>
   <v>       0.01449660      -0.02049996      -1.79821571 </v>
  </varray>
  <energy>
   <i name="e_fr_energy">   -188.66658914 </i>
   <i name="e_wo_entrp">   -188.52682743 </i>
   <i name="e_0_energy">     -0.27952341 </i>
  </energy>
  <time name="totalsc">  403.18  404.24</time>
 </calculation>
 <calculation>
  <scstep>
   <time name="dav">   23.95   24.01</time>
   <time name="total">   24.48   24.54</time>
   <energy>
    <i name="alphaZ">     82.34450157 </i>
    <i name="ewald">  41301.88245687 </i>
    <i name="hartreedc"> -47300.83678579 </i>
    <i name="XCdc">   -233.85404126 </i>
    <i name="pawpsdc">   3950.48563365 </i>
    <i name="pawaedc">  -3364.99870619 </i>
    <i name="eentropy">     -0.23302821 </i>
    <i name="bandstr">  -1386.81443208 </i>
    <i name="atom">   6761.44252427 </i>
    <i name="e_fr_energy">   -190.58187716 </i>
    <i name="e_wo_entrp">   -190.34884895 </i>
    <i name="e_0_energy">   -190.46536306 </i>
   </energy>
  </scstep>
  <scstep>
   <time name="dav">   27.81   27.88</time>
   <time name="total">   28.33   28.41</time>
   <energy>
    <i name="e_fr_energy">   -190.56601862 </i>
    <i name="e_wo_entrp">   -190.33780027 </i>
    <i name="e_0_energy">   -190.45190945 </i>
   </energy>
  </scstep>
  <scstep>
   <time name="dav">   30.33   30.40</time>
   <time name="total">   30.85   30.93</time>
   <energy>
    <i name="e_fr_energy">   -190.05665443 </i>
    <i name="e_wo_entrp">   -189.80820046 </i>
    <i name="e_0_energy">   -189.93242744 </i>
   </energy>
  </scstep>
  <scstep>
   <time name="dav">   31.29   31.36</time>
   <time name="total">   31.82   31.90</time>
   <energy>
    <i name="e_fr_energy">   -189.85217096 </i>
    <i name="e_wo_entrp">   -189.62343881 </i>
    <i name="e_0_energy">   -189.73780489 </i>
   </energy>
  </scstep>
  <scstep>
   <time name="dav">   27.87   27.94</time>
   <time name="total">   28.40   28.48</time>
   <energy>
    <i name="e_fr_energy">   -189.78689525 </i>
    <i name="e_wo_entrp">   -189.54458573 </i>
    <i name="e_0_energy">   -189.66574049 </i>
   </energy>
  </scstep>
  <scstep>
   <time name="dav">   31.13   31.21</time>
   <time name="total">   31.66   31.75</time>
   <energy>
    <i name="e_fr_energy">   -189.75650620 </i>
    <i name="e_wo_entrp">   -189.52388514 </i>
    <i name="e_0_energy">   -189.64019567 </i>
   </energy>
  </scstep>
  <scstep>
   <time name="dav">   30.92   31.00</time>
   <time name="total">   31.46   31.54</time>
   <energy>
    <i name="e_fr_energy">   -189.74893560 </i>
    <i name="e_wo_entrp">   -189.51407499 </i>
    <i name="e_0_energy">   -189.63150530 </i>
   </energy>
  </scstep>
  <scstep>
   <time name="dav">   28.22   28.29</time>
   <time name="total">   28.75   28.83</time>
   <energy>
    <i name="e_fr_energy">   -189.74904321 </i>
    <i name="e_wo_entrp">   -189.51449881 </i>
    <i name="e_0_energy">   -189.63177101 </i>
   </energy>
  </scstep>
  <scstep>
   <time name="dav">   27.42   27.49</time>
   <time name="total">   27.96   28.03</time>
   <energy>
    <i name="e_fr_energy">   -189.74932159 </i>
    <i name="e_wo_entrp">   -189.51460230 </i>
    <i name="e_0_energy">   -189.63196195 </i>
   </energy>
  </scstep>
  <scstep>
   <time name="dav">   26.02   26.08</time>
   <time name="total">   26.55   26.62</time>
   <energy>
    <i name="e_fr_energy">   -189.74923559 </i>
    <i name="e_wo_entrp">   -189.51432960 </i>
    <i name="e_0_energy">   -189.63178259 </i>
   </energy>
  </scstep>
  <scstep>
   <time name="dav">   21.15   21.20</time>
   <time name="total">   21.68   21.74</time>
   <energy>
    <i name="e_fr_energy">   -189.74905723 </i>
    <i name="e_wo_entrp">   -189.51421442 </i>
    <i name="e_0_energy">   -189.63163582 </i>
   </energy>
  </scstep>
  <scstep>
   <time name="dav">   21.20   21.25</time>
   <time name="total">   21.23   21.29</time>
   <energy>
    <i name="alphaZ">     82.34450157 </i>
    <i name="ewald">  41301.88245687 </i>
    <i name="hartreedc"> -47274.14137203 </i>
    <i name="XCdc">   -235.24773867 </i>
    <i name="pawpsdc">   4038.40958397 </i>
    <i name="pawaedc">  -3454.11182924 </i>
    <i name="eentropy">     -0.23482115 </i>
    <i name="bandstr">  -1410.09237391 </i>
    <i name="atom">   6761.44252427 </i>
    <i name="e_fr_energy">   -189.74906831 </i>
    <i name="e_wo_entrp">   -189.51424717 </i>
    <i name="e_0_energy">   -189.63165774 </i>
   </energy>
  </scstep>
  <structure>
   <crystal>
    <varray name="basis" >
     <v>       8.66766758       5.00184812       0.00000000 </v>
     <v>      -8.66534833       4.99785906       0.00000000 </v>
     <v>       0.00000000       0.00000000      30.00000000 </v>
    </varray>
    <i name="volume">   2599.87611621 </i>
    <varray name="rec_basis" >
     <v>       0.05767035       0.09998955       0.00000000 </v>
     <v>      -0.05771638       0.10001631       0.00000000 </v>
     <v>       0.00000000       0.00000000       0.03333333 </v>
    </varray>
   </crystal>
   <varray name="positions" >
    <v>      -0.00172702      -0.00122056       0.00022230 </v>
    <v>       0.99900183       0.33195937       0.00002328 </v>
    <v>       0.33597554       0.66931593      -0.00018138 </v>
    <v>       0.66488270      -0.00189388       0.00002126 </v>
    <v>       0.33557998       0.00049158      -0.00014128 </v>
    <v>       0.66661516       0.66828339       0.00011170 </v>
    <v>       0.00043817       0.66861469      -0.00014246 </v>
    <v>       0.33471908       0.33329233       0.00011867 </v>
    <v>       0.66439491       0.33103662      -0.00004784 </v>
    <v>       0.10770499       0.22065916       0.95322142 </v>
    <v>       0.21797746       0.10992000       0.04796042 </v>
    <v>       0.11274069       0.55390500       0.95317212 </v>
    <v>       0.22050943       0.44596980       0.04677509 </v>
    <v>       0.10806592       0.89004887       0.95202381 </v>
    <v>       0.22332986       0.77456951       0.04794450 </v>
    <v>       0.44494709       0.22309921       0.95056542 </v>
    <v>       0.55621136       0.11232672       0.04933668 </v>
    <v>       0.44113843       0.55677986       0.95199256 </v>
    <v>       0.55507392       0.44345949       0.04931836 </v>
    <v>       0.44191119       0.88399802       0.95175496 </v>
    <v>       0.55089060       0.77538008       0.04818638 </v>
    <v>       0.78166225       0.22497880       0.95197236 </v>
    <v>       0.89337886       0.11296241       0.04686968 </v>
    <v>       0.77819812       0.55479338       0.95088907 </v>
    <v>       0.89060848       0.44244266       0.04791412 </v>
    <v>       0.78230248       0.89116897       0.95190926 </v>
    <v>       0.89168298       0.78187308       0.04820945 </v>
   </varray>
  </structure>
  <varray name="forces" >
   <v>       0.00898659      -0.30909788       0.01455483 </v>
   <v>      -0.03232743      -0.15121265       0.01005665 </v>
   <v>      -0.01962776       0.38962673      -0.00445490 </v>
   <v>      -0.14255533      -0.31127730      -0.01015312 </v>
   <v>       0.18502864       0.42759254       0.05056202 </v>
   <v>      -0.04005827       0.08543648      -0.05437413 </v>
   <v>      -0.27507533       0.06263864      -0.06525392 </v>
   <v>       0.46924450       0.25123217       0.08238716 </v>
   <v>      -0.16536126      -0.46425160      -0.00062172 </v>
   <v>      -0.00203015      -0.05211340      -0.28746842 </v>
   <v>      -0.06771759      -0.07567528       0.38705334 </v>
   <v>       0.05471325       0.01181748      -0.23922002 </v>
   <v>      -0.05464440       0.01227754       0.19400209 </v>
   <v>      -0.10426430      -0.00199191      -0.47396938 </v>
   <v>       0.09644188      -0.04847279       0.43077480 </v>
   <v>      -0.03217374       0.02466215      -0.73065705 </v>
   <v>       0.00897822       0.03825376       0.70498013 </v>
   <v>      -0.10323844      -0.05099024      -0.48732179 </v>
   <v>       0.04113217      -0.01005818       0.59188551 </v>
   <v>       0.08849729      -0.13961765      -0.71253749 </v>
   <v>      -0.07856560      -0.14315085       0.65187390 </v>
   <v>       0.02843714       0.09577191      -0.44514231 </v>
   <v>       0.04144151       0.08143869       0.40550506 </v>
   <v>       0.03940269      -0.00827891      -0.43326428 </v>
   <v>       0.03440719       0.00681083       0.33910580 </v>
   <v>       0.04899611       0.14760183      -0.52588243 </v>
   <v>      -0.02806758       0.13102788       0.60757967 </v>
  </varray>
  <varray name="stress" >
   <v>     -10.17661474      -0.02395945      -0.01855426 </v>
   <v>      -0.02395925      -9.88067752      -0.03812559 </v>
   <v>      -0.01855415      -0.03812554       6.49604126 </v>
  </varray>
  <energy>
   <i name="e_fr_energy">   -189.74906831 </i>
   <i name="e_wo_entrp">   -189.63165774 </i>
   <i name="e_0_energy">     -0.23482115 </i>
  </energy>
  <time name="totalsc">  375.06  376.06</time>
 </calculation>
 <calculation>
  <scstep>
   <time name="dav">   21.82   21.87</time>
   <time name="total">   22.33   22.39</time>
   <energy>
    <i name="alphaZ">     85.81168802 </i>
    <i name="ewald">  42828.18039678 </i>
    <i name="hartreedc"> -48844.84790160 </i>
    <i name="XCdc">   -232.96765521 </i>
    <i name="pawpsdc">   4038.54920295 </i>
    <i name="pawaedc">  -3454.24927223 </i>
    <i name="eentropy">     -0.19143138 </i>
    <i name="bandstr">  -1373.01737319 </i>
    <i name="atom">   6761.44252427 </i>
    <i name="e_fr_energy">   -191.28982159 </i>
    <i name="e_wo_entrp">   -191.09839021 </i>
    <i name="e_0_energy">   -191.19410590 </i>
   </energy>
  </scstep>
  <scstep>
   <time name="dav">   32.82   32.90</time>
   <time name="total">   33.33   33.42</time>
   <energy>
    <i name="e_fr_energy">   -191.18172433 </i>
    <i name="e_wo_entrp">   -190.98338509 </i>
    <i name="e_0_energy">   -191.08255471 </i>
   </energy>
  </scstep>
  <scstep>
   <time name="dav">   29.34   29.41</time>
   <time name="total">   29.85   29.93</time>
   <energy>
    <i name="e_fr_energy">   -191.22275608 </i>
    <i name="e_wo_entrp">   -191.01121757 </i>
    <i name="e_0_energy">   -191.11698682 </i>
   </energy>
  </scstep>
  <scstep>
   <time name="dav">   30.80   30.88</time>
   <time name="total">   31.31   31.40</time>
   <energy>
    <i name="e_fr_energy">   -190.90065142 </i>
    <i name="e_wo_entrp">   -190.69161166 </i>
    <i name="e_0_energy">   -190.79613154 </i>
   </energy>
  </scstep>
  <scstep>
   <time name="dav">   28.04   28.10</time>
   <time name="total">   28.55   28.63</time>
   <energy>
    <i name="e_fr_energy">   -190.88913766 </i>
    <i name="e_wo_entrp">   -190.70341265 </i>
    <i name="e_0_energy">   -190.79627515 </i>
   </energy>
  </scstep>
  <scstep>
   <time name="dav">   27.80   27.87</time>
   <time name="total">   28.32   28.39</time>
   <energy>
    <i name="e_fr_energy">   -190.70768442 </i>
    <i name="e_wo_entrp">   -190.50999363 </i>
    <i name="e_0_energy">   -190.60883903 </i>
   </energy>
  </scstep>
  <scstep>
   <time name="dav">   28.41   28.48</time>
   <time name="total">   28.93   29.01</time>
   <energy>
    <i name="e_fr_energy">   -190.70601873 </i>
    <i name="e_wo_entrp">   -190.50955162 </i>
    <i name="e_0_energy">   -190.60778517 </i>
   </energy>
  </scstep>
  <scstep>
   <time name="dav">   26.47   26.53</time>
   <time name="total">   26.98   27.06</time>
   <energy>
    <i name="e_fr_energy">   -190.70293708 </i>
    <i name="e_wo_entrp">   -190.50587503 </i>
    <i name="e_0_energy">   -190.60440605 </i>
   </energy>
  </scstep>
  <scstep>
   <time name="dav">   30.81   30.88</time>
   <time name="total">   31.32   31.41</time>
   <energy>
    <i name="e_fr_energy">   -190.70287658 </i>
    <i name="e_wo_entrp">   -190.50581712 </i>
    <i name="e_0_energy">   -190.60434685 </i>
   </energy>
  </scstep>
  <scstep>
   <time name="dav">   28.76   28.83</time>
   <time name="total">   29.27   29.35</time>
   <energy>
    <i name="e_fr_energy">   -190.70291372 </i>
    <i name="e_wo_entrp">   -190.50593029 </i>
    <i name="e_0_energy">   -190.60442200 </i>
   </energy>
  </scstep>
  <scstep>
   <time name="dav">   25.13   25.19</time>
   <time name="total">   25.64   25.71</time>
   <energy>
    <i name="e_fr_energy">   -190.70281278 </i>
    <i name="e_wo_entrp">   -190.50577720 </i>
    <i name="e_0_energy">   -190.60429499 </i>
   </energy>
  </scstep>
  <scstep>
   <time name="dav">   21.10   21.15</time>
   <time name="total">   21.13   21.19</time>
   <energy>
    <i name="alphaZ">     85.81168802 </i>
    <i name="ewald">  42828.18039678 </i>
    <i name="hartreedc"> -48816.33044596 </i>
    <i name="XCdc">   -234.30151010 </i>
    <i name="pawpsdc">   4062.93292414 </i>
    <i name="pawaedc">  -3478.80132833 </i>
    <i name="eentropy">     -0.19708459 </i>
    <i name="bandstr">  -1399.43998495 </i>
    <i name="atom">   6761.44252427 </i>
    <i name="e_fr_energy">   -190.70282072 </i>
    <i name="e_wo_entrp">   -190.50573613 </i>
    <i name="e_0_energy">   -190.60427842 </i>
   </energy>
  </scstep>
  <structure>
   <crystal>
    <varray name="basis" >
     <v>       8.48663192       4.90095279       0.00000000 </v>
     <v>      -8.48538662       4.89882132       0.00000000 </v>
     <v>       0.00000000       0.00000000      30.00000000 </v>
    </varray>
    <i name="volume">   2494.82917638 </i>
    <varray name="rec_basis" >
     <v>       0.05890770       0.10203568       0.00000000 </v>
     <v>      -0.05893333       0.10205066       0.00000000 </v>
     <v>       0.00000000       0.00000000       0.03333333 </v>
    </varray>
   </crystal>
   <varray name="positions" >
    <v>      -0.00366218      -0.00332529       0.00022694 </v>
    <v>       0.99790037       0.33119870       0.00004132 </v>
    <v>       0.33832654       0.67183262      -0.00016870 </v>
    <v>       0.66234683      -0.00326274      -0.00000417 </v>
    <v>       0.33904480       0.00266911      -0.00002291 </v>
    <v>       0.66706685       0.66884251      -0.00001154 </v>
    <v>      -0.00031348       0.66991221      -0.00026135 </v>
    <v>       0.33819195       0.33314720       0.00027499 </v>
    <v>       0.66076958       0.32875142      -0.00004561 </v>
    <v>       0.10696358       0.22013407       0.95225419 </v>
    <v>       0.21694750       0.10933939       0.04917656 </v>
    <v>       0.11324015       0.55355266       0.95229844 </v>
    <v>       0.22017182       0.44648287       0.04755019 </v>
    <v>       0.10774049       0.89081093       0.95062786 </v>
    <v>       0.22369329       0.77393235       0.04924462 </v>
    <v>       0.44485456       0.22313915       0.94855563 </v>
    <v>       0.55639078       0.11228637       0.05127269 </v>
    <v>       0.44045850       0.55714892       0.95056653 </v>
    <v>       0.55531519       0.44350280       0.05102202 </v>
    <v>       0.44127143       0.88260898       0.94984772 </v>
    <v>       0.54949482       0.77466239       0.04995371 </v>
    <v>       0.78267140       0.22542808       0.95063511 </v>
    <v>       0.89420282       0.11341303       0.04808570 </v>
    <v>       0.77817210       0.55468192       0.94953803 </v>
    <v>       0.89097637       0.44217993       0.04902549 </v>
    <v>       0.78360687       0.89204025       0.95041096 </v>
    <v>       0.89237151       0.78310461       0.04990547 </v>
   </varray>
  </structure>
  <varray name="forces" >
   <v>      -0.00780046      -0.36089723      -0.04345294 </v>
   <v>      -0.04175536      -0.12629690       0.00365874 </v>
   <v>      -0.02922332       0.33613919       0.04857764 </v>
   <v>      -0.17930968      -0.27734511      -0.01363134 </v>
   <v>       0.17185831       0.52328708       0.02562349 </v>
   <v>       0.00301120       0.09678919      -0.03158694 </v>
   <v>      -0.27496979       0.02669498      -0.02266641 </v>
   <v>       0.50610255       0.23630422       0.02569121 </v>
   <v>      -0.18150147      -0.50960432       0.00685050 </v>
   <v>       0.04921494       0.00414145      -0.14282786 </v>
   <v>       0.01255415      -0.01863470       0.24075390 </v>
   <v>       0.01744179       0.03210806      -0.17771013 </v>
   <v>       0.01954933       0.04148723       0.09146562 </v>
   <v>      -0.03133019       0.07453805      -0.26486606 </v>
   <v>       0.00771849       0.02201832       0.22801016 </v>
   <v>       0.01866432      -0.03039119      -0.59934212 </v>
   <v>       0.05572548       0.00982991       0.54547773 </v>
   <v>      -0.02012829      -0.01203087      -0.31216588 </v>
   <v>       0.02157664       0.06594071       0.45815729 </v>
   <v>       0.02278719      -0.03436468      -0.54982575 </v>
   <v>      -0.02704741      -0.04229647       0.44501544 </v>
   <v>       0.00644791      -0.02995125      -0.29449341 </v>
   <v>      -0.00336045      -0.04183232       0.32354783 </v>
   <v>       0.00985663      -0.04268739      -0.26892872 </v>
   <v>      -0.03713864      -0.02554293       0.17973974 </v>
   <v>      -0.02656281       0.04281229      -0.36869268 </v>
   <v>      -0.06238105       0.03978467       0.46762094 </v>
  </varray>
  <varray name="stress" >
   <v>      -5.90880181       0.07479875      -0.05173030 </v>
   <v>       0.07479864      -5.77762628       0.04976726 </v>
   <v>      -0.05173037       0.04976732       4.51915892 </v>
  </varray>
  <energy>
   <i name="e_fr_energy">   -190.70282072 </i>
   <i name="e_wo_entrp">   -190.60427842 </i>
   <i name="e_0_energy">     -0.19708459 </i>
  </energy>
  <time name="totalsc">  378.97  379.98</time>
 </calculation>
 <calculation>
  <scstep>
   <time name="dav">   21.80   21.86</time>
   <time name="total">   22.31   22.37</time>
   <energy>
    <i name="alphaZ">     90.30295861 </i>
    <i name="ewald">  44718.54076367 </i>
    <i name="hartreedc"> -50763.71316734 </i>
    <i name="XCdc">   -231.76282671 </i>
    <i name="pawpsdc">   4062.89918109 </i>
    <i name="pawaedc">  -3478.76360705 </i>
    <i name="eentropy">     -0.17752894 </i>
    <i name="bandstr">  -1350.88529870 </i>
    <i name="atom">   6761.44252427 </i>
    <i name="e_fr_energy">   -192.11700111 </i>
    <i name="e_wo_entrp">   -191.93947217 </i>
    <i name="e_0_energy">   -192.02823664 </i>
   </energy>
  </scstep>
  <scstep>
   <time name="dav">   30.16   30.24</time>
   <time name="total">   30.66   30.74</time>
   <energy>
    <i name="e_fr_energy">   -191.96597883 </i>
    <i name="e_wo_entrp">   -191.76660214 </i>
    <i name="e_0_energy">   -191.86629048 </i>
   </energy>
  </scstep>
  <scstep>
   <time name="dav">   30.22   30.29</time>
   <time name="total">   30.72   30.80</time>
   <energy>
    <i name="e_fr_energy">   -192.42533825 </i>
    <i name="e_wo_entrp">   -192.23412166 </i>
    <i name="e_0_energy">   -192.32972995 </i>
   </energy>
  </scstep>
  <scstep>
   <time name="dav">   30.41   30.48</time>
   <time name="total">   30.92   31.00</time>
   <energy>
    <i name="e_fr_energy">   -191.54621525 </i>
    <i name="e_wo_entrp">   -191.36640746 </i>
    <i name="e_0_energy">   -191.45631135 </i>
   </energy>
  </scstep>
  <scstep>
   <time name="dav">   29.31   29.38</time>
   <time name="total">   29.81   29.89</time>
   <energy>
    <i name="e_fr_energy">   -191.52227062 </i>
    <i name="e_wo_entrp">   -191.32493254 </i>
    <i name="e_0_energy">   -191.42360158 </i>
   </energy>
  </scstep>
  <scstep>
   <time name="dav">   30.19   30.26</time>
   <time name="total">   30.69   30.78</time>
   <energy>
    <i name="e_fr_energy">   -191.37465231 </i>
    <i name="e_wo_entrp">   -191.19206909 </i>
    <i name="e_0_energy">   -191.28336070 </i>
   </energy>
  </scstep>
  <scstep>
   <time name="dav">   29.67   29.74</time>
   <time name="total">   30.18   30.26</time>
   <energy>
    <i name="e_fr_energy">   -191.35015532 </i>
    <i name="e_wo_entrp">   -191.16503626 </i>
    <i name="e_0_energy">   -191.25759579 </i>
   </energy>
  </scstep>
  <scstep>
   <time name="dav">   29.98   30.06</time>
   <time name="total">   30.49   30.57</time>
   <energy>
    <i name="e_fr_energy">   -191.34855200 </i>
    <i name="e_wo_entrp">   -191.16171285 </i>
    <i name="e_0_energy">   -191.25513243 </i>
   </energy>
  </scstep>
  <scstep>
   <time name="dav">   28.76   28.83</time>
   <time name="total">   29.27   29.35</time>
   <energy>
    <i name="e_fr_energy">   -191.34265214 </i>
    <i name="e_wo_entrp">   -191.15667453 </i>
    <i name="e_0_energy">   -191.24966333 </i>
   </energy>
  </scstep>
  <scstep>
   <time name="dav">   29.45   29.52</time>
   <time name="total">   29.96   30.04</time>
   <energy>
    <i name="e_fr_energy">   -191.34279364 </i>
    <i name="e_wo_entrp">   -191.15652171 </i>
    <i name="e_0_energy">   -191.24965768 </i>
   </energy>
  </scstep>
  <scstep>
   <time name="dav">   27.18   27.24</time>
   <time name="total">   27.69   27.76</time>
   <energy>
    <i name="e_fr_energy">   -191.34266334 </i>
    <i name="e_wo_entrp">   -191.15607074 </i>
    <i name="e_0_energy">   -191.24936704 </i>
   </energy>
  </scstep>
  <scstep>
   <time name="dav">   19.88   19.93</time>
   <time name="total">   19.91   19.97</time>
   <energy>
    <i name="alphaZ">     90.30295861 </i>
    <i name="ewald">  44718.54076367 </i>
    <i name="hartreedc"> -50728.54845217 </i>
    <i name="XCdc">   -233.35092414 </i>
    <i name="pawpsdc">   4084.45114564 </i>
    <i name="pawaedc">  -3500.38606942 </i>
    <i name="eentropy">     -0.18647236 </i>
    <i name="bandstr">  -1383.60809878 </i>
    <i name="atom">   6761.44252427 </i>
    <i name="e_fr_energy">   -191.34262467 </i>
    <i name="e_wo_entrp">   -191.15615231 </i>
    <i name="e_0_energy">   -191.24938849 </i>
   </energy>
  </scstep>
  <structure>
   <crystal>
    <varray name="basis" >
     <v>       8.27170620       4.78295609       0.00000000 </v>
     <v>      -8.26638411       4.77376247       0.00000000 </v>
     <v>       0.00000000       0.00000000      30.00000000 </v>
    </varray>
    <i name="volume">   2370.74738461 </i>
    <varray name="rec_basis" >
     <v>       0.06040832       0.10460479       0.00000000 </v>
     <v>      -0.06052466       0.10467213       0.00000000 </v>
     <v>       0.00000000       0.00000000       0.03333333 </v>
    </varray>
   </crystal>
   <varray name="positions" >
    <v>      -0.00819305      -0.00790249       0.00005028 </v>
    <v>       0.99592818       0.32994369       0.00005654 </v>
    <v>       0.34242540       0.67636568       0.00002743 </v>
    <v>       0.65744504      -0.00546709      -0.00006347 </v>
    <v>       0.34686993       0.00803033       0.00011259 </v>
    <v>       0.66831809       0.66991681      -0.00016667 </v>
    <v>      -0.00209419       0.67220191      -0.00035851 </v>
    <v>       0.34507870       0.33247855       0.00039479 </v>
    <v>       0.65298628       0.32374853      -0.00001745 </v>
    <v>       0.10673332       0.21953405       0.95113944 </v>
    <v>       0.21624983       0.10857167       0.05074545 </v>
    <v>       0.11404757       0.55348219       0.95107925 </v>
    <v>       0.22044963       0.44717411       0.04843244 </v>
    <v>       0.10832212       0.89239632       0.94892524 </v>
    <v>       0.22437690       0.77396063       0.05078479 </v>
    <v>       0.44449471       0.22248909       0.94542492 </v>
    <v>       0.55681037       0.11180290       0.05417328 </v>
    <v>       0.44002503       0.55753923       0.94868586 </v>
    <v>       0.55637730       0.44433194       0.05355221 </v>
    <v>       0.44078524       0.88152814       0.94698102 </v>
    <v>       0.54828000       0.77407678       0.05239779 </v>
    <v>       0.78295065       0.22514249       0.94884235 </v>
    <v>       0.89410825       0.11318852       0.04991224 </v>
    <v>       0.77765527       0.55420282       0.94779626 </v>
    <v>       0.89075477       0.44189478       0.05034472 </v>
    <v>       0.78445454       0.89302749       0.94831751 </v>
    <v>       0.89257456       0.78455537       0.05242959 </v>
   </varray>
  </structure>
  <varray name="forces" >
   <v>      -0.14796789      -0.39283854      -0.01153507 </v>
   <v>      -0.02071654      -0.08494153       0.00379152 </v>
   <v>      -0.01819282       0.19578161      -0.00695507 </v>
   <v>      -0.08215960      -0.05324662       0.02390232 </v>
   <v>       0.08471319       0.32361358      -0.06296784 </v>
   <v>       0.05100529       0.10597467       0.03359148 </v>
   <v>      -0.20099247      -0.08020122      -0.01024897 </v>
   <v>       0.30912084       0.13226912      -0.02475684 </v>
   <v>      -0.05319108      -0.24142103       0.08751444 </v>
   <v>       0.11318002       0.06182163       0.12362162 </v>
   <v>       0.10999042       0.07187125      -0.09552638 </v>
   <v>      -0.06675596       0.05707098       0.07057707 </v>
   <v>       0.16086261       0.07944402      -0.13275931 </v>
   <v>       0.05689451       0.14035372       0.09861332 </v>
   <v>      -0.12628412       0.10985269      -0.08658043 </v>
   <v>       0.06191955      -0.05338546      -0.33346549 </v>
   <v>       0.08976626       0.04154769       0.23278249 </v>
   <v>       0.08030868       0.01233201       0.01311357 </v>
   <v>       0.05035278       0.11610284       0.16540518 </v>
   <v>      -0.06473261       0.05997094      -0.14614169 </v>
   <v>       0.03336163       0.05123603       0.08118559 </v>
   <v>      -0.09645898      -0.14894912      -0.01763761 </v>
   <v>      -0.01900347      -0.14503863       0.02640265 </v>
   <v>       0.02260461      -0.11597047       0.00989057 </v>
   <v>      -0.15136660      -0.09404887      -0.08417146 </v>
   <v>      -0.11588434      -0.09672304      -0.10761407 </v>
   <v>      -0.06037391      -0.05247829       0.14996844 </v>
  </varray>
  <varray name="stress" >
   <v>      -0.20444598       0.25638670       0.10932689 </v>
   <v>       0.25638676       0.05142453       0.29302405 </v>
   <v>       0.10932685       0.29302371      -0.56256736 </v>
  </varray>
  <energy>
   <i name="e_fr_energy">   -191.34262467 </i>
   <i name="e_wo_entrp">   -191.24938849 </i>
   <i name="e_0_energy">     -0.18647236 </i>
  </energy>
  <time name="totalsc">  384.84  385.86</time>
 </calculation>
 <calculation>
  <scstep>
   <time name="dav">   21.79   21.85</time>
   <time name="total">   22.30   22.36</time>
   <energy>
    <i name="alphaZ">     90.38169012 </i>
    <i name="ewald">  44734.46617647 </i>
    <i name="hartreedc"> -50746.04407395 </i>
    <i name="XCdc">   -233.37744549 </i>
    <i name="pawpsdc">   4084.32941191 </i>
    <i name="pawaedc">  -3500.25978418 </i>
    <i name="eentropy">     -0.18918081 </i>
    <i name="bandstr">  -1382.14470972 </i>
    <i name="atom">   6761.44252427 </i>
    <i name="e_fr_energy">   -191.39539138 </i>
    <i name="e_wo_entrp">   -191.20621057 </i>
    <i name="e_0_energy">   -191.30080098 </i>
   </energy>
  </scstep>
  <scstep>
   <time name="dav">   30.57   30.65</time>
   <time name="total">   31.07   31.15</time>
   <energy>
    <i name="e_fr_energy">   -191.45453664 </i>
    <i name="e_wo_entrp">   -191.25299168 </i>
    <i name="e_0_energy">   -191.35376416 </i>
   </energy>
  </scstep>
  <scstep>
   <time name="dav">   29.80   29.87</time>
   <time name="total">   30.31   30.51</time>
   <energy>
    <i name="e_fr_energy">   -191.40643379 </i>
    <i name="e_wo_entrp">   -191.21676400 </i>
    <i name="e_0_energy">   -191.31159889 </i>
   </energy>
  </scstep>
  <scstep>
   <time name="dav">   28.62   28.68</time>
   <time name="total">   29.12   29.20</time>
   <energy>
    <i name="e_fr_energy">   -191.40670222 </i>
    <i name="e_wo_entrp">   -191.21560617 </i>
    <i name="e_0_energy">   -191.31115419 </i>
   </energy>
  </scstep>
  <scstep>
   <time name="dav">   28.67   28.74</time>
   <time name="total">   29.18   29.26</time>
   <energy>
    <i name="e_fr_energy">   -191.40288785 </i>
    <i name="e_wo_entrp">   -191.21192689 </i>
    <i name="e_0_energy">   -191.30740737 </i>
   </energy>
  </scstep>
  <scstep>
   <time name="dav">   28.46   28.53</time>
   <time name="total">   28.97   29.04</time>
   <energy>
    <i name="e_fr_energy">   -191.40290323 </i>
    <i name="e_wo_entrp">   -191.21159053 </i>
    <i name="e_0_energy">   -191.30724688 </i>
   </energy>
  </scstep>
  <scstep>
   <time name="dav">   29.23   29.30</time>
   <time name="total">   29.74   29.82</time>
   <energy>
    <i name="e_fr_energy">   -191.40292600 </i>
    <i name="e_wo_entrp">   -191.21184715 </i>
    <i name="e_0_energy">   -191.30738658 </i>
   </energy>
  </scstep>
  <scstep>
   <time name="dav">   25.45   25.51</time>
   <time name="total">   25.96   26.02</time>
   <energy>
    <i name="e_fr_energy">   -191.40236599 </i>
    <i name="e_wo_entrp">   -191.21120638 </i>
    <i name="e_0_energy">   -191.30678618 </i>
   </energy>
  </scstep>
  <scstep>
   <time name="dav">   17.73   17.78</time>
   <time name="total">   17.77   17.82</time>
   <energy>
    <i name="alphaZ">     90.38169012 </i>
    <i name="ewald">  44734.46617647 </i>
    <i name="hartreedc"> -50746.39817651 </i>
    <i name="XCdc">   -233.38251407 </i>
    <i name="pawpsdc">   4082.54135323 </i>
    <i name="pawaedc">  -3498.44014257 </i>
    <i name="eentropy">     -0.19115054 </i>
    <i name="bandstr">  -1381.82213900 </i>
    <i name="atom">   6761.44252427 </i>
    <i name="e_fr_energy">   -191.40237859 </i>
    <i name="e_wo_entrp">   -191.21122806 </i>
    <i name="e_0_energy">   -191.30680332 </i>
   </energy>
  </scstep>
  <structure>
   <crystal>
    <varray name="basis" >
     <v>       8.26854381       4.78834889       0.00000000 </v>
     <v>      -8.25653407       4.76757569       0.00000000 </v>
     <v>       0.00000000       0.00000000      30.00000000 </v>
    </varray>
    <i name="volume">   2368.68222598 </i>
    <varray name="rec_basis" >
     <v>       0.06038263       0.10457123       0.00000000 </v>
     <v>      -0.06064573       0.10472334       0.00000000 </v>
     <v>       0.00000000       0.00000000       0.03333333 </v>
    </varray>
   </crystal>
   <varray name="positions" >
    <v>      -0.01073481      -0.00956305       0.00002861 </v>
    <v>       0.99539631       0.32954736       0.00006302 </v>
    <v>       0.34344657       0.67750296       0.00001891 </v>
    <v>       0.65684888      -0.00553037      -0.00002500 </v>
    <v>       0.34891523       0.00953315       0.00001116 </v>
    <v>       0.66903762       0.67032773      -0.00011390 </v>
    <v>      -0.00313747       0.67242260      -0.00037692 </v>
    <v>       0.34679278       0.33222824       0.00035594 </v>
    <v>       0.65146028       0.32258332       0.00012722 </v>
    <v>       0.10738139       0.21950334       0.95132115 </v>
    <v>       0.21693410       0.10859853       0.05061744 </v>
    <v>       0.11415829       0.55397287       0.95117233 </v>
    <v>       0.22134143       0.44711738       0.04823194 </v>
    <v>       0.10922553       0.89298056       0.94905598 </v>
    <v>       0.22458166       0.77490563       0.05067131 </v>
    <v>       0.44439698       0.22201637       0.94482137 </v>
    <v>       0.55729868       0.11173999       0.05460732 </v>
    <v>       0.44032079       0.55737250       0.94867315 </v>
    <v>       0.55714502       0.44479622       0.05386947 </v>
    <v>       0.44089257       0.88201115       0.94669080 </v>
    <v>       0.54862149       0.77423080       0.05257463 </v>
    <v>       0.78190234       0.22465730       0.94878043 </v>
    <v>       0.89330436       0.11249406       0.04998827 </v>
    <v>       0.77711465       0.55352898       0.94777996 </v>
    <v>       0.88981648       0.44185442       0.05023164 </v>
    <v>       0.78362590       0.89289115       0.94810279 </v>
    <v>       0.89212741       0.78449128       0.05272088 </v>
   </varray>
  </structure>
  <varray name="forces" >
   <v>      -0.17965546      -0.38698478      -0.02095510 </v>
   <v>      -0.01173607      -0.08537795      -0.02441556 </v>
   <v>      -0.02646171       0.19637629       0.00271870 </v>
   <v>      -0.07295183      -0.04974849       0.01477272 </v>
   <v>       0.12093738       0.34397816      -0.01599542 </v>
   <v>       0.05322698       0.11377572       0.01648375 </v>
   <v>      -0.21305057      -0.10139095      -0.03154176 </v>
   <v>       0.32535327       0.16344976      -0.01047136 </v>
   <v>      -0.06064191      -0.26140027       0.02666821 </v>
   <v>       0.08101716       0.03101510       0.14497216 </v>
   <v>       0.07272353       0.02692289      -0.13963389 </v>
   <v>      -0.05058496       0.03924475       0.10985044 </v>
   <v>       0.11310665       0.05486533      -0.15740486 </v>
   <v>       0.01513130       0.09185400       0.13127601 </v>
   <v>      -0.09728087       0.06767954      -0.12393110 </v>
   <v>       0.05933903       0.00404901      -0.21195191 </v>
   <v>       0.06451481       0.02008832       0.15957945 </v>
   <v>       0.05538374       0.02138244       0.02816379 </v>
   <v>       0.03053906       0.07377259       0.10130912 </v>
   <v>      -0.02593900       0.04934205      -0.10398126 </v>
   <v>       0.02013715       0.02125812       0.04365597 </v>
   <v>      -0.06634205      -0.08680168       0.00975507 </v>
   <v>      -0.00796313      -0.09336677       0.02579808 </v>
   <v>       0.02184719      -0.08357985       0.03174608 </v>
   <v>      -0.09559236      -0.05892198      -0.05411958 </v>
   <v>      -0.07619110      -0.07470584      -0.08520437 </v>
   <v>      -0.04886621      -0.03677550       0.13285662 </v>
  </varray>
  <varray name="stress" >
   <v>       0.00066048       0.01913298       0.03987005 </v>
   <v>       0.01913312       0.07194822       0.09026719 </v>
   <v>       0.03987017       0.09026729      -1.25738590 </v>
  </varray>
  <energy>
   <i name="e_fr_energy">   -191.40237859 </i>
   <i name="e_wo_entrp">   -191.30680332 </i>
   <i name="e_0_energy">     -0.19115054 </i>
  </energy>
  <time name="totalsc">  286.87  287.73</time>
 </calculation>
 <calculation>
  <scstep>
   <time name="dav">   21.84   21.90</time>
   <time name="total">   22.35   22.41</time>
   <energy>
    <i name="alphaZ">     90.35627265 </i>
    <i name="ewald">  44722.82942290 </i>
    <i name="hartreedc"> -50734.38272752 </i>
    <i name="XCdc">   -233.40409735 </i>
    <i name="pawpsdc">   4082.53291553 </i>
    <i name="pawaedc">  -3498.43119852 </i>
    <i name="eentropy">     -0.19126914 </i>
    <i name="bandstr">  -1382.21776622 </i>
    <i name="atom">   6761.44252427 </i>
    <i name="e_fr_energy">   -191.46592340 </i>
    <i name="e_wo_entrp">   -191.27465426 </i>
    <i name="e_0_energy">   -191.37028883 </i>
   </energy>
  </scstep>
  <scstep>
   <time name="dav">   32.29   32.37</time>
   <time name="total">   32.80   32.89</time>
   <energy>
    <i name="e_fr_energy">   -191.57557833 </i>
    <i name="e_wo_entrp">   -191.35764447 </i>
    <i name="e_0_energy">   -191.46661140 </i>
   </energy>
  </scstep>
  <scstep>
   <time name="dav">   30.03   30.10</time>
   <time name="total">   30.53   30.61</time>
   <energy>
    <i name="e_fr_energy">   -191.47980412 </i>
    <i name="e_wo_entrp">   -191.28713222 </i>
    <i name="e_0_energy">   -191.38346817 </i>
   </energy>
  </scstep>
  <scstep>
   <time name="dav">   29.10   29.17</time>
   <time name="total">   29.61   29.69</time>
   <energy>
    <i name="e_fr_energy">   -191.47901782 </i>
    <i name="e_wo_entrp">   -191.28439986 </i>
    <i name="e_0_energy">   -191.38170884 </i>
   </energy>
  </scstep>
  <scstep>
   <time name="dav">   29.24   29.31</time>
   <time name="total">   29.75   29.83</time>
   <energy>
    <i name="e_fr_energy">   -191.47309802 </i>
    <i name="e_wo_entrp">   -191.27831782 </i>
    <i name="e_0_energy">   -191.37570792 </i>
   </energy>
  </scstep>
  <scstep>
   <time name="dav">   28.66   28.73</time>
   <time name="total">   29.17   29.25</time>
   <energy>
    <i name="e_fr_energy">   -191.47334011 </i>
    <i name="e_wo_entrp">   -191.27795459 </i>
    <i name="e_0_energy">   -191.37564735 </i>
   </energy>
  </scstep>
  <scstep>
   <time name="dav">   28.62   28.69</time>
   <time name="total">   29.13   29.21</time>
   <energy>
    <i name="e_fr_energy">   -191.47263584 </i>
    <i name="e_wo_entrp">   -191.27750173 </i>
    <i name="e_0_energy">   -191.37506879 </i>
   </energy>
  </scstep>
  <scstep>
[...]
      <set comment="kpoint 31">
       <r>  -17.5440    1.0000 </r>
       <r>  -17.2231    1.0000 </r>
       <r>  -16.9355    1.0000 </r>
       <r>  -16.6595    1.0000 </r>
       <r>  -16.5175    1.0000 </r>
       <r>  -16.4079    1.0000 </r>
       <r>  -16.3173    1.0000 </r>
       <r>  -16.2096    1.0000 </r>
       <r>  -16.0650    1.0000 </r>
       <r>  -16.0562    1.0000 </r>
       <r>  -15.8939    1.0000 </r>
       <r>  -15.7970    1.0000 </r>
       <r>  -15.7439    1.0000 </r>
       <r>  -15.6935    1.0000 </r>
       <r>  -15.5848    1.0000 </r>
       <r>  -15.5404    1.0000 </r>
       <r>  -15.4561    1.0000 </r>
       <r>  -15.3355    1.0000 </r>
       <r>   -9.7356    1.0000 </r>
       <r>   -9.4618    1.0000 </r>
       <r>   -9.3373    1.0000 </r>
       <r>   -9.0395    1.0000 </r>
       <r>   -8.7968    1.0000 </r>
       <r>   -8.7565    1.0000 </r>
       <r>   -8.6267    1.0000 </r>
       <r>   -8.4685    1.0000 </r>
       <r>   -8.3780    1.0000 </r>
       <r>   -8.2989    1.0000 </r>
       <r>   -8.2217    1.0000 </r>
       <r>   -8.1663    1.0000 </r>
       <r>   -8.1083    1.0000 </r>
       <r>   -8.0756    1.0000 </r>
       <r>   -7.9832    1.0000 </r>
       <r>   -7.9172    1.0000 </r>
       <r>   -7.7698    1.0000 </r>
       <r>   -7.7372    1.0000 </r>
       <r>   -7.5864    1.0000 </r>
       <r>   -7.4372    1.0000 </r>
       <r>   -7.3743    1.0000 </r>
       <r>   -7.2852    1.0000 </r>
       <r>   -7.1990    1.0000 </r>
       <r>   -7.0988    1.0000 </r>
       <r>   -6.9457    1.0000 </r>
       <r>   -6.9067    1.0000 </r>
       <r>   -6.7933    1.0000 </r>
       <r>   -6.7258    1.0000 </r>
       <r>   -6.6479    1.0000 </r>
       <r>   -6.6001    1.0000 </r>
       <r>   -6.5562    1.0000 </r>
       <r>   -6.4932    1.0000 </r>
       <r>   -6.4515    1.0000 </r>
       <r>   -6.3516    1.0000 </r>
       <r>   -6.2562    1.0000 </r>
       <r>   -6.1947    1.0000 </r>
       <r>   -6.1083    1.0000 </r>
       <r>   -6.0426    1.0000 </r>
       <r>   -5.9529    1.0000 </r>
       <r>   -5.8907    1.0000 </r>
       <r>   -5.8388    1.0000 </r>
       <r>   -5.7514    1.0000 </r>
       <r>   -5.7249    1.0000 </r>
       <r>   -5.6870    1.0000 </r>
       <r>   -5.5575    1.0000 </r>
       <r>   -5.3752    1.0000 </r>
       <r>   -5.3015    1.0000 </r>
       <r>   -5.1331    1.0000 </r>
       <r>   -5.0624    1.0000 </r>
       <r>   -4.9167    1.0000 </r>
       <r>   -4.8056    1.0000 </r>
       <r>   -4.6472    1.0000 </r>
       <r>   -4.6161    1.0000 </r>
       <r>   -4.4281    1.0000 </r>
       <r>   -4.3617    1.0000 </r>
       <r>   -4.2702    1.0000 </r>
       <r>   -4.1065    1.0000 </r>
       <r>   -3.9738    1.0000 </r>
       <r>   -3.8452    0.9998 </r>
       <r>   -3.7986    0.9994 </r>
       <r>   -3.6344    0.9818 </r>
       <r>   -3.2684    0.3102 </r>
       <r>   -2.9661    0.0042 </r>
       <r>   -2.8278    0.0002 </r>
       <r>   -2.6929    0.0000 </r>
       <r>   -2.6326    0.0000 </r>
       <r>   -2.5027    0.0000 </r>
       <r>   -2.3768    0.0000 </r>
       <r>   -2.2451    0.0000 </r>
       <r>   -2.1857    0.0000 </r>
       <r>   -2.0630    0.0000 </r>
       <r>   -1.9016    0.0000 </r>
       <r>   -1.7907    0.0000 </r>
       <r>   -1.6137    0.0000 </r>
       <r>   -1.3667    0.0000 </r>
       <r>   -1.3072    0.0000 </r>
       <r>   -1.2480    0.0000 </r>
       <r>   -1.2043    0.0000 </r>
       <r>   -1.0416    0.0000 </r>
       <r>   -1.0233    0.0000 </r>
       <r>   -0.9197    0.0000 </r>
       <r>   -0.8569    0.0000 </r>
       <r>   -0.7881    0.0000 </r>
       <r>   -0.6814    0.0000 </r>
       <r>   -0.6025    0.0000 </r>
       <r>   -0.5856    0.0000 </r>
       <r>   -0.4819    0.0000 </r>
       <r>   -0.4398    0.0000 </r>
       <r>   -0.2744    0.0000 </r>
       <r>   -0.1454    0.0000 </r>
       <r>    0.0340    0.0000 </r>
       <r>    0.2482    0.0000 </r>
       <r>    0.3320    0.0000 </r>
       <r>    0.5135    0.0000 </r>
       <r>    0.7182    0.0000 </r>
       <r>    0.9077    0.0000 </r>
       <r>    1.1632    0.0000 </r>
       <r>    1.2171    0.0000 </r>
       <r>    1.3815    0.0000 </r>
       <r>    2.1323    0.0000 </r>
       <r>    2.2803    0.0000 </r>
       <r>    2.3799    0.0000 </r>
      </set>
      <set comment="kpoint 32">
       <r>  -17.5534    1.0000 </r>
       <r>  -17.1163    1.0000 </r>
       <r>  -17.0841    1.0000 </r>
       <r>  -16.6586    1.0000 </r>
       <r>  -16.4341    1.0000 </r>
       <r>  -16.3805    1.0000 </r>
       <r>  -16.3069    1.0000 </r>
       <r>  -16.2036    1.0000 </r>
       <r>  -16.1435    1.0000 </r>
       <r>  -16.0394    1.0000 </r>
       <r>  -15.9231    1.0000 </r>
       <r>  -15.8051    1.0000 </r>
       <r>  -15.7379    1.0000 </r>
       <r>  -15.7079    1.0000 </r>
       <r>  -15.5810    1.0000 </r>
       <r>  -15.5217    1.0000 </r>
       <r>  -15.4521    1.0000 </r>
       <r>  -15.3325    1.0000 </r>
       <r>   -9.6642    1.0000 </r>
       <r>   -9.5713    1.0000 </r>
       <r>   -9.3817    1.0000 </r>
       <r>   -9.0232    1.0000 </r>
       <r>   -8.7075    1.0000 </r>
       <r>   -8.6620    1.0000 </r>
       <r>   -8.5431    1.0000 </r>
       <r>   -8.4313    1.0000 </r>
       <r>   -8.3877    1.0000 </r>
       <r>   -8.2989    1.0000 </r>
       <r>   -8.2757    1.0000 </r>
       <r>   -8.2444    1.0000 </r>
       <r>   -8.1541    1.0000 </r>
       <r>   -8.1127    1.0000 </r>
       <r>   -8.0506    1.0000 </r>
       <r>   -7.9732    1.0000 </r>
       <r>   -7.7981    1.0000 </r>
       <r>   -7.6747    1.0000 </r>
       <r>   -7.5092    1.0000 </r>
       <r>   -7.4211    1.0000 </r>
       <r>   -7.3563    1.0000 </r>
       <r>   -7.2795    1.0000 </r>
       <r>   -7.2073    1.0000 </r>
       <r>   -7.0937    1.0000 </r>
       <r>   -6.9913    1.0000 </r>
       <r>   -6.8666    1.0000 </r>
       <r>   -6.8276    1.0000 </r>
       <r>   -6.7440    1.0000 </r>
       <r>   -6.6993    1.0000 </r>
       <r>   -6.6090    1.0000 </r>
       <r>   -6.5304    1.0000 </r>
       <r>   -6.4974    1.0000 </r>
       <r>   -6.4334    1.0000 </r>
       <r>   -6.3775    1.0000 </r>
       <r>   -6.3382    1.0000 </r>
       <r>   -6.1739    1.0000 </r>
       <r>   -6.1184    1.0000 </r>
       <r>   -6.0340    1.0000 </r>
       <r>   -5.9315    1.0000 </r>
       <r>   -5.8604    1.0000 </r>
       <r>   -5.8287    1.0000 </r>
       <r>   -5.7700    1.0000 </r>
       <r>   -5.6561    1.0000 </r>
       <r>   -5.6180    1.0000 </r>
       <r>   -5.5121    1.0000 </r>
       <r>   -5.4207    1.0000 </r>
       <r>   -5.2946    1.0000 </r>
       <r>   -5.0727    1.0000 </r>
       <r>   -5.0295    1.0000 </r>
       <r>   -4.9528    1.0000 </r>
       <r>   -4.8747    1.0000 </r>
       <r>   -4.7114    1.0000 </r>
       <r>   -4.6557    1.0000 </r>
       <r>   -4.4338    1.0000 </r>
       <r>   -4.3284    1.0000 </r>
       <r>   -4.2645    1.0000 </r>
       <r>   -4.0964    1.0000 </r>
       <r>   -3.9692    1.0000 </r>
       <r>   -3.8309    0.9998 </r>
       <r>   -3.7879    0.9993 </r>
       <r>   -3.6391    0.9832 </r>
       <r>   -3.2722    0.3196 </r>
       <r>   -2.9775    0.0053 </r>
       <r>   -2.8035    0.0001 </r>
       <r>   -2.6742    0.0000 </r>
       <r>   -2.6076    0.0000 </r>
       <r>   -2.4734    0.0000 </r>
       <r>   -2.3824    0.0000 </r>
       <r>   -2.2734    0.0000 </r>
       <r>   -2.1828    0.0000 </r>
       <r>   -2.0930    0.0000 </r>
       <r>   -1.9291    0.0000 </r>
       <r>   -1.8210    0.0000 </r>
       <r>   -1.5967    0.0000 </r>
       <r>   -1.3585    0.0000 </r>
       <r>   -1.2972    0.0000 </r>
       <r>   -1.2305    0.0000 </r>
       <r>   -1.1906    0.0000 </r>
       <r>   -1.0588    0.0000 </r>
       <r>   -1.0038    0.0000 </r>
       <r>   -0.9426    0.0000 </r>
       <r>   -0.9167    0.0000 </r>
       <r>   -0.8022    0.0000 </r>
       <r>   -0.7092    0.0000 </r>
       <r>   -0.6114    0.0000 </r>
       <r>   -0.5755    0.0000 </r>
       <r>   -0.4902    0.0000 </r>
       <r>   -0.3928    0.0000 </r>
       <r>   -0.1772    0.0000 </r>
       <r>   -0.1587    0.0000 </r>
       <r>   -0.0444    0.0000 </r>
       <r>    0.1757    0.0000 </r>
       <r>    0.3541    0.0000 </r>
       <r>    0.5122    0.0000 </r>
       <r>    0.7219    0.0000 </r>
       <r>    0.9424    0.0000 </r>
       <r>    1.1168    0.0000 </r>
       <r>    1.2294    0.0000 </r>
       <r>    1.4387    0.0000 </r>
       <r>    2.1005    0.0000 </r>
       <r>    2.2503    0.0000 </r>
       <r>    2.5593    0.0000 </r>
      </set>
      <set comment="kpoint 33">
       <r>  -17.5429    1.0000 </r>
       <r>  -17.2357    1.0000 </r>
       <r>  -16.9222    1.0000 </r>
       <r>  -16.6580    1.0000 </r>
       <r>  -16.5219    1.0000 </r>
       <r>  -16.4116    1.0000 </r>
       <r>  -16.2859    1.0000 </r>
       <r>  -16.2270    1.0000 </r>
       <r>  -16.0813    1.0000 </r>
       <r>  -15.9987    1.0000 </r>
       <r>  -15.9183    1.0000 </r>
       <r>  -15.8301    1.0000 </r>
       <r>  -15.7465    1.0000 </r>
       <r>  -15.7038    1.0000 </r>
       <r>  -15.5991    1.0000 </r>
       <r>  -15.5131    1.0000 </r>
       <r>  -15.4586    1.0000 </r>
       <r>  -15.3285    1.0000 </r>
       <r>   -9.7400    1.0000 </r>
       <r>   -9.4645    1.0000 </r>
       <r>   -9.3189    1.0000 </r>
       <r>   -9.0138    1.0000 </r>
       <r>   -8.7953    1.0000 </r>
       <r>   -8.7554    1.0000 </r>
       <r>   -8.5505    1.0000 </r>
       <r>   -8.4223    1.0000 </r>
       <r>   -8.4147    1.0000 </r>
       <r>   -8.2992    1.0000 </r>
       <r>   -8.2571    1.0000 </r>
       <r>   -8.2289    1.0000 </r>
       <r>   -8.1610    1.0000 </r>
       <r>   -8.1171    1.0000 </r>
       <r>   -8.0387    1.0000 </r>
       <r>   -7.8685    1.0000 </r>
       <r>   -7.8243    1.0000 </r>
       <r>   -7.6551    1.0000 </r>
       <r>   -7.5226    1.0000 </r>
       <r>   -7.4411    1.0000 </r>
       <r>   -7.3403    1.0000 </r>
       <r>   -7.2066    1.0000 </r>
       <r>   -7.1397    1.0000 </r>
       <r>   -7.0746    1.0000 </r>
       <r>   -7.0310    1.0000 </r>
       <r>   -6.9004    1.0000 </r>
       <r>   -6.8560    1.0000 </r>
       <r>   -6.7716    1.0000 </r>
       <r>   -6.7015    1.0000 </r>
       <r>   -6.6195    1.0000 </r>
       <r>   -6.5700    1.0000 </r>
       <r>   -6.5088    1.0000 </r>
       <r>   -6.4457    1.0000 </r>
       <r>   -6.3740    1.0000 </r>
       <r>   -6.3216    1.0000 </r>
       <r>   -6.2084    1.0000 </r>
       <r>   -6.1207    1.0000 </r>
       <r>   -6.0102    1.0000 </r>
       <r>   -5.9681    1.0000 </r>
       <r>   -5.8814    1.0000 </r>
       <r>   -5.8150    1.0000 </r>
       <r>   -5.7740    1.0000 </r>
       <r>   -5.6765    1.0000 </r>
       <r>   -5.6565    1.0000 </r>
       <r>   -5.5051    1.0000 </r>
       <r>   -5.3836    1.0000 </r>
       <r>   -5.2533    1.0000 </r>
       <r>   -5.1205    1.0000 </r>
       <r>   -5.0757    1.0000 </r>
       <r>   -4.8669    1.0000 </r>
       <r>   -4.7901    1.0000 </r>
       <r>   -4.6720    1.0000 </r>
       <r>   -4.6095    1.0000 </r>
       <r>   -4.4551    1.0000 </r>
       <r>   -4.3661    1.0000 </r>
       <r>   -4.2788    1.0000 </r>
       <r>   -4.0862    1.0000 </r>
       <r>   -3.9649    1.0000 </r>
       <r>   -3.8411    0.9998 </r>
       <r>   -3.8072    0.9995 </r>
       <r>   -3.6462    0.9852 </r>
       <r>   -3.2811    0.3424 </r>
       <r>   -3.0000    0.0083 </r>
       <r>   -2.7598    0.0000 </r>
       <r>   -2.6613    0.0000 </r>
       <r>   -2.6059    0.0000 </r>
       <r>   -2.4592    0.0000 </r>
       <r>   -2.4109    0.0000 </r>
       <r>   -2.2745    0.0000 </r>
       <r>   -2.1826    0.0000 </r>
       <r>   -2.0947    0.0000 </r>
       <r>   -1.9170    0.0000 </r>
       <r>   -1.8257    0.0000 </r>
       <r>   -1.5913    0.0000 </r>
       <r>   -1.3599    0.0000 </r>
       <r>   -1.2726    0.0000 </r>
       <r>   -1.2091    0.0000 </r>
       <r>   -1.1792    0.0000 </r>
       <r>   -1.0947    0.0000 </r>
       <r>   -1.0283    0.0000 </r>
       <r>   -0.9982    0.0000 </r>
       <r>   -0.9061    0.0000 </r>
       <r>   -0.8212    0.0000 </r>
       <r>   -0.7436    0.0000 </r>
       <r>   -0.6103    0.0000 </r>
       <r>   -0.5517    0.0000 </r>
       <r>   -0.5288    0.0000 </r>
       <r>   -0.3323    0.0000 </r>
       <r>   -0.2101    0.0000 </r>
       <r>   -0.1623    0.0000 </r>
       <r>   -0.0669    0.0000 </r>
       <r>    0.0971    0.0000 </r>
       <r>    0.3697    0.0000 </r>
       <r>    0.5613    0.0000 </r>
       <r>    0.7153    0.0000 </r>
       <r>    0.9847    0.0000 </r>
       <r>    1.1005    0.0000 </r>
       <r>    1.2558    0.0000 </r>
       <r>    1.4962    0.0000 </r>
       <r>    2.1278    0.0000 </r>
       <r>    2.2854    0.0000 </r>
       <r>    2.3806    0.0000 </r>
      </set>
      <set comment="kpoint 34">
       <r>  -17.5307    1.0000 </r>
       <r>  -17.2884    1.0000 </r>
       <r>  -16.7654    1.0000 </r>
       <r>  -16.6754    1.0000 </r>
       <r>  -16.6556    1.0000 </r>
       <r>  -16.4189    1.0000 </r>
       <r>  -16.2906    1.0000 </r>
       <r>  -16.2226    1.0000 </r>
       <r>  -16.0519    1.0000 </r>
       <r>  -15.9738    1.0000 </r>
       <r>  -15.8886    1.0000 </r>
       <r>  -15.8396    1.0000 </r>
       <r>  -15.7677    1.0000 </r>
       <r>  -15.7029    1.0000 </r>
       <r>  -15.6049    1.0000 </r>
       <r>  -15.5172    1.0000 </r>
       <r>  -15.4631    1.0000 </r>
       <r>  -15.3266    1.0000 </r>
       <r>   -9.7771    1.0000 </r>
       <r>   -9.3997    1.0000 </r>
       <r>   -9.2118    1.0000 </r>
       <r>   -9.0024    1.0000 </r>
       <r>   -8.9380    1.0000 </r>
       <r>   -8.8440    1.0000 </r>
       <r>   -8.5737    1.0000 </r>
       <r>   -8.4441    1.0000 </r>
       <r>   -8.3999    1.0000 </r>
       <r>   -8.3029    1.0000 </r>
       <r>   -8.2173    1.0000 </r>
       <r>   -8.1980    1.0000 </r>
       <r>   -8.1616    1.0000 </r>
       <r>   -8.0828    1.0000 </r>
       <r>   -8.0500    1.0000 </r>
       <r>   -7.8536    1.0000 </r>
       <r>   -7.7958    1.0000 </r>
       <r>   -7.6492    1.0000 </r>
       <r>   -7.4843    1.0000 </r>
       <r>   -7.4039    1.0000 </r>
       <r>   -7.3899    1.0000 </r>
       <r>   -7.2420    1.0000 </r>
       <r>   -7.1324    1.0000 </r>
       <r>   -7.0655    1.0000 </r>
       <r>   -6.9928    1.0000 </r>
       <r>   -6.8857    1.0000 </r>
       <r>   -6.8683    1.0000 </r>
       <r>   -6.7565    1.0000 </r>
       <r>   -6.6902    1.0000 </r>
       <r>   -6.6551    1.0000 </r>
       <r>   -6.5948    1.0000 </r>
       <r>   -6.5482    1.0000 </r>
       <r>   -6.4647    1.0000 </r>
       <r>   -6.3730    1.0000 </r>
       <r>   -6.2770    1.0000 </r>
       <r>   -6.2118    1.0000 </r>
       <r>   -6.1133    1.0000 </r>
       <r>   -6.0673    1.0000 </r>
       <r>   -5.9745    1.0000 </r>
       <r>   -5.8844    1.0000 </r>
       <r>   -5.8060    1.0000 </r>
       <r>   -5.7574    1.0000 </r>
       <r>   -5.7411    1.0000 </r>
       <r>   -5.6433    1.0000 </r>
       <r>   -5.5044    1.0000 </r>
       <r>   -5.4228    1.0000 </r>
       <r>   -5.2831    1.0000 </r>
       <r>   -5.0821    1.0000 </r>
       <r>   -5.0339    1.0000 </r>
       <r>   -4.8689    1.0000 </r>
       <r>   -4.7400    1.0000 </r>
       <r>   -4.6322    1.0000 </r>
       <r>   -4.5061    1.0000 </r>
       <r>   -4.4988    1.0000 </r>
       <r>   -4.3816    1.0000 </r>
       <r>   -4.3198    1.0000 </r>
       <r>   -4.0836    1.0000 </r>
       <r>   -3.9675    1.0000 </r>
       <r>   -3.8548    0.9999 </r>
       <r>   -3.8197    0.9997 </r>
       <r>   -3.6507    0.9864 </r>
       <r>   -3.2846    0.3516 </r>
       <r>   -3.0108    0.0102 </r>
       <r>   -2.7416    0.0000 </r>
       <r>   -2.6505    0.0000 </r>
       <r>   -2.6154    0.0000 </r>
       <r>   -2.4645    0.0000 </r>
       <r>   -2.4241    0.0000 </r>
       <r>   -2.2560    0.0000 </r>
       <r>   -2.1918    0.0000 </r>
       <r>   -2.0935    0.0000 </r>
       <r>   -1.8955    0.0000 </r>
       <r>   -1.8187    0.0000 </r>
       <r>   -1.5924    0.0000 </r>
       <r>   -1.3644    0.0000 </r>
       <r>   -1.2487    0.0000 </r>
       <r>   -1.2066    0.0000 </r>
       <r>   -1.1921    0.0000 </r>
       <r>   -1.0912    0.0000 </r>
       <r>   -1.0601    0.0000 </r>
       <r>   -1.0106    0.0000 </r>
       <r>   -0.8799    0.0000 </r>
       <r>   -0.8460    0.0000 </r>
       <r>   -0.7766    0.0000 </r>
       <r>   -0.5907    0.0000 </r>
       <r>   -0.5595    0.0000 </r>
       <r>   -0.5414    0.0000 </r>
       <r>   -0.3018    0.0000 </r>
       <r>   -0.2144    0.0000 </r>
       <r>   -0.2022    0.0000 </r>
       <r>   -0.0824    0.0000 </r>
       <r>    0.0939    0.0000 </r>
       <r>    0.3594    0.0000 </r>
       <r>    0.5993    0.0000 </r>
       <r>    0.7098    0.0000 </r>
       <r>    0.9989    0.0000 </r>
       <r>    1.1075    0.0000 </r>
       <r>    1.2684    0.0000 </r>
       <r>    1.5224    0.0000 </r>
       <r>    2.1962    0.0000 </r>
       <r>    2.2478    0.0000 </r>
       <r>    2.3661    0.0000 </r>
      </set>
     </set>
    </set>
   </array>
  </eigenvalues>
  <separator name="orbital magnetization" >
   <v name="MAGDIPOLOUT">      0.00000000      0.00000000      0.00000000</v>
  </separator>
 </calculation>
 <structure name="finalpos" >
  <crystal>
   <varray name="basis" >
    <v>       8.35851551       4.86032717       0.00000000 </v>
    <v>      -8.33452452       4.81886710       0.00000000 </v>
    <v>       0.00000000       0.00000000      30.00000000 </v>
   </varray>
   <i name="volume">   2423.61274120 </i>
   <varray name="rec_basis" >
    <v>       0.05964897       0.10316654       0.00000000 </v>
    <v>      -0.06016218       0.10346350       0.00000000 </v>
    <v>       0.00000000       0.00000000       0.03333333 </v>
   </varray>
  </crystal>
  <varray name="positions" >
   <v>      -0.04159352      -0.02502408       0.00229037 </v>
   <v>       1.04121332       0.35016728      -0.00432673 </v>
   <v>       0.35800183       0.68278987      -0.00029905 </v>
   <v>       0.64460443      -0.02777099       0.00093697 </v>
   <v>       0.37292223       0.02070656      -0.00283175 </v>
   <v>       0.66525880       0.66310067       0.00062943 </v>
   <v>      -0.04225001       0.65273080       0.00198202 </v>
   <v>       0.36053688       0.34380466      -0.00030404 </v>
   <v>       0.64736975       0.33917785       0.00045635 </v>
   <v>       0.11250371       0.21066940       0.95205273 </v>
   <v>       0.21501328       0.10511754       0.04356762 </v>
   <v>       0.11441082       0.56583947       0.95291405 </v>
   <v>       0.23160698       0.45220741       0.04931609 </v>
   <v>       0.10789717       0.89042711       0.95643872 </v>
   <v>       0.21776237       0.77757944       0.04310453 </v>
   <v>       0.44938544       0.22608139       0.94271152 </v>
   <v>       0.56502460       0.11627619       0.05362896 </v>
   <v>       0.43888618       0.55682733       0.94724129 </v>
   <v>       0.55634512       0.44579772       0.05711896 </v>
   <v>       0.44391427       0.88274623       0.94431858 </v>
   <v>       0.54695139       0.77155076       0.05534398 </v>
   <v>       0.78749942       0.22713987       0.95849784 </v>
   <v>       0.89339119       0.11668007       0.04800388 </v>
   <v>       0.76718861       0.55114709       0.94490362 </v>
   <v>       0.89090872       0.43734905       0.04891698 </v>
   <v>       0.77326259       0.88590171       0.94735852 </v>
   <v>       0.88019889       0.77919407       0.05602848 </v>
  </varray>
 </structure>
</modeling>
