unknown system                          
           1
     8.855696    5.108045    0.000000
    -8.853171    5.103702    0.000000
     0.000000    0.000000   30.000000
   V    Mo   W    S 
   3   3   3  18
Direct configuration=     1
   0.00000000  0.00000000  0.00000000
   1.00000000  0.33333334  0.00000000
   0.33333334  0.66666669  0.00000000
   0.66666669  0.00000000  0.00000000
   0.33333334  0.00000000  0.00000000
   0.66666669  0.66666669  0.00000000
   0.00000000  0.66666669  0.00000000
   0.33333334  0.33333334  0.00000000
   0.66666669  0.33333334  0.00000000
   0.11068511  0.22244981  0.95539999
   0.22244981  0.11068511  0.04460000
   0.11068511  0.55578315  0.95539999
   0.22244981  0.44401845  0.04460000
   0.11068511  0.88911647  0.95539999
   0.22244981  0.77735180  0.04460000
   0.44401845  0.22244981  0.95539999
   0.55578315  0.11068511  0.04460000
   0.44401845  0.55578315  0.95539999
   0.55578315  0.44401845  0.04460000
   0.44401845  0.88911647  0.95539999
   0.55578315  0.77735180  0.04460000
   0.77735180  0.22244981  0.95539999
   0.88911647  0.11068511  0.04460000
   0.77735180  0.55578315  0.95539999
   0.88911647  0.44401845  0.04460000
   0.77735180  0.88911647  0.95539999
   0.88911647  0.77735180  0.04460000
unknown system                          
           1
     8.667668    5.001848    0.000000
    -8.665348    4.997859    0.000000
     0.000000    0.000000   30.000000
   V    Mo   W    S 
   3   3   3  18
Direct configuration=     2
  -0.00124692 -0.00079228  0.00019722
   0.99925696  0.33222429  0.00001579
   0.33533956  0.66865780 -0.00016435
   0.66548421 -0.00147247  0.00002403
   0.33477748  0.00007367 -0.00016059
   0.66655304  0.66802411  0.00013515
   0.00049679  0.66819029 -0.00009507
   0.33399408  0.33330957  0.00006297
   0.66523786  0.33166181 -0.00004516
   0.10752240  0.22060656  0.95313597
   0.21796008  0.10974729  0.04801832
   0.11282029  0.55378595  0.95305538
   0.22039713  0.44605583  0.04691392
   0.10821061  0.89021667  0.95201479
   0.22352945  0.77475131  0.04797352
   0.44485027  0.22287475  0.95064583
   0.55607831  0.11210796  0.04925700
   0.44132889  0.55697484  0.95198943
   0.55515466  0.44368441  0.04930336
   0.44200085  0.88418355  0.95186834
   0.55105847  0.77547181  0.04809756
   0.78168067  0.22481613  0.95194651
   0.89331409  0.11292740  0.04689180
   0.77809702  0.55489950  0.95083109
   0.89069782  0.44234410  0.04799528
   0.78214713  0.89105422  0.95193279
   0.89147324  0.78183537  0.04815902
unknown system                          
           1
     8.486632    4.900953    0.000000
    -8.485387    4.898821    0.000000
     0.000000    0.000000   30.000000
   V    Mo   W    S 
   3   3   3  18
Direct configuration=     3
  -0.00172702 -0.00122056  0.00022230
   0.99900183  0.33195937  0.00002328
   0.33597554  0.66931593 -0.00018138
   0.66488270 -0.00189388  0.00002126
   0.33557998  0.00049158 -0.00014128
   0.66661516  0.66828339  0.00011170
   0.00043817  0.66861469 -0.00014246
   0.33471908  0.33329233  0.00011867
   0.66439491  0.33103662 -0.00004784
   0.10770499  0.22065916  0.95322142
   0.21797746  0.10992000  0.04796042
   0.11274069  0.55390500  0.95317212
   0.22050943  0.44596980  0.04677509
   0.10806592  0.89004887  0.95202381
   0.22332986  0.77456951  0.04794450
   0.44494709  0.22309921  0.95056542
   0.55621136  0.11232672  0.04933668
   0.44113843  0.55677986  0.95199256
   0.55507392  0.44345949  0.04931836
   0.44191119  0.88399802  0.95175496
   0.55089060  0.77538008  0.04818638
   0.78166225  0.22497880  0.95197236
   0.89337886  0.11296241  0.04686968
   0.77819812  0.55479338  0.95088907
   0.89060848  0.44244266  0.04791412
   0.78230248  0.89116897  0.95190926
   0.89168298  0.78187308  0.04820945
unknown system                          
           1
     8.271706    4.782956    0.000000
    -8.266384    4.773762    0.000000
     0.000000    0.000000   30.000000
   V    Mo   W    S 
   3   3   3  18
Direct configuration=     4
  -0.00366218 -0.00332529  0.00022694
   0.99790037  0.33119870  0.00004132
   0.33832654  0.67183262 -0.00016870
   0.66234683 -0.00326274 -0.00000417
   0.33904480  0.00266911 -0.00002291
   0.66706685  0.66884251 -0.00001154
  -0.00031348  0.66991221 -0.00026135
   0.33819195  0.33314720  0.00027499
   0.66076958  0.32875142 -0.00004561
   0.10696358  0.22013407  0.95225419
   0.21694750  0.10933939  0.04917656
   0.11324015  0.55355266  0.95229844
   0.22017182  0.44648287  0.04755019
   0.10774049  0.89081093  0.95062786
   0.22369329  0.77393235  0.04924462
   0.44485456  0.22313915  0.94855563
   0.55639078  0.11228637  0.05127269
   0.44045850  0.55714892  0.95056653
   0.55531519  0.44350280  0.05102202
   0.44127143  0.88260898  0.94984772
   0.54949482  0.77466239  0.04995371
   0.78267140  0.22542808  0.95063511
   0.89420282  0.11341303  0.04808570
   0.77817210  0.55468192  0.94953803
   0.89097637  0.44217993  0.04902549
   0.78360687  0.89204025  0.95041096
   0.89237151  0.78310461  0.04990547
unknown system                          
           1
     8.268544    4.788349    0.000000
    -8.256534    4.767576    0.000000
     0.000000    0.000000   30.000000
   V    Mo   W    S 
   3   3   3  18
Direct configuration=     5
  -0.00819305 -0.00790249  0.00005028
   0.99592818  0.32994369  0.00005654
   0.34242540  0.67636568  0.00002743
   0.65744504 -0.00546709 -0.00006347
   0.34686993  0.00803033  0.00011259
   0.66831809  0.66991681 -0.00016667
  -0.00209419  0.67220191 -0.00035851
   0.34507870  0.33247855  0.00039479
   0.65298628  0.32374853 -0.00001745
   0.10673332  0.21953405  0.95113944
   0.21624983  0.10857167  0.05074545
   0.11404757  0.55348219  0.95107925
   0.22044963  0.44717411  0.04843244
   0.10832212  0.89239632  0.94892524
   0.22437690  0.77396063  0.05078479
   0.44449471  0.22248909  0.94542492
   0.55681037  0.11180290  0.05417328
   0.44002503  0.55753923  0.94868586
   0.55637730  0.44433194  0.05355221
   0.44078524  0.88152814  0.94698102
   0.54828000  0.77407678  0.05239779
   0.78295065  0.22514249  0.94884235
   0.89410825  0.11318852  0.04991224
   0.77765527  0.55420282  0.94779626
   0.89075477  0.44189478  0.05034472
   0.78445454  0.89302749  0.94831751
   0.89257456  0.78455537  0.05242959
unknown system                          
           1
     8.268912    4.790310    0.000000
    -8.256186    4.768292    0.000000
     0.000000    0.000000   30.000000
   V    Mo   W    S 
   3   3   3  18
Direct configuration=     6
  -0.01073481 -0.00956305  0.00002861
   0.99539631  0.32954736  0.00006302
   0.34344657  0.67750296  0.00001891
   0.65684888 -0.00553037 -0.00002500
   0.34891523  0.00953315  0.00001116
   0.66903762  0.67032773 -0.00011390
  -0.00313747  0.67242260 -0.00037692
   0.34679278  0.33222824  0.00035594
   0.65146028  0.32258332  0.00012722
   0.10738139  0.21950334  0.95132115
   0.21693410  0.10859853  0.05061744
   0.11415829  0.55397287  0.95117233
   0.22134143  0.44711738  0.04823194
   0.10922553  0.89298056  0.94905598
   0.22458166  0.77490563  0.05067131
   0.44439698  0.22201637  0.94482137
   0.55729868  0.11173999  0.05460732
   0.44032079  0.55737250  0.94867315
   0.55714502  0.44479622  0.05386947
   0.44089257  0.88201115  0.94669080
   0.54862149  0.77423080  0.05257463
   0.78190234  0.22465730  0.94878043
   0.89330436  0.11249406  0.04998827
   0.77711465  0.55352898  0.94777996
   0.88981648  0.44185442  0.05023164
   0.78362590  0.89289115  0.94810279
   0.89212741  0.78449128  0.05272088
unknown system                          
           1
     8.273927    4.798528    0.000000
    -8.257207    4.769592    0.000000
     0.000000    0.000000   30.000000
   V    Mo   W    S 
   3   3   3  18
Direct configuration=     7
  -0.01440149 -0.01168049 -0.00002131
   0.99470762  0.32895930  0.00000488
   0.34479995  0.67908732  0.00002539
   0.65616204 -0.00558670  0.00001017
   0.35200756  0.01158328 -0.00002694
   0.67011739  0.67094847 -0.00007466
  -0.00481425  0.67258732 -0.00045204
   0.34941815  0.33204139  0.00033101
   0.64924502  0.32088984  0.00019074
   0.10796261  0.21938430  0.95166627
   0.21744894  0.10848479  0.05028507
   0.11423336  0.55448567  0.95143380
   0.22223933  0.44703788  0.04785719
   0.10997717  0.89360243  0.94936843
   0.22466772  0.77583355  0.05037635
   0.44468315  0.22178945  0.94431626
   0.55772714  0.11161071  0.05498767
   0.44071943  0.55729255  0.94874002
   0.55782807  0.44521597  0.05411102
   0.44114924  0.88249262  0.94644287
   0.54886708  0.77430255  0.05267886
   0.78096762  0.22429524  0.94880347
   0.89257241  0.11182995  0.05004990
   0.77658439  0.55280891  0.94785537
   0.88896382  0.44182771  0.05010289
   0.78273913  0.89266243  0.94789965
   0.89164185  0.78442800  0.05303754
unknown system                          
           1
     8.276750    4.805367    0.000000
    -8.256658    4.770584    0.000000
     0.000000    0.000000   30.000000
   V    Mo   W    S 
   3   3   3  18
Direct configuration=     8
  -0.01713807 -0.01309121 -0.00003358
   0.99413490  0.32845319 -0.00002470
   0.34584345  0.68027883  0.00003358
   0.65585795 -0.00562006  0.00004985
   0.35410788  0.01280484 -0.00008186
   0.67092053  0.67145440 -0.00005673
  -0.00628468  0.67256569 -0.00048728
   0.35124520  0.33208794  0.00031309
   0.64813577  0.31993881  0.00031302
   0.10822131  0.21923175  0.95191305
   0.21760753  0.10832548  0.05001333
   0.11423669  0.55475984  0.95163626
   0.22275510  0.44699739  0.04756467
   0.11034174  0.89402761  0.94962280
   0.22470432  0.77635220  0.05015808
   0.44481984  0.22160257  0.94394663
   0.55813371  0.11160680  0.05526664
   0.44088126  0.55722307  0.94877230
   0.55832552  0.44547338  0.05427832
   0.44129443  0.88273507  0.94625882
   0.54896681  0.77430831  0.05276113
   0.78052127  0.22415092  0.94878198
   0.89226091  0.11153285  0.05012657
   0.77618594  0.55231410  0.94785646
   0.88859044  0.44180861  0.05003100
   0.78216208  0.89247011  0.94771337
   0.89138262  0.78442196  0.05327310
unknown system                          
           1
     8.277493    4.806222    0.000000
    -8.257121    4.770955    0.000000
     0.000000    0.000000   30.000000
   V    Mo   W    S 
   3   3   3  18
Direct configuration=     9
  -0.02023099 -0.01446950 -0.00002718
   0.99323325  0.32765388 -0.00008792
   0.34724764  0.68179363  0.00003887
   0.65573711 -0.00560002  0.00008790
   0.35636475  0.01390749 -0.00015054
   0.67182198  0.67206425 -0.00005865
  -0.00840378  0.67227468 -0.00054895
   0.35330059  0.33234084  0.00027863
   0.64737145  0.31912044  0.00041812
   0.10845170  0.21901139  0.95225150
   0.21765092  0.10810494  0.04959216
   0.11415856  0.55503898  0.95194713
   0.22323449  0.44693222  0.04716489
   0.11059943  0.89446470  0.95001944
   0.22465432  0.77680573  0.04983519
   0.44511357  0.22148284  0.94367819
   0.55861704  0.11159928  0.05550929
   0.44098314  0.55711641  0.94884267
   0.55882245  0.44572605  0.05440672
   0.44152275  0.88297784  0.94610679
   0.54905078  0.77428608  0.05281774
   0.78018692  0.22408396  0.94878935
   0.89200942  0.11130330  0.05022526
   0.77575382  0.55181876  0.94787172
   0.88838807  0.44180337  0.04997180
   0.78149798  0.89219699  0.94751801
   0.89107708  0.78437591  0.05350174
unknown system                          
           1
     8.270094    4.796502    0.000000
    -8.251693    4.764668    0.000000
     0.000000    0.000000   30.000000
   V    Mo   W    S 
   3   3   3  18
Direct configuration=    10
  -0.02050431 -0.01458108 -0.00002410
   0.99311351  0.32755477 -0.00009405
   0.34740379  0.68194861  0.00003936
   0.65573833 -0.00559330  0.00009246
   0.35656667  0.01399617 -0.00015614
   0.67189540  0.67211761 -0.00005878
  -0.00863760  0.67222139 -0.00055354
   0.35349290  0.33237929  0.00027576
   0.64734056  0.31906632  0.00043022
   0.10847328  0.21898778  0.95228292
   0.21764657  0.10807977  0.04955033
   0.11414923  0.55506545  0.95197868
   0.22327416  0.44692741  0.04712523
   0.11062241  0.89450795  0.95005870
   0.22464563  0.77684164  0.04980293
   0.44514808  0.22147261  0.94365516
   0.55866442  0.11159812  0.05553014
   0.44098715  0.55710731  0.94884608
   0.55886950  0.44575072  0.05441857
   0.44154816  0.88299875  0.94609030
   0.54906100  0.77428496  0.05282528
   0.78016289  0.22407770  0.94878497
   0.89198615  0.11128520  0.05023940
   0.77570700  0.55177514  0.94786616
   0.88838307  0.44180405  0.04997216
   0.78143263  0.89217008  0.94749690
   0.89104387  0.78437003  0.05352480
unknown system                          
           1
     8.268862    4.794564    0.000000
    -8.251112    4.763862    0.000000
     0.000000    0.000000   30.000000
   V    Mo   W    S 
   3   3   3  18
Direct configuration=    11
  -0.01925522 -0.01425187 -0.00004655
   0.99458824  0.32857107 -0.00004264
   0.34656083  0.68139357  0.00004029
   0.65514966 -0.00607708  0.00007399
   0.35553351  0.01321201 -0.00011184
   0.67144969  0.67205132 -0.00004268
  -0.00679445  0.67295881 -0.00051283
   0.35234147  0.33208882  0.00030449
   0.64708423  0.31908698  0.00038598
   0.10824124  0.21895647  0.95202964
   0.21755164  0.10816885  0.04982992
   0.11443983  0.55499563  0.95173458
   0.22319110  0.44717961  0.04741605
   0.11042933  0.89435613  0.94976924
   0.22486701  0.77661759  0.05001918
   0.44483167  0.22152199  0.94368117
   0.55838293  0.11158490  0.05547379
   0.44090165  0.55725617  0.94887144
   0.55859697  0.44561647  0.05437863
   0.44129960  0.88265093  0.94617990
   0.54877406  0.77416434  0.05274489
   0.78028819  0.22411633  0.94881173
   0.89214781  0.11128866  0.05014435
   0.77606128  0.55198116  0.94793645
   0.88829914  0.44182856  0.04992785
   0.78193238  0.89238949  0.94759450
   0.89132067  0.78450755  0.05340839
unknown system                          
           1
     8.269328    4.800892    0.000000
    -8.248712    4.765205    0.000000
     0.000000    0.000000   30.000000
   V    Mo   W    S 
   3   3   3  18
Direct configuration=    12
  -0.01845825 -0.01399080 -0.00005458
   0.99551038  0.32918061 -0.00001898
   0.34591654  0.68093847  0.00003246
   0.65494429 -0.00625074  0.00006104
   0.35482199  0.01279264 -0.00009796
   0.67123549  0.67196233 -0.00004126
  -0.00566609  0.67341106 -0.00049908
   0.35161731  0.33187316  0.00031349
   0.64692763  0.31910003  0.00033884
   0.10811512  0.21896691  0.95188663
   0.21753308  0.10821831  0.04998781
   0.11456796  0.55494847  0.95158761
   0.22314329  0.44728639  0.04759537
   0.11035377  0.89427891  0.94959334
   0.22498400  0.77651686  0.05017269
   0.44463371  0.22152114  0.94371676
   0.55822906  0.11156388  0.05544600
   0.44086909  0.55731592  0.94887645
   0.55844802  0.44555105  0.05436002
   0.44115238  0.88249941  0.94620714
   0.54865447  0.77410558  0.05273077
   0.78034363  0.22414336  0.94885110
   0.89222265  0.11130135  0.05008045
   0.77625232  0.55209218  0.94799071
   0.88823826  0.44182403  0.04989289
   0.78215737  0.89250312  0.94764086
   0.89146699  0.78456084  0.05334932
unknown system                          
           1
     8.273738    4.804870    0.000000
    -8.252171    4.767534    0.000000
     0.000000    0.000000   30.000000
   V    Mo   W    S 
   3   3   3  18
Direct configuration=    13
  -0.01804452 -0.01395142 -0.00002989
   0.99903894  0.33101808  0.00001641
   0.34426302  0.68037108 -0.00001237
   0.65427498 -0.00694067  0.00005676
   0.35379465  0.01201554 -0.00010210
   0.67134400  0.67220483 -0.00003510
  -0.00289581  0.67520136 -0.00048198
   0.35057396  0.33132426  0.00033441
   0.64548107  0.31831628  0.00029259
   0.10789887  0.21884945  0.95163015
   0.21753002  0.10817806  0.05013071
   0.11491646  0.55511634  0.95127717
   0.22347020  0.44756908  0.04796516
   0.11035281  0.89440778  0.94925325
   0.22535001  0.77661352  0.05055730
   0.44402452  0.22124518  0.94370350
   0.55806880  0.11144671  0.05545731
   0.44086634  0.55731667  0.94898763
   0.55826127  0.44548955  0.05430385
   0.44080972  0.88224897  0.94612533
   0.54838477  0.77386421  0.05276100
   0.78019809  0.22420523  0.94914614
   0.89213667  0.11117615  0.04987221
   0.77654941  0.55198619  0.94829810
   0.88782558  0.44182343  0.04956913
   0.78204570  0.89256526  0.94762014
   0.89169490  0.78455332  0.05330310
unknown system                          
           1
     8.282656    4.817196    0.000000
    -8.256370    4.771677    0.000000
     0.000000    0.000000   30.000000
   V    Mo   W    S 
   3   3   3  18
Direct configuration=    14
  -0.01910090 -0.01427674 -0.00002529
   1.00094241  0.33161930  0.00000565
   0.34365586  0.68062142 -0.00003702
   0.65393673 -0.00724734  0.00003904
   0.35411818  0.01198185 -0.00012904
   0.67189687  0.67268903 -0.00003308
  -0.00215714  0.67617689 -0.00047646
   0.35074431  0.33110149  0.00032033
   0.64430084  0.31741290  0.00032660
   0.10787984  0.21870312  0.95166024
   0.21744444  0.10801248  0.04996570
   0.11495519  0.55529003  0.95127432
   0.22375743  0.44761504  0.04797886
   0.11039715  0.89465725  0.94929019
   0.22540504  0.77685954  0.05061185
   0.44388839  0.22098323  0.94363010
   0.55811534  0.11134584  0.05551001
   0.44092627  0.55718638  0.94910196
   0.55833384  0.44557407  0.05430189
   0.44083774  0.88231807  0.94605944
   0.54834006  0.77374034  0.05276527
   0.78013906  0.22428800  0.94937899
   0.89197267  0.11112970  0.04979861
   0.77657298  0.55171824  0.94848708
   0.88764570  0.44180679  0.04928603
   0.78166542  0.89242109  0.94755219
   0.89160075  0.78448645  0.05335645
unknown system                          
           1
     8.290517    4.823041    0.000000
    -8.263097    4.775561    0.000000
     0.000000    0.000000   30.000000
   V    Mo   W    S 
   3   3   3  18
Direct configuration=    15
  -0.02245680 -0.01530031  0.00005431
   1.00349506  0.33176184 -0.00003557
   0.34354453  0.68198374 -0.00008310
   0.65343032 -0.00768034  0.00006900
   0.35586763  0.01240846 -0.00021662
   0.67330604  0.67366690 -0.00003797
  -0.00279988  0.67728686 -0.00046879
   0.35227399  0.33108560  0.00027245
   0.64249849  0.31595324  0.00048783
   0.10797110  0.21829843  0.95182594
   0.21714669  0.10754901  0.04941283
   0.11486682  0.55572118  0.95148202
   0.22446505  0.44767697  0.04777830
   0.11049487  0.89532360  0.94961458
   0.22536428  0.77742345  0.05049939
   0.44393590  0.22045513  0.94339698
   0.55845006  0.11109359  0.05570421
   0.44099414  0.55690223  0.94933138
   0.55872341  0.44580711  0.05432674
   0.44104921  0.88253621  0.94588095
   0.54837480  0.77358429  0.05273658
   0.78005015  0.22449291  0.94973754
   0.89155778  0.11102988  0.04981408
   0.77632128  0.55103589  0.94876370
   0.88745881  0.44172743  0.04878576
   0.78062093  0.89198813  0.94729522
   0.89120980  0.78440302  0.05357216
unknown system                          
           1
     8.298183    4.833277    0.000000
    -8.266409    4.778255    0.000000
     0.000000    0.000000   30.000000
   V    Mo   W    S 
   3   3   3  18
Direct configuration=    16
  -0.02385549 -0.01567258  0.00007400
   1.00430585  0.33152783 -0.00008661
   0.34377074  0.68269137 -0.00009409
   0.65331080 -0.00777187  0.00005772
   0.35665145  0.01253016 -0.00024235
   0.67388420  0.67406498 -0.00005840
  -0.00359855  0.67744485 -0.00047501
   0.35292487  0.33117754  0.00024361
   0.64213315  0.31558371  0.00053583
   0.10798599  0.21802896  0.95188286
   0.21693816  0.10733201  0.04916321
   0.11479642  0.55585594  0.95161397
   0.22474018  0.44776593  0.04768241
   0.11047708  0.89563463  0.94979667
   0.22532438  0.77760238  0.05040097
   0.44411549  0.22030806  0.94332244
   0.55859117  0.11099731  0.05579537
   0.44098090  0.55682594  0.94939498
   0.55890518  0.44593006  0.05437173
   0.44116890  0.88259875  0.94580872
   0.54835324  0.77351150  0.05272976
   0.78008275  0.22459576  0.94984765
   0.89138664  0.11098951  0.04988483
   0.77614407  0.55078990  0.94878307
   0.88743798  0.44160925  0.04866744
   0.78027514  0.89183964  0.94720788
   0.89098375  0.78442294  0.05369124
unknown system                          
           1
     8.304142    4.838676    0.000000
    -8.271061    4.781387    0.000000
     0.000000    0.000000   30.000000
   V    Mo   W    S 
   3   3   3  18
Direct configuration=    17
  -0.02696508 -0.01653251  0.00017844
   1.00701275  0.33134620 -0.00017007
   0.34400931  0.68422916 -0.00012734
   0.65280520 -0.00815367  0.00008444
   0.35833885  0.01277482 -0.00031004
   0.67525616  0.67494952 -0.00008086
  -0.00512021  0.67808024 -0.00046499
   0.35432641  0.33131446  0.00020715
   0.64089811  0.31460147  0.00070136
   0.10800953  0.21738638  0.95196532
   0.21650836  0.10687423  0.04856277
   0.11463742  0.55623206  0.95189237
   0.22545647  0.44800223  0.04750698
   0.11041400  0.89630492  0.95018865
   0.22523628  0.77802552  0.05021468
   0.44438163  0.21987668  0.94317738
   0.55891767  0.11077554  0.05594346
   0.44094378  0.55659963  0.94960286
   0.55925645  0.44613946  0.05438170
   0.44137931  0.88273151  0.94564736
   0.54831496  0.77335107  0.05266354
   0.78014171  0.22486553  0.95019135
   0.89096288  0.11086776  0.04996190
   0.77581744  0.55024242  0.94892333
   0.88739248  0.44140297  0.04825462
   0.77938653  0.89148152  0.94699295
   0.89049604  0.78444533  0.05391058
unknown system                          
           1
     8.306789    4.841990    0.000000
    -8.272331    4.782318    0.000000
     0.000000    0.000000   30.000000
   V    Mo   W    S 
   3   3   3  18
Direct configuration=    18
  -0.02804499 -0.01682708  0.00022770
   1.00868400  0.33132871 -0.00021802
   0.34419167  0.68493543 -0.00015369
   0.65244704 -0.00832259  0.00007975
   0.35890507  0.01278105 -0.00035156
   0.67581277  0.67521096 -0.00012309
  -0.00617724  0.67815555 -0.00044781
   0.35480532  0.33141315  0.00016992
   0.64060084  0.31437841  0.00076417
   0.10801012  0.21697070  0.95192483
   0.21620904  0.10662647  0.04829920
   0.11453272  0.55638920  0.95202035
   0.22582257  0.44820149  0.04749518
   0.11034929  0.89662022  0.95036337
   0.22515406  0.77818319  0.05013739
   0.44455285  0.21968881  0.94312555
   0.55906509  0.11066497  0.05602845
   0.44089567  0.55651204  0.94968589
   0.55940755  0.44628053  0.05441903
   0.44146894  0.88277230  0.94555521
   0.54826957  0.77326115  0.05265108
   0.78027447  0.22505119  0.95037968
   0.89073003  0.11085115  0.05001617
   0.77563161  0.55004400  0.94892135
   0.88744727  0.44124091  0.04807071
   0.77895703  0.89133673  0.94689962
   0.89021209  0.78446581  0.05405950
unknown system                          
           1
     8.308572    4.843826    0.000000
    -8.273560    4.783192    0.000000
     0.000000    0.000000   30.000000
   V    Mo   W    S 
   3   3   3  18
Direct configuration=    19
  -0.02911330 -0.01717823  0.00028308
   1.01054501  0.33139194 -0.00026040
   0.34437184  0.68559801 -0.00017087
   0.65201859 -0.00853219  0.00009362
   0.35949796  0.01282819 -0.00037855
   0.67640055  0.67546160 -0.00014493
  -0.00731589  0.67820783 -0.00041575
   0.35524622  0.33150605  0.00015151
   0.64022537  0.31417765  0.00084340
   0.10803122  0.21655598  0.95187482
   0.21595279  0.10642583  0.04802972
   0.11440573  0.55655506  0.95215649
   0.22620964  0.44840596  0.04749681
   0.11025942  0.89686016  0.95054531
   0.22504567  0.77832560  0.05003499
   0.44473509  0.21951535  0.94309341
   0.55917843  0.11058363  0.05607226
   0.44083782  0.55641276  0.94976975
   0.55949932  0.44637243  0.05442355
   0.44152695  0.88282041  0.94547069
   0.54823186  0.77319542  0.05261515
   0.78044439  0.22525159  0.95059501
   0.89052036  0.11084315  0.05003124
   0.77545248  0.54986280  0.94890653
   0.88754005  0.44107954  0.04786765
   0.77855722  0.89120829  0.94683400
   0.88990965  0.78447965  0.05418138
unknown system                          
           1
     8.301364    4.838006    0.000000
    -8.267439    4.779257    0.000000
     0.000000    0.000000   30.000000
   V    Mo   W    S 
   3   3   3  18
Direct configuration=    20
  -0.02954048 -0.01733095  0.00030448
   1.01146287  0.33147056 -0.00028128
   0.34446692  0.68588371 -0.00018216
   0.65178346 -0.00863759  0.00009681
   0.35973944  0.01285068 -0.00039613
   0.67663894  0.67552835 -0.00016087
  -0.00788713  0.67818209 -0.00040019
   0.35541232  0.33154680  0.00013740
   0.64008606  0.31413094  0.00087304
   0.10805250  0.21636036  0.95184048
   0.21583257  0.10633643  0.04791694
   0.11434202  0.55662924  0.95221553
   0.22640131  0.44850893  0.04751471
   0.11021649  0.89695206  0.95062447
   0.22498450  0.77838241  0.04998964
   0.44481757  0.21944256  0.94307931
   0.55922714  0.11055194  0.05609855
   0.44080925  0.55636860  0.94980345
   0.55953331  0.44641879  0.05443508
   0.44154237  0.88284063  0.94543024
   0.54821272  0.77316769  0.05260528
   0.78054729  0.22535414  0.95070129
   0.89043133  0.11085456  0.05003481
   0.77536476  0.54978633  0.94888687
   0.88759843  0.44099626  0.04777768
   0.77837319  0.89115379  0.94680689
   0.88976530  0.78448516  0.05424757
unknown system                          
           1
     8.314185    4.849340    0.000000
    -8.277691    4.786135    0.000000
     0.000000    0.000000   30.000000
   V    Mo   W    S 
   3   3   3  18
Direct configuration=    21
  -0.02876397 -0.01688049  0.00025801
   1.00943808  0.33107131 -0.00023847
   0.34402303  0.68508862 -0.00016943
   0.65259021 -0.00821338  0.00007544
   0.35929431  0.01298132 -0.00036811
   0.67625092  0.67542105 -0.00013131
  -0.00660620  0.67834753 -0.00044557
   0.35514410  0.33143536  0.00015991
   0.64024673  0.31412261  0.00080452
   0.10796002  0.21680242  0.95194580
   0.21606171  0.10651457  0.04810718
   0.11443130  0.55639641  0.95210489
   0.22590218  0.44818512  0.04743131
   0.11032426  0.89687807  0.95046982
   0.22510343  0.77831155  0.05011665
   0.44466244  0.21955068  0.94310333
   0.55916111  0.11057738  0.05607225
   0.44086005  0.55637428  0.94974886
   0.55951089  0.44634389  0.05441369
   0.44158098  0.88285360  0.94548836
   0.54829461  0.77321769  0.05264208
   0.78031711  0.22515709  0.95046891
   0.89059432  0.11086044  0.05007379
   0.77556392  0.54990953  0.94895826
   0.88746547  0.44116380  0.04794280
   0.77871622  0.89125716  0.94682382
   0.89008723  0.78448683  0.05414311
unknown system                          
           1
     8.316112    4.851387    0.000000
    -8.278987    4.787089    0.000000
     0.000000    0.000000   30.000000
   V    Mo   W    S 
   3   3   3  18
Direct configuration=    22
  -0.03064573 -0.01781975  0.00036118
   1.01415196  0.33185706 -0.00034371
   0.34485688  0.68674769 -0.00021122
   0.65095450 -0.00902959  0.00011043
   0.36037726  0.01286904 -0.00044554
   0.67723977  0.67565757 -0.00021000
  -0.00957804  0.67801413 -0.00035428
   0.35582310  0.33166461  0.00009800
   0.63975017  0.31407481  0.00094921
   0.10814577  0.21580110  0.95172830
   0.21551932  0.10610269  0.04762502
   0.11418214  0.55687627  0.95237473
   0.22699576  0.44885094  0.04759532
   0.11008300  0.89712907  0.95084230
   0.22480391  0.77851162  0.04984687
   0.44504158  0.21926348  0.94304976
   0.55934507  0.11048789  0.05616212
   0.44072952  0.55627795  0.94989019
   0.55959511  0.44653557  0.05446962
   0.44154527  0.88287585  0.94532476
   0.54814454  0.77309866  0.05257777
   0.78085323  0.22563317  0.95101466
   0.89019643  0.11087772  0.05001427
   0.77510857  0.54959793  0.94881316
   0.88777646  0.44076183  0.04753821
   0.77787496  0.89101001  0.94675507
   0.88934395  0.78448714  0.05442369
unknown system                          
           1
     8.312506    4.849162    0.000000
    -8.275429    4.784948    0.000000
     0.000000    0.000000   30.000000
   V    Mo   W    S 
   3   3   3  18
Direct configuration=    23
  -0.03134363 -0.01809164  0.00040248
   1.01603340  0.33217548 -0.00038359
   0.34503706  0.68714210 -0.00022699
   0.65044802 -0.00921008  0.00012876
   0.36077428  0.01294252 -0.00047412
   0.67763095  0.67569488 -0.00023226
  -0.01079480  0.67779516 -0.00031094
   0.35601965  0.33174707  0.00007697
   0.63958167  0.31408781  0.00101066
   0.10820561  0.21547354  0.95165436
   0.21531608  0.10594948  0.04744562
   0.11404145  0.55697471  0.95247628
   0.22734528  0.44903755  0.04766303
   0.10999527  0.89719265  0.95098373
   0.22464713  0.77859482  0.04975125
   0.44519094  0.21915488  0.94302274
   0.55940210  0.11047674  0.05619699
   0.44068339  0.55621166  0.94993361
   0.55961401  0.44660203  0.05448909
   0.44153196  0.88292025  0.94524170
   0.54812674  0.77307171  0.05256455
   0.78115035  0.22584428  0.95123529
   0.89009793  0.11096444  0.04997402
   0.77491963  0.54947107  0.94873462
   0.88794230  0.44058604  0.04737764
   0.77755501  0.89092123  0.94672735
   0.88906268  0.78448406  0.05453706
unknown system                          
           1
     8.300667    4.843658    0.000000
    -8.262853    4.778163    0.000000
     0.000000    0.000000   30.000000
   V    Mo   W    S 
   3   3   3  18
Direct configuration=    24
  -0.03127941 -0.01811130  0.00039706
   1.01572051  0.33210003 -0.00037360
   0.34502989  0.68712018 -0.00022325
   0.65052826 -0.00919174  0.00012845
   0.36073749  0.01295897 -0.00046275
   0.67762308  0.67572176 -0.00022709
  -0.01061147  0.67787843 -0.00031901
   0.35602999  0.33172967  0.00008335
   0.63955953  0.31405503  0.00100549
   0.10820089  0.21551383  0.95166826
   0.21535554  0.10597636  0.04746504
   0.11407840  0.55699031  0.95245973
   0.22730483  0.44901801  0.04764444
   0.11000913  0.89719485  0.95096111
   0.22467076  0.77858567  0.04976835
   0.44516398  0.21916043  0.94302875
   0.55939468  0.11047401  0.05618454
   0.44069112  0.55621990  0.94993392
   0.55961542  0.44659064  0.05447855
   0.44154077  0.88291880  0.94524787