   27   27  100    1
  0.9710400E+02  0.1002848E-08  0.1002848E-08  0.3000000E-08  0.5000000E-15
  1.000000000000000E-004
  CAR 
 unknown system                          
    159     34    120
 
  0.0000000E+00  0.0000000E+00  0.0000000E+00  0.1562500E-01
    1      -17.825743   1.000000
    2      -16.775849   1.000000
    3      -16.608185   1.000000
    4      -16.596112   1.000000
    5      -16.535688   1.000000
    6      -16.525156   1.000000
    7      -16.417579   1.000000
    8      -16.256051   1.000000
    9      -16.199830   1.000000
   10      -16.152332   1.000000
   11      -16.105526   1.000000
   12      -15.939322   1.000000
   13      -15.909430   1.000000
   14      -15.644892   1.000000
   15      -15.596032   1.000000
   16      -15.493815   1.000000
   17      -15.272546   1.000000
   18      -15.218730   1.000000
   19       -9.308757   1.000000
   20       -9.045303   1.000000
   21       -8.938259   1.000000
   22       -8.851922   1.000000
   23       -8.726463   1.000000
   24       -8.709521   1.000000
   25       -8.691997   1.000000
   26       -8.669039   1.000000
   27       -8.541788   1.000000
   28       -8.480091   1.000000
   29       -8.467225   1.000000
   30       -8.416442   1.000000
   31       -8.346647   1.000000
   32       -8.160642   1.000000
   33       -8.066734   1.000000
   34       -8.000154   1.000000
   35       -7.805233   1.000000
   36       -7.742618   1.000000
   37       -7.683992   1.000000
   38       -7.518913   1.000000
   39       -7.506117   1.000000
   40       -7.379349   1.000000
   41       -7.336381   1.000000
   42       -7.209687   1.000000
   43       -7.068198   1.000000
   44       -6.941335   1.000000
   45       -6.867021   1.000000
   46       -6.798509   1.000000
   47       -6.739440   1.000000
   48       -6.666297   1.000000
   49       -6.606188   1.000000
   50       -6.527643   1.000000
   51       -6.442166   1.000000
   52       -6.262368   1.000000
   53       -6.223555   1.000000
   54       -6.173359   1.000000
   55       -6.152646   1.000000
   56       -6.064785   1.000000
   57       -5.999886   1.000000
   58       -5.900330   1.000000
   59       -5.881961   1.000000
   60       -5.634706   1.000000
   61       -5.610971   1.000000
   62       -5.351202   1.000000
   63       -5.303674   1.000000
   64       -5.078050   1.000000
   65       -5.022171   1.000000
   66       -4.924226   1.000000
   67       -4.899872   1.000000
   68       -4.828988   1.000000
   69       -4.762497   1.000000
   70       -4.707220   1.000000
   71       -4.682407   1.000000
   72       -4.667876   1.000000
   73       -4.459876   1.000000
   74       -4.373734   1.000000
   75       -4.306086   1.000000
   76       -3.974123   1.000000
   77       -3.785281   0.999968
   78       -3.608364   0.996957
   79       -3.499452   0.975748
   80       -3.191305   0.418398
   81       -3.173798   0.370782
   82       -2.853360   0.004721
   83       -2.768038   0.000690
   84       -2.630496   0.000015
   85       -2.572117   0.000002
   86       -2.491236   0.000000
   87       -2.246076   0.000000
   88       -2.224914   0.000000
   89       -2.204927   0.000000
   90       -2.065527   0.000000
   91       -1.705746   0.000000
   92       -1.629525   0.000000
   93       -1.380686   0.000000
   94       -1.205957   0.000000
   95       -1.074915   0.000000
   96       -0.995037   0.000000
   97       -0.950024   0.000000
   98       -0.904415   0.000000
   99       -0.822589   0.000000
  100       -0.635083   0.000000
  101       -0.597535   0.000000
  102       -0.528497   0.000000
  103       -0.384031   0.000000
  104       -0.285486   0.000000
  105       -0.225298   0.000000
  106       -0.157268   0.000000
  107       -0.103819   0.000000
  108       -0.054743   0.000000
  109        0.068715   0.000000
  110        0.231708   0.000000
  111        0.295114   0.000000
  112        0.410644   0.000000
  113        0.827758   0.000000
  114        0.947706   0.000000
  115        1.004307   0.000000
  116        1.143266   0.000000
  117        1.217095   0.000000
  118        1.653804   0.000000
  119        1.846432   0.000000
  120        2.169971   0.000000
 
  0.1250000E+00  0.2775558E-16  0.0000000E+00  0.3125000E-01
    1      -17.799941   1.000000
    2      -16.785146   1.000000
    3      -16.757837   1.000000
    4      -16.626839   1.000000
    5      -16.546806   1.000000
    6      -16.437040   1.000000
    7      -16.376374   1.000000
    8      -16.327982   1.000000
    9      -16.209620   1.000000
   10      -16.086224   1.000000
   11      -16.020256   1.000000
   12      -15.968190   1.000000
   13      -15.865168   1.000000
   14      -15.640335   1.000000
   15      -15.593856   1.000000
   16      -15.503834   1.000000
   17      -15.291097   1.000000
   18      -15.224671   1.000000
   19       -9.293539   1.000000
   20       -9.182249   1.000000
   21       -9.084393   1.000000
   22       -8.961012   1.000000
   23       -8.777311   1.000000
   24       -8.722375   1.000000
   25       -8.670300   1.000000
   26       -8.621998   1.000000
   27       -8.543930   1.000000
   28       -8.463215   1.000000
   29       -8.396242   1.000000
   30       -8.377524   1.000000
   31       -8.269564   1.000000
   32       -8.009001   1.000000
   33       -7.969328   1.000000
   34       -7.948781   1.000000
   35       -7.808806   1.000000
   36       -7.734099   1.000000
   37       -7.695472   1.000000
   38       -7.553322   1.000000
   39       -7.443526   1.000000
   40       -7.382165   1.000000
   41       -7.296691   1.000000
   42       -7.256467   1.000000
   43       -7.091933   1.000000
   44       -6.978378   1.000000
   45       -6.908860   1.000000
   46       -6.800293   1.000000
   47       -6.729116   1.000000
   48       -6.664736   1.000000
   49       -6.615091   1.000000
   50       -6.500294   1.000000
   51       -6.439842   1.000000
   52       -6.302938   1.000000
   53       -6.236480   1.000000
   54       -6.196795   1.000000
   55       -6.138186   1.000000
   56       -6.046691   1.000000
   57       -5.991423   1.000000
   58       -5.899366   1.000000
   59       -5.792509   1.000000
   60       -5.617106   1.000000
   61       -5.553784   1.000000
   62       -5.368742   1.000000
   63       -5.337510   1.000000
   64       -5.207317   1.000000
   65       -5.081491   1.000000
   66       -5.035464   1.000000
   67       -4.912843   1.000000
   68       -4.875873   1.000000
   69       -4.818487   1.000000
   70       -4.679500   1.000000
   71       -4.606517   1.000000
   72       -4.540458   1.000000
   73       -4.448632   1.000000
   74       -4.341146   1.000000
   75       -4.238139   1.000000
   76       -3.913564   1.000000
   77       -3.820397   0.999989
   78       -3.710984   0.999739
   79       -3.482328   0.967976
   80       -3.415196   0.915768
   81       -2.967153   0.036647
   82       -2.877625   0.007674
   83       -2.759187   0.000554
   84       -2.610985   0.000008
   85       -2.560510   0.000002
   86       -2.481551   0.000000
   87       -2.256061   0.000000
   88       -2.196574   0.000000
   89       -2.167689   0.000000
   90       -2.057695   0.000000
   91       -1.707715   0.000000
   92       -1.608986   0.000000
   93       -1.381307   0.000000
   94       -1.213570   0.000000
   95       -1.079845   0.000000
   96       -1.013063   0.000000
   97       -0.957554   0.000000
   98       -0.896652   0.000000
   99       -0.822810   0.000000
  100       -0.691039   0.000000
  101       -0.630597   0.000000
  102       -0.565017   0.000000
  103       -0.459063   0.000000
  104       -0.364384   0.000000
  105       -0.323163   0.000000
  106       -0.255605   0.000000
  107       -0.116526   0.000000
  108        0.018320   0.000000
  109        0.059009   0.000000
  110        0.261524   0.000000
  111        0.381020   0.000000
  112        0.473528   0.000000
  113        0.753508   0.000000
  114        0.923376   0.000000
  115        1.018562   0.000000
  116        1.154800   0.000000
  117        1.285032   0.000000
  118        1.699033   0.000000
  119        1.884440   0.000000
  120        2.205523   0.000000
 
  0.2500000E+00  0.5551115E-16  0.0000000E+00  0.3125000E-01
    1      -17.723633   1.000000
    2      -16.993361   1.000000
    3      -16.772283   1.000000
    4      -16.674752   1.000000
    5      -16.586709   1.000000
    6      -16.432352   1.000000
    7      -16.364720   1.000000
    8      -16.264382   1.000000
    9      -16.184700   1.000000
   10      -16.050814   1.000000
   11      -15.986546   1.000000
   12      -15.880365   1.000000
   13      -15.807853   1.000000
   14      -15.620974   1.000000
   15      -15.583411   1.000000
   16      -15.527216   1.000000
   17      -15.331791   1.000000
   18      -15.246966   1.000000
   19       -9.513846   1.000000
   20       -9.259344   1.000000
   21       -9.186986   1.000000
   22       -9.090955   1.000000
   23       -8.835716   1.000000
   24       -8.783983   1.000000
   25       -8.689928   1.000000
   26       -8.564146   1.000000
   27       -8.505930   1.000000
   28       -8.437899   1.000000
   29       -8.283392   1.000000
   30       -8.240247   1.000000
   31       -8.133048   1.000000
   32       -8.068542   1.000000
   33       -7.904462   1.000000
   34       -7.810155   1.000000
   35       -7.764257   1.000000
   36       -7.701433   1.000000
   37       -7.582786   1.000000
   38       -7.517471   1.000000
   39       -7.450327   1.000000
   40       -7.357932   1.000000
   41       -7.305661   1.000000
   42       -7.207275   1.000000
   43       -7.126975   1.000000
   44       -6.967533   1.000000
   45       -6.905030   1.000000
   46       -6.831786   1.000000
   47       -6.758069   1.000000
   48       -6.676008   1.000000
   49       -6.543144   1.000000
   50       -6.480372   1.000000
   51       -6.413251   1.000000
   52       -6.337265   1.000000
   53       -6.306291   1.000000
   54       -6.177279   1.000000
   55       -6.130705   1.000000
   56       -6.064182   1.000000
   57       -5.911488   1.000000
   58       -5.862081   1.000000
   59       -5.709721   1.000000
   60       -5.656414   1.000000
   61       -5.535454   1.000000
   62       -5.523609   1.000000
   63       -5.497148   1.000000
   64       -5.281921   1.000000
   65       -5.150952   1.000000
   66       -5.119827   1.000000
   67       -5.015134   1.000000
   68       -4.855138   1.000000
   69       -4.825695   1.000000
   70       -4.610087   1.000000
   71       -4.519016   1.000000
   72       -4.465364   1.000000
   73       -4.375769   1.000000
   74       -4.283379   1.000000
   75       -4.139772   1.000000
   76       -4.044336   1.000000
   77       -3.935575   1.000000
   78       -3.767459   0.999945
   79       -3.503616   0.977378
   80       -3.394570   0.890896
   81       -2.961678   0.033647
   82       -2.840158   0.003584
   83       -2.709883   0.000153
   84       -2.611096   0.000008
   85       -2.547386   0.000001
   86       -2.431144   0.000000
   87       -2.255764   0.000000
   88       -2.154224   0.000000
   89       -2.087842   0.000000
   90       -2.013598   0.000000
   91       -1.714006   0.000000
   92       -1.548085   0.000000
   93       -1.383890   0.000000
   94       -1.237455   0.000000
   95       -1.102687   0.000000
   96       -1.073141   0.000000
   97       -1.009390   0.000000
   98       -0.901621   0.000000
   99       -0.837101   0.000000
  100       -0.791031   0.000000
  101       -0.703097   0.000000
  102       -0.633667   0.000000
  103       -0.607958   0.000000
  104       -0.500643   0.000000
  105       -0.398777   0.000000
  106       -0.335975   0.000000
  107       -0.236077   0.000000
  108        0.006660   0.000000
  109        0.029873   0.000000
  110        0.271664   0.000000
  111        0.465756   0.000000
  112        0.580169   0.000000
  113        0.729922   0.000000
  114        0.935562   0.000000
  115        1.025407   0.000000
  116        1.163969   0.000000
  117        1.425256   0.000000
  118        1.824491   0.000000
  119        1.994746   0.000000
  120        2.310994   0.000000
 
  0.3750000E+00  0.0000000E+00  0.0000000E+00  0.3125000E-01
    1      -17.601111   1.000000
    2      -17.215431   1.000000
    3      -16.785271   1.000000
    4      -16.687026   1.000000
    5      -16.626818   1.000000
    6      -16.475738   1.000000
    7      -16.332371   1.000000
    8      -16.202801   1.000000
    9      -16.155840   1.000000
   10      -16.058793   1.000000
   11      -15.892461   1.000000
   12      -15.831974   1.000000
   13      -15.782706   1.000000
   14      -15.632522   1.000000
   15      -15.580121   1.000000
   16      -15.494856   1.000000
   17      -15.361680   1.000000
   18      -15.286068   1.000000
   19       -9.737993   1.000000
   20       -9.341500   1.000000
   21       -9.273039   1.000000
   22       -9.027589   1.000000
   23       -8.906083   1.000000
   24       -8.832042   1.000000
   25       -8.650042   1.000000
   26       -8.556277   1.000000
   27       -8.464334   1.000000
   28       -8.317801   1.000000
   29       -8.286655   1.000000
   30       -8.186129   1.000000
   31       -8.122772   1.000000
   32       -7.983673   1.000000
   33       -7.911199   1.000000
   34       -7.854450   1.000000
   35       -7.792003   1.000000
   36       -7.735513   1.000000
   37       -7.586582   1.000000
   38       -7.519303   1.000000
   39       -7.353788   1.000000
   40       -7.323120   1.000000
   41       -7.178334   1.000000
   42       -7.137511   1.000000
   43       -7.051235   1.000000
   44       -6.935821   1.000000
   45       -6.874262   1.000000
   46       -6.784844   1.000000
   47       -6.697002   1.000000
   48       -6.667605   1.000000
   49       -6.520667   1.000000
   50       -6.496643   1.000000
   51       -6.356227   1.000000
   52       -6.293729   1.000000
   53       -6.248764   1.000000
   54       -6.205024   1.000000
   55       -6.082135   1.000000
   56       -6.046434   1.000000
   57       -6.014910   1.000000
   58       -5.979916   1.000000
   59       -5.860796   1.000000
   60       -5.683704   1.000000
   61       -5.663571   1.000000
   62       -5.567870   1.000000
   63       -5.489653   1.000000
   64       -5.352184   1.000000
   65       -5.187102   1.000000
   66       -5.075760   1.000000
   67       -4.997965   1.000000
   68       -4.831584   1.000000
   69       -4.772040   1.000000
   70       -4.721973   1.000000
   71       -4.558259   1.000000
   72       -4.459222   1.000000
   73       -4.312566   1.000000
   74       -4.279595   1.000000
   75       -4.184058   1.000000
   76       -4.118546   1.000000
   77       -3.869566   0.999998
   78       -3.761537   0.999935
   79       -3.568576   0.993086
   80       -3.217407   0.491454
   81       -3.009452   0.067864
   82       -2.833303   0.003096
   83       -2.687015   0.000081
   84       -2.633311   0.000017
   85       -2.536431   0.000001
   86       -2.370821   0.000000
   87       -2.222690   0.000000
   88       -2.121843   0.000000
   89       -2.030248   0.000000
   90       -1.942711   0.000000
   91       -1.715086   0.000000
   92       -1.500362   0.000000
   93       -1.367131   0.000000
   94       -1.263585   0.000000
   95       -1.191104   0.000000
   96       -1.144363   0.000000
   97       -1.067059   0.000000
   98       -0.951216   0.000000
   99       -0.867027   0.000000
  100       -0.808112   0.000000
  101       -0.786371   0.000000
  102       -0.720150   0.000000
  103       -0.654066   0.000000
  104       -0.575819   0.000000
  105       -0.481731   0.000000
  106       -0.406611   0.000000
  107       -0.316140   0.000000
  108       -0.056819   0.000000
  109       -0.030597   0.000000
  110        0.269238   0.000000
  111        0.461258   0.000000
  112        0.576904   0.000000
  113        0.880669   0.000000
  114        0.955784   0.000000
  115        1.024420   0.000000
  116        1.203676   0.000000
  117        1.536125   0.000000
  118        2.011703   0.000000
  119        2.170300   0.000000
  120        2.483295   0.000000
 
  0.5000000E+00  0.1110223E-15  0.0000000E+00  0.1562500E-01
    1      -17.475226   1.000000
    2      -17.376335   1.000000
    3      -16.793879   1.000000
    4      -16.680743   1.000000
    5      -16.647134   1.000000
    6      -16.490577   1.000000
    7      -16.322452   1.000000
    8      -16.183516   1.000000
    9      -16.149375   1.000000
   10      -16.052320   1.000000
   11      -15.825621   1.000000
   12      -15.824347   1.000000
   13      -15.775928   1.000000
   14      -15.680116   1.000000
   15      -15.576742   1.000000
   16      -15.461892   1.000000
   17      -15.349768   1.000000
   18      -15.325267   1.000000
   19       -9.818738   1.000000
   20       -9.375282   1.000000
   21       -9.314026   1.000000
   22       -8.965843   1.000000
   23       -8.935548   1.000000
   24       -8.815459   1.000000
   25       -8.672484   1.000000
   26       -8.588659   1.000000
   27       -8.430038   1.000000
   28       -8.298043   1.000000
   29       -8.232362   1.000000
   30       -8.150017   1.000000
   31       -8.102332   1.000000
   32       -8.018584   1.000000
   33       -7.912881   1.000000
   34       -7.863427   1.000000
   35       -7.853141   1.000000
   36       -7.732298   1.000000
   37       -7.614214   1.000000
   38       -7.513387   1.000000
   39       -7.396294   1.000000
   40       -7.344170   1.000000
   41       -7.115863   1.000000
   42       -7.035468   1.000000
   43       -6.986299   1.000000
   44       -6.865896   1.000000
   45       -6.816801   1.000000
   46       -6.706274   1.000000
   47       -6.618742   1.000000
   48       -6.602855   1.000000
   49       -6.538132   1.000000
   50       -6.511138   1.000000
   51       -6.430891   1.000000
   52       -6.387006   1.000000
   53       -6.280233   1.000000
   54       -6.258324   1.000000
   55       -6.179026   1.000000
   56       -6.038781   1.000000
   57       -5.999848   1.000000
   58       -5.841701   1.000000
   59       -5.815929   1.000000
   60       -5.799460   1.000000
   61       -5.632595   1.000000
   62       -5.592002   1.000000
   63       -5.485310   1.000000
   64       -5.411144   1.000000
   65       -5.208200   1.000000
   66       -5.115268   1.000000
   67       -4.994741   1.000000
   68       -4.902652   1.000000
   69       -4.826747   1.000000
   70       -4.599814   1.000000
   71       -4.561077   1.000000
   72       -4.528581   1.000000
   73       -4.319302   1.000000
   74       -4.286118   1.000000
   75       -4.211653   1.000000
   76       -4.075729   1.000000
   77       -3.797102   0.999977
   78       -3.742725   0.999889
   79       -3.635076   0.998316
   80       -3.112849   0.223401
   81       -3.001280   0.060610
   82       -2.898395   0.011388
   83       -2.694353   0.000100
   84       -2.621916   0.000012
   85       -2.532273   0.000001
   86       -2.346721   0.000000
   87       -2.198158   0.000000
   88       -2.108231   0.000000
   89       -2.010759   0.000000
   90       -1.915028   0.000000
   91       -1.714813   0.000000
   92       -1.495774   0.000000
   93       -1.325860   0.000000
   94       -1.293359   0.000000
   95       -1.236076   0.000000
   96       -1.177686   0.000000
   97       -1.084354   0.000000
   98       -0.979621   0.000000
   99       -0.893322   0.000000
  100       -0.835499   0.000000
  101       -0.793676   0.000000
  102       -0.740844   0.000000
  103       -0.626069   0.000000
  104       -0.607357   0.000000
  105       -0.573813   0.000000
  106       -0.424243   0.000000
  107       -0.330892   0.000000
  108       -0.086334   0.000000
  109       -0.059841   0.000000
  110        0.266877   0.000000
  111        0.443122   0.000000
  112        0.592157   0.000000
  113        0.933227   0.000000
  114        0.955267   0.000000
  115        1.037259   0.000000
  116        1.223030   0.000000
  117        1.577755   0.000000
  118        2.230821   0.000000
  119        2.270975   0.000000
  120        2.395408   0.000000
 
  0.0000000E+00  0.1250000E+00  0.0000000E+00  0.3125000E-01
    1      -17.801092   1.000000
    2      -16.782686   1.000000
    3      -16.731938   1.000000
    4      -16.651388   1.000000
    5      -16.543087   1.000000
    6      -16.466897   1.000000
    7      -16.384351   1.000000
    8      -16.297685   1.000000
    9      -16.197418   1.000000
   10      -16.082007   1.000000
   11      -16.031738   1.000000
   12      -15.973760   1.000000
   13      -15.863928   1.000000
   14      -15.642383   1.000000
   15      -15.594945   1.000000
   16      -15.499258   1.000000
   17      -15.291767   1.000000
   18      -15.225459   1.000000
   19       -9.311902   1.000000
   20       -9.103977   1.000000
   21       -9.079161   1.000000
   22       -8.969190   1.000000
   23       -8.802581   1.000000
   24       -8.731990   1.000000
   25       -8.678877   1.000000
   26       -8.649386   1.000000
   27       -8.547062   1.000000
   28       -8.527169   1.000000
   29       -8.449828   1.000000
   30       -8.301146   1.000000
   31       -8.210454   1.000000
   32       -8.027104   1.000000
   33       -7.975124   1.000000
   34       -7.880134   1.000000
   35       -7.850881   1.000000
   36       -7.730809   1.000000
   37       -7.686305   1.000000
   38       -7.534882   1.000000
   39       -7.447133   1.000000
   40       -7.402502   1.000000
   41       -7.330141   1.000000
   42       -7.203670   1.000000
   43       -7.120884   1.000000
   44       -6.978683   1.000000
   45       -6.889561   1.000000
   46       -6.808319   1.000000
   47       -6.753382   1.000000
   48       -6.665571   1.000000
   49       -6.594175   1.000000
   50       -6.514678   1.000000
   51       -6.442505   1.000000
   52       -6.308592   1.000000
   53       -6.254688   1.000000
   54       -6.181082   1.000000
   55       -6.091305   1.000000
   56       -6.068902   1.000000
   57       -6.025989   1.000000
   58       -5.890565   1.000000
   59       -5.771590   1.000000
   60       -5.603100   1.000000
   61       -5.569147   1.000000
   62       -5.357537   1.000000
   63       -5.321965   1.000000
   64       -5.217154   1.000000
   65       -5.101084   1.000000
   66       -5.025548   1.000000
   67       -4.949549   1.000000
   68       -4.875323   1.000000
   69       -4.820427   1.000000
   70       -4.668341   1.000000
   71       -4.623837   1.000000
   72       -4.513454   1.000000
   73       -4.399627   1.000000
   74       -4.326970   1.000000
   75       -4.285185   1.000000
   76       -3.917847   1.000000
   77       -3.827390   0.999991
   78       -3.690169   0.999552
   79       -3.495736   0.974212
   80       -3.412474   0.912753
   81       -2.967161   0.036652
   82       -2.871043   0.006745
   83       -2.755555   0.000506
   84       -2.610756   0.000008
   85       -2.563719   0.000002
   86       -2.487652   0.000000
   87       -2.253289   0.000000
   88       -2.199196   0.000000
   89       -2.170539   0.000000
   90       -2.065097   0.000000
   91       -1.703664   0.000000
   92       -1.609531   0.000000
   93       -1.379964   0.000000
   94       -1.212098   0.000000
   95       -1.091059   0.000000
   96       -0.990524   0.000000
   97       -0.957499   0.000000
   98       -0.901773   0.000000
   99       -0.836766   0.000000
  100       -0.701774   0.000000
  101       -0.634741   0.000000
  102       -0.595302   0.000000
  103       -0.486082   0.000000
  104       -0.362338   0.000000
  105       -0.293766   0.000000
  106       -0.145310   0.000000
  107       -0.112596   0.000000
  108        0.031465   0.000000
  109        0.043080   0.000000
  110        0.228010   0.000000
  111        0.290425   0.000000
  112        0.464126   0.000000
  113        0.755804   0.000000
  114        0.897058   0.000000
  115        1.045270   0.000000
  116        1.197787   0.000000
  117        1.301938   0.000000
  118        1.698452   0.000000
  119        1.885206   0.000000
  120        2.205326   0.000000
 
  0.1250000E+00  0.1250000E+00  0.0000000E+00  0.3125000E-01
    1      -17.750524   1.000000
    2      -16.894165   1.000000
    3      -16.779181   1.000000
    4      -16.737821   1.000000
    5      -16.509305   1.000000
    6      -16.425073   1.000000
    7      -16.405633   1.000000
    8      -16.272556   1.000000
    9      -16.168410   1.000000
   10      -16.084834   1.000000
   11      -16.025400   1.000000
   12      -15.884343   1.000000
   13      -15.815164   1.000000
   14      -15.622423   1.000000
   15      -15.580951   1.000000
   16      -15.506192   1.000000
   17      -15.330632   1.000000
   18      -15.249133   1.000000
   19       -9.372818   1.000000
   20       -9.304049   1.000000
   21       -9.151211   1.000000
   22       -9.064628   1.000000
   23       -8.859409   1.000000
   24       -8.746121   1.000000
   25       -8.640309   1.000000
   26       -8.563076   1.000000
   27       -8.520460   1.000000
   28       -8.471167   1.000000
   29       -8.436228   1.000000
   30       -8.288907   1.000000
   31       -8.169805   1.000000
   32       -8.052405   1.000000
   33       -7.930900   1.000000
   34       -7.809006   1.000000
   35       -7.692117   1.000000
   36       -7.651969   1.000000
   37       -7.594162   1.000000
   38       -7.529882   1.000000
   39       -7.478361   1.000000
   40       -7.328677   1.000000
   41       -7.275133   1.000000
   42       -7.240665   1.000000
   43       -7.152249   1.000000
   44       -7.009388   1.000000
   45       -6.938194   1.000000
   46       -6.862451   1.000000
   47       -6.743765   1.000000
   48       -6.680382   1.000000
   49       -6.542924   1.000000
   50       -6.518314   1.000000
   51       -6.407477   1.000000
   52       -6.379322   1.000000
   53       -6.300396   1.000000
   54       -6.190660   1.000000
   55       -6.120864   1.000000
   56       -6.041820   1.000000
   57       -5.919677   1.000000
   58       -5.763614   1.000000
   59       -5.729168   1.000000
   60       -5.644243   1.000000
   61       -5.532020   1.000000
   62       -5.493459   1.000000
   63       -5.320412   1.000000
   64       -5.266232   1.000000
   65       -5.227676   1.000000
   66       -5.144466   1.000000
   67       -5.054233   1.000000
   68       -4.871886   1.000000
   69       -4.813900   1.000000
   70       -4.654480   1.000000
   71       -4.508479   1.000000
   72       -4.468792   1.000000
   73       -4.346691   1.000000
   74       -4.274873   1.000000
   75       -4.167187   1.000000
   76       -4.011413   1.000000
   77       -3.884234   0.999999
   78       -3.695389   0.999608
   79       -3.617651   0.997513
   80       -3.386817   0.880299
   81       -2.968832   0.037611
   82       -2.859561   0.005359
   83       -2.716602   0.000184
   84       -2.587935   0.000004
   85       -2.550445   0.000001
   86       -2.469053   0.000000
   87       -2.296089   0.000000
   88       -2.180419   0.000000
   89       -2.111871   0.000000
   90       -2.029797   0.000000
   91       -1.700247   0.000000
   92       -1.555219   0.000000
   93       -1.380479   0.000000
   94       -1.227797   0.000000
   95       -1.112403   0.000000
   96       -1.043023   0.000000
   97       -0.955324   0.000000
   98       -0.911541   0.000000
   99       -0.844864   0.000000
  100       -0.714816   0.000000
  101       -0.702031   0.000000
  102       -0.662794   0.000000
  103       -0.550657   0.000000
  104       -0.438183   0.000000
  105       -0.408752   0.000000
  106       -0.271090   0.000000
  107       -0.182674   0.000000
  108       -0.008071   0.000000
  109        0.021265   0.000000
  110        0.237364   0.000000
  111        0.403987   0.000000
  112        0.571864   0.000000
  113        0.617998   0.000000
  114        0.895200   0.000000
  115        1.092518   0.000000
  116        1.221339   0.000000
  117        1.463914   0.000000
  118        1.784907   0.000000
  119        1.957580   0.000000
  120        2.276075   0.000000
 
  0.2500000E+00  0.1250000E+00  0.0000000E+00  0.3125000E-01
    1      -17.651722   1.000000
    2      -17.094462   1.000000
    3      -16.879813   1.000000
    4      -16.717802   1.000000
    5      -16.497367   1.000000
    6      -16.455059   1.000000
    7      -16.347200   1.000000
    8      -16.236684   1.000000
    9      -16.146992   1.000000
   10      -16.073100   1.000000
   11      -15.991379   1.000000
   12      -15.828789   1.000000
   13      -15.779038   1.000000
   14      -15.598696   1.000000
   15      -15.555730   1.000000
   16      -15.504658   1.000000
   17      -15.365249   1.000000
   18      -15.288881   1.000000
   19       -9.615577   1.000000
   20       -9.420535   1.000000
   21       -9.279095   1.000000
   22       -9.036831   1.000000
   23       -8.823693   1.000000
   24       -8.773306   1.000000
   25       -8.603815   1.000000
   26       -8.531326   1.000000
   27       -8.459285   1.000000
   28       -8.373610   1.000000
   29       -8.316028   1.000000
   30       -8.261829   1.000000
   31       -8.156820   1.000000
   32       -8.097741   1.000000
   33       -7.930375   1.000000
   34       -7.925354   1.000000
   35       -7.816249   1.000000
   36       -7.652819   1.000000
   37       -7.458308   1.000000
   38       -7.401189   1.000000
   39       -7.354056   1.000000
   40       -7.294916   1.000000
   41       -7.250614   1.000000
   42       -7.208721   1.000000
   43       -7.088197   1.000000
   44       -6.967840   1.000000
   45       -6.876936   1.000000
   46       -6.837690   1.000000
   47       -6.758203   1.000000