       N       E                     dE             d eps       ncg     rms          rms(c)
DAV:   1     0.112416554250E+04    0.11242E+04   -0.35869E+04  8160   0.577E+02
DAV:   2    -0.476105021306E+00   -0.11246E+04   -0.10813E+04 11040   0.173E+02
DAV:   3    -0.199581587746E+03   -0.19911E+03   -0.19094E+03 10920   0.822E+01
DAV:   4    -0.208913448791E+03   -0.93319E+01   -0.90168E+01 11880   0.262E+01
DAV:   5    -0.209276557856E+03   -0.36311E+00   -0.36213E+00 11480   0.389E+00    0.275E+01
DAV:   6    -0.237163860598E+03   -0.27887E+02   -0.10787E+02 12640   0.605E+01    0.594E+01
DAV:   7    -0.196645583107E+03    0.40518E+02   -0.17775E+02 13080   0.152E+02    0.204E+01
DAV:   8    -0.190115302124E+03    0.65303E+01   -0.20498E+01 11800   0.134E+01    0.138E+01
DAV:   9    -0.188311456443E+03    0.18038E+01   -0.35098E+00 12160   0.623E+00    0.939E+00
DAV:  10    -0.187134130515E+03    0.11773E+01   -0.17813E+00 13400   0.755E+00    0.348E+00
DAV:  11    -0.187009599379E+03    0.12453E+00   -0.67633E-01 12560   0.251E+00    0.235E+00
DAV:  12    -0.187018444609E+03   -0.88452E-02   -0.45106E-01 12840   0.312E+00    0.331E+00
DAV:  13    -0.186929604286E+03    0.88840E-01   -0.25681E-01 13240   0.307E+00    0.191E+00
DAV:  14    -0.186900268468E+03    0.29336E-01   -0.10532E-01 12960   0.174E+00    0.908E-01
DAV:  15    -0.186894156342E+03    0.61121E-02   -0.38149E-02 12160   0.916E-01    0.891E-01
DAV:  16    -0.186889770843E+03    0.43855E-02   -0.14330E-02 12960   0.640E-01    0.499E-01
DAV:  17    -0.186887058965E+03    0.27119E-02   -0.73255E-03 12720   0.394E-01    0.175E-01
DAV:  18    -0.186886521186E+03    0.53778E-03   -0.20283E-03 11840   0.152E-01    0.177E-01
DAV:  19    -0.186886280024E+03    0.24116E-03   -0.79020E-04 11000   0.138E-01    0.455E-02
DAV:  20    -0.186887177572E+03   -0.89755E-03   -0.85556E-04  9160   0.566E-02    0.421E-02
DAV:  21    -0.186888045134E+03   -0.86756E-03   -0.21993E-04  8120   0.521E-02    0.358E-02
DAV:  22    -0.186888853300E+03   -0.80817E-03   -0.10129E-04  6760   0.291E-02    0.335E-02
DAV:  23    -0.186890009836E+03   -0.11565E-02   -0.13737E-04  7480   0.405E-02    0.170E-02
DAV:  24    -0.186890588607E+03   -0.57877E-03   -0.26667E-05  6720   0.187E-02    0.442E-03
DAV:  25    -0.186890958847E+03   -0.37024E-03   -0.16975E-05  5560   0.900E-03    0.482E-03
DAV:  26    -0.186891193816E+03   -0.23497E-03   -0.90444E-06  6760   0.718E-03    0.157E-03
DAV:  27    -0.186891283069E+03   -0.89253E-04   -0.31449E-06  7280   0.380E-03
   1 F= -.18689128E+03 E0= -.18672064E+03  d E =-.186891E+03
       N       E                     dE             d eps       ncg     rms          rms(c)
DAV:   1    -0.187534186487E+03   -0.64299E+00   -0.27110E+02  8160   0.350E+01    0.469E+00
DAV:   2    -0.189604019257E+03   -0.20698E+01   -0.20456E+01 12280   0.159E+01    0.101E+01
DAV:   3    -0.189346166237E+03    0.25785E+00   -0.46091E+00 12400   0.126E+01    0.627E+00
DAV:   4    -0.188788957344E+03    0.55721E+00   -0.54319E-01 12520   0.426E+00    0.170E+00
DAV:   5    -0.188903339297E+03   -0.11438E+00   -0.47789E-01 12000   0.357E+00    0.507E+00
DAV:   6    -0.188751018421E+03    0.15232E+00   -0.65038E-01 12600   0.424E+00    0.197E+00
DAV:   7    -0.188741819110E+03    0.91993E-02   -0.15163E-01 11880   0.209E+00    0.199E+00
DAV:   8    -0.188711566810E+03    0.30252E-01   -0.82611E-02 13560   0.176E+00    0.921E-01
DAV:   9    -0.188702835930E+03    0.87309E-02   -0.16327E-02 10720   0.598E-01    0.247E-01
DAV:  10    -0.188702741732E+03    0.94199E-04   -0.37577E-03 11840   0.208E-01    0.182E-01
DAV:  11    -0.188702213744E+03    0.52799E-03   -0.20220E-03 11600   0.139E-01    0.106E-01
DAV:  12    -0.188702361281E+03   -0.14754E-03   -0.80613E-04 11280   0.865E-02    0.941E-02
DAV:  13    -0.188702263558E+03    0.97723E-04   -0.23736E-04  7920   0.526E-02
   2 F= -.18870226E+03 E0= -.18856404E+03  d E =-.181098E+01
       N       E                     dE             d eps       ncg     rms          rms(c)
DAV:   1    -0.190632730663E+03   -0.19304E+01   -0.31291E+01  9120   0.142E+01    0.445E+00
DAV:   2    -0.190583397622E+03    0.49333E-01   -0.27604E+00 11200   0.948E+00    0.725E+00
DAV:   3    -0.190115560897E+03    0.46784E+00   -0.13196E+00 12360   0.862E+00    0.425E+00
DAV:   4    -0.189902140032E+03    0.21342E+00   -0.70908E-01 12640   0.422E+00    0.251E+00
DAV:   5    -0.189858961967E+03    0.43178E-01   -0.34495E-01 12320   0.277E+00    0.241E+00
DAV:   6    -0.189804182378E+03    0.54780E-01   -0.12410E-01 12720   0.221E+00    0.776E-01
DAV:   7    -0.189797327727E+03    0.68547E-02   -0.14238E-02 11520   0.573E-01    0.213E-01
DAV:   8    -0.189798071091E+03   -0.74336E-03   -0.40506E-03 12440   0.326E-01    0.342E-01
DAV:   9    -0.189797328947E+03    0.74214E-03   -0.22825E-03 10760   0.308E-01    0.147E-01
DAV:  10    -0.189797639129E+03   -0.31018E-03   -0.93908E-04  9840   0.133E-01    0.131E-01
DAV:  11    -0.189797353077E+03    0.28605E-03   -0.47558E-04  9200   0.778E-02    0.209E-02
DAV:  12    -0.189797380016E+03   -0.26939E-04   -0.74871E-05  7200   0.285E-02
   3 F= -.18979738E+03 E0= -.18968092E+03  d E =-.109512E+01
       N       E                     dE             d eps       ncg     rms          rms(c)
DAV:   1    -0.191372132167E+03   -0.15748E+01   -0.75114E+01  8160   0.197E+01    0.458E+00
DAV:   2    -0.191188650081E+03    0.18348E+00   -0.53582E+00 13360   0.760E+00    0.449E+00
DAV:   3    -0.191344943676E+03   -0.15629E+00   -0.15081E+00 12200   0.905E+00    0.675E+00
DAV:   4    -0.190943219690E+03    0.40172E+00   -0.13494E+00 12440   0.764E+00    0.293E+00
DAV:   5    -0.190900132014E+03    0.43088E-01   -0.41374E-01 12280   0.387E+00    0.283E+00
DAV:   6    -0.190814705746E+03    0.85426E-01   -0.19659E-01 12320   0.310E+00    0.119E+00
DAV:   7    -0.190802822009E+03    0.11884E-01   -0.43181E-02 12560   0.110E+00    0.450E-01
DAV:   8    -0.190799386001E+03    0.34360E-02   -0.64585E-03 10320   0.326E-01    0.157E-01
DAV:   9    -0.190800330817E+03   -0.94482E-03   -0.24475E-03 12600   0.316E-01    0.317E-01
DAV:  10    -0.190799702658E+03    0.62816E-03   -0.22698E-03 11280   0.315E-01    0.118E-01
DAV:  11    -0.190799559048E+03    0.14361E-03   -0.52996E-04  9160   0.105E-01    0.482E-02
DAV:  12    -0.190799552655E+03    0.63926E-05   -0.11403E-04  7400   0.438E-02
   4 F= -.19079955E+03 E0= -.19070179E+03  d E =-.100217E+01
       N       E                     dE             d eps       ncg     rms          rms(c)
DAV:   1    -0.192240817072E+03   -0.14413E+01   -0.16106E+02  8160   0.283E+01    0.564E+00
DAV:   2    -0.191970584830E+03    0.27023E+00   -0.93964E+00 11040   0.775E+00    0.355E+00
DAV:   3    -0.192043089054E+03   -0.72504E-01   -0.17970E+00 12240   0.781E+00    0.604E+00
DAV:   4    -0.191850272924E+03    0.19282E+00   -0.14750E+00 12000   0.937E+00    0.458E+00
DAV:   5    -0.191597970010E+03    0.25230E+00   -0.59415E-01 12360   0.459E+00    0.154E+00
DAV:   6    -0.191584797149E+03    0.13173E-01   -0.14920E-01 12600   0.267E+00    0.152E+00
DAV:   7    -0.191567164029E+03    0.17633E-01   -0.80574E-02 12360   0.203E+00    0.712E-01
DAV:   8    -0.191560581921E+03    0.65821E-02   -0.13467E-02 11800   0.730E-01    0.389E-01
DAV:   9    -0.191559498622E+03    0.10833E-02   -0.44873E-03 11800   0.467E-01    0.205E-01
DAV:  10    -0.191559525062E+03   -0.26440E-04   -0.21864E-03 11480   0.194E-01    0.808E-02
DAV:  11    -0.191559473904E+03    0.51157E-04   -0.51104E-04 10800   0.841E-02
   5 F= -.19155947E+03 E0= -.19147314E+03  d E =-.759921E+00
       N       E                     dE             d eps       ncg     rms          rms(c)
DAV:   1    -0.191677010037E+03   -0.11748E+00   -0.86339E+00  8160   0.625E+00    0.739E-01
DAV:   2    -0.191740423779E+03   -0.63414E-01   -0.34766E-01 12880   0.295E+00    0.206E+00
DAV:   3    -0.191694638367E+03    0.45785E-01   -0.98568E-02 12520   0.237E+00    0.483E-01
DAV:   4    -0.191694748958E+03   -0.11059E-03   -0.12412E-02 11640   0.750E-01    0.593E-01
DAV:   5    -0.191691435485E+03    0.33135E-02   -0.83785E-03 11560   0.695E-01    0.269E-01
DAV:   6    -0.191691309174E+03    0.12631E-03   -0.35994E-03 11320   0.310E-01    0.191E-01
DAV:   7    -0.191690857442E+03    0.45173E-03   -0.19985E-03 11600   0.254E-01    0.173E-01
DAV:   8    -0.191690592370E+03    0.26507E-03   -0.71676E-04  9040   0.189E-01    0.502E-02
DAV:   9    -0.191690597673E+03   -0.53027E-05   -0.10255E-04  6160   0.540E-02
   6 F= -.19169060E+03 E0= -.19160580E+03  d E =-.131124E+00
       N       E                     dE             d eps       ncg     rms          rms(c)
DAV:   1    -0.191817986562E+03   -0.12739E+00   -0.10865E+01  8160   0.702E+00    0.740E-01
DAV:   2    -0.191861935503E+03   -0.43949E-01   -0.35151E-01 12520   0.246E+00    0.151E+00
DAV:   3    -0.191839180089E+03    0.22755E-01   -0.70839E-02 12520   0.206E+00    0.623E-01
DAV:   4    -0.191835474421E+03    0.37057E-02   -0.10860E-02 11840   0.709E-01    0.447E-01
DAV:   5    -0.191834575601E+03    0.89882E-03   -0.78897E-03 11760   0.692E-01    0.386E-01
DAV:   6    -0.191833815526E+03    0.76007E-03   -0.52622E-03 11840   0.441E-01    0.203E-01
DAV:   7    -0.191832953136E+03    0.86239E-03   -0.17209E-03 10400   0.171E-01    0.492E-02
DAV:   8    -0.191833030985E+03   -0.77848E-04   -0.31726E-04  8560   0.114E-01
   7 F= -.19183303E+03 E0= -.19175073E+03  d E =-.142433E+00
       N       E                     dE             d eps       ncg     rms          rms(c)
DAV:   1    -0.191961094112E+03   -0.12814E+00   -0.13112E+01  8160   0.776E+00    0.802E-01
DAV:   2    -0.192000053856E+03   -0.38960E-01   -0.44636E-01 12480   0.230E+00    0.108E+00
DAV:   3    -0.191994448796E+03    0.56051E-02   -0.56436E-02 12440   0.193E+00    0.856E-01
DAV:   4    -0.191984040466E+03    0.10408E-01   -0.12790E-02 12160   0.874E-01    0.269E-01
DAV:   5    -0.191987180365E+03   -0.31399E-02   -0.96132E-03 12720   0.707E-01    0.610E-01
DAV:   6    -0.191984015487E+03    0.31649E-02   -0.89107E-03 11880   0.743E-01    0.252E-01
DAV:   7    -0.191983004419E+03    0.10111E-02   -0.19171E-03 11480   0.233E-01    0.497E-02
DAV:   8    -0.191983057455E+03   -0.53035E-04   -0.32531E-04  8680   0.101E-01
   8 F= -.19198306E+03 E0= -.19190219E+03  d E =-.150026E+00
       N       E                     dE             d eps       ncg     rms          rms(c)
DAV:   1    -0.192118156100E+03   -0.13515E+00   -0.64976E+01  8160   0.173E+01    0.177E+00
DAV:   2    -0.192288827373E+03   -0.17067E+00   -0.23026E+00 11480   0.439E+00    0.163E+00
DAV:   3    -0.192330533896E+03   -0.41707E-01   -0.24887E-01 12080   0.417E+00    0.245E+00
DAV:   4    -0.192253047638E+03    0.77486E-01   -0.81480E-02 11760   0.265E+00    0.768E-01
DAV:   5    -0.192257677034E+03   -0.46294E-02   -0.35983E-02 12200   0.162E+00    0.108E+00
DAV:   6    -0.192246928482E+03    0.10749E-01   -0.32601E-02 12400   0.133E+00    0.448E-01
DAV:   7    -0.192244985424E+03    0.19431E-02   -0.96124E-03 11800   0.721E-01    0.373E-01
DAV:   8    -0.192243512711E+03    0.14727E-02   -0.28199E-03 11960   0.428E-01    0.106E-01
DAV:   9    -0.192243341921E+03    0.17079E-03   -0.73215E-04 10200   0.111E-01    0.535E-02
DAV:  10    -0.192243294714E+03    0.47206E-04   -0.23992E-04  8040   0.498E-02
   9 F= -.19224329E+03 E0= -.19216793E+03  d E =-.260237E+00
       N       E                     dE             d eps       ncg     rms          rms(c)
DAV:   1    -0.192293541990E+03   -0.50200E-01   -0.70878E+00  8160   0.572E+00    0.701E-01
DAV:   2    -0.192320395458E+03   -0.26853E-01   -0.31781E-01 12000   0.192E+00    0.101E+00
DAV:   3    -0.192316806366E+03    0.35891E-02   -0.44252E-02 12440   0.180E+00    0.835E-01
DAV:   4    -0.192308201175E+03    0.86052E-02   -0.11731E-02 12480   0.927E-01    0.310E-01
DAV:   5    -0.192308929634E+03   -0.72846E-03   -0.63362E-03 11880   0.680E-01    0.424E-01
DAV:   6    -0.192306948636E+03    0.19810E-02   -0.53075E-03 11880   0.540E-01    0.139E-01
DAV:   7    -0.192306812920E+03    0.13572E-03   -0.11403E-03 10840   0.242E-01    0.134E-01
DAV:   8    -0.192306620496E+03    0.19242E-03   -0.38845E-04  9640   0.167E-01    0.464E-02
DAV:   9    -0.192306597074E+03    0.23421E-04   -0.73068E-05  6680   0.497E-02
  10 F= -.19230660E+03 E0= -.19223352E+03  d E =-.633024E-01
       N       E                     dE             d eps       ncg     rms          rms(c)
DAV:   1    -0.192336662133E+03   -0.30042E-01   -0.30241E+00  8160   0.365E+00    0.426E-01
DAV:   2    -0.192352533111E+03   -0.15871E-01   -0.12716E-01 11160   0.143E+00    0.860E-01
DAV:   3    -0.192345458258E+03    0.70749E-02   -0.19215E-02 12480   0.121E+00    0.385E-01
DAV:   4    -0.192343758107E+03    0.17002E-02   -0.29127E-03 11920   0.416E-01    0.166E-01
DAV:   5    -0.192343885817E+03   -0.12771E-03   -0.17340E-03 12520   0.349E-01    0.202E-01
DAV:   6    -0.192343620695E+03    0.26512E-03   -0.14257E-03 11960   0.290E-01    0.107E-01
DAV:   7    -0.192343406530E+03    0.21416E-03   -0.42837E-04 10360   0.103E-01    0.255E-02
DAV:   8    -0.192343422217E+03   -0.15686E-04   -0.65549E-05  7000   0.611E-02
  11 F= -.19234342E+03 E0= -.19227225E+03  d E =-.368251E-01
       N       E                     dE             d eps       ncg     rms          rms(c)
DAV:   1    -0.192365421910E+03   -0.22015E-01   -0.16616E+00  8160   0.275E+00    0.351E-01
DAV:   2    -0.192372844747E+03   -0.74228E-02   -0.68178E-02 12080   0.107E+00    0.659E-01
DAV:   3    -0.192369080217E+03    0.37645E-02   -0.12432E-02 12440   0.965E-01    0.334E-01
DAV:   4    -0.192367681383E+03    0.13988E-02   -0.22631E-03 12520   0.356E-01    0.134E-01
DAV:   5    -0.192367785583E+03   -0.10420E-03   -0.13862E-03 12040   0.281E-01    0.180E-01
DAV:   6    -0.192367506091E+03    0.27949E-03   -0.11274E-03 10680   0.274E-01    0.903E-02
DAV:   7    -0.192367369482E+03    0.13661E-03   -0.25392E-04  8080   0.104E-01    0.265E-02
DAV:   8    -0.192367372307E+03   -0.28253E-05   -0.57389E-05  7920   0.573E-02
  12 F= -.19236737E+03 E0= -.19229728E+03  d E =-.239501E-01
       N       E                     dE             d eps       ncg     rms          rms(c)
DAV:   1    -0.192392918691E+03   -0.25549E-01   -0.17486E+01  8160   0.884E+00    0.969E-01
DAV:   2    -0.192468949167E+03   -0.76030E-01   -0.64277E-01 11400   0.314E+00    0.183E+00
DAV:   3    -0.192437283392E+03    0.31666E-01   -0.97304E-02 12400   0.269E+00    0.907E-01
DAV:   4    -0.192426872461E+03    0.10411E-01   -0.15675E-02 12480   0.947E-01    0.326E-01
DAV:   5    -0.192426496133E+03    0.37633E-03   -0.82351E-03 12480   0.556E-01    0.337E-01
DAV:   6    -0.192427148091E+03   -0.65196E-03   -0.79415E-03 12160   0.730E-01    0.418E-01
DAV:   7    -0.192424889696E+03    0.22584E-02   -0.34507E-03 11880   0.457E-01    0.104E-01
DAV:   8    -0.192424842444E+03    0.47252E-04   -0.47556E-04  9360   0.163E-01
  13 F= -.19242484E+03 E0= -.19235825E+03  d E =-.574701E-01
       N       E                     dE             d eps       ncg     rms          rms(c)
DAV:   1    -0.192433307103E+03   -0.84174E-02   -0.14076E+00  8160   0.252E+00    0.300E-01
DAV:   2    -0.192441108432E+03   -0.78013E-02   -0.71564E-02 12480   0.100E+00    0.548E-01
DAV:   3    -0.192438651075E+03    0.24574E-02   -0.96252E-03 12480   0.847E-01    0.306E-01
DAV:   4    -0.192437467487E+03    0.11836E-02   -0.16495E-03 11920   0.322E-01    0.107E-01
DAV:   5    -0.192437576444E+03   -0.10896E-03   -0.92916E-04 10520   0.224E-01    0.152E-01
DAV:   6    -0.192437425675E+03    0.15077E-03   -0.88660E-04 10680   0.240E-01    0.938E-02
DAV:   7    -0.192437317217E+03    0.10846E-03   -0.27303E-04  8040   0.124E-01    0.543E-02
DAV:   8    -0.192437287560E+03    0.29658E-04   -0.68451E-05  6760   0.744E-02
  14 F= -.19243729E+03 E0= -.19237122E+03  d E =-.124451E-01
       N       E                     dE             d eps       ncg     rms          rms(c)
DAV:   1    -0.192441637294E+03   -0.43201E-02   -0.39019E+00  8160   0.417E+00    0.457E-01
DAV:   2    -0.192459155466E+03   -0.17518E-01   -0.16152E-01 11960   0.149E+00    0.796E-01
DAV:   3    -0.192454004975E+03    0.51505E-02   -0.21019E-02 12160   0.126E+00    0.477E-01
DAV:   4    -0.192451175956E+03    0.28290E-02   -0.38782E-03 12480   0.498E-01    0.147E-01
DAV:   5    -0.192451063764E+03    0.11219E-03   -0.17061E-03 12320   0.211E-01    0.132E-01
DAV:   6    -0.192451173714E+03   -0.10995E-03   -0.14193E-03 12080   0.291E-01    0.169E-01
DAV:   7    -0.192450797791E+03    0.37592E-03   -0.54212E-04  9440   0.192E-01    0.318E-02
DAV:   8    -0.192450807583E+03   -0.97923E-05   -0.77924E-05  6120   0.656E-02
  15 F= -.19245081E+03 E0= -.19238580E+03  d E =-.135200E-01
       N       E                     dE             d eps       ncg     rms          rms(c)
DAV:   1    -0.192453092164E+03   -0.22944E-02   -0.17659E-01  8160   0.895E-01    0.104E-01
DAV:   2    -0.192453803131E+03   -0.71097E-03   -0.92812E-03 11440   0.308E-01    0.103E-01
DAV:   3    -0.192453805552E+03   -0.24211E-05   -0.70672E-04 11120   0.223E-01
  16 F= -.19245381E+03 E0= -.19238898E+03  d E =-.299797E-02
       N       E                     dE             d eps       ncg     rms          rms(c)
DAV:   1    -0.192455349217E+03   -0.15461E-02   -0.88701E-02  8160   0.644E-01    0.908E-02
DAV:   2    -0.192455780698E+03   -0.43148E-03   -0.40667E-03 12320   0.239E-01    0.148E-01
DAV:   3    -0.192455585766E+03    0.19493E-03   -0.68109E-04 11120   0.226E-01    0.901E-02
DAV:   4    -0.192455505049E+03    0.80717E-04   -0.17148E-04  6720   0.106E-01
  17 F= -.19245551E+03 E0= -.19239095E+03  d E =-.169950E-02
       N       E                     dE             d eps       ncg     rms          rms(c)
DAV:   1    -0.192457283776E+03   -0.16980E-02   -0.13136E-01  8160   0.771E-01    0.104E-01
DAV:   2    -0.192458100020E+03   -0.81624E-03   -0.66725E-03 12280   0.327E-01    0.198E-01
DAV:   3    -0.192457696885E+03    0.40314E-03   -0.10442E-03 11080   0.286E-01    0.888E-02
DAV:   4    -0.192457643546E+03    0.53339E-04   -0.20705E-04  7720   0.121E-01
  18 F= -.19245764E+03 E0= -.19239329E+03  d E =-.213850E-02
       N       E                     dE             d eps       ncg     rms          rms(c)
DAV:   1    -0.192459213837E+03   -0.15170E-02   -0.14464E-01  8160   0.813E-01    0.109E-01
DAV:   2    -0.192459809118E+03   -0.59528E-03   -0.67708E-03 11520   0.284E-01    0.150E-01
DAV:   3    -0.192459664720E+03    0.14440E-03   -0.95441E-04 11040   0.262E-01    0.115E-01
DAV:   4    -0.192459526665E+03    0.13806E-03   -0.28523E-04  8240   0.140E-01    0.631E-02
DAV:   5    -0.192459523608E+03    0.30575E-05   -0.16544E-04  7560   0.121E-01
  19 F= -.19245952E+03 E0= -.19239556E+03  d E =-.188006E-02
       N       E                     dE             d eps       ncg     rms          rms(c)
DAV:   1    -0.192460834086E+03   -0.13074E-02   -0.21900E-01  8160   0.992E-01    0.118E-01
DAV:   2    -0.192462038327E+03   -0.12042E-02   -0.10857E-02 11480   0.411E-01    0.221E-01
DAV:   3    -0.192461601059E+03    0.43727E-03   -0.14997E-03 11520   0.328E-01    0.112E-01
DAV:   4    -0.192461452504E+03    0.14856E-03   -0.22510E-04  7840   0.128E-01    0.513E-02
DAV:   5    -0.192461460528E+03   -0.80249E-05   -0.11548E-04  7040   0.104E-01
  20 F= -.19246146E+03 E0= -.19239783E+03  d E =-.193692E-02
       N       E                     dE             d eps       ncg     rms          rms(c)
DAV:   1    -0.192459925339E+03    0.15272E-02   -0.16584E+00  8160   0.273E+00    0.312E-01
DAV:   2    -0.192466634161E+03   -0.67088E-02   -0.81231E-02 11040   0.878E-01    0.333E-01
DAV:   3    -0.192467532153E+03   -0.89799E-03   -0.78060E-03 12480   0.762E-01    0.451E-01
DAV:   4    -0.192465024758E+03    0.25074E-02   -0.27934E-03 11760   0.477E-01    0.931E-02
DAV:   5    -0.192465143390E+03   -0.11863E-03   -0.10619E-03 10840   0.174E-01    0.129E-01
DAV:   6    -0.192465036284E+03    0.10711E-03   -0.71346E-04 10880   0.225E-01    0.103E-01
DAV:   7    -0.192464908123E+03    0.12816E-03   -0.18867E-04  6920   0.116E-01    0.264E-02
DAV:   8    -0.192464910231E+03   -0.21081E-05   -0.51050E-05  6640   0.494E-02
  21 F= -.19246491E+03 E0= -.19240210E+03  d E =-.344970E-02
       N       E                     dE             d eps       ncg     rms          rms(c)
DAV:   1    -0.192465085005E+03   -0.17688E-03   -0.57297E-03  8160   0.173E-01    0.309E-02
DAV:   2    -0.192465122500E+03   -0.37494E-04   -0.24012E-04  7640   0.930E-02
  22 F= -.19246512E+03 E0= -.19240233E+03  d E =-.212269E-03
