 vasp.5.4.1 05Feb16 (build Jul 05 2020 17:13:04) complex                        
  
 executed on           IFC91_ompi date 2024.04.25  13:26:29
 running on   40 total cores
 distrk:  each k-point on   40 cores,    1 groups
 distr:  one band on NCORES_PER_BAND=   1 cores,   40 groups


--------------------------------------------------------------------------------------------------------


 INCAR:
 POTCAR:   PAW_PBE V 08Apr2002                    
 POTCAR:   PAW_PBE Mo 08Apr2002                   
 POTCAR:   PAW_PBE W 08Apr2002                    
 POTCAR:    PAW_PBE S 17Jan2003                   

 ----------------------------------------------------------------------------- 
|                                                                             |
|           W    W    AA    RRRRR   N    N  II  N    N   GGGG   !!!           |
|           W    W   A  A   R    R  NN   N  II  NN   N  G    G  !!!           |
|           W    W  A    A  R    R  N N  N  II  N N  N  G       !!!           |
|           W WW W  AAAAAA  RRRRR   N  N N  II  N  N N  G  GGG   !            |
|           WW  WW  A    A  R   R   N   NN  II  N   NN  G    G                |
|           W    W  A    A  R    R  N    N  II  N    N   GGGG   !!!           |
|                                                                             |
|      For optimal performance we recommend to set                            |
|        NCORE= 4 - approx SQRT( number of cores)                             |
|      NCORE specifies how many cores store one orbital (NPAR=cpu/NCORE).     |
|      This setting can  greatly improve the performance of VASP for DFT.     |
|      The default, NPAR=number of cores might be grossly inefficient         |
|      on modern multi-core architectures or massively parallel machines.     |
|      Do your own testing !!!!                                               |
|      Unfortunately you need to use the default for GW and RPA calculations. |
|      (for HF NCORE is supported but not extensively tested yet)             |
|                                                                             |
 ----------------------------------------------------------------------------- 

 POTCAR:   PAW_PBE V 08Apr2002                    
   VRHFIN =V: p6 d4 s1                                                          
   LEXCH  = PE                                                                  
   EATOM  =   170.8679 eV,   12.5584 Ry                                         
                                                                                
   TITEL  = PAW_PBE V 08Apr2002                                                 
   LULTRA =        F    use ultrasoft PP ?                                      
   IUNSCR =        1    unscreen: 0-lin 1-nonlin 2-no                           
   RPACOR =    2.000    partial core radius                                     
   POMASS =   50.941; ZVAL   =    5.000    mass and valenz                      
   RCORE  =    2.700    outmost cutoff radius                                   
   RWIGS  =    2.500; RWIGS  =    1.323    wigner-seitz radius (au A)           
   ENMAX  =  192.543; ENMIN  =  144.408 eV                                      
   RCLOC  =    1.779    cutoff for local pot                                    
   LCOR   =        T    correct aug charges                                     
   LPAW   =        T    paw PP                                                  
   EAUG   =  358.662                                                            
   DEXC   =    -.034                                                            
   RMAX   =    3.323    core radius for proj-oper                               
   RAUG   =    1.300    factor for augmentation sphere                          
   RDEP   =    2.762    radius for radial grids                                 
   QCUT   =   -3.762; QGAM   =    7.524    optimization parameters              
                                                                                
   Description                                                                  
     l     E      TYP  RCUT    TYP  RCUT                                        
     2   .000     23  2.700                                                     
     2   .000     23  2.700                                                     
     0   .000     23  2.700                                                     
     0  2.000     23  2.700                                                     
     1   .000     23  2.700                                                     
     1  2.000     23  2.700                                                     
     3   .000      7   .000                                                     
  local pseudopotential read in
  partial core-charges read in
  atomic valenz-charges read in
  non local Contribution for L=           2  read in
    real space projection operators read in
  non local Contribution for L=           2  read in
    real space projection operators read in
  non local Contribution for L=           0  read in
    real space projection operators read in
  non local Contribution for L=           0  read in
    real space projection operators read in
  non local Contribution for L=           1  read in
    real space projection operators read in
  non local Contribution for L=           1  read in
    real space projection operators read in
    PAW grid and wavefunctions read in
 
   number of l-projection  operators is LMAX  =           6
   number of lm-projection operators is LMMAX =          18
 
 POTCAR:   PAW_PBE Mo 08Apr2002                   
   VRHFIN =Mo: 4p5s4d                                                           
   LEXCH  = PE                                                                  
   EATOM  =   217.5180 eV,   15.9871 Ry                                         
                                                                                
   TITEL  = PAW_PBE Mo 08Apr2002                                                
   LULTRA =        F    use ultrasoft PP ?                                      
   IUNSCR =        1    unscreen: 0-lin 1-nonlin 2-no                           
   RPACOR =    2.200    partial core radius                                     
   POMASS =   95.940; ZVAL   =    6.000    mass and valenz                      
   RCORE  =    2.750    outmost cutoff radius                                   
   RWIGS  =    2.750; RWIGS  =    1.455    wigner-seitz radius (au A)           
   ENMAX  =  224.584; ENMIN  =  168.438 eV                                      
   RCLOC  =    2.111    cutoff for local pot                                    
   LCOR   =        T    correct aug charges                                     
   LPAW   =        T    paw PP                                                  
   EAUG   =  345.278                                                            
   DEXC   =    -.088                                                            
   RMAX   =    3.077    core radius for proj-oper                               
   RAUG   =    1.300    factor for augmentation sphere                          
   RDEP   =    2.815    radius for radial grids                                 
   QCUT   =   -4.063; QGAM   =    8.126    optimization parameters              
                                                                                
   Description                                                                  
     l     E      TYP  RCUT    TYP  RCUT                                        
     2   .000     23  2.500                                                     
     2   .000     23  2.500                                                     
     0   .000     23  2.600                                                     
     0  1.000     23  2.600                                                     
     1   .400     23  2.750                                                     
     1  2.000     23  2.750                                                     
     3   .000      7   .000                                                     
  local pseudopotential read in
  partial core-charges read in
  atomic valenz-charges read in
  non local Contribution for L=           2  read in
    real space projection operators read in
  non local Contribution for L=           2  read in
    real space projection operators read in
  non local Contribution for L=           0  read in
    real space projection operators read in
  non local Contribution for L=           0  read in
    real space projection operators read in
  non local Contribution for L=           1  read in
    real space projection operators read in
  non local Contribution for L=           1  read in
    real space projection operators read in
    PAW grid and wavefunctions read in
 
   number of l-projection  operators is LMAX  =           6
   number of lm-projection operators is LMMAX =          18
 
 POTCAR:   PAW_PBE W 08Apr2002                    
   VRHFIN =W : 6s5d                                                             
   LEXCH  = PE                                                                  
   EATOM  =   204.6100 eV,   15.0384 Ry                                         
                                                                                
   TITEL  = PAW_PBE W 08Apr2002                                                 
   LULTRA =        F    use ultrasoft PP ?                                      
   IUNSCR =        1    unscreen: 0-lin 1-nonlin 2-no                           
   RPACOR =    2.330    partial core radius                                     
   POMASS =  183.850; ZVAL   =    6.000    mass and valenz                      
   RCORE  =    2.750    outmost cutoff radius                                   
   RWIGS  =    2.750; RWIGS  =    1.455    wigner-seitz radius (au A)           
   ENMAX  =  223.057; ENMIN  =  167.293 eV                                      
   RCLOC  =    2.147    cutoff for local pot                                    
   LCOR   =        T    correct aug charges                                     
   LPAW   =        T    paw PP                                                  
   EAUG   =  373.438                                                            
   DEXC   =    -.060                                                            
   RMAX   =    3.087    core radius for proj-oper                               
   RAUG   =    1.300    factor for augmentation sphere                          
   RDEP   =    2.886    radius for radial grids                                 
   QCUT   =   -4.049; QGAM   =    8.098    optimization parameters              
                                                                                
   Description                                                                  
     l     E      TYP  RCUT    TYP  RCUT                                        
     2   .000     23  2.500                                                     
     2   .000     23  2.500                                                     
     0   .000     23  2.500                                                     
     0   .000     23  2.500                                                     
     1   .200     23  2.750                                                     
     1  2.000     23  2.750                                                     
     3   .000      7   .000                                                     
  local pseudopotential read in
  partial core-charges read in
  atomic valenz-charges read in
  non local Contribution for L=           2  read in
    real space projection operators read in
  non local Contribution for L=           2  read in
    real space projection operators read in
  non local Contribution for L=           0  read in
    real space projection operators read in
  non local Contribution for L=           0  read in
    real space projection operators read in
  non local Contribution for L=           1  read in
    real space projection operators read in
  non local Contribution for L=           1  read in
    real space projection operators read in
    PAW grid and wavefunctions read in
 
   number of l-projection  operators is LMAX  =           6
   number of lm-projection operators is LMMAX =          18
 
 POTCAR:    PAW_PBE S 17Jan2003                   
   VRHFIN =S : s2p4                                                             
   LEXCH  = PE                                                                  
   EATOM  =   276.8230 eV,   20.3459 Ry                                         
                                                                                
   TITEL  = PAW_PBE S 17Jan2003                                                 
   LULTRA =        F    use ultrasoft PP ?                                      
   IUNSCR =        1    unscreen: 0-lin 1-nonlin 2-no                           
   RPACOR =    1.500    partial core radius                                     
   POMASS =   32.066; ZVAL   =    6.000    mass and valenz                      
   RCORE  =    1.900    outmost cutoff radius                                   
   RWIGS  =    2.200; RWIGS  =    1.164    wigner-seitz radius (au A)           
   ENMAX  =  280.000; ENMIN  =  194.016 eV                                      
   ICORE  =        2    local potential                                         
   LCOR   =        T    correct aug charges                                     
   LPAW   =        T    paw PP                                                  
   EAUG   =  335.092                                                            
   DEXC   =     .000                                                            
   RMAX   =    2.867    core radius for proj-oper                               
   RAUG   =    1.300    factor for augmentation sphere                          
   RDEP   =    1.954    radius for radial grids                                 
   QCUT   =   -4.360; QGAM   =    8.721    optimization parameters              
                                                                                
   Description                                                                  
     l     E      TYP  RCUT    TYP  RCUT                                        
     0   .000     23  1.900                                                     
     0   .000     23  1.900                                                     
     1   .000     23  1.900                                                     
     1   .000     23  1.900                                                     
     2   .000     23  1.900                                                     
  local pseudopotential read in
  partial core-charges read in
  atomic valenz-charges read in
  non local Contribution for L=           0  read in
    real space projection operators read in
  non local Contribution for L=           0  read in
    real space projection operators read in
  non local Contribution for L=           1  read in
    real space projection operators read in
  non local Contribution for L=           1  read in
    real space projection operators read in
    PAW grid and wavefunctions read in
 
   number of l-projection  operators is LMAX  =           4
   number of lm-projection operators is LMMAX =           8
 

 ----------------------------------------------------------------------------- 
|                                                                             |
|  ADVICE TO THIS USER RUNNING 'VASP/VAMP'   (HEAR YOUR MASTER'S VOICE ...):  |
|                                                                             |
|      You have a (more or less) 'large supercell' and for larger cells       |
|      it might be more efficient to use real space projection operators      |
|      So try LREAL= Auto  in the INCAR   file.                               |
|      Mind: If you want to do a very accurate calculations keep the          |
|      reciprocal projection scheme          (i.e. LREAL=.FALSE.)             |
|                                                                             |
 ----------------------------------------------------------------------------- 

 PAW_PBE V 08Apr2002                    :
 energy of atom  1       EATOM= -170.8679
 kinetic energy error for atom=    0.0047 (will be added to EATOM!!)
 PAW_PBE Mo 08Apr2002                   :
 energy of atom  2       EATOM= -217.5180
 kinetic energy error for atom=    0.0215 (will be added to EATOM!!)
 PAW_PBE W 08Apr2002                    :
 energy of atom  3       EATOM= -204.6100
 kinetic energy error for atom=    0.0205 (will be added to EATOM!!)
  PAW_PBE S 17Jan2003                   :
 energy of atom  4       EATOM= -276.8230
 kinetic energy error for atom=    0.0122 (will be added to EATOM!!)
 
 
 POSCAR: crystal structure from VMoWS2 with Hexag
  positions in cartesian coordinates
  No initial velocities read in
 exchange correlation table for  LEXCH =        8
   RHO(1)=    0.500       N(1)  =     2000
   RHO(2)=  100.500       N(2)  =     4000
 


--------------------------------------------------------------------------------------------------------


 ion  position               nearest neighbor table
   1  0.333  0.333  0.000-  13 2.34  16 2.34  19 2.36  18 2.36  11 2.36  10 2.36
   2  1.000  0.333  0.000-  25 2.34  10 2.34  13 2.36  12 2.36  22 2.36  23 2.36
   3  0.667  0.000  0.000-  17 2.34  26 2.34  23 2.36  22 2.36  21 2.36  20 2.36
   4  0.333  0.000  0.000-  11 2.34  20 2.34  17 2.36  16 2.36  15 2.36  14 2.36   8 3.34   7 3.34
                             5 3.36   6 3.36
   5  0.000  0.667  0.000-  27 2.34  12 2.34  14 2.36  15 2.36  24 2.36  25 2.36   9 3.34   7 3.34
                             8 3.34   4 3.36   6 3.36
   6  0.667  0.333  0.000-  19 2.34  22 2.34  25 2.36  24 2.36  17 2.36  16 2.36   9 3.34   5 3.36
                             4 3.36
   7  0.000  0.000  0.000-  23 2.34  14 2.34  11 2.36  10 2.36  27 2.36  26 2.36   5 3.34   4 3.34
                             9 3.36
   8  0.333  0.667  0.000-  15 2.34  18 2.34  20 2.36  21 2.36  13 2.36  12 2.36   4 3.34   5 3.34
                             9 3.34
   9  0.667  0.667  0.000-  21 2.34  24 2.34  27 2.36  26 2.36  19 2.36  18 2.36   5 3.34   6 3.34
                             8 3.34   7 3.36
  10  0.111  0.222  0.955-   2 2.34   7 2.36   1 2.36
  11  0.222  0.111  0.045-   4 2.34   7 2.36   1 2.36
  12  0.111  0.556  0.955-   5 2.34   2 2.36   8 2.36
  13  0.222  0.444  0.045-   1 2.34   2 2.36   8 2.36
  14  0.111  0.889  0.955-   7 2.34   5 2.36   4 2.36
  15  0.222  0.777  0.045-   8 2.34   5 2.36   4 2.36
  16  0.444  0.222  0.955-   1 2.34   4 2.36   6 2.36
  17  0.556  0.111  0.045-   3 2.34   4 2.36   6 2.36
  18  0.444  0.556  0.955-   8 2.34   1 2.36   9 2.36
  19  0.556  0.444  0.045-   6 2.34   1 2.36   9 2.36
  20  0.444  0.889  0.955-   4 2.34   8 2.36   3 2.36
  21  0.556  0.777  0.045-   9 2.34   8 2.36   3 2.36
  22  0.777  0.222  0.955-   6 2.34   3 2.36   2 2.36
  23  0.889  0.111  0.045-   7 2.34   3 2.36   2 2.36
  24  0.777  0.556  0.955-   9 2.34   6 2.36   5 2.36
  25  0.889  0.444  0.045-   2 2.34   6 2.36   5 2.36
  26  0.777  0.889  0.955-   3 2.34   9 2.36   7 2.36
  27  0.889  0.777  0.045-   5 2.34   9 2.36   7 2.36
 

IMPORTANT INFORMATION: All symmetrisations will be switched off!
NOSYMM: (Re-)initialisation of all symmetry stuff for point group C_1.

 
 
 KPOINTS: K-POINTS 	#supercell of CrS2 in hexagona

Automatic generation of k-mesh.
Space group operators:
 irot       det(A)        alpha          n_x          n_y          n_z        tau_x        tau_y        tau_z
    1     1.000000     0.000000     1.000000     0.000000     0.000000     0.000000     0.000000     0.000000
 
 Subroutine IBZKPT returns following result:
 ===========================================
 
 Found     34 irreducible k-points:
 
 Following reciprocal coordinates:
            Coordinates               Weight
  0.000000  0.000000  0.000000      1.000000
  0.125000  0.000000  0.000000      2.000000
  0.250000  0.000000  0.000000      2.000000
  0.375000  0.000000  0.000000      2.000000
  0.500000  0.000000  0.000000      1.000000
  0.000000  0.125000  0.000000      2.000000
  0.125000  0.125000  0.000000      2.000000
  0.250000  0.125000  0.000000      2.000000
  0.375000  0.125000  0.000000      2.000000
  0.500000  0.125000  0.000000      2.000000
 -0.375000  0.125000  0.000000      2.000000
 -0.250000  0.125000  0.000000      2.000000
 -0.125000  0.125000  0.000000      2.000000
  0.000000  0.250000  0.000000      2.000000
  0.125000  0.250000  0.000000      2.000000
  0.250000  0.250000  0.000000      2.000000
  0.375000  0.250000  0.000000      2.000000
  0.500000  0.250000  0.000000      2.000000
 -0.375000  0.250000  0.000000      2.000000
 -0.250000  0.250000  0.000000      2.000000
 -0.125000  0.250000  0.000000      2.000000
 -0.000000  0.375000  0.000000      2.000000
  0.125000  0.375000  0.000000      2.000000
  0.250000  0.375000  0.000000      2.000000
  0.375000  0.375000  0.000000      2.000000
  0.500000  0.375000  0.000000      2.000000
 -0.375000  0.375000  0.000000      2.000000
 -0.250000  0.375000  0.000000      2.000000
 -0.125000  0.375000  0.000000      2.000000
  0.000000  0.500000  0.000000      1.000000
  0.125000  0.500000  0.000000      2.000000
  0.250000  0.500000  0.000000      2.000000
  0.375000  0.500000  0.000000      2.000000
  0.500000  0.500000  0.000000      1.000000
 
 Following cartesian coordinates:
            Coordinates               Weight
  0.000000  0.000000  0.000000      1.000000
  0.007209  0.012401  0.000000      2.000000
  0.014418  0.024802  0.000000      2.000000
  0.021626  0.037202  0.000000      2.000000
  0.028835  0.049603  0.000000      1.000000
 -0.007209  0.012401  0.000000      2.000000
  0.000000  0.024802  0.000000      2.000000
  0.007209  0.037202  0.000000      2.000000
  0.014418  0.049603  0.000000      2.000000
  0.021626  0.062004  0.000000      2.000000
 -0.028835 -0.024802  0.000000      2.000000
 -0.021626 -0.012401  0.000000      2.000000
 -0.014418  0.000000  0.000000      2.000000
 -0.014418  0.024802  0.000000      2.000000
 -0.007209  0.037202  0.000000      2.000000
  0.000000  0.049603  0.000000      2.000000
  0.007209  0.062004  0.000000      2.000000
  0.014418  0.074405  0.000000      2.000000
 -0.036044 -0.012401  0.000000      2.000000
 -0.028835  0.000000  0.000000      2.000000
 -0.021626  0.012401  0.000000      2.000000
 -0.021626  0.037202  0.000000      2.000000
 -0.014418  0.049603  0.000000      2.000000
 -0.007209  0.062004  0.000000      2.000000
  0.000000  0.074405  0.000000      2.000000
  0.007209  0.086806  0.000000      2.000000
 -0.043253  0.000000  0.000000      2.000000
 -0.036044  0.012401  0.000000      2.000000
 -0.028835  0.024802  0.000000      2.000000
 -0.028835  0.049603  0.000000      1.000000
 -0.021626  0.062004  0.000000      2.000000
 -0.014418  0.074405  0.000000      2.000000
 -0.007209  0.086806  0.000000      2.000000
  0.000000  0.099206  0.000000      1.000000
 


--------------------------------------------------------------------------------------------------------




 Dimension of arrays:
   k-points           NKPTS =     34   k-points in BZ     NKDIM =     34   number of bands    NBANDS=    120
   number of dos      NEDOS =    301   number of ions     NIONS =     27
   non local maximal  LDIM  =      6   non local SUM 2l+1 LMDIM =     18
   total plane-waves  NPLWV = 222264
   max r-space proj   IRMAX =      1   max aug-charges    IRDMAX=   5642
   dimension x,y,z NGX =    42 NGY =   42 NGZ =  126
   dimension x,y,z NGXF=    84 NGYF=   84 NGZF=  252
   support grid    NGXF=    84 NGYF=   84 NGZF=  252
   ions per type =               3   3   3  18
 NGX,Y,Z   is equivalent  to a cutoff of   6.96,  6.96,  6.98 a.u.
 NGXF,Y,Z  is equivalent  to a cutoff of  13.92, 13.92, 13.96 a.u.


 I would recommend the setting:
   dimension x,y,z NGX =    41 NGY =   41 NGZ =  123
 SYSTEM =  unknown system                          
 POSCAR =  crystal structure from VMoWS2 with Hexag

 Startparameter for this run:
   NWRITE =      2    write-flag & timer
   PREC   = normal    normal or accurate (medium, high low for compatibility)
   ISTART =      0    job   : 0-new  1-cont  2-samecut
   ICHARG =      2    charge: 1-file 2-atom 10-const
   ISPIN  =      1    spin polarized calculation?
   LNONCOLLINEAR =      F non collinear calculations
   LSORBIT =      F    spin-orbit coupling
   INIWAV =      1    electr: 0-lowe 1-rand  2-diag
   LASPH  =      F    aspherical Exc in radial PAW
   METAGGA=      F    non-selfconsistent MetaGGA calc.

 Electronic Relaxation 1
   ENCUT  =  280.0 eV  20.58 Ry    4.54 a.u.  13.68 13.68 40.93*2*pi/ulx,y,z
   ENINI  =  280.0     initial cutoff
   ENAUG  =  373.4 eV  augmentation charge cutoff
   NELM   =     60;   NELMIN=  2; NELMDL= -5     # of ELM steps 
   EDIFF  = 0.1E-03   stopping-criterion for ELM
   LREAL  =      F    real-space projection
   NLSPLINE    = F    spline interpolate recip. space projectors
   LCOMPAT=      F    compatible to vasp.4.4
   GGA_COMPAT  = T    GGA compatible to vasp.4.4-vasp.4.6
   LMAXPAW     = -100 max onsite density
   LMAXMIX     =    2 max onsite mixed and CHGCAR
   VOSKOWN=      0    Vosko Wilk Nusair interpolation
   ROPT   =    0.00000   0.00000   0.00000   0.00000
 Ionic relaxation
   EDIFFG = 0.1E-02   stopping-criterion for IOM
   NSW    =    100    number of steps for IOM
   NBLOCK =      1;   KBLOCK =    100    inner block; outer block 
   IBRION =      1    ionic relax: 0-MD 1-quasi-New 2-CG
   NFREE  =      0    steps in history (QN), initial steepest desc. (CG)
   ISIF   =      3    stress and relaxation
   IWAVPR =     11    prediction:  0-non 1-charg 2-wave 3-comb
   ISYM   =      0    0-nonsym 1-usesym 2-fastsym
   LCORR  =      T    Harris-Foulkes like correction to forces

   POTIM  = 0.5000    time-step for ionic-motion
   TEIN   =    0.0    initial temperature
   TEBEG  =    0.0;   TEEND  =   0.0 temperature during run
   SMASS  =  -3.00    Nose mass-parameter (am)
   estimated Nose-frequenzy (Omega)   =  0.10E-29 period in steps =****** mass=  -0.230E-26a.u.
   SCALEE = 1.0000    scale energy and forces
   NPACO  =    256;   APACO  = 16.0  distance and # of slots for P.C.
   PSTRESS=    0.0 pullay stress

  Mass of Ions in am
   POMASS =  50.94 95.94183.85 32.07
  Ionic Valenz
   ZVAL   =   5.00  6.00  6.00  6.00
  Atomic Wigner-Seitz radii
   RWIGS  =  -1.00 -1.00 -1.00 -1.00
  virtual crystal weights 
   VCA    =   1.00  1.00  1.00  1.00
   NELECT =     159.0000    total number of electrons
   NUPDOWN=      -1.0000    fix difference up-down

 DOS related values:
   EMIN   =  10.00;   EMAX   =-10.00  energy-range for DOS
   EFERMI =   0.00
   ISMEAR =     0;   SIGMA  =   0.20  broadening in eV -4-tet -1-fermi 0-gaus

 Electronic relaxation 2 (details)
   IALGO  =     38    algorithm
   LDIAG  =      T    sub-space diagonalisation (order eigenvalues)
   LSUBROT=      F    optimize rotation matrix (better conditioning)
   TURBO    =      0    0=normal 1=particle mesh
   IRESTART =      0    0=no restart 2=restart with 2 vectors
   NREBOOT  =      0    no. of reboots
   NMIN     =      0    reboot dimension
   EREF     =   0.00    reference energy to select bands
   IMIX   =      4    mixing-type and parameters
     AMIX     =   0.40;   BMIX     =  1.00
     AMIX_MAG =   1.60;   BMIX_MAG =  1.00
     AMIN     =   0.10
     WC   =   100.;   INIMIX=   1;  MIXPRE=   1;  MAXMIX= -45

 Intra band minimization:
   WEIMIN = 0.0010     energy-eigenvalue tresh-hold
   EBREAK =  0.21E-06  absolut break condition
   DEPER  =   0.30     relativ break condition  

   TIME   =   0.40     timestep for ELM

  volume/ion in A,a.u.               =      97.10       655.29
  Fermi-wavevector in a.u.,A,eV,Ry     =   0.643191  1.215456  5.628665  0.413695
  Thomas-Fermi vector in A             =   1.710110
 
 Write flags
   LWAVE  =      F    write WAVECAR
   LCHARG =      F    write CHGCAR
   LVTOT  =      F    write LOCPOT, total local potential
   LVHAR  =      F    write LOCPOT, Hartree potential only
   LELF   =      F    write electronic localiz. function (ELF)
   LORBIT =      0    0 simple, 1 ext, 2 COOP (PROOUT)


 Dipole corrections
   LMONO  =      F    monopole corrections only (constant potential shift)
   LDIPOL =      F    correct potential (dipole corrections)
   IDIPOL =      0    1-x, 2-y, 3-z, 4-all directions 
   EPSILON=  1.0000000 bulk dielectric constant

 Exchange correlation treatment:
   GGA     =    --    GGA type
   LEXCH   =     8    internal setting for exchange type
   VOSKOWN=      0    Vosko Wilk Nusair interpolation
   LHFCALC =     F    Hartree Fock is set to
   LHFONE  =     F    Hartree Fock one center treatment
   AEXX    =    0.0000 exact exchange contribution

 Linear response parameters
   LEPSILON=     F    determine dielectric tensor
   LRPA    =     F    only Hartree local field effects (RPA)
   LNABLA  =     F    use nabla operator in PAW spheres
   LVEL    =     F    velocity operator in full k-point grid
   LINTERFAST=   F  fast interpolation
   KINTER  =     0    interpolate to denser k-point grid
   CSHIFT  =0.1000    complex shift for real part using Kramers Kronig
   OMEGAMAX=  -1.0    maximum frequency
   DEG_THRESHOLD= 0.2000000E-02 threshold for treating states as degnerate
   RTIME   =    0.100 relaxation time in fs

 Orbital magnetization related:
   ORBITALMAG=     F  switch on orbital magnetization
   LCHIMAG   =     F  perturbation theory with respect to B field
   DQ        =  0.001000  dq finite difference perturbation B field



--------------------------------------------------------------------------------------------------------


 quasi-Newton-method for relaxation of ions
 charge density and potential will be updated during run
 non-spin polarized calculation
 Variant of blocked Davidson
 Davidson routine will perform the subspace rotation
 perform sub-space diagonalisation
    after iterative eigenvector-optimisation
 modified Broyden-mixing scheme, WC =      100.0
 initial mixing is a Kerker type mixing with AMIX =  0.4000 and BMIX =      1.0000
 Hartree-type preconditioning will be used
 using additional bands           40
 reciprocal scheme for non local part
 use partial core corrections
 calculate Harris-corrections to forces 
   (improved forces if not selfconsistent)
 use gradient corrections 
 use of overlap-Matrix (Vanderbilt PP)
 Gauss-broadening in eV      SIGMA  =   0.20


--------------------------------------------------------------------------------------------------------


  energy-cutoff  :      280.00
  volume of cell :     2621.81
      direct lattice vectors                 reciprocal lattice vectors
     8.669999960  5.039999894  0.000000000     0.057670129  0.099206348  0.000000000
    -8.669999821  5.040000133  0.000000000    -0.057670126  0.099206350  0.000000000
     0.000000000  0.000000000 30.000000000     0.000000000  0.000000000  0.033333333

  length of vectors
    10.028484344 10.028484344 30.000000000     0.114750788  0.114750788  0.033333333


 
 k-points in units of 2pi/SCALE and weight: K-POINTS 	#supercell of CrS2 in hexagona
   0.00000000  0.00000000  0.00000000       0.016
   0.00720877  0.01240079  0.00000000       0.031
   0.01441753  0.02480159  0.00000000       0.031
   0.02162630  0.03720238  0.00000000       0.031
   0.02883506  0.04960317  0.00000000       0.016
  -0.00720877  0.01240079  0.00000000       0.031
   0.00000000  0.02480159  0.00000000       0.031
   0.00720877  0.03720238  0.00000000       0.031
   0.01441753  0.04960317  0.00000000       0.031
   0.02162630  0.06200397  0.00000000       0.031
  -0.02883506 -0.02480159  0.00000000       0.031
  -0.02162630 -0.01240079  0.00000000       0.031
  -0.01441753  0.00000000  0.00000000       0.031
  -0.01441753  0.02480159  0.00000000       0.031
  -0.00720877  0.03720238  0.00000000       0.031
   0.00000000  0.04960317  0.00000000       0.031
   0.00720877  0.06200397  0.00000000       0.031
   0.01441753  0.07440476  0.00000000       0.031
  -0.03604383 -0.01240079  0.00000000       0.031
  -0.02883506  0.00000000  0.00000000       0.031
  -0.02162630  0.01240079  0.00000000       0.031
  -0.02162630  0.03720238  0.00000000       0.031
  -0.01441753  0.04960317  0.00000000       0.031
  -0.00720877  0.06200397  0.00000000       0.031
   0.00000000  0.07440476  0.00000000       0.031
   0.00720877  0.08680556  0.00000000       0.031
  -0.04325260  0.00000000  0.00000000       0.031
  -0.03604383  0.01240079  0.00000000       0.031
  -0.02883506  0.02480159  0.00000000       0.031
  -0.02883506  0.04960317  0.00000000       0.016
  -0.02162630  0.06200397  0.00000000       0.031
  -0.01441753  0.07440476  0.00000000       0.031
  -0.00720876  0.08680556  0.00000000       0.031
   0.00000000  0.09920635  0.00000000       0.016
 
 k-points in reciprocal lattice and weights: K-POINTS 	#supercell of CrS2 in hexagona
   0.00000000  0.00000000  0.00000000       0.016
   0.12500000  0.00000000  0.00000000       0.031
   0.25000000  0.00000000  0.00000000       0.031
   0.37500000  0.00000000  0.00000000       0.031
   0.50000000  0.00000000  0.00000000       0.016
   0.00000000  0.12500000  0.00000000       0.031
   0.12500000  0.12500000  0.00000000       0.031
   0.25000000  0.12500000  0.00000000       0.031
   0.37500000  0.12500000  0.00000000       0.031
   0.50000000  0.12500000  0.00000000       0.031
  -0.37500000  0.12500000  0.00000000       0.031
  -0.25000000  0.12500000  0.00000000       0.031
  -0.12500000  0.12500000  0.00000000       0.031
   0.00000000  0.25000000  0.00000000       0.031
   0.12500000  0.25000000  0.00000000       0.031
   0.25000000  0.25000000  0.00000000       0.031
   0.37500000  0.25000000  0.00000000       0.031
   0.50000000  0.25000000  0.00000000       0.031
  -0.37500000  0.25000000  0.00000000       0.031
  -0.25000000  0.25000000  0.00000000       0.031
  -0.12500000  0.25000000  0.00000000       0.031
  -0.00000000  0.37500000  0.00000000       0.031
   0.12500000  0.37500000  0.00000000       0.031
   0.25000000  0.37500000  0.00000000       0.031
   0.37500000  0.37500000  0.00000000       0.031
   0.50000000  0.37500000  0.00000000       0.031
  -0.37500000  0.37500000  0.00000000       0.031
  -0.25000000  0.37500000  0.00000000       0.031
  -0.12500000  0.37500000  0.00000000       0.031
   0.00000000  0.50000000  0.00000000       0.016
   0.12500000  0.50000000  0.00000000       0.031
   0.25000000  0.50000000  0.00000000       0.031
   0.37500000  0.50000000  0.00000000       0.031
   0.50000000  0.50000000  0.00000000       0.016
 
 position of ions in fractional coordinates (direct lattice) 
   0.33333334  0.33333334  0.00000000
   1.00000000  0.33333334  0.00000000
   0.66666669  0.00000000  0.00000000
   0.33333334  0.00000000  0.00000000
   0.00000000  0.66666669  0.00000000
   0.66666669  0.33333334  0.00000000
   0.00000000  0.00000000  0.00000000
   0.33333334  0.66666669  0.00000000
   0.66666669  0.66666669  0.00000000
   0.11068511  0.22244981  0.95539999
   0.22244981  0.11068511  0.04460000
   0.11068511  0.55578315  0.95539999
   0.22244981  0.44401845  0.04460000
   0.11068511  0.88911647  0.95539999
   0.22244981  0.77735180  0.04460000
   0.44401845  0.22244981  0.95539999
   0.55578315  0.11068511  0.04460000
   0.44401845  0.55578315  0.95539999
   0.55578315  0.44401845  0.04460000
   0.44401845  0.88911647  0.95539999
   0.55578315  0.77735180  0.04460000
   0.77735180  0.22244981  0.95539999
   0.88911647  0.11068511  0.04460000
   0.77735180  0.55578315  0.95539999
   0.88911647  0.44401845  0.04460000
   0.77735180  0.88911647  0.95539999
   0.88911647  0.77735180  0.04460000
 
 position of ions in cartesian coordinates  (Angst):
   0.00000005  3.36000011  0.00000000
   5.77999993  6.71999999  0.00000000
   5.78000015  3.36000003  0.00000000
   2.89000007  1.68000002  0.00000000
  -5.78000005  3.36000019  0.00000000
   2.89000012  5.04000012  0.00000000
   0.00000000  0.00000000  0.00000000
  -2.88999998  5.04000020  0.00000000
   0.00000009  6.72000022  0.00000000
  -0.96899991  1.67900001 28.66199970
   0.96899995  1.67899998  1.33799996
  -3.85899993  3.35900011 28.66199970
  -1.92100007  3.35900008  1.33799996
  -6.74899970  5.03900005 28.66199970
  -4.81100010  5.03900017  1.33799996
   1.92100017  3.35900003 28.66199970
   3.85900003  3.35900000  1.33799996
  -0.96899986  5.03900012 28.66199970
   0.96900000  5.03900009  1.33799996
  -3.85899963  6.71900006 28.66199970
  -1.92100003  6.71900019  1.33799996
   4.81100024  5.03900004 28.66199970
   6.74899984  5.03899987  1.33799996
   1.92100021  6.71900014 28.66199970
   3.85899981  6.71899996  1.33799996
  -0.96899956  8.39900008 28.66199970
   0.96899979  8.39900005  1.33799996
 


--------------------------------------------------------------------------------------------------------


 k-point  1 :   0.0000 0.0000 0.0000  plane waves:   27959
 k-point  2 :   0.1250 0.0000 0.0000  plane waves:   27889
 k-point  3 :   0.2500 0.0000 0.0000  plane waves:   27875
 k-point  4 :   0.3750 0.0000 0.0000  plane waves:   27893
 k-point  5 :   0.5000 0.0000 0.0000  plane waves:   27932
 k-point  6 :   0.0000 0.1250 0.0000  plane waves:   27889
 k-point  7 :   0.1250 0.1250 0.0000  plane waves:   27906
 k-point  8 :   0.2500 0.1250 0.0000  plane waves:   27898
 k-point  9 :   0.3750 0.1250 0.0000  plane waves:   27888
 k-point 10 :   0.5000 0.1250 0.0000  plane waves:   27873
 k-point 11 :  -0.3750 0.1250 0.0000  plane waves:   27874
 k-point 12 :  -0.2500 0.1250 0.0000  plane waves:   27895
 k-point 13 :  -0.1250 0.1250 0.0000  plane waves:   27879
 k-point 14 :   0.0000 0.2500 0.0000  plane waves:   27875
 k-point 15 :   0.1250 0.2500 0.0000  plane waves:   27898
 k-point 16 :   0.2500 0.2500 0.0000  plane waves:   27920
 k-point 17 :   0.3750 0.2500 0.0000  plane waves:   27901
 k-point 18 :   0.5000 0.2500 0.0000  plane waves:   27875
 k-point 19 :  -0.3750 0.2500 0.0000  plane waves:   27894
 k-point 20 :  -0.2500 0.2500 0.0000  plane waves:   27870
 k-point 21 :  -0.1250 0.2500 0.0000  plane waves:   27895
 k-point 22 :  -0.0000 0.3750 0.0000  plane waves:   27893
 k-point 23 :   0.1250 0.3750 0.0000  plane waves:   27888
 k-point 24 :   0.2500 0.3750 0.0000  plane waves:   27901
 k-point 25 :   0.3750 0.3750 0.0000  plane waves:   27860
 k-point 26 :   0.5000 0.3750 0.0000  plane waves:   27895
 k-point 27 :  -0.3750 0.3750 0.0000  plane waves:   27858
 k-point 28 :  -0.2500 0.3750 0.0000  plane waves:   27894
 k-point 29 :  -0.1250 0.3750 0.0000  plane waves:   27874
 k-point 30 :   0.0000 0.5000 0.0000  plane waves:   27932
 k-point 31 :   0.1250 0.5000 0.0000  plane waves:   27873
 k-point 32 :   0.2500 0.5000 0.0000  plane waves:   27875
 k-point 33 :   0.3750 0.5000 0.0000  plane waves:   27895
 k-point 34 :   0.5000 0.5000 0.0000  plane waves:   27910

 maximum and minimum number of plane-waves per node :     27959    27858

 maximum number of plane-waves:     27959
 maximum index in each direction: 
   IXMAX=   14   IYMAX=   13   IZMAX=   40
   IXMIN=  -14   IYMIN=  -14   IZMIN=  -40

 WARNING: aliasing errors must be expected set NGX to  58 to avoid them
 WARNING: aliasing errors must be expected set NGY to  56 to avoid them
 WARNING: aliasing errors must be expected set NGZ to 162 to avoid them
 aliasing errors are usually negligible using standard VASP settings
 and one can safely disregard these warnings

 serial   3D FFT for wavefunctions

 total amount of memory used by VASP on root node   650782. kBytes
========================================================================

   base      :      30000. kBytes
   nonl-proj :     559647. kBytes
   fftplans  :       2414. kBytes
   grid      :      12150. kBytes
   one-center:        419. kBytes
   wavefun   :      46152. kBytes
 
     INWAV:  cpu time    0.0000: real time    0.0000
 Broyden mixing: mesh for mixing (old mesh)
   NGX = 27   NGY = 27   NGZ = 81
  (NGX  = 84   NGY  = 84   NGZ  =252)
  gives a total of  59049 points

 initial charge density was supplied:
 charge density of overlapping atoms calculated
 number of electron     159.0000000 magnetization 
 keeping initial charge density in first step


--------------------------------------------------------------------------------------------------------


 Maximum index for augmentation-charges          140 (set IRDMAX)


--------------------------------------------------------------------------------------------------------


 First call to EWALD:  gamma=   0.129
 Maximum number of real-space cells 4x 4x 2
 Maximum number of reciprocal cells 2x 2x 5

 FEWALD executed in parallel
    FEWALD:  cpu time    0.0016: real time    0.0016


----------------------------------------- Iteration    1(   1)  ---------------------------------------


    POTLOK:  cpu time    0.0379: real time    0.0381
    SETDIJ:  cpu time    0.0031: real time    0.0032
     EDDAV:  cpu time   21.9422: real time   22.0004
       DOS:  cpu time    0.0015: real time    0.0017
    --------------------------------------------
      LOOP:  cpu time   21.9907: real time   22.0510

 eigenvalue-minimisations  :  8160
 total energy-change (2. order) : 0.1124166E+04  (-0.3586872E+04)
 number of electron     159.0000000 magnetization 
 augmentation part      159.0000000 magnetization 

 Free energy of the ion-electron system (eV)
  ---------------------------------------------------
  alpha Z        PSCENC =        81.65567618
  Ewald energy   TEWEN  =     41890.23011097
  -Hartree energ DENC   =    -47722.85863119
  -exchange      EXHF   =         0.00000000
  -V(xc)+E(xc)   XCENC  =      -242.92963144
  PAW double counting   =      3467.42045192    -2871.19716117
  entropy T*S    EENTRO =        -0.52295468
  eigenvalues    EBANDS =      -239.07484236
  atomic energy  EATOM  =      6761.44252427
  Solvation  Ediel_sol  =         0.00000000
  ---------------------------------------------------
  free energy    TOTEN  =      1124.16554250 eV

  energy without entropy =     1124.68849718  energy(sigma->0) =     1124.42701984


--------------------------------------------------------------------------------------------------------




----------------------------------------- Iteration    1(   2)  ---------------------------------------


     EDDAV:  cpu time   28.0356: real time   28.1033
       DOS:  cpu time    0.0000: real time    0.0009
    --------------------------------------------
      LOOP:  cpu time   28.0375: real time   28.1106

 eigenvalue-minimisations  : 11040
 total energy-change (2. order) :-0.1124642E+04  (-0.1081292E+04)
 number of electron     159.0000000 magnetization 
 augmentation part      159.0000000 magnetization 

 Free energy of the ion-electron system (eV)
  ---------------------------------------------------
  alpha Z        PSCENC =        81.65567618
  Ewald energy   TEWEN  =     41890.23011097
  -Hartree energ DENC   =    -47722.85863119
  -exchange      EXHF   =         0.00000000
  -V(xc)+E(xc)   XCENC  =      -242.92963144
  PAW double counting   =      3467.42045192    -2871.19716117
  entropy T*S    EENTRO =        -0.18045975
  eigenvalues    EBANDS =     -1364.05898481
  atomic energy  EATOM  =      6761.44252427
  Solvation  Ediel_sol  =         0.00000000
  ---------------------------------------------------
  free energy    TOTEN  =        -0.47610502 eV

  energy without entropy =       -0.29564527  energy(sigma->0) =       -0.38587514


--------------------------------------------------------------------------------------------------------




----------------------------------------- Iteration    1(   3)  ---------------------------------------


     EDDAV:  cpu time   27.8149: real time   27.8829
       DOS:  cpu time    0.0010: real time    0.0010
    --------------------------------------------
      LOOP:  cpu time   27.8180: real time   27.8908

 eigenvalue-minimisations  : 10920
 total energy-change (2. order) :-0.1991055E+03  (-0.1909415E+03)
 number of electron     159.0000000 magnetization 
 augmentation part      159.0000000 magnetization 

 Free energy of the ion-electron system (eV)
  ---------------------------------------------------
  alpha Z        PSCENC =        81.65567618
  Ewald energy   TEWEN  =     41890.23011097
  -Hartree energ DENC   =    -47722.85863119
  -exchange      EXHF   =         0.00000000
  -V(xc)+E(xc)   XCENC  =      -242.92963144
  PAW double counting   =      3467.42045192    -2871.19716117
  entropy T*S    EENTRO =        -0.26912747
  eigenvalues    EBANDS =     -1563.07579982
  atomic energy  EATOM  =      6761.44252427
  Solvation  Ediel_sol  =         0.00000000
  ---------------------------------------------------
  free energy    TOTEN  =      -199.58158775 eV

  energy without entropy =     -199.31246028  energy(sigma->0) =     -199.44702401


--------------------------------------------------------------------------------------------------------




----------------------------------------- Iteration    1(   4)  ---------------------------------------


     EDDAV:  cpu time   29.8004: real time   29.8715
       DOS:  cpu time    0.0002: real time    0.0010
    --------------------------------------------
      LOOP:  cpu time   29.8024: real time   29.8794

 eigenvalue-minimisations  : 11880
 total energy-change (2. order) :-0.9331861E+01  (-0.9016820E+01)
 number of electron     159.0000000 magnetization 
 augmentation part      159.0000000 magnetization 

 Free energy of the ion-electron system (eV)
  ---------------------------------------------------
  alpha Z        PSCENC =        81.65567618
  Ewald energy   TEWEN  =     41890.23011097
  -Hartree energ DENC   =    -47722.85863119
  -exchange      EXHF   =         0.00000000
  -V(xc)+E(xc)   XCENC  =      -242.92963144
  PAW double counting   =      3467.42045192    -2871.19716117
  entropy T*S    EENTRO =        -0.29812079
  eigenvalues    EBANDS =     -1572.37866754
  atomic energy  EATOM  =      6761.44252427
  Solvation  Ediel_sol  =         0.00000000
  ---------------------------------------------------
  free energy    TOTEN  =      -208.91344879 eV

  energy without entropy =     -208.61532800  energy(sigma->0) =     -208.76438840


--------------------------------------------------------------------------------------------------------




----------------------------------------- Iteration    1(   5)  ---------------------------------------


     EDDAV:  cpu time   28.8749: real time   28.9447
       DOS:  cpu time    0.0011: real time    0.0011
    CHARGE:  cpu time    0.4642: real time    0.4653
    MIXING:  cpu time    0.0019: real time    0.0021
    --------------------------------------------
      LOOP:  cpu time   29.3432: real time   29.4213

 eigenvalue-minimisations  : 11480
 total energy-change (2. order) :-0.3631091E+00  (-0.3621292E+00)
 number of electron     159.0000111 magnetization 
 augmentation part       -9.7938250 magnetization 

 Broyden mixing:
  rms(total) = 0.27468E+01    rms(broyden)= 0.27464E+01
  rms(prec ) = 0.29321E+01
  weight for this iteration     100.00

 Free energy of the ion-electron system (eV)
  ---------------------------------------------------
  alpha Z        PSCENC =        81.65567618
  Ewald energy   TEWEN  =     41890.23011097
  -Hartree energ DENC   =    -47722.85863119
  -exchange      EXHF   =         0.00000000
  -V(xc)+E(xc)   XCENC  =      -242.92963144
  PAW double counting   =      3467.42045192    -2871.19716117
  entropy T*S    EENTRO =        -0.29461834
  eigenvalues    EBANDS =     -1572.74527906
  atomic energy  EATOM  =      6761.44252427
  Solvation  Ediel_sol  =         0.00000000
  ---------------------------------------------------
  free energy    TOTEN  =      -209.27655786 eV

  energy without entropy =     -208.98193952  energy(sigma->0) =     -209.12924869


--------------------------------------------------------------------------------------------------------




----------------------------------------- Iteration    1(   6)  ---------------------------------------


    POTLOK:  cpu time    0.0345: real time    0.0345
    SETDIJ:  cpu time    0.0027: real time    0.0027
     EDDAV:  cpu time   31.2970: real time   31.3724
       DOS:  cpu time    0.0010: real time    0.0010
    CHARGE:  cpu time    0.4613: real time    0.4632
    MIXING:  cpu time    0.0022: real time    0.0120
    --------------------------------------------
      LOOP:  cpu time   31.8004: real time   31.8949

 eigenvalue-minimisations  : 12640
 total energy-change (2. order) :-0.2788730E+02  (-0.1078710E+02)
 number of electron     159.0000106 magnetization 
 augmentation part        7.0898068 magnetization 

 Broyden mixing:
  rms(total) = 0.59393E+01    rms(broyden)= 0.59386E+01
  rms(prec ) = 0.65209E+01
  weight for this iteration     100.00

 eigenvalues of (default mixing * dielectric matrix)
  average eigenvalue GAMMA=   0.2933
  0.2933

 Free energy of the ion-electron system (eV)
  ---------------------------------------------------
  alpha Z        PSCENC =        81.65567618
  Ewald energy   TEWEN  =     41890.23011097
  -Hartree energ DENC   =    -47701.17188021
  -exchange      EXHF   =         0.00000000
  -V(xc)+E(xc)   XCENC  =      -233.63027742
  PAW double counting   =      3676.43705932    -3082.52694439
  entropy T*S    EENTRO =        -0.27131597
  eigenvalues    EBANDS =     -1629.32881334
  atomic energy  EATOM  =      6761.44252427
  Solvation  Ediel_sol  =         0.00000000
  ---------------------------------------------------
  free energy    TOTEN  =      -237.16386060 eV

  energy without entropy =     -236.89254463  energy(sigma->0) =     -237.02820261


--------------------------------------------------------------------------------------------------------




----------------------------------------- Iteration    1(   7)  ---------------------------------------


    POTLOK:  cpu time    0.0315: real time    0.0316
    SETDIJ:  cpu time    0.0024: real time    0.0024
     EDDAV:  cpu time   32.2274: real time   32.3043
       DOS:  cpu time    0.0001: real time    0.0009
    CHARGE:  cpu time    0.4684: real time    0.4695
    MIXING:  cpu time    0.0012: real time    0.0012
    --------------------------------------------
      LOOP:  cpu time   32.7329: real time   32.8195

 eigenvalue-minimisations  : 13080
 total energy-change (2. order) : 0.4051828E+02  (-0.1777463E+02)
 number of electron     159.0000087 magnetization 
 augmentation part       -6.2257464 magnetization 

 Broyden mixing:
  rms(total) = 0.20371E+01    rms(broyden)= 0.20351E+01
  rms(prec ) = 0.22617E+01
  weight for this iteration     100.00

 eigenvalues of (default mixing * dielectric matrix)
  average eigenvalue GAMMA=   0.5400
  0.8687  0.2112

 Free energy of the ion-electron system (eV)
  ---------------------------------------------------
  alpha Z        PSCENC =        81.65567618
  Ewald energy   TEWEN  =     41890.23011097
  -Hartree energ DENC   =    -47738.70795535
  -exchange      EXHF   =         0.00000000
  -V(xc)+E(xc)   XCENC  =      -235.01316115
  PAW double counting   =      3764.25743058    -3178.30114983
  entropy T*S    EENTRO =        -0.33704387
  eigenvalues    EBANDS =     -1541.87201490
  atomic energy  EATOM  =      6761.44252427
  Solvation  Ediel_sol  =         0.00000000
  ---------------------------------------------------
  free energy    TOTEN  =      -196.64558311 eV

  energy without entropy =     -196.30853923  energy(sigma->0) =     -196.47706117


--------------------------------------------------------------------------------------------------------




----------------------------------------- Iteration    1(   8)  ---------------------------------------


    POTLOK:  cpu time    0.0325: real time    0.0328
    SETDIJ:  cpu time    0.0024: real time    0.0024
     EDDAV:  cpu time   29.5662: real time   29.6374
       DOS:  cpu time    0.0011: real time    0.0011
    CHARGE:  cpu time    0.4735: real time    0.4746
    MIXING:  cpu time    0.0013: real time    0.0133
    --------------------------------------------
      LOOP:  cpu time   30.0783: real time   30.1715

 eigenvalue-minimisations  : 11800
 total energy-change (2. order) : 0.6530281E+01  (-0.2049759E+01)
 number of electron     159.0000095 magnetization 
 augmentation part       -6.4024927 magnetization 

 Broyden mixing:
  rms(total) = 0.13756E+01    rms(broyden)= 0.13751E+01
  rms(prec ) = 0.14866E+01
  weight for this iteration     100.00

 eigenvalues of (default mixing * dielectric matrix)
  average eigenvalue GAMMA=   0.5259
  1.0477  0.2650  0.2650

 Free energy of the ion-electron system (eV)
  ---------------------------------------------------
  alpha Z        PSCENC =        81.65567618
  Ewald energy   TEWEN  =     41890.23011097
  -Hartree energ DENC   =    -47761.58880371
  -exchange      EXHF   =         0.00000000
  -V(xc)+E(xc)   XCENC  =      -235.04883523
  PAW double counting   =      3902.87247618    -3318.46793352
  entropy T*S    EENTRO =        -0.26823972
  eigenvalues    EBANDS =     -1510.94227754
  atomic energy  EATOM  =      6761.44252427
  Solvation  Ediel_sol  =         0.00000000
  ---------------------------------------------------
  free energy    TOTEN  =      -190.11530212 eV

  energy without entropy =     -189.84706240  energy(sigma->0) =     -189.98118226


--------------------------------------------------------------------------------------------------------




----------------------------------------- Iteration    1(   9)  ---------------------------------------


    POTLOK:  cpu time    0.0309: real time    0.0310
    SETDIJ:  cpu time    0.0023: real time    0.0024
     EDDAV:  cpu time   30.3617: real time   30.4342
       DOS:  cpu time    0.0010: real time    0.0010
    CHARGE:  cpu time    0.4865: real time    0.4876
    MIXING:  cpu time    0.0012: real time    0.0012
    --------------------------------------------
      LOOP:  cpu time   30.8846: real time   30.9664

 eigenvalue-minimisations  : 12160
 total energy-change (2. order) : 0.1803846E+01  (-0.3509803E+00)
 number of electron     159.0000094 magnetization 
 augmentation part       -5.7270452 magnetization 

 Broyden mixing:
  rms(total) = 0.93897E+00    rms(broyden)= 0.93854E+00
  rms(prec ) = 0.10105E+01
  weight for this iteration     100.00

 eigenvalues of (default mixing * dielectric matrix)
  average eigenvalue GAMMA=   0.6942
  1.7037  0.5733  0.2198  0.2801

 Free energy of the ion-electron system (eV)
  ---------------------------------------------------
  alpha Z        PSCENC =        81.65567618
  Ewald energy   TEWEN  =     41890.23011097
  -Hartree energ DENC   =    -47765.63204755
  -exchange      EXHF   =         0.00000000
  -V(xc)+E(xc)   XCENC  =      -234.37005409
  PAW double counting   =      3960.94407023    -3377.25448324
  entropy T*S    EENTRO =        -0.32727203
  eigenvalues    EBANDS =     -1504.99998118
  atomic energy  EATOM  =      6761.44252427
  Solvation  Ediel_sol  =         0.00000000
  ---------------------------------------------------
  free energy    TOTEN  =      -188.31145644 eV

  energy without entropy =     -187.98418441  energy(sigma->0) =     -188.14782043


--------------------------------------------------------------------------------------------------------




----------------------------------------- Iteration    1(  10)  ---------------------------------------


    POTLOK:  cpu time    0.0325: real time    0.0326
    SETDIJ:  cpu time    0.0024: real time    0.0025
     EDDAV:  cpu time   32.9500: real time   33.0294
       DOS:  cpu time    0.0010: real time    0.0010
    CHARGE:  cpu time    0.4949: real time    0.4961
    MIXING:  cpu time    0.0013: real time    0.0013
    --------------------------------------------
      LOOP:  cpu time   33.4834: real time   33.5719

 eigenvalue-minimisations  : 13400
 total energy-change (2. order) : 0.1177326E+01  (-0.1781325E+00)
 number of electron     159.0000092 magnetization 
 augmentation part       -4.4098618 magnetization 

 Broyden mixing:
  rms(total) = 0.34819E+00    rms(broyden)= 0.34787E+00
  rms(prec ) = 0.38103E+00
  weight for this iteration     100.00

 eigenvalues of (default mixing * dielectric matrix)
  average eigenvalue GAMMA=   0.6926
  1.8677  0.6121  0.5013  0.2243  0.2577

 Free energy of the ion-electron system (eV)
  ---------------------------------------------------
  alpha Z        PSCENC =        81.65567618
  Ewald energy   TEWEN  =     41890.23011097
  -Hartree energ DENC   =    -47777.84662357
  -exchange      EXHF   =         0.00000000
  -V(xc)+E(xc)   XCENC  =      -232.75477968
  PAW double counting   =      4088.70799442    -3506.65631018
  entropy T*S    EENTRO =        -0.34128838
  eigenvalues    EBANDS =     -1491.57143455
  atomic energy  EATOM  =      6761.44252427
  Solvation  Ediel_sol  =         0.00000000
  ---------------------------------------------------
  free energy    TOTEN  =      -187.13413052 eV

  energy without entropy =     -186.79284213  energy(sigma->0) =     -186.96348632


--------------------------------------------------------------------------------------------------------




----------------------------------------- Iteration    1(  11)  ---------------------------------------


    POTLOK:  cpu time    0.0323: real time    0.0324
    SETDIJ:  cpu time    0.0023: real time    0.0023
     EDDAV:  cpu time   31.1917: real time   31.2661
       DOS:  cpu time    0.0010: real time    0.0010
    CHARGE:  cpu time    0.4971: real time    0.4983
    MIXING:  cpu time    0.0013: real time    0.0013
    --------------------------------------------
      LOOP:  cpu time   31.7267: real time   31.8107

 eigenvalue-minimisations  : 12560
 total energy-change (2. order) : 0.1245311E+00  (-0.6763312E-01)
 number of electron     159.0000092 magnetization 
 augmentation part       -4.2822409 magnetization 

 Broyden mixing:
  rms(total) = 0.23473E+00    rms(broyden)= 0.23435E+00
  rms(prec ) = 0.25744E+00
  weight for this iteration     100.00

 eigenvalues of (default mixing * dielectric matrix)
  average eigenvalue GAMMA=   0.8674
  1.9158  1.9158  0.6151  0.2875  0.2219  0.2480

 Free energy of the ion-electron system (eV)
  ---------------------------------------------------
  alpha Z        PSCENC =        81.65567618
  Ewald energy   TEWEN  =     41890.23011097
  -Hartree energ DENC   =    -47783.80186919
  -exchange      EXHF   =         0.00000000
  -V(xc)+E(xc)   XCENC  =      -232.40189958
  PAW double counting   =      4126.05909219    -3544.31666847
  entropy T*S    EENTRO =        -0.34860839
  eigenvalues    EBANDS =     -1485.52795736
  atomic energy  EATOM  =      6761.44252427
  Solvation  Ediel_sol  =         0.00000000
  ---------------------------------------------------
  free energy    TOTEN  =      -187.00959938 eV

  energy without entropy =     -186.66099099  energy(sigma->0) =     -186.83529518


--------------------------------------------------------------------------------------------------------




----------------------------------------- Iteration    1(  12)  ---------------------------------------


    POTLOK:  cpu time    0.0365: real time    0.0366
    SETDIJ:  cpu time    0.0024: real time    0.0025
     EDDAV:  cpu time   31.7718: real time   31.8483
       DOS:  cpu time    0.0011: real time    0.0011
    CHARGE:  cpu time    0.4983: real time    0.4995
    MIXING:  cpu time    0.0014: real time    0.0014
    --------------------------------------------
      LOOP:  cpu time   32.3125: real time   32.3926

 eigenvalue-minimisations  : 12840
 total energy-change (2. order) :-0.8845230E-02  (-0.4510629E-01)
 number of electron     159.0000089 magnetization 
 augmentation part       -4.4688050 magnetization 

 Broyden mixing:
  rms(total) = 0.33138E+00    rms(broyden)= 0.33128E+00
  rms(prec ) = 0.36723E+00
  weight for this iteration     100.00

 eigenvalues of (default mixing * dielectric matrix)
  average eigenvalue GAMMA=   0.7965
  1.9938  1.9938  0.6171  0.2761  0.2761  0.2139  0.2043

 Free energy of the ion-electron system (eV)
  ---------------------------------------------------
  alpha Z        PSCENC =        81.65567618
  Ewald energy   TEWEN  =     41890.23011097
  -Hartree energ DENC   =    -47796.74096387
  -exchange      EXHF   =         0.00000000
  -V(xc)+E(xc)   XCENC  =      -232.07309847
  PAW double counting   =      4179.84927985    -3598.07788294
  entropy T*S    EENTRO =        -0.33402496
  eigenvalues    EBANDS =     -1472.97006563
  atomic energy  EATOM  =      6761.44252427
  Solvation  Ediel_sol  =         0.00000000
  ---------------------------------------------------
  free energy    TOTEN  =      -187.01844461 eV

  energy without entropy =     -186.68441965  energy(sigma->0) =     -186.85143213


--------------------------------------------------------------------------------------------------------




----------------------------------------- Iteration    1(  13)  ---------------------------------------


    POTLOK:  cpu time    0.0316: real time    0.0319
    SETDIJ:  cpu time    0.0025: real time    0.0025
     EDDAV:  cpu time   32.5299: real time   32.6076
       DOS:  cpu time    0.0010: real time    0.0010
    CHARGE:  cpu time    0.5015: real time    0.5027
    MIXING:  cpu time    0.0014: real time    0.0014
    --------------------------------------------
      LOOP:  cpu time   33.0691: real time   33.1564

 eigenvalue-minimisations  : 13240
 total energy-change (2. order) : 0.8884032E-01  (-0.2568144E-01)
 number of electron     159.0000089 magnetization 
 augmentation part       -4.4087625 magnetization 

 Broyden mixing:
  rms(total) = 0.19064E+00    rms(broyden)= 0.19049E+00
  rms(prec ) = 0.21130E+00
  weight for this iteration     100.00

 eigenvalues of (default mixing * dielectric matrix)
  average eigenvalue GAMMA=   0.7796
  2.2851  1.7044  0.7493  0.5901  0.2993  0.2246  0.2409  0.1433

 Free energy of the ion-electron system (eV)
  ---------------------------------------------------
  alpha Z        PSCENC =        81.65567618
  Ewald energy   TEWEN  =     41890.23011097
  -Hartree energ DENC   =    -47799.23377597
  -exchange      EXHF   =         0.00000000
  -V(xc)+E(xc)   XCENC  =      -231.98855952
  PAW double counting   =      4187.66703018    -3605.88548559
  entropy T*S    EENTRO =        -0.33638229
  eigenvalues    EBANDS =     -1470.48074252
  atomic energy  EATOM  =      6761.44252427
  Solvation  Ediel_sol  =         0.00000000
  ---------------------------------------------------
  free energy    TOTEN  =      -186.92960429 eV

  energy without entropy =     -186.59322199  energy(sigma->0) =     -186.76141314


--------------------------------------------------------------------------------------------------------




----------------------------------------- Iteration    1(  14)  ---------------------------------------


    POTLOK:  cpu time    0.0312: real time    0.0313
    SETDIJ:  cpu time    0.0023: real time    0.0024
     EDDAV:  cpu time   32.0214: real time   32.0985
       DOS:  cpu time    0.0002: real time    0.0010
    CHARGE:  cpu time    0.4987: real time    0.4999
    MIXING:  cpu time    0.0015: real time    0.0015
    --------------------------------------------
      LOOP:  cpu time   32.5572: real time   32.6442

 eigenvalue-minimisations  : 12960
 total energy-change (2. order) : 0.2933582E-01  (-0.1053209E-01)
 number of electron     159.0000089 magnetization 
 augmentation part       -4.1698799 magnetization 

 Broyden mixing:
  rms(total) = 0.90782E-01    rms(broyden)= 0.90640E-01
  rms(prec ) = 0.10239E+00
  weight for this iteration     100.00

 eigenvalues of (default mixing * dielectric matrix)
  average eigenvalue GAMMA=   0.7427
  2.2881  1.6427  0.9859  0.5989  0.3003  0.2733  0.2290  0.2290  0.1375

 Free energy of the ion-electron system (eV)
  ---------------------------------------------------
  alpha Z        PSCENC =        81.65567618
  Ewald energy   TEWEN  =     41890.23011097
  -Hartree energ DENC   =    -47802.59755152
  -exchange      EXHF   =         0.00000000
  -V(xc)+E(xc)   XCENC  =      -231.87269874
  PAW double counting   =      4192.46788174    -3610.65988028
  entropy T*S    EENTRO =        -0.34101324
  eigenvalues    EBANDS =     -1467.22531785
  atomic energy  EATOM  =      6761.44252427
  Solvation  Ediel_sol  =         0.00000000
  ---------------------------------------------------
  free energy    TOTEN  =      -186.90026847 eV

  energy without entropy =     -186.55925523  energy(sigma->0) =     -186.72976185


--------------------------------------------------------------------------------------------------------




----------------------------------------- Iteration    1(  15)  ---------------------------------------


    POTLOK:  cpu time    0.0311: real time    0.0312
    SETDIJ:  cpu time    0.0025: real time    0.0025
     EDDAV:  cpu time   30.3118: real time   30.3842
       DOS:  cpu time    0.0010: real time    0.0010
    CHARGE:  cpu time    0.4980: real time    0.4992
    MIXING:  cpu time    0.0017: real time    0.0017
    --------------------------------------------
      LOOP:  cpu time   30.8472: real time   30.9293

 eigenvalue-minimisations  : 12160
 total energy-change (2. order) : 0.6112125E-02  (-0.3814893E-02)
 number of electron     159.0000090 magnetization 
 augmentation part       -4.1167320 magnetization 

 Broyden mixing:
  rms(total) = 0.89128E-01    rms(broyden)= 0.89058E-01
  rms(prec ) = 0.98834E-01
  weight for this iteration     100.00

 eigenvalues of (default mixing * dielectric matrix)
  average eigenvalue GAMMA=   0.7011
  2.2881  1.6381  1.0930  0.5967  0.3502  0.3031  0.2279  0.2337  0.1477  0.1325

 Free energy of the ion-electron system (eV)
  ---------------------------------------------------
  alpha Z        PSCENC =        81.65567618
  Ewald energy   TEWEN  =     41890.23011097
  -Hartree energ DENC   =    -47804.88765464
  -exchange      EXHF   =         0.00000000
  -V(xc)+E(xc)   XCENC  =      -231.83671965
  PAW double counting   =      4192.80420914    -3610.96684089
  entropy T*S    EENTRO =        -0.34322946
  eigenvalues    EBANDS =     -1464.99223226
  atomic energy  EATOM  =      6761.44252427
  Solvation  Ediel_sol  =         0.00000000
  ---------------------------------------------------
  free energy    TOTEN  =      -186.89415634 eV

  energy without entropy =     -186.55092689  energy(sigma->0) =     -186.72254161


--------------------------------------------------------------------------------------------------------




----------------------------------------- Iteration    1(  16)  ---------------------------------------


    POTLOK:  cpu time    0.0311: real time    0.0314
    SETDIJ:  cpu time    0.0024: real time    0.0024
     EDDAV:  cpu time   32.0167: real time   32.0938
       DOS:  cpu time    0.0010: real time    0.0010
    CHARGE:  cpu time    0.4947: real time    0.4959
    MIXING:  cpu time    0.0017: real time    0.0017
    --------------------------------------------
      LOOP:  cpu time   32.5487: real time   32.6351

 eigenvalue-minimisations  : 12960
 total energy-change (2. order) : 0.4385499E-02  (-0.1433001E-02)
 number of electron     159.0000090 magnetization 
 augmentation part       -4.1299013 magnetization 

 Broyden mixing:
  rms(total) = 0.49937E-01    rms(broyden)= 0.49906E-01
  rms(prec ) = 0.56312E-01
  weight for this iteration     100.00

 eigenvalues of (default mixing * dielectric matrix)
  average eigenvalue GAMMA=   0.7657
  2.3714  1.9229  1.5114  0.6978  0.6207  0.3085  0.2678  0.2246  0.2401  0.1393
  0.1183

 Free energy of the ion-electron system (eV)
  ---------------------------------------------------
  alpha Z        PSCENC =        81.65567618
  Ewald energy   TEWEN  =     41890.23011097
  -Hartree energ DENC   =    -47806.20974104
  -exchange      EXHF   =         0.00000000
  -V(xc)+E(xc)   XCENC  =      -231.81956039
  PAW double counting   =      4193.10455013    -3611.25286782
  entropy T*S    EENTRO =        -0.34326939
  eigenvalues    EBANDS =     -1463.69719375
  atomic energy  EATOM  =      6761.44252427
  Solvation  Ediel_sol  =         0.00000000
  ---------------------------------------------------
  free energy    TOTEN  =      -186.88977084 eV

  energy without entropy =     -186.54650146  energy(sigma->0) =     -186.71813615


--------------------------------------------------------------------------------------------------------




----------------------------------------- Iteration    1(  17)  ---------------------------------------


    POTLOK:  cpu time    0.0307: real time    0.0308
    SETDIJ:  cpu time    0.0025: real time    0.0025
     EDDAV:  cpu time   31.3994: real time   31.4750
       DOS:  cpu time    0.0010: real time    0.0010
    CHARGE:  cpu time    0.5006: real time    0.5018
    MIXING:  cpu time    0.0019: real time    0.0019
    --------------------------------------------
      LOOP:  cpu time   31.9370: real time   32.0223

 eigenvalue-minimisations  : 12720
 total energy-change (2. order) : 0.2711877E-02  (-0.7325477E-03)
 number of electron     159.0000090 magnetization 
 augmentation part       -4.1929549 magnetization 

 Broyden mixing:
  rms(total) = 0.17535E-01    rms(broyden)= 0.17472E-01
  rms(prec ) = 0.21486E-01
  weight for this iteration     100.00

 eigenvalues of (default mixing * dielectric matrix)
  average eigenvalue GAMMA=   0.7793
  2.3443  2.3443  1.4392  0.8580  0.6037  0.4727  0.3089  0.2240  0.2559  0.2437
  0.1393  0.1177

 Free energy of the ion-electron system (eV)
  ---------------------------------------------------
  alpha Z        PSCENC =        81.65567618
  Ewald energy   TEWEN  =     41890.23011097
  -Hartree energ DENC   =    -47811.79585232
  -exchange      EXHF   =         0.00000000
  -V(xc)+E(xc)   XCENC  =      -231.74696139
  PAW double counting   =      4194.69777036    -3612.78688195
  entropy T*S    EENTRO =        -0.34133214
  eigenvalues    EBANDS =     -1458.24211293
  atomic energy  EATOM  =      6761.44252427
  Solvation  Ediel_sol  =         0.00000000
  ---------------------------------------------------
  free energy    TOTEN  =      -186.88705897 eV

  energy without entropy =     -186.54572682  energy(sigma->0) =     -186.71639289


--------------------------------------------------------------------------------------------------------




----------------------------------------- Iteration    1(  18)  ---------------------------------------


    POTLOK:  cpu time    0.0305: real time    0.0317
    SETDIJ:  cpu time    0.0024: real time    0.0024
     EDDAV:  cpu time   29.6378: real time   29.7090
       DOS:  cpu time    0.0010: real time    0.0010
    CHARGE:  cpu time    0.4993: real time    0.5005
    MIXING:  cpu time    0.0019: real time    0.0019
    --------------------------------------------
      LOOP:  cpu time   30.1751: real time   30.2555

 eigenvalue-minimisations  : 11840
 total energy-change (2. order) : 0.5377791E-03  (-0.2028254E-03)
 number of electron     159.0000090 magnetization 
 augmentation part       -4.2079661 magnetization 

 Broyden mixing:
  rms(total) = 0.17692E-01    rms(broyden)= 0.17682E-01
  rms(prec ) = 0.20544E-01
  weight for this iteration     100.00

 eigenvalues of (default mixing * dielectric matrix)
  average eigenvalue GAMMA=   0.7860
  2.3663  2.3663  1.2615  1.2615  0.6740  0.6185  0.3821  0.3066  0.2242  0.2576
  0.2421  0.1393  0.1176

 Free energy of the ion-electron system (eV)
  ---------------------------------------------------
  alpha Z        PSCENC =        81.65567618
  Ewald energy   TEWEN  =     41890.23011097
  -Hartree energ DENC   =    -47815.27417457
  -exchange      EXHF   =         0.00000000
  -V(xc)+E(xc)   XCENC  =      -231.71298744
  PAW double counting   =      4194.96085783    -3613.01642816
  entropy T*S    EENTRO =        -0.34105141
  eigenvalues    EBANDS =     -1454.83104885
  atomic energy  EATOM  =      6761.44252427
  Solvation  Ediel_sol  =         0.00000000
  ---------------------------------------------------
  free energy    TOTEN  =      -186.88652119 eV

  energy without entropy =     -186.54546977  energy(sigma->0) =     -186.71599548


--------------------------------------------------------------------------------------------------------




----------------------------------------- Iteration    1(  19)  ---------------------------------------


    POTLOK:  cpu time    0.0307: real time    0.0310
    SETDIJ:  cpu time    0.0024: real time    0.0024
     EDDAV:  cpu time   27.8066: real time   27.8736
       DOS:  cpu time    0.0002: real time    0.0010
    CHARGE:  cpu time    0.5006: real time    0.5018
    MIXING:  cpu time    0.0018: real time    0.0018
    --------------------------------------------
      LOOP:  cpu time   28.3443: real time   28.4210

 eigenvalue-minimisations  : 11000
 total energy-change (2. order) : 0.2411618E-03  (-0.7901979E-04)
 number of electron     159.0000090 magnetization 
 augmentation part       -4.1832048 magnetization 

 Broyden mixing:
  rms(total) = 0.45483E-02    rms(broyden)= 0.45315E-02
  rms(prec ) = 0.75229E-02
  weight for this iteration     100.00

 eigenvalues of (default mixing * dielectric matrix)
  average eigenvalue GAMMA=   0.8839
  2.6900  2.6900  1.5989  1.4791  0.9983  0.6283  0.6283  0.3736  0.3073  0.2242
  0.2577  0.2421  0.1393  0.1176

 Free energy of the ion-electron system (eV)
  ---------------------------------------------------
  alpha Z        PSCENC =        81.65567618
  Ewald energy   TEWEN  =     41890.23011097
  -Hartree energ DENC   =    -47817.69268402
  -exchange      EXHF   =         0.00000000
  -V(xc)+E(xc)   XCENC  =      -231.69277186
  PAW double counting   =      4194.41063730    -3612.45288390
  entropy T*S    EENTRO =        -0.34157272
  eigenvalues    EBANDS =     -1452.44531625
  atomic energy  EATOM  =      6761.44252427
  Solvation  Ediel_sol  =         0.00000000
  ---------------------------------------------------
  free energy    TOTEN  =      -186.88628002 eV

  energy without entropy =     -186.54470730  energy(sigma->0) =     -186.71549366


--------------------------------------------------------------------------------------------------------




----------------------------------------- Iteration    1(  20)  ---------------------------------------


    POTLOK:  cpu time    0.0319: real time    0.0323
    SETDIJ:  cpu time    0.0025: real time    0.0025
     EDDAV:  cpu time   23.9111: real time   23.9682
       DOS:  cpu time    0.0011: real time    0.0011
    CHARGE:  cpu time    0.4989: real time    0.5001
    MIXING:  cpu time    0.0020: real time    0.0020
    --------------------------------------------
      LOOP:  cpu time   24.4488: real time   24.5147

 eigenvalue-minimisations  :  9160
 total energy-change (2. order) :-0.8975478E-03  (-0.8555647E-04)
 number of electron     159.0000090 magnetization 
 augmentation part       -4.1872727 magnetization 

 Broyden mixing:
  rms(total) = 0.42083E-02    rms(broyden)= 0.42073E-02
  rms(prec ) = 0.56439E-02
  weight for this iteration     100.00

 eigenvalues of (default mixing * dielectric matrix)
  average eigenvalue GAMMA=   0.9204
  3.1217  2.5680  1.8768  1.5116  0.8992  0.8992  0.6335  0.6335  0.3737  0.3073
  0.2242  0.2577  0.2421  0.1393  0.1176

 Free energy of the ion-electron system (eV)
  ---------------------------------------------------
  alpha Z        PSCENC =        81.65567618
  Ewald energy   TEWEN  =     41890.23011097
  -Hartree energ DENC   =    -47824.33732951
  -exchange      EXHF   =         0.00000000
  -V(xc)+E(xc)   XCENC  =      -231.63626290
  PAW double counting   =      4193.08494397    -3611.10565797
  entropy T*S    EENTRO =        -0.34125656
  eigenvalues    EBANDS =     -1445.87992602
  atomic energy  EATOM  =      6761.44252427
  Solvation  Ediel_sol  =         0.00000000
  ---------------------------------------------------
  free energy    TOTEN  =      -186.88717757 eV

  energy without entropy =     -186.54592101  energy(sigma->0) =     -186.71654929


--------------------------------------------------------------------------------------------------------




----------------------------------------- Iteration    1(  21)  ---------------------------------------


    POTLOK:  cpu time    0.0325: real time    0.0328
    SETDIJ:  cpu time    0.0023: real time    0.0023
     EDDAV:  cpu time   21.8442: real time   21.8968
       DOS:  cpu time    0.0002: real time    0.0010
    CHARGE:  cpu time    0.4989: real time    0.5001
    MIXING:  cpu time    0.0019: real time    0.0019
    --------------------------------------------
      LOOP:  cpu time   22.3821: real time   22.4446

 eigenvalue-minimisations  :  8120
 total energy-change (2. order) :-0.8675620E-03  (-0.2199307E-04)
 number of electron     159.0000090 magnetization 
 augmentation part       -4.1804058 magnetization 

 Broyden mixing:
  rms(total) = 0.35797E-02    rms(broyden)= 0.35756E-02
  rms(prec ) = 0.45841E-02
  weight for this iteration     100.00

 eigenvalues of (default mixing * dielectric matrix)
  average eigenvalue GAMMA=   0.9533
  3.6104  2.4196  2.1686  1.5975  1.0528  1.0528  0.6361  0.6361  0.4167  0.3739
  0.3073  0.2242  0.2421  0.2578  0.1393  0.1176

 Free energy of the ion-electron system (eV)
  ---------------------------------------------------
  alpha Z        PSCENC =        81.65567618
  Ewald energy   TEWEN  =     41890.23011097
  -Hartree energ DENC   =    -47827.10422572
  -exchange      EXHF   =         0.00000000
  -V(xc)+E(xc)   XCENC  =      -231.61759833
  PAW double counting   =      4192.72950924    -3610.75012825
  entropy T*S    EENTRO =        -0.34138836
  eigenvalues    EBANDS =     -1443.13252513
  atomic energy  EATOM  =      6761.44252427
  Solvation  Ediel_sol  =         0.00000000
  ---------------------------------------------------
  free energy    TOTEN  =      -186.88804513 eV

  energy without entropy =     -186.54665677  energy(sigma->0) =     -186.71735095


--------------------------------------------------------------------------------------------------------




----------------------------------------- Iteration    1(  22)  ---------------------------------------


    POTLOK:  cpu time    0.0314: real time    0.0317
    SETDIJ:  cpu time    0.0023: real time    0.0023
     EDDAV:  cpu time   19.0690: real time   19.1146
       DOS:  cpu time    0.0011: real time    0.0011
    CHARGE:  cpu time    0.4988: real time    0.5000
    MIXING:  cpu time    0.0020: real time    0.0020
    --------------------------------------------
      LOOP:  cpu time   19.6059: real time   19.6606

 eigenvalue-minimisations  :  6760
 total energy-change (2. order) :-0.8081656E-03  (-0.1012938E-04)
 number of electron     159.0000090 magnetization 
 augmentation part       -4.1795625 magnetization 

 Broyden mixing:
  rms(total) = 0.33525E-02    rms(broyden)= 0.33512E-02
  rms(prec ) = 0.39631E-02
  weight for this iteration     100.00

 eigenvalues of (default mixing * dielectric matrix)
  average eigenvalue GAMMA=   1.0842
  4.8916  2.5287  2.5287  1.7165  1.4881  0.9903  0.9903  0.6270  0.6270  0.2242
  0.2421  0.2577  0.3073  0.3722  0.3823  0.1393  0.1176

 Free energy of the ion-electron system (eV)
  ---------------------------------------------------
  alpha Z        PSCENC =        81.65567618
  Ewald energy   TEWEN  =     41890.23011097
  -Hartree energ DENC   =    -47829.21549838
[...]
    104      -0.6197      0.00000
    105      -0.4297      0.00000
    106      -0.2812      0.00000
    107      -0.1533      0.00000
    108      -0.0217      0.00000
    109       0.0264      0.00000
    110       0.1196      0.00000
    111       0.4215      0.00000
    112       0.7136      0.00000
    113       0.8135      0.00000
    114       0.8824      0.00000
    115       1.0799      0.00000
    116       1.2324      0.00000
    117       1.2924      0.00000
    118       2.1298      0.00000
    119       2.3169      0.00000
    120       2.3858      0.00000

 k-point    34 :       0.5000    0.5000    0.0000
  band No.  band energies     occupation 
      1     -17.5055      2.00000
      2     -17.3589      2.00000
      3     -16.7595      2.00000
      4     -16.6790      2.00000
      5     -16.6727      2.00000
      6     -16.4366      2.00000
      7     -16.3312      2.00000
      8     -16.2413      2.00000
      9     -16.0440      2.00000
     10     -15.9958      2.00000
     11     -15.9372      2.00000
     12     -15.8466      2.00000
     13     -15.7233      2.00000
     14     -15.7085      2.00000
     15     -15.6552      2.00000
     16     -15.5573      2.00000
     17     -15.2895      2.00000
     18     -15.2548      2.00000
     19      -9.8367      2.00000
     20      -9.4162      2.00000
     21      -9.1693      2.00000
     22      -9.1060      2.00000
     23      -8.9551      2.00000
     24      -8.8274      2.00000
     25      -8.5374      2.00000
     26      -8.4615      2.00000
     27      -8.4194      2.00000
     28      -8.3041      2.00000
     29      -8.2772      2.00000
     30      -8.1961      2.00000
     31      -8.1476      2.00000
     32      -8.1069      2.00000
     33      -7.9667      2.00000
     34      -7.8815      2.00000
     35      -7.7769      2.00000
     36      -7.7357      2.00000
     37      -7.5221      2.00000
     38      -7.3548      2.00000
     39      -7.3117      2.00000
     40      -7.2372      2.00000
     41      -7.1271      2.00000
     42      -7.0829      2.00000
     43      -7.0533      2.00000
     44      -7.0437      2.00000
     45      -6.8177      2.00000
     46      -6.7471      2.00000
     47      -6.6170      2.00000
     48      -6.5830      2.00000
     49      -6.5616      2.00000
     50      -6.5328      2.00000
     51      -6.4516      2.00000
     52      -6.3419      2.00000
     53      -6.2596      2.00000
     54      -6.2227      2.00000
     55      -6.1675      2.00000
     56      -6.0735      2.00000
     57      -6.0440      2.00000
     58      -5.8799      2.00000
     59      -5.8413      2.00000
     60      -5.7982      2.00000
     61      -5.7059      2.00000
     62      -5.6109      2.00000
     63      -5.5335      2.00000
     64      -5.4028      2.00000
     65      -5.2769      2.00000
     66      -5.1958      2.00000
     67      -4.9554      2.00000
     68      -4.8682      2.00000
     69      -4.7934      2.00000
     70      -4.6580      2.00000
     71      -4.5176      2.00000
     72      -4.4471      2.00000
     73      -4.3571      2.00000
     74      -4.2303      2.00000
     75      -4.1578      2.00000
     76      -4.0479      2.00000
     77      -4.0247      2.00000
     78      -3.7257      1.99965
     79      -3.5504      1.98037
     80      -3.0942      0.37187
     81      -2.9891      0.10185
     82      -2.7697      0.00144
     83      -2.6606      0.00008
     84      -2.5476      0.00000
     85      -2.4496      0.00000
     86      -2.3617      0.00000
     87      -2.0524      0.00000
     88      -2.0207      0.00000
     89      -1.9758      0.00000
     90      -1.8225      0.00000
     91      -1.7020      0.00000
     92      -1.6237      0.00000
     93      -1.5129      0.00000
     94      -1.4380      0.00000
     95      -1.3322      0.00000
     96      -1.2127      0.00000
     97      -1.0692      0.00000
     98      -1.0605      0.00000
     99      -0.9742      0.00000
    100      -0.9094      0.00000
    101      -0.8571      0.00000
    102      -0.6864      0.00000
    103      -0.6482      0.00000
    104      -0.6248      0.00000
    105      -0.4048      0.00000
    106      -0.2797      0.00000
    107      -0.1649      0.00000
    108       0.0133      0.00000
    109       0.0292      0.00000
    110       0.0970      0.00000
    111       0.4333      0.00000
    112       0.7595      0.00000
    113       0.8285      0.00000
    114       0.9110      0.00000
    115       1.0617      0.00000
    116       1.1962      0.00000
    117       1.2651      0.00000
    118       2.1903      0.00000
    119       2.2569      0.00000
    120       2.4093      0.00000


--------------------------------------------------------------------------------------------------------


 soft charge-density along one line, spin component           1
         0         1         2         3         4         5         6         7         8         9
 total charge-density along one line
 
 pseudopotential strength for first ion, spin component:           1
 -7.222  -0.019  -0.015   0.010   0.000   0.675   0.005   0.004
 -0.019  -7.154   0.007   0.011  -0.010   0.005   0.654  -0.002
 -0.015   0.007  -7.091  -0.005  -0.028   0.004  -0.002   0.637
  0.010   0.011  -0.005  -7.114  -0.003  -0.003  -0.003   0.002
  0.000  -0.010  -0.028  -0.003  -7.225  -0.000   0.003   0.008
  0.675   0.005   0.004  -0.003  -0.000   0.333  -0.001  -0.001
  0.005   0.654  -0.002  -0.003   0.003  -0.001   0.339   0.001
  0.004  -0.002   0.637   0.002   0.008  -0.001   0.001   0.343
 -0.003  -0.003   0.002   0.642   0.002   0.001   0.001  -0.001
 -0.000   0.003   0.008   0.002   0.675   0.000  -0.001  -0.002
 -0.004  -0.003  -0.020   0.004  -0.008   0.001   0.001   0.005
 -0.001  -0.001  -0.007   0.001  -0.003   0.000   0.000   0.002
  0.006  -0.000  -0.000  -0.000  -0.000   0.001   0.001   0.000
 -0.000   0.000  -0.004   0.011  -0.004   0.000  -0.000   0.001
  0.001  -0.000  -0.001  -0.008   0.006  -0.000   0.000  -0.001
  0.004   0.002  -0.000  -0.000  -0.000  -0.000  -0.000   0.000
 -0.000   0.000  -0.001   0.008  -0.004   0.000  -0.000   0.000
  0.000  -0.000   0.000  -0.005   0.004  -0.000   0.000  -0.000
 total augmentation occupancy for first ion, spin component:           1
  0.850   0.127  -0.031   0.008   0.007   0.442   0.196  -0.004  -0.004   0.003   0.000   0.001  -0.011  -0.002   0.006  -0.003
  0.127   1.086   0.021  -0.006  -0.001   0.194   0.646  -0.002   0.001   0.001  -0.003   0.000   0.059  -0.003  -0.007   0.002
 -0.031   0.021   0.842  -0.044  -0.050  -0.002  -0.003   0.338  -0.037   0.004   0.165   0.004  -0.005  -0.007   0.083   0.000
  0.008  -0.006  -0.044   1.067  -0.159  -0.004   0.001  -0.037   0.633  -0.226  -0.026  -0.006   0.002   0.091  -0.102   0.000
  0.007  -0.001  -0.050  -0.159   0.785   0.002   0.002   0.002  -0.228   0.417   0.053  -0.002   0.005  -0.078  -0.014   0.000
  0.442   0.194  -0.002  -0.004   0.002   0.356   0.197  -0.003  -0.002   0.002   0.002   0.000   0.034   0.001  -0.002  -0.000
  0.196   0.646  -0.003   0.001   0.002   0.197   0.564  -0.001  -0.000   0.002  -0.008  -0.000   0.061  -0.001   0.001   0.005
 -0.004  -0.002   0.338  -0.037   0.002  -0.003  -0.001   0.269  -0.026   0.008   0.043   0.009   0.001  -0.004   0.022   0.000
 -0.004   0.001  -0.037   0.633  -0.228  -0.002  -0.000  -0.026   0.576  -0.226  -0.053  -0.008   0.001   0.104  -0.098   0.000
  0.003   0.001   0.004  -0.226   0.417   0.002   0.002   0.008  -0.226   0.376  -0.015  -0.001   0.001  -0.085   0.030   0.000
  0.000  -0.003   0.165  -0.026   0.053   0.002  -0.008   0.043  -0.053  -0.015   1.384   0.136  -0.002  -0.025   0.052  -0.000
  0.001   0.000   0.004  -0.006  -0.002   0.000  -0.000   0.009  -0.008  -0.001   0.136   0.026  -0.000  -0.002   0.010  -0.000
 -0.011   0.059  -0.005   0.002   0.005   0.034   0.061   0.001   0.001   0.001  -0.002  -0.000   0.340  -0.002   0.001   0.027
 -0.002  -0.003  -0.007   0.091  -0.078   0.001  -0.001  -0.004   0.104  -0.085  -0.025  -0.002  -0.002   0.418  -0.015  -0.000
  0.006  -0.007   0.083  -0.102  -0.014  -0.002   0.001   0.022  -0.098   0.030   0.052   0.010   0.001  -0.015   0.358   0.000
 -0.003   0.002   0.000   0.000   0.000  -0.000   0.005   0.000   0.000   0.000  -0.000  -0.000   0.027  -0.000   0.000   0.003
 -0.000  -0.000   0.000  -0.001  -0.003   0.000  -0.000   0.000   0.006  -0.006  -0.001  -0.000  -0.000   0.028  -0.000  -0.000
 -0.000   0.000   0.003  -0.003  -0.004  -0.000   0.000   0.004  -0.008  -0.000   0.002   0.001   0.000  -0.000   0.026   0.000


------------------------ aborting loop because EDIFF is reached ----------------------------------------


    CHARGE:  cpu time    0.4631: real time    0.4642
    FORLOC:  cpu time    0.0063: real time    0.0064
    FORNL :  cpu time    5.4076: real time    5.4205
    STRESS:  cpu time   32.2891: real time   32.3661
    FORCOR:  cpu time    0.0339: real time    0.0340
    FORHAR:  cpu time    0.0125: real time    0.0125
    MIXING:  cpu time    0.0010: real time    0.0010
    OFIELD:  cpu time    0.0000: real time    0.0000

  FORCE on cell =-STRESS in cart. coord.  units (eV):
  Direction    XX          YY          ZZ          XY          YZ          ZX
  --------------------------------------------------------------------------------------
  Alpha Z    89.18965    89.18965    89.18965
  Ewald   49147.10173 49234.87668-54124.70396     1.29589     1.81622   -21.10677
  Hartree 49878.31482 49933.57045-49547.63977     0.84146     0.26482   -13.32481
  E(xc)    -611.40445  -609.03397  -617.68475     0.01961    -0.08421     0.93621
  Local  ************************101110.11542    -1.68401    -1.98555    44.34011
  n-local  1216.60343  1213.24360  1248.51140    -0.14379     0.49131     3.02105
  augment  -212.37841  -213.47014  -214.76844     0.39447     0.35679    -0.78678
  Kinetic  2020.45767  2002.01853  2054.99440    -0.72457    -0.84423   -12.98859
  Fock        0.00000     0.00000     0.00000     0.00000     0.00000     0.00000
  -------------------------------------------------------------------------------------
  Total       0.23985     0.16054    -1.98604    -0.00093     0.01515     0.09042
  in kB       0.16009     0.10716    -1.32564    -0.00062     0.01011     0.06035
  external pressure =       -0.35 kB  Pullay stress =        0.00 kB


 VOLUME and BASIS-vectors are now :
 -----------------------------------------------------------------------------
  energy-cutoff  :      280.00
  volume of cell :     2400.34
      direct lattice vectors                 reciprocal lattice vectors
     8.335899974  4.793116758  0.000000000     0.060019920  0.104249484  0.000000000
    -8.341140815  4.802274159  0.000000000    -0.059905469  0.104183983  0.000000000
     0.000000000  0.000000000 30.000000000     0.000000000  0.000000000  0.033333333

  length of vectors
     9.615674528  9.624784008 30.000000000     0.120292750  0.120178898  0.033333333


 FORCES acting on ions
    electron-ion (+dipol)            ewald-force                    non-local-force                 convergence-correction
 -----------------------------------------------------------------------------------------------
   0.225E+02 -.280E+00 -.236E+02   -.239E+02 0.267E+00 0.234E+02   0.145E+01 0.897E-02 0.196E+00   0.166E-01 0.266E-02 0.159E-01
   -.266E+02 0.200E+01 0.119E+02   0.281E+02 -.240E+01 -.117E+02   -.156E+01 0.375E+00 -.181E+00   0.336E-01 0.270E-01 0.447E-02
   -.219E+02 0.189E+00 0.229E+02   0.233E+02 0.114E+00 -.228E+02   -.140E+01 -.282E+00 -.147E+00   -.299E-02 -.208E-01 0.965E-03
   -.653E+00 -.231E+02 0.834E+00   0.742E+00 0.229E+02 -.889E+00   0.732E-02 0.119E+00 0.491E-01   -.957E-01 0.234E-01 0.112E-01
   -.745E+01 0.408E+01 0.215E+01   0.728E+01 -.402E+01 -.221E+01   0.232E+00 -.897E-01 0.626E-01   -.517E-01 0.190E-01 0.320E-02
   -.482E+01 0.198E+02 0.159E+01   0.490E+01 -.197E+02 -.157E+01   0.516E-01 -.149E-01 -.305E-01   -.122E+00 -.415E-01 0.137E-01
   0.359E+02 -.546E+01 -.133E+02   -.369E+02 0.572E+01 0.131E+02   0.991E+00 -.309E+00 0.257E+00   0.329E-01 0.543E-01 0.612E-02
   -.345E+02 -.346E+01 0.120E+02   0.356E+02 0.357E+01 -.119E+02   -.111E+01 -.109E+00 -.151E+00   0.321E-01 -.555E-02 0.453E-02
   0.366E+02 0.618E+01 -.162E+02   -.374E+02 -.643E+01 0.160E+02   0.826E+00 0.304E+00 0.196E+00   0.110E-01 -.567E-01 0.805E-02
   0.990E+01 -.545E+01 0.483E+03   -.101E+02 0.546E+01 -.488E+03   0.825E-01 -.896E-01 0.480E+01   0.122E+00 0.856E-01 0.392E-01
   0.226E+02 -.103E+02 -.603E+03   -.234E+02 0.106E+02 0.607E+03   0.792E+00 -.403E+00 -.374E+01   -.257E-01 0.863E-01 -.756E-01
   -.266E+02 0.348E+01 0.604E+03   0.277E+02 -.365E+01 -.607E+03   -.108E+01 0.139E+00 0.334E+01   -.749E-02 0.339E-01 -.496E-01
   -.151E+02 0.202E+01 -.495E+03   0.150E+02 -.222E+01 0.500E+03   0.148E-01 0.165E+00 -.480E+01   0.147E+00 0.299E-01 -.860E-02
   0.165E+02 -.698E+01 0.629E+03   -.173E+02 0.739E+01 -.632E+03   0.802E+00 -.434E+00 0.343E+01   -.222E-01 0.234E-01 0.150E-01
   -.197E+02 -.386E+01 -.625E+03   0.208E+02 0.439E+01 0.628E+03   -.105E+01 -.540E+00 -.338E+01   -.282E-01 0.129E-01 0.186E-01
   0.683E+01 0.203E+00 0.567E+03   -.872E+01 -.106E+00 -.570E+03   0.201E+01 -.872E-01 0.308E+01   -.122E+00 -.109E-01 0.918E-01
   -.834E+01 -.150E+01 -.564E+03   0.106E+02 0.157E+01 0.567E+03   -.219E+01 -.510E-01 -.299E+01   -.925E-01 -.178E-01 0.436E-01
   0.782E+01 0.484E+01 0.488E+03   -.740E+01 -.496E+01 -.493E+03   -.508E+00 0.193E+00 0.506E+01   0.893E-01 -.742E-01 0.583E-01
   0.223E+02 0.970E+01 -.607E+03   -.229E+02 -.994E+01 0.611E+03   0.620E+00 0.324E+00 -.389E+01   -.449E-01 -.836E-01 -.706E-01
   -.232E+02 -.909E+01 0.604E+03   0.239E+02 0.952E+01 -.608E+03   -.682E+00 -.394E+00 0.377E+01   -.301E-01 -.379E-01 -.428E-01
   -.491E+01 -.349E+01 -.490E+03   0.427E+01 0.363E+01 0.495E+03   0.576E+00 -.877E-01 -.498E+01   0.599E-01 -.452E-01 0.354E-01
   -.218E+02 0.651E+01 0.591E+03   0.228E+02 -.666E+01 -.594E+03   -.950E+00 0.147E+00 0.340E+01   -.346E-01 0.337E-02 -.794E-01
   -.374E+01 0.199E+01 -.484E+03   0.281E+01 -.187E+01 0.488E+03   0.844E+00 -.144E+00 -.475E+01   0.783E-01 0.149E-01 0.603E-01
   0.142E+02 0.693E+01 0.627E+03   -.151E+02 -.748E+01 -.630E+03   0.954E+00 0.564E+00 0.339E+01   -.407E-01 -.128E-01 0.518E-02
   -.205E+02 0.442E+01 -.604E+03   0.220E+02 -.503E+01 0.606E+03   -.142E+01 0.599E+00 -.294E+01   -.518E-01 0.538E-02 0.584E-01
   0.203E+02 0.148E+00 0.507E+03   -.206E+02 -.104E+00 -.512E+03   0.260E+00 -.322E-01 0.503E+01   0.654E-01 -.101E-01 -.182E-01
   0.252E+02 0.454E+00 -.627E+03   -.259E+02 -.565E+00 0.631E+03   0.774E+00 0.114E+00 -.374E+01   -.371E-02 -.162E-02 -.766E-03
 -----------------------------------------------------------------------------------------------
   0.754E+00 0.502E-02 -.466E+00   -.142E-13 0.271E-13 0.455E-12   -.658E+00 -.127E-01 0.333E+00   -.880E-01 0.348E-02 0.148E+00
 
 
 POSITION                                       TOTAL-FORCE (eV/Angst)
 -----------------------------------------------------------------------------------
      0.32191      3.20274      0.08408         0.014101     -0.001069      0.029596
      5.28541      6.39637     -0.04922        -0.005317     -0.001240     -0.004994
      5.22383      3.20241     -0.08180        -0.012557      0.000031     -0.030875
      2.78158      1.40368     -0.00224         0.000881      0.000176      0.004743
     -5.60344      3.21867     -0.00770         0.003173     -0.003823      0.002367
      2.74476      4.97827     -0.00346         0.003044      0.000033      0.003130
      0.29197     -0.02764      0.04655         0.001228      0.006540      0.005536
     -3.08028      4.77119     -0.04345        -0.001121     -0.004093     -0.004900
      0.30160      6.43323      0.05450         0.000303     -0.000289      0.004218
     -0.91756      1.62980     28.73307         0.001968      0.003854      0.008914
      0.94930      1.60800      1.65502         0.004186     -0.001514      0.005740
     -3.70757      3.15857     28.35197        -0.001297      0.000972     -0.000676
     -1.83319      3.17361      1.31081        -0.003475      0.000141     -0.003790
     -6.46289      4.77691     28.30336        -0.002745     -0.000707      0.005447
     -4.66371      4.76609      1.68357         0.002722     -0.001192     -0.004863
      1.88118      3.19550     28.49045        -0.005719     -0.001026      0.005867
      3.66594      3.19799      1.49995         0.006897      0.000468     -0.007795
     -0.90922      4.76932     28.71828         0.001892     -0.002351      0.012111
      0.94956      4.79510      1.66853         0.004804      0.003749      0.001607
     -3.73842      6.40714     28.34346        -0.004713     -0.001946     -0.002261
     -1.87433      6.43543      1.28912        -0.004321      0.004309     -0.011852
      4.62387      4.82132     28.38630        -0.002363     -0.000263     -0.004291
      6.45395      4.77871      1.26885        -0.002500     -0.002334     -0.015223
      1.87255      6.42304     28.30982        -0.004264     -0.000952      0.005164
      3.73476      6.41411      1.61510         0.000983     -0.000651     -0.004975
     -0.96558      7.99467     28.65394         0.001477      0.001705      0.006258
      0.94701      7.99643      1.72114         0.002735      0.001470     -0.004203
 -----------------------------------------------------------------------------------
    total drift:                                0.007977     -0.004223      0.015752


--------------------------------------------------------------------------------------------------------



  FREE ENERGIE OF THE ION-ELECTRON SYSTEM (eV)
  ---------------------------------------------------
  free  energy   TOTEN  =      -192.46512250 eV

  energy  without entropy=     -192.33954553  energy(sigma->0) =     -192.40233402
 
 d Force = 0.1319781E-03[ 0.915E-04, 0.172E-03]  d Energy = 0.2122687E-03-0.803E-04
 d Force =-0.7788426E+00[-0.779E+00,-0.779E+00]  d Ewald  = 0.8005568E+01-0.878E+01


--------------------------------------------------------------------------------------------------------


    POTLOK:  cpu time    0.0339: real time    0.0340


--------------------------------------------------------------------------------------------------------


 Quasi-Newton relaxation of ions (Broydens 2nd method)
  g(Force)  = 0.178E-03   g(Stress)= 0.149E-03

 retain information from N=  3 steps
 eigenvalues of (default step * inverse Hessian matrix)
  average eigenvalue of G=   2.6453
 eigenvalue spectrum of G is  1.5137  1.5137  4.9083


--------------------------------------------------------------------------------------------------------


  
 reached required accuracy - stopping structural energy minimisation
     LOOP+:  cpu time   81.6096: real time   81.8178
    4ORBIT:  cpu time    0.0000: real time    0.0000

 total amount of memory used by VASP on root node   650782. kBytes
========================================================================

   base      :      30000. kBytes
   nonl-proj :     559647. kBytes
   fftplans  :       2414. kBytes
   grid      :      12150. kBytes
   one-center:        419. kBytes
   wavefun   :      46152. kBytes
 
  
  
 General timing and accounting informations for this job:
 ========================================================
  
                  Total CPU time used (sec):     6173.471
                            User time (sec):     6149.311
                          System time (sec):       24.160
                         Elapsed time (sec):     6190.168
  
                   Maximum memory used (kb):      743656.
                   Average memory used (kb):           0.
  
                          Minor page faults:       797375
                          Major page faults:            7
                 Voluntary context switches:         5254
