<?xml version="1.0" encoding="ISO-8859-1"?>
<modeling>
 <generator>
  <i name="program" type="string">vasp </i>
  <i name="version" type="string">5.4.1  </i>
  <i name="subversion" type="string">05Feb16 (build Jul 05 2020 17:13:04) complex                          parallel </i>
  <i name="platform" type="string">IFC91_ompi </i>
  <i name="date" type="string">2024 04 25 </i>
  <i name="time" type="string">13:26:29 </i>
 </generator>
 <incar>
  <i type="int" name="ISTART">     0</i>
  <i type="string" name="PREC">normal</i>
  <i type="string" name="ALGO"> Normal</i>
  <i type="int" name="ISPIN">     1</i>
  <i type="int" name="ICHARG">     2</i>
  <i type="int" name="IBRION">     1</i>
  <i type="int" name="NSW">   100</i>
  <i type="int" name="ISIF">     3</i>
  <i type="int" name="ISYM">     0</i>
  <i name="SYMPREC">      0.00000001</i>
  <i name="POTIM">      0.50000000</i>
  <i type="logical" name="LREAL"> F  </i>
  <i type="logical" name="LPLANE"> F  </i>
  <i type="int" name="ISMEAR">     0</i>
  <i type="logical" name="LWAVE"> F  </i>
  <i type="logical" name="LCHARG"> F  </i>
  <v type="int" name="KPOINT_BSE">    -1     0     0     0</v>
 </incar>
 <kpoints>
  <generation param="Gamma">
   <v type="int" name="divisions">       8        8        1 </v>
   <v name="usershift">      0.00000000       0.00000000       0.00000000 </v>
   <v name="genvec1">      0.12500000       0.00000000       0.00000000 </v>
   <v name="genvec2">     -0.00000000       0.12500000       0.00000000 </v>
   <v name="genvec3">      0.00000000       0.00000000       1.00000000 </v>
   <v name="shift">      0.00000000       0.00000000       0.00000000 </v>
  </generation>
  <varray name="kpointlist" >
   <v>       0.00000000       0.00000000       0.00000000 </v>
   <v>       0.12500000       0.00000000       0.00000000 </v>
   <v>       0.25000000       0.00000000       0.00000000 </v>
   <v>       0.37500000       0.00000000       0.00000000 </v>
   <v>       0.50000000       0.00000000       0.00000000 </v>
   <v>       0.00000000       0.12500000       0.00000000 </v>
   <v>       0.12500000       0.12500000       0.00000000 </v>
   <v>       0.25000000       0.12500000       0.00000000 </v>
   <v>       0.37500000       0.12500000       0.00000000 </v>
   <v>       0.50000000       0.12500000       0.00000000 </v>
   <v>      -0.37500000       0.12500000       0.00000000 </v>
   <v>      -0.25000000       0.12500000       0.00000000 </v>
   <v>      -0.12500000       0.12500000       0.00000000 </v>
   <v>       0.00000000       0.25000000       0.00000000 </v>
   <v>       0.12500000       0.25000000       0.00000000 </v>
   <v>       0.25000000       0.25000000       0.00000000 </v>
   <v>       0.37500000       0.25000000       0.00000000 </v>
   <v>       0.50000000       0.25000000       0.00000000 </v>
   <v>      -0.37500000       0.25000000       0.00000000 </v>
   <v>      -0.25000000       0.25000000       0.00000000 </v>
   <v>      -0.12500000       0.25000000       0.00000000 </v>
   <v>      -0.00000000       0.37500000       0.00000000 </v>
   <v>       0.12500000       0.37500000       0.00000000 </v>
   <v>       0.25000000       0.37500000       0.00000000 </v>
   <v>       0.37500000       0.37500000       0.00000000 </v>
   <v>       0.50000000       0.37500000       0.00000000 </v>
   <v>      -0.37500000       0.37500000       0.00000000 </v>
   <v>      -0.25000000       0.37500000       0.00000000 </v>
   <v>      -0.12500000       0.37500000       0.00000000 </v>
   <v>       0.00000000       0.50000000       0.00000000 </v>
   <v>       0.12500000       0.50000000       0.00000000 </v>
   <v>       0.25000000       0.50000000       0.00000000 </v>
   <v>       0.37500000       0.50000000       0.00000000 </v>
   <v>       0.50000000       0.50000000       0.00000000 </v>
  </varray>
  <varray name="weights" >
   <v>       0.01562500 </v>
   <v>       0.03125000 </v>
   <v>       0.03125000 </v>
   <v>       0.03125000 </v>
   <v>       0.01562500 </v>
   <v>       0.03125000 </v>
   <v>       0.03125000 </v>
   <v>       0.03125000 </v>
   <v>       0.03125000 </v>
   <v>       0.03125000 </v>
   <v>       0.03125000 </v>
   <v>       0.03125000 </v>
   <v>       0.03125000 </v>
   <v>       0.03125000 </v>
   <v>       0.03125000 </v>
   <v>       0.03125000 </v>
   <v>       0.03125000 </v>
   <v>       0.03125000 </v>
   <v>       0.03125000 </v>
   <v>       0.03125000 </v>
   <v>       0.03125000 </v>
   <v>       0.03125000 </v>
   <v>       0.03125000 </v>
   <v>       0.03125000 </v>
   <v>       0.03125000 </v>
   <v>       0.03125000 </v>
   <v>       0.03125000 </v>
   <v>       0.03125000 </v>
   <v>       0.03125000 </v>
   <v>       0.01562500 </v>
   <v>       0.03125000 </v>
   <v>       0.03125000 </v>
   <v>       0.03125000 </v>
   <v>       0.01562500 </v>
  </varray>
 </kpoints>
 <parameters>
  <separator name="general" >
   <i type="string" name="SYSTEM">unknown system</i>
   <i type="logical" name="LCOMPAT"> F  </i>
  </separator>
  <separator name="electronic" >
   <i type="string" name="PREC">normal</i>
   <i name="ENMAX">    280.00000000</i>
   <i name="ENAUG">    373.43800000</i>
   <i name="EDIFF">      0.00010000</i>
   <i type="int" name="IALGO">    38</i>
   <i type="int" name="IWAVPR">    11</i>
   <i type="int" name="NBANDS">   120</i>
   <i name="NELECT">    159.00000000</i>
   <i type="int" name="TURBO">     0</i>
   <i type="int" name="IRESTART">     0</i>
   <i type="int" name="NREBOOT">     0</i>
   <i type="int" name="NMIN">     0</i>
   <i name="EREF">      0.00000000</i>
   <separator name="electronic smearing" >
    <i type="int" name="ISMEAR">     0</i>
    <i name="SIGMA">      0.20000000</i>
    <i name="KSPACING">      0.50000000</i>
    <i type="logical" name="KGAMMA"> T  </i>
   </separator>
   <separator name="electronic projectors" >
    <i type="logical" name="LREAL"> F  </i>
    <v name="ROPT">      0.00000000      0.00000000      0.00000000      0.00000000</v>
    <i type="int" name="LMAXPAW">  -100</i>
    <i type="int" name="LMAXMIX">     2</i>
    <i type="logical" name="NLSPLINE"> F  </i>
   </separator>
   <separator name="electronic startup" >
    <i type="int" name="ISTART">     0</i>
    <i type="int" name="ICHARG">     2</i>
    <i type="int" name="INIWAV">     1</i>
   </separator>
   <separator name="electronic spin" >
    <i type="int" name="ISPIN">     1</i>
    <i type="logical" name="LNONCOLLINEAR"> F  </i>
    <v name="MAGMOM">      1.00000000      1.00000000      1.00000000      1.00000000      1.00000000      1.00000000      1.00000000      1.00000000      1.00000000      1.00000000      1.00000000      1.00000000      1.00000000      1.00000000      1.00000000      1.00000000      1.00000000      1.00000000      1.00000000      1.00000000
      1.00000000      1.00000000      1.00000000      1.00000000      1.00000000      1.00000000      1.00000000</v>
    <i name="NUPDOWN">     -1.00000000</i>
    <i type="logical" name="LSORBIT"> F  </i>
    <v name="SAXIS">      0.00000000      0.00000000      1.00000000</v>
    <i type="logical" name="LSPIRAL"> F  </i>
    <v name="QSPIRAL">      0.00000000      0.00000000      0.00000000</v>
    <i type="logical" name="LZEROZ"> F  </i>
   </separator>
   <separator name="electronic exchange-correlation" >
    <i type="logical" name="LASPH"> F  </i>
    <i type="logical" name="LMETAGGA"> F  </i>
   </separator>
   <separator name="electronic convergence" >
    <i type="int" name="NELM">    60</i>
    <i type="int" name="NELMDL">    -5</i>
    <i type="int" name="NELMIN">     2</i>
    <i name="ENINI">    280.00000000</i>
    <separator name="electronic convergence detail" >
     <i type="logical" name="LDIAG"> T  </i>
     <i type="logical" name="LSUBROT"> F  </i>
     <i name="WEIMIN">      0.00100000</i>
     <i name="EBREAK">      0.00000021</i>
     <i name="DEPER">      0.30000000</i>
     <i type="int" name="NRMM">     4</i>
     <i name="TIME">      0.40000000</i>
    </separator>
   </separator>
   <separator name="electronic mixer" >
    <i name="AMIX">      0.40000000</i>
    <i name="BMIX">      1.00000000</i>
    <i name="AMIN">      0.10000000</i>
    <i name="AMIX_MAG">      1.60000000</i>
    <i name="BMIX_MAG">      1.00000000</i>
    <separator name="electronic mixer details" >
     <i type="int" name="IMIX">     4</i>
     <i type="logical" name="MIXFIRST"> F  </i>
     <i type="int" name="MAXMIX">   -45</i>
     <i name="WC">    100.00000000</i>
     <i type="int" name="INIMIX">     1</i>
     <i type="int" name="MIXPRE">     1</i>
     <i type="int" name="MREMOVE">     5</i>
    </separator>
   </separator>
   <separator name="electronic dipolcorrection" >
    <i type="logical" name="LDIPOL"> F  </i>
    <i type="logical" name="LMONO"> F  </i>
    <i type="int" name="IDIPOL">     0</i>
    <i name="EPSILON">      1.00000000</i>
    <v name="DIPOL">   -100.00000000   -100.00000000   -100.00000000</v>
    <i name="EFIELD">      0.00000000</i>
   </separator>
  </separator>
  <separator name="grids" >
   <i type="int" name="NGX">    42</i>
   <i type="int" name="NGY">    42</i>
   <i type="int" name="NGZ">   126</i>
   <i type="int" name="NGXF">    84</i>
   <i type="int" name="NGYF">    84</i>
   <i type="int" name="NGZF">   252</i>
   <i type="logical" name="ADDGRID"> F  </i>
  </separator>
  <separator name="ionic" >
   <i type="int" name="NSW">   100</i>
   <i type="int" name="IBRION">     1</i>
   <i type="int" name="ISIF">     3</i>
   <i name="PSTRESS">      0.00000000</i>
   <i name="EDIFFG">      0.00100000</i>
   <i type="int" name="NFREE">     0</i>
   <i name="POTIM">      0.50000000</i>
   <i name="SMASS">     -3.00000000</i>
   <i name="SCALEE">      1.00000000</i>
  </separator>
  <separator name="ionic md" >
   <i name="TEBEG">      0.00010000</i>
   <i name="TEEND">      0.00010000</i>
   <i type="int" name="NBLOCK">     1</i>
   <i type="int" name="KBLOCK">   100</i>
   <i type="int" name="NPACO">   256</i>
   <i name="APACO">     16.00000000</i>
  </separator>
  <separator name="symmetry" >
   <i type="int" name="ISYM">     0</i>
   <i name="SYMPREC">      0.00000001</i>
  </separator>
  <separator name="dos" >
   <i type="logical" name="LORBIT"> F  </i>
   <v name="RWIGS">     -1.00000000     -1.00000000     -1.00000000     -1.00000000</v>
   <i type="int" name="NEDOS">   301</i>
   <i name="EMIN">     10.00000000</i>
   <i name="EMAX">    -10.00000000</i>
   <i name="EFERMI">      0.00000000</i>
  </separator>
  <separator name="writing" >
   <i type="int" name="NWRITE">     2</i>
   <i type="logical" name="LWAVE"> F  </i>
   <i type="logical" name="LCHARG"> F  </i>
   <i type="logical" name="LPARD"> F  </i>
   <i type="logical" name="LVTOT"> F  </i>
   <i type="logical" name="LVHAR"> F  </i>
   <i type="logical" name="LELF"> F  </i>
   <i type="logical" name="LOPTICS"> F  </i>
   <v name="STM">      0.00000000      0.00000000      0.00000000      0.00000000      0.00000000      0.00000000      0.00000000</v>
  </separator>
  <separator name="performance" >
   <i type="int" name="NPAR">    40</i>
   <i type="int" name="NSIM">     4</i>
   <i type="int" name="NBLK">    -1</i>
   <i type="logical" name="LPLANE"> F  </i>
   <i type="logical" name="LSCALAPACK"> T  </i>
   <i type="logical" name="LSCAAWARE"> F  </i>
   <i type="logical" name="LSCALU"> F  </i>
   <i type="logical" name="LASYNC"> F  </i>
   <i type="logical" name="LORBITALREAL"> F  </i>
  </separator>
  <separator name="miscellaneous" >
   <i type="int" name="IDIOT">     3</i>
   <i type="logical" name="LMUSIC"> F  </i>
   <v name="POMASS">     50.94100000     95.94000000    183.85000000     32.06600000</v>
   <v name="DARWINR">      0.00000000      0.00000000      0.00000000      0.00000000</v>
   <v name="DARWINV">      1.00000000      1.00000000      1.00000000      1.00000000</v>
   <i type="logical" name="LCORR"> T  </i>
  </separator>
  <i type="logical" name="GGA_COMPAT"> T  </i>
  <i type="logical" name="LBERRY"> F  </i>
  <i type="int" name="ICORELEVEL">     0</i>
  <i type="logical" name="LDAU"> F  </i>
  <i type="int" name="I_CONSTRAINED_M">     0</i>
  <separator name="electronic exchange-correlation" >
   <i type="string" name="GGA">--</i>
   <i type="int" name="VOSKOWN">     0</i>
   <i type="logical" name="LHFCALC"> F  </i>
   <i type="string" name="PRECFOCK"></i>
   <i type="logical" name="LSYMGRAD"> F  </i>
   <i type="logical" name="LHFONE"> F  </i>
   <i type="logical" name="LRHFCALC"> F  </i>
   <i type="logical" name="LTHOMAS"> F  </i>
   <i type="logical" name="LMODELHF"> F  </i>
   <i name="ENCUT4O">     -1.00000000</i>
   <i type="int" name="EXXOEP">     0</i>
   <i type="int" name="FOURORBIT">     0</i>
   <i name="AEXX">      0.00000000</i>
   <i name="HFALPHA">      0.00000000</i>
   <i name="MCALPHA">      0.00000000</i>
   <i name="ALDAX">      1.00000000</i>
   <i name="AGGAX">      1.00000000</i>
   <i name="ALDAC">      1.00000000</i>
   <i name="AGGAC">      1.00000000</i>
   <i type="int" name="NKREDX">     1</i>
   <i type="int" name="NKREDY">     1</i>
   <i type="int" name="NKREDZ">     1</i>
   <i type="logical" name="SHIFTRED"> F  </i>
   <i type="logical" name="ODDONLY"> F  </i>
   <i type="logical" name="EVENONLY"> F  </i>
   <i type="int" name="LMAXFOCK">     0</i>
   <i type="int" name="NMAXFOCKAE">     0</i>
   <i type="logical" name="LFOCKAEDFT"> F  </i>
   <i name="HFSCREEN">      0.00000000</i>
   <i name="HFSCREENC">      0.00000000</i>
   <i type="int" name="NBANDSGWLOW">     0</i>
  </separator>
  <separator name="vdW DFT" >
   <i type="logical" name="LUSE_VDW"> F  </i>
   <i name="Zab_VDW">     -0.84910000</i>
   <i name="PARAM1">      0.12340000</i>
   <i name="PARAM2">      1.00000000</i>
   <i name="PARAM3">      0.00000000</i>
  </separator>
  <separator name="model GW" >
   <i type="int" name="MODEL_GW">     0</i>
   <i name="MODEL_EPS0">     58.26239943</i>
   <i name="MODEL_ALPHA">      1.00000000</i>
  </separator>
  <separator name="linear response parameters" >
   <i type="logical" name="LEPSILON"> F  </i>
   <i type="logical" name="LRPA"> F  </i>
   <i type="logical" name="LNABLA"> F  </i>
   <i type="logical" name="LVEL"> F  </i>
   <i type="int" name="KINTER">     0</i>
   <i name="CSHIFT">      0.10000000</i>
   <i name="OMEGAMAX">     -1.00000000</i>
   <i name="DEG_THRESHOLD">      0.00200000</i>
  </separator>
  <separator name="orbital magnetization" >
   <i type="logical" name="NUCIND"> F  </i>
   <v name="MAGPOS">      0.00000000      0.00000000      0.00000000</v>
   <i type="logical" name="LNICSALL"> T  </i>
   <i type="logical" name="ORBITALMAG"> F  </i>
   <i type="logical" name="LMAGBLOCH"> F  </i>
   <i type="logical" name="LCHIMAG"> F  </i>
   <i type="logical" name="LGAUGE"> T  </i>
   <i type="int" name="MAGATOM">     0</i>
   <v name="MAGDIPOL">      0.00000000      0.00000000      0.00000000</v>
   <v name="AVECCONST">      0.00000000      0.00000000      0.00000000</v>
  </separator>
  <separator name="response functions" >
   <i type="logical" name="LADDER"> F  </i>
   <i type="logical" name="LFXC"> F  </i>
   <i type="logical" name="LHARTREE"> T  </i>
   <i type="int" name="IBSE">     0</i>
   <v type="int" name="KPOINT">    -1     0     0     0</v>
   <i type="logical" name="LTCTE"> F  </i>
   <i type="logical" name="LTETE"> F  </i>
   <i type="logical" name="LTRIPLET"> F  </i>
   <i type="logical" name="LFXCEPS"> F  </i>
   <i type="logical" name="LFXHEG"> F  </i>
   <i type="int" name="NATURALO">     0</i>
   <i type="logical" name="L2ORDER"> F  </i>
   <i type="logical" name="LUSEW"> F  </i>
   <i name="ENCUTGW">     -2.00000000</i>
   <i name="ENCUTGWSOFT">     -2.00000000</i>
   <i name="ENCUTLF">     -1.00000000</i>
   <i type="int" name="LMAXMP2">    -1</i>
   <i name="SCISSOR">      0.00000000</i>
   <i type="int" name="NOMEGA">     0</i>
   <i type="int" name="NOMEGAR">     0</i>
   <i type="int" name="NBANDSGW">    -1</i>
   <i type="int" name="NBANDSO">    -1</i>
   <i type="int" name="NBANDSV">    -1</i>
   <i type="int" name="NELM">     1</i>
   <i type="int" name="NELMHF">     1</i>
   <i type="int" name="DIM">     3</i>
   <i type="int" name="ANTIRES">     0</i>
   <i name="OMEGAMAX">    -30.00000000</i>
   <i name="OMEGAMIN">    -30.00000000</i>
   <i name="OMEGATL">   -200.00000000</i>
   <i type="int" name="OMEGAGRID">     0</i>
   <i name="CSHIFT">     -0.10000000</i>
   <i type="logical" name="SELFENERGY"> F  </i>
   <i type="logical" name="LSPECTRAL"> F  </i>
   <i type="logical" name="LSPECTRALGW"> F  </i>
   <i type="logical" name="LSINGLES"> F  </i>
   <i type="logical" name="LFERMIGW"> F  </i>
   <i type="logical" name="ODDONLYGW"> F  </i>
   <i type="logical" name="EVENONLYGW"> F  </i>
   <i type="int" name="NKREDLFX">     1</i>
   <i type="int" name="NKREDLFY">     1</i>
   <i type="int" name="NKREDLFZ">     1</i>
   <i type="int" name="MAXMEM">  1800</i>
   <i type="int" name="TELESCOPE">     0</i>
   <i type="int" name="TAUPAR">     1</i>
   <i type="int" name="OMEGAPAR">    -1</i>
   <i name="LAMBDA">      1.00000000</i>
  </separator>
  <separator name="External order field" >
   <i name="OFIELD_KAPPA">      0.00000000</i>
   <v name="OFIELD_K">      0.00000000      0.00000000      0.00000000</v>
   <i name="OFIELD_Q6_NEAR">      0.00000000</i>
   <i name="OFIELD_Q6_FAR">      0.00000000</i>
   <i name="OFIELD_A">      0.00000000</i>
  </separator>
 </parameters>
 <atominfo>
  <atoms>      27 </atoms>
  <types>       4 </types>
  <array name="atoms" >
   <dimension dim="1">ion</dimension>
   <field type="string">element</field>
   <field type="int">atomtype</field>
   <set>
    <rc><c>V </c><c>   1</c></rc>
    <rc><c>V </c><c>   1</c></rc>
    <rc><c>V </c><c>   1</c></rc>
    <rc><c>Mo</c><c>   2</c></rc>
    <rc><c>Mo</c><c>   2</c></rc>
    <rc><c>Mo</c><c>   2</c></rc>
    <rc><c>W </c><c>   3</c></rc>
    <rc><c>W </c><c>   3</c></rc>
    <rc><c>W </c><c>   3</c></rc>
    <rc><c>S </c><c>   4</c></rc>
    <rc><c>S </c><c>   4</c></rc>
    <rc><c>S </c><c>   4</c></rc>
    <rc><c>S </c><c>   4</c></rc>
    <rc><c>S </c><c>   4</c></rc>
    <rc><c>S </c><c>   4</c></rc>
    <rc><c>S </c><c>   4</c></rc>
    <rc><c>S </c><c>   4</c></rc>
    <rc><c>S </c><c>   4</c></rc>
    <rc><c>S </c><c>   4</c></rc>
    <rc><c>S </c><c>   4</c></rc>
    <rc><c>S </c><c>   4</c></rc>
    <rc><c>S </c><c>   4</c></rc>
    <rc><c>S </c><c>   4</c></rc>
    <rc><c>S </c><c>   4</c></rc>
    <rc><c>S </c><c>   4</c></rc>
    <rc><c>S </c><c>   4</c></rc>
    <rc><c>S </c><c>   4</c></rc>
   </set>
  </array>
  <array name="atomtypes" >
   <dimension dim="1">type</dimension>
   <field type="int">atomspertype</field>
   <field type="string">element</field>
   <field>mass</field>
   <field>valence</field>
   <field type="string">pseudopotential</field>
   <set>
    <rc><c>   3</c><c>V </c><c>     50.94100000</c><c>      5.00000000</c><c> PAW_PBE V 08Apr2002                    </c></rc>
    <rc><c>   3</c><c>Mo</c><c>     95.94000000</c><c>      6.00000000</c><c> PAW_PBE Mo 08Apr2002                   </c></rc>
    <rc><c>   3</c><c>W </c><c>    183.85000000</c><c>      6.00000000</c><c> PAW_PBE W 08Apr2002                    </c></rc>
    <rc><c>  18</c><c>S </c><c>     32.06600000</c><c>      6.00000000</c><c>  PAW_PBE S 17Jan2003                   </c></rc>
   </set>
  </array>
 </atominfo>
 <structure name="initialpos" >
  <crystal>
   <varray name="basis" >
    <v>       8.66999996       5.03999989       0.00000000 </v>
    <v>      -8.66999982       5.04000013       0.00000000 </v>
    <v>       0.00000000       0.00000000      30.00000000 </v>
   </varray>
   <i name="volume">   2621.80797419 </i>
   <varray name="rec_basis" >
    <v>       0.05767013       0.09920635       0.00000000 </v>
    <v>      -0.05767013       0.09920635       0.00000000 </v>
    <v>       0.00000000       0.00000000       0.03333333 </v>
   </varray>
  </crystal>
  <varray name="positions" >
   <v>       0.33333334       0.33333334       0.00000000 </v>
   <v>       1.00000000       0.33333334       0.00000000 </v>
   <v>       0.66666669       0.00000000       0.00000000 </v>
   <v>       0.33333334       0.00000000       0.00000000 </v>
   <v>       0.00000000       0.66666669       0.00000000 </v>
   <v>       0.66666669       0.33333334       0.00000000 </v>
   <v>       0.00000000       0.00000000       0.00000000 </v>
   <v>       0.33333334       0.66666669       0.00000000 </v>
   <v>       0.66666669       0.66666669       0.00000000 </v>
   <v>       0.11068511       0.22244981       0.95539999 </v>
   <v>       0.22244981       0.11068511       0.04460000 </v>
   <v>       0.11068511       0.55578315       0.95539999 </v>
   <v>       0.22244981       0.44401845       0.04460000 </v>
   <v>       0.11068511       0.88911647       0.95539999 </v>
   <v>       0.22244981       0.77735180       0.04460000 </v>
   <v>       0.44401845       0.22244981       0.95539999 </v>
   <v>       0.55578315       0.11068511       0.04460000 </v>
   <v>       0.44401845       0.55578315       0.95539999 </v>
   <v>       0.55578315       0.44401845       0.04460000 </v>
   <v>       0.44401845       0.88911647       0.95539999 </v>
   <v>       0.55578315       0.77735180       0.04460000 </v>
   <v>       0.77735180       0.22244981       0.95539999 </v>
   <v>       0.88911647       0.11068511       0.04460000 </v>
   <v>       0.77735180       0.55578315       0.95539999 </v>
   <v>       0.88911647       0.44401845       0.04460000 </v>
   <v>       0.77735180       0.88911647       0.95539999 </v>
   <v>       0.88911647       0.77735180       0.04460000 </v>
  </varray>
 </structure>
 <calculation>
  <scstep>
   <time name="dav">   21.94   22.00</time>
   <time name="total">   21.99   22.05</time>
   <energy>
    <i name="alphaZ">     81.65567618 </i>
    <i name="ewald">  41890.23011097 </i>
    <i name="hartreedc"> -47722.85863119 </i>
    <i name="XCdc">   -242.92963144 </i>
    <i name="pawpsdc">   3467.42045192 </i>
    <i name="pawaedc">  -2871.19716117 </i>
    <i name="eentropy">     -0.52295468 </i>
    <i name="bandstr">   -239.07484236 </i>
    <i name="atom">   6761.44252427 </i>
    <i name="e_fr_energy">   1124.16554250 </i>
    <i name="e_wo_entrp">   1124.68849718 </i>
    <i name="e_0_energy">   1124.42701984 </i>
   </energy>
  </scstep>
  <scstep>
   <time name="dav">   28.04   28.10</time>
   <time name="total">   28.04   28.11</time>
   <energy>
    <i name="e_fr_energy">     -0.47610502 </i>
    <i name="e_wo_entrp">     -0.29564527 </i>
    <i name="e_0_energy">     -0.38587514 </i>
   </energy>
  </scstep>
  <scstep>
   <time name="dav">   27.81   27.88</time>
   <time name="total">   27.82   27.89</time>
   <energy>
    <i name="e_fr_energy">   -199.58158775 </i>
    <i name="e_wo_entrp">   -199.31246028 </i>
    <i name="e_0_energy">   -199.44702401 </i>
   </energy>
  </scstep>
  <scstep>
   <time name="dav">   29.80   29.87</time>
   <time name="total">   29.80   29.88</time>
   <energy>
    <i name="e_fr_energy">   -208.91344879 </i>
    <i name="e_wo_entrp">   -208.61532800 </i>
    <i name="e_0_energy">   -208.76438840 </i>
   </energy>
  </scstep>
  <scstep>
   <time name="dav">   28.87   28.94</time>
   <time name="total">   29.34   29.42</time>
   <energy>
    <i name="e_fr_energy">   -209.27655786 </i>
    <i name="e_wo_entrp">   -208.98193952 </i>
    <i name="e_0_energy">   -209.12924869 </i>
   </energy>
  </scstep>
  <scstep>
   <time name="dav">   31.30   31.37</time>
   <time name="total">   31.80   31.89</time>
   <energy>
    <i name="e_fr_energy">   -237.16386060 </i>
    <i name="e_wo_entrp">   -236.89254463 </i>
    <i name="e_0_energy">   -237.02820261 </i>
   </energy>
  </scstep>
  <scstep>
   <time name="dav">   32.23   32.30</time>
   <time name="total">   32.73   32.82</time>
   <energy>
    <i name="e_fr_energy">   -196.64558311 </i>
    <i name="e_wo_entrp">   -196.30853923 </i>
    <i name="e_0_energy">   -196.47706117 </i>
   </energy>
  </scstep>
  <scstep>
   <time name="dav">   29.57   29.64</time>
   <time name="total">   30.08   30.17</time>
   <energy>
    <i name="e_fr_energy">   -190.11530212 </i>
    <i name="e_wo_entrp">   -189.84706240 </i>
    <i name="e_0_energy">   -189.98118226 </i>
   </energy>
  </scstep>
  <scstep>
   <time name="dav">   30.36   30.43</time>
   <time name="total">   30.88   30.97</time>
   <energy>
    <i name="e_fr_energy">   -188.31145644 </i>
    <i name="e_wo_entrp">   -187.98418441 </i>
    <i name="e_0_energy">   -188.14782043 </i>
   </energy>
  </scstep>
  <scstep>
   <time name="dav">   32.95   33.03</time>
   <time name="total">   33.48   33.57</time>
   <energy>
    <i name="e_fr_energy">   -187.13413052 </i>
    <i name="e_wo_entrp">   -186.79284213 </i>
    <i name="e_0_energy">   -186.96348632 </i>
   </energy>
  </scstep>
  <scstep>
   <time name="dav">   31.19   31.27</time>
   <time name="total">   31.73   31.81</time>
   <energy>
    <i name="e_fr_energy">   -187.00959938 </i>
    <i name="e_wo_entrp">   -186.66099099 </i>
    <i name="e_0_energy">   -186.83529518 </i>
   </energy>
  </scstep>
  <scstep>
   <time name="dav">   31.77   31.85</time>
   <time name="total">   32.31   32.39</time>
   <energy>
    <i name="e_fr_energy">   -187.01844461 </i>
    <i name="e_wo_entrp">   -186.68441965 </i>
    <i name="e_0_energy">   -186.85143213 </i>
   </energy>
  </scstep>
  <scstep>
   <time name="dav">   32.53   32.61</time>
   <time name="total">   33.07   33.16</time>
   <energy>
    <i name="e_fr_energy">   -186.92960429 </i>
    <i name="e_wo_entrp">   -186.59322199 </i>
    <i name="e_0_energy">   -186.76141314 </i>
   </energy>
  </scstep>
  <scstep>
   <time name="dav">   32.02   32.10</time>
   <time name="total">   32.56   32.64</time>
   <energy>
    <i name="e_fr_energy">   -186.90026847 </i>
    <i name="e_wo_entrp">   -186.55925523 </i>
    <i name="e_0_energy">   -186.72976185 </i>
   </energy>
  </scstep>
  <scstep>
   <time name="dav">   30.31   30.38</time>
   <time name="total">   30.85   30.93</time>
   <energy>
    <i name="e_fr_energy">   -186.89415634 </i>
    <i name="e_wo_entrp">   -186.55092689 </i>
    <i name="e_0_energy">   -186.72254161 </i>
   </energy>
  </scstep>
  <scstep>
   <time name="dav">   32.02   32.09</time>
   <time name="total">   32.55   32.64</time>
   <energy>
    <i name="e_fr_energy">   -186.88977084 </i>
    <i name="e_wo_entrp">   -186.54650146 </i>
    <i name="e_0_energy">   -186.71813615 </i>
   </energy>
  </scstep>
  <scstep>
   <time name="dav">   31.40   31.47</time>
   <time name="total">   31.94   32.02</time>
   <energy>
    <i name="e_fr_energy">   -186.88705897 </i>
    <i name="e_wo_entrp">   -186.54572682 </i>
    <i name="e_0_energy">   -186.71639289 </i>
   </energy>
  </scstep>
  <scstep>
   <time name="dav">   29.64   29.71</time>
   <time name="total">   30.18   30.26</time>
   <energy>
    <i name="e_fr_energy">   -186.88652119 </i>
    <i name="e_wo_entrp">   -186.54546977 </i>
    <i name="e_0_energy">   -186.71599548 </i>
   </energy>
  </scstep>
  <scstep>
   <time name="dav">   27.81   27.87</time>
   <time name="total">   28.34   28.42</time>
   <energy>
    <i name="e_fr_energy">   -186.88628002 </i>
    <i name="e_wo_entrp">   -186.54470730 </i>
    <i name="e_0_energy">   -186.71549366 </i>
   </energy>
  </scstep>
  <scstep>
   <time name="dav">   23.91   23.97</time>
   <time name="total">   24.45   24.51</time>
   <energy>
    <i name="e_fr_energy">   -186.88717757 </i>
    <i name="e_wo_entrp">   -186.54592101 </i>
    <i name="e_0_energy">   -186.71654929 </i>
   </energy>
  </scstep>
  <scstep>
   <time name="dav">   21.84   21.90</time>
   <time name="total">   22.38   22.44</time>
   <energy>
    <i name="e_fr_energy">   -186.88804513 </i>
    <i name="e_wo_entrp">   -186.54665677 </i>
    <i name="e_0_energy">   -186.71735095 </i>
   </energy>
  </scstep>
  <scstep>
   <time name="dav">   19.07   19.11</time>
   <time name="total">   19.61   19.66</time>
   <energy>
    <i name="e_fr_energy">   -186.88885330 </i>
    <i name="e_wo_entrp">   -186.54750743 </i>
    <i name="e_0_energy">   -186.71818036 </i>
   </energy>
  </scstep>
  <scstep>
   <time name="dav">   20.49   20.54</time>
   <time name="total">   21.03   21.09</time>
   <energy>
    <i name="e_fr_energy">   -186.89000984 </i>
    <i name="e_wo_entrp">   -186.54878328 </i>
    <i name="e_0_energy">   -186.71939656 </i>
   </energy>
  </scstep>
  <scstep>
   <time name="dav">   18.96   19.01</time>
   <time name="total">   19.50   19.55</time>
   <energy>
    <i name="e_fr_energy">   -186.89058861 </i>
    <i name="e_wo_entrp">   -186.54929082 </i>
    <i name="e_0_energy">   -186.71993971 </i>
   </energy>
  </scstep>
  <scstep>
   <time name="dav">   16.68   16.72</time>
   <time name="total">   17.22   17.27</time>
   <energy>
    <i name="e_fr_energy">   -186.89095885 </i>
    <i name="e_wo_entrp">   -186.54964414 </i>
    <i name="e_0_energy">   -186.72030149 </i>
   </energy>
  </scstep>
  <scstep>
   <time name="dav">   19.09   19.13</time>
   <time name="total">   19.63   19.68</time>
   <energy>
    <i name="e_fr_energy">   -186.89119382 </i>
    <i name="e_wo_entrp">   -186.54990138 </i>
    <i name="e_0_energy">   -186.72054760 </i>
   </energy>
  </scstep>
  <scstep>
   <time name="dav">   20.25   20.30</time>
   <time name="total">   20.29   20.34</time>
   <energy>
    <i name="alphaZ">     81.65567618 </i>
    <i name="ewald">  41890.23011097 </i>
    <i name="hartreedc"> -47833.12813277 </i>
    <i name="XCdc">   -231.59833219 </i>
    <i name="pawpsdc">   4192.16248907 </i>
    <i name="pawaedc">  -3610.18658488 </i>
    <i name="eentropy">     -0.34129591 </i>
    <i name="bandstr">  -1437.12773782 </i>
    <i name="atom">   6761.44252427 </i>
    <i name="e_fr_energy">   -186.89128307 </i>
    <i name="e_wo_entrp">   -186.54998716 </i>
    <i name="e_0_energy">   -186.72063512 </i>
   </energy>
  </scstep>
  <structure>
   <crystal>
    <varray name="basis" >
     <v>       8.66999996       5.03999989       0.00000000 </v>
     <v>      -8.66999982       5.04000013       0.00000000 </v>
     <v>       0.00000000       0.00000000      30.00000000 </v>
    </varray>
    <i name="volume">   2621.80797419 </i>
    <varray name="rec_basis" >
     <v>       0.05767013       0.09920635       0.00000000 </v>
     <v>      -0.05767013       0.09920635       0.00000000 </v>
     <v>       0.00000000       0.00000000       0.03333333 </v>
    </varray>
   </crystal>
   <varray name="positions" >
    <v>       0.33333334       0.33333334       0.00000000 </v>
    <v>       1.00000000       0.33333334       0.00000000 </v>
    <v>       0.66666669       0.00000000       0.00000000 </v>
    <v>       0.33333334       0.00000000       0.00000000 </v>
    <v>       0.00000000       0.66666669       0.00000000 </v>
    <v>       0.66666669       0.33333334       0.00000000 </v>
    <v>       0.00000000       0.00000000       0.00000000 </v>
    <v>       0.33333334       0.66666669       0.00000000 </v>
    <v>       0.66666669       0.66666669       0.00000000 </v>
    <v>       0.11068511       0.22244981       0.95539999 </v>
    <v>       0.22244981       0.11068511       0.04460000 </v>
    <v>       0.11068511       0.55578315       0.95539999 </v>
    <v>       0.22244981       0.44401845       0.04460000 </v>
    <v>       0.11068511       0.88911647       0.95539999 </v>
    <v>       0.22244981       0.77735180       0.04460000 </v>
    <v>       0.44401845       0.22244981       0.95539999 </v>
    <v>       0.55578315       0.11068511       0.04460000 </v>
    <v>       0.44401845       0.55578315       0.95539999 </v>
    <v>       0.55578315       0.44401845       0.04460000 </v>
    <v>       0.44401845       0.88911647       0.95539999 </v>
    <v>       0.55578315       0.77735180       0.04460000 </v>
    <v>       0.77735180       0.22244981       0.95539999 </v>
    <v>       0.88911647       0.11068511       0.04460000 </v>
    <v>       0.77735180       0.55578315       0.95539999 </v>
    <v>       0.88911647       0.44401845       0.04460000 </v>
    <v>       0.77735180       0.88911647       0.95539999 </v>
    <v>       0.88911647       0.77735180       0.04460000 </v>
   </varray>
  </structure>
  <varray name="forces" >
   <v>       0.35972199      -0.04179518       0.08285318 </v>
   <v>      -0.35491242      -0.02255001       0.00846808 </v>
   <v>      -0.43083482       0.06675520      -0.08869541 </v>
   <v>       0.01042879       0.01118854      -0.11577905 </v>
   <v>      -0.01401257      -0.01321863       0.01925896 </v>
   <v>       0.04787936      -0.01247925      -0.01914635 </v>
   <v>       0.40397232       0.08014931      -0.00013930 </v>
   <v>      -0.50896020      -0.08236482       0.03413414 </v>
   <v>       0.54990050      -0.00382074       0.12007074 </v>
   <v>      -0.23773497       0.51954988      -1.39671091 </v>
   <v>      -0.64412852       0.57167566       2.17333056 </v>
   <v>       0.61237633      -0.54630072      -2.17016369 </v>
   <v>       0.25541897      -0.51288617       1.40704222 </v>
   <v>      -0.03402899       0.00918749      -2.91220905 </v>
   <v>       0.04477353      -0.01748614       2.89247265 </v>
   <v>      -0.72998199      -0.01056882      -2.10471282 </v>
   <v>       0.73489204       0.01195679       2.10756567 </v>
   <v>       0.45946968      -0.56988935      -2.11375507 </v>
   <v>      -0.65040618      -0.55964346       2.19128969 </v>
   <v>       0.61537302       0.57459346      -2.20344285 </v>
   <v>      -0.45012392       0.56648122       2.11718054 </v>
   <v>       0.90940159      -0.02023485      -1.48630649 </v>
   <v>      -0.74679325      -0.00517323       1.43255910 </v>
   <v>      -0.02373797       0.01484653      -2.91042510 </v>
   <v>       0.73942336       0.00871061       2.10690587 </v>
   <v>      -0.63958484       0.00528797      -2.10744577 </v>
   <v>      -0.27779086      -0.02197129       2.93580046 </v>
  </varray>
  <varray name="stress" >
   <v>       7.48468208       0.00447336      -1.57209338 </v>
   <v>       0.00447342       4.27110878       0.05336114 </v>
   <v>      -1.57209338       0.05336094      30.28638637 </v>
  </varray>
  <energy>
   <i name="e_fr_energy">   -186.89128307 </i>
   <i name="e_wo_entrp">   -186.72063512 </i>
   <i name="e_0_energy">     -0.34129591 </i>
  </energy>
  <time name="totalsc">  786.04  788.16</time>
 </calculation>
 <calculation>
  <scstep>
   <time name="dav">   21.94   21.99</time>
   <time name="total">   22.48   22.54</time>
   <energy>
    <i name="alphaZ">     78.92139164 </i>
    <i name="ewald">  39380.44415824 </i>
    <i name="hartreedc"> -45338.04285694 </i>
    <i name="XCdc">   -239.05069634 </i>
    <i name="pawpsdc">   4192.14589070 </i>
    <i name="pawaedc">  -3610.17008171 </i>
    <i name="eentropy">     -0.27577571 </i>
    <i name="bandstr">  -1412.94874065 </i>
    <i name="atom">   6761.44252427 </i>
    <i name="e_fr_energy">   -187.53418649 </i>
    <i name="e_wo_entrp">   -187.25841077 </i>
    <i name="e_0_energy">   -187.39629863 </i>
   </energy>
  </scstep>
  <scstep>
   <time name="dav">   30.59   30.66</time>
   <time name="total">   31.13   31.21</time>
   <energy>
    <i name="e_fr_energy">   -189.60401926 </i>
    <i name="e_wo_entrp">   -189.26680276 </i>
    <i name="e_0_energy">   -189.43541101 </i>
   </energy>
  </scstep>
  <scstep>
   <time name="dav">   30.73   30.81</time>
   <time name="total">   31.29   31.37</time>
   <energy>
    <i name="e_fr_energy">   -189.34616624 </i>
    <i name="e_wo_entrp">   -189.07733986 </i>
    <i name="e_0_energy">   -189.21175305 </i>
   </energy>
  </scstep>
  <scstep>
   <time name="dav">   30.88   30.96</time>
   <time name="total">   31.43   31.52</time>
   <energy>
    <i name="e_fr_energy">   -188.78895734 </i>
    <i name="e_wo_entrp">   -188.51127105 </i>
    <i name="e_0_energy">   -188.65011419 </i>
   </energy>
  </scstep>
  <scstep>
   <time name="dav">   29.91   29.98</time>
   <time name="total">   30.45   30.54</time>
   <energy>
    <i name="e_fr_energy">   -188.90333930 </i>
    <i name="e_wo_entrp">   -188.61482293 </i>
    <i name="e_0_energy">   -188.75908111 </i>
   </energy>
  </scstep>
  <scstep>
   <time name="dav">   31.05   31.12</time>
   <time name="total">   31.59   31.68</time>
   <energy>
    <i name="e_fr_energy">   -188.75101842 </i>
    <i name="e_wo_entrp">   -188.47467797 </i>
    <i name="e_0_energy">   -188.61284820 </i>
   </energy>
  </scstep>
  <scstep>
   <time name="dav">   29.66   29.73</time>
   <time name="total">   30.21   30.29</time>
   <energy>
    <i name="e_fr_energy">   -188.74181911 </i>
    <i name="e_wo_entrp">   -188.46265665 </i>
    <i name="e_0_energy">   -188.60223788 </i>
   </energy>
  </scstep>
  <scstep>
   <time name="dav">   33.26   33.34</time>
   <time name="total">   33.81   33.90</time>
   <energy>
    <i name="e_fr_energy">   -188.71156681 </i>
    <i name="e_wo_entrp">   -188.43327260 </i>
    <i name="e_0_energy">   -188.57241970 </i>
   </energy>
  </scstep>
  <scstep>
   <time name="dav">   27.27   27.33</time>
   <time name="total">   27.81   27.89</time>
   <energy>
    <i name="e_fr_energy">   -188.70283593 </i>
    <i name="e_wo_entrp">   -188.42613912 </i>
    <i name="e_0_energy">   -188.56448753 </i>
   </energy>
  </scstep>
  <scstep>
   <time name="dav">   29.52   29.59</time>
   <time name="total">   30.07   30.15</time>
   <energy>
    <i name="e_fr_energy">   -188.70274173 </i>
    <i name="e_wo_entrp">   -188.42591532 </i>
    <i name="e_0_energy">   -188.56432853 </i>
   </energy>
  </scstep>
  <scstep>
   <time name="dav">   29.10   29.17</time>
   <time name="total">   29.65   29.73</time>
   <energy>
    <i name="e_fr_energy">   -188.70221374 </i>
    <i name="e_wo_entrp">   -188.42582897 </i>
    <i name="e_0_energy">   -188.56402136 </i>
   </energy>
  </scstep>
  <scstep>
   <time name="dav">   28.47   28.54</time>
   <time name="total">   29.02   29.10</time>
   <energy>
    <i name="e_fr_energy">   -188.70236128 </i>
    <i name="e_wo_entrp">   -188.42596120 </i>
    <i name="e_0_energy">   -188.56416124 </i>
   </energy>
  </scstep>
  <scstep>
   <time name="dav">   21.74   21.80</time>
   <time name="total">   21.78   21.84</time>
   <energy>
    <i name="alphaZ">     78.92139164 </i>
    <i name="ewald">  39380.44415824 </i>
    <i name="hartreedc"> -45348.73858939 </i>
    <i name="XCdc">   -237.96841232 </i>
    <i name="pawpsdc">   3950.67349276 </i>
    <i name="pawaedc">  -3365.19208010 </i>
    <i name="eentropy">     -0.27644644 </i>
    <i name="bandstr">  -1408.00830222 </i>
    <i name="atom">   6761.44252427 </i>
    <i name="e_fr_energy">   -188.70226356 </i>
    <i name="e_wo_entrp">   -188.42581712 </i>
    <i name="e_0_energy">   -188.56404034 </i>
   </energy>
  </scstep>
  <structure>
   <crystal>
    <varray name="basis" >
     <v>       8.85980207       5.10305361       0.00000000 </v>
     <v>      -8.85967008       5.10282705       0.00000000 </v>
     <v>       0.00000000       0.00000000      30.00000000 </v>
    </varray>
    <i name="volume">   2712.64226969 </i>
    <varray name="rec_basis" >
     <v>       0.05643384       0.09798200       0.00000000 </v>
     <v>      -0.05643634       0.09798346       0.00000000 </v>
     <v>       0.00000000       0.00000000       0.03333333 </v>
    </varray>
   </crystal>
   <varray name="positions" >
    <v>       0.33413412       0.33213251       0.00013324 </v>
    <v>       0.99890465       0.33421284       0.00001362 </v>
    <v>       0.66578752       0.00151814      -0.00014263 </v>
    <v>       0.33341591       0.00002453      -0.00018618 </v>
    <v>      -0.00010225       0.66664241       0.00003097 </v>
    <v>       0.66674017       0.33314041      -0.00003079 </v>
    <v>       0.00150751      -0.00074032      -0.00000022 </v>
    <v>       0.33152314       0.66768850       0.00005489 </v>
    <v>       0.66817831       0.66511849       0.00019308 </v>
    <v>       0.11251025       0.22559778       0.95315396 </v>
    <v>       0.22339377       0.11521321       0.04809491 </v>
    <v>       0.10977426       0.55146484       0.95191017 </v>
    <v>       0.22070576       0.44085318       0.04686265 </v>
    <v>       0.11063441       0.88925511       0.95071690 </v>
    <v>       0.22249069       0.77714354       0.04925135 </v>
    <v>       0.44193694       0.22443015       0.95201543 </v>
    <v>       0.55788496       0.10869775       0.04798915 </v>
    <v>       0.44256929       0.55177736       0.95200088 </v>
    <v>       0.55129518       0.44314955       0.04812379 </v>
    <v>       0.44848051       0.89015439       0.95185666 </v>
    <v>       0.55724200       0.78131528       0.04800461 </v>
    <v>       0.77978505       0.21982287       0.95300988 </v>
    <v>       0.88701401       0.11273805       0.04690368 </v>
    <v>       0.77735681       0.55592025       0.95071977 </v>
    <v>       0.89121535       0.44200295       0.04798809 </v>
    <v>       0.77559768       0.89092120       0.95201103 </v>
    <v>       0.88823845       0.77801950       0.04932103 </v>
   </varray>
  </structure>
  <varray name="forces" >
   <v>       0.32551651      -0.00137287      -0.06938063 </v>
   <v>      -0.30013224       0.00561591       0.08540908 </v>
   <v>      -0.40472594       0.00464125       0.05252464 </v>
   <v>       0.05652434      -0.15660797      -0.04009483 </v>
   <v>      -0.19613380       0.07452132       0.01314720 </v>
   <v>      -0.13506922       0.07822721       0.00343038 </v>
   <v>       0.52991546      -0.09528627      -0.10303257 </v>
   <v>      -0.56301890      -0.00746809       0.08828006 </v>
   <v>       0.62217625       0.08783436      -0.06859985 </v>
   <v>       0.06246684      -0.07688592       0.23488943 </v>
   <v>      -0.07594044      -0.03654550       0.06127382 </v>
   <v>       0.07513441       0.04847660      -0.05733568 </v>
   <v>      -0.07059677       0.07337796      -0.19885827 </v>
   <v>      -0.13956406       0.00381354      -0.16437919 </v>
   <v>       0.13412600       0.00304866       0.13277822 </v>
   <v>      -0.06203375      -0.00205379      -0.07725136 </v>
   <v>       0.05412407       0.00453199       0.04610096 </v>
   <v>      -0.06077987       0.06210787       0.29647918 </v>
   <v>      -0.07382882       0.03767924       0.10271080 </v>
   <v>       0.06973019      -0.04338226      -0.10108568 </v>
   <v>       0.05841683      -0.06389247      -0.26084006 </v>
   <v>       0.03377051       0.00222032      -0.01776922 </v>
   <v>       0.11161562       0.00754944      -0.26921480 </v>
   <v>      -0.13905156       0.00443541      -0.13368496 </v>
   <v>       0.07239358      -0.01018862       0.07208412 </v>
   <v>       0.10037905       0.00071828       0.21638327 </v>
   <v>      -0.08541429      -0.00511561       0.15603595 </v>
  </varray>
  <varray name="stress" >
   <v>     -19.94255524       0.00540046       0.17037951 </v>
   <v>       0.00540050     -19.43071577       0.00999849 </v>
   <v>       0.17037979       0.00999845      -1.75468149 </v>
  </varray>
  <energy>
   <i name="e_fr_energy">   -188.70226356 </i>
   <i name="e_wo_entrp">   -188.56404034 </i>
   <i name="e_0_energy">     -0.27644644 </i>
  </energy>
  <time name="totalsc">  422.78  423.89</time>
 </calculation>
 <calculation>
  <scstep>
   <time name="dav">   23.82   23.88</time>
   <time name="total">   24.36   24.42</time>
   <energy>
    <i name="alphaZ">     82.35385500 </i>
    <i name="ewald">  41308.29111017 </i>
    <i name="hartreedc"> -47307.04231202 </i>
    <i name="XCdc">   -233.83787322 </i>
    <i name="pawpsdc">   3949.54124062 </i>
    <i name="pawaedc">  -3364.04919848 </i>
    <i name="eentropy">     -0.23218666 </i>
    <i name="bandstr">  -1387.09989034 </i>
    <i name="atom">   6761.44252427 </i>
    <i name="e_fr_energy">   -190.63273066 </i>
    <i name="e_wo_entrp">   -190.40054401 </i>
    <i name="e_0_energy">   -190.51663733 </i>
   </energy>
  </scstep>
  <scstep>
   <time name="dav">   28.19   28.26</time>
   <time name="total">   28.72   28.79</time>
   <energy>
    <i name="e_fr_energy">   -190.58339762 </i>
    <i name="e_wo_entrp">   -190.35500692 </i>
    <i name="e_0_energy">   -190.46920227 </i>
   </energy>
  </scstep>
  <scstep>
   <time name="dav">   30.55   30.62</time>
   <time name="total">   31.08   31.16</time>
   <energy>
    <i name="e_fr_energy">   -190.11556090 </i>
    <i name="e_wo_entrp">   -189.86660270 </i>
    <i name="e_0_energy">   -189.99108180 </i>
   </energy>
  </scstep>
  <scstep>
   <time name="dav">   31.21   31.29</time>
   <time name="total">   31.75   31.83</time>
   <energy>
    <i name="e_fr_energy">   -189.90214003 </i>
    <i name="e_wo_entrp">   -189.67389135 </i>
    <i name="e_0_energy">   -189.78801569 </i>
   </energy>
  </scstep>
  <scstep>
   <time name="dav">   30.44   30.51</time>
   <time name="total">   30.97   31.05</time>
   <energy>
    <i name="e_fr_energy">   -189.85896197 </i>
    <i name="e_wo_entrp">   -189.62418920 </i>
    <i name="e_0_energy">   -189.74157558 </i>
   </energy>
  </scstep>
  <scstep>
   <time name="dav">   31.33   31.41</time>
   <time name="total">   31.86   31.95</time>
   <energy>
    <i name="e_fr_energy">   -189.80418238 </i>
    <i name="e_wo_entrp">   -189.57020966 </i>
    <i name="e_0_energy">   -189.68719602 </i>
   </energy>
  </scstep>
  <scstep>
   <time name="dav">   28.87   28.94</time>
   <time name="total">   29.41   29.48</time>
   <energy>
    <i name="e_fr_energy">   -189.79732773 </i>
    <i name="e_wo_entrp">   -189.56474329 </i>
    <i name="e_0_energy">   -189.68103551 </i>
   </energy>
  </scstep>
  <scstep>
   <time name="dav">   30.75   30.82</time>
   <time name="total">   31.28   31.36</time>
   <energy>
    <i name="e_fr_energy">   -189.79807109 </i>
    <i name="e_wo_entrp">   -189.56534393 </i>
    <i name="e_0_energy">   -189.68170751 </i>
   </energy>
  </scstep>
  <scstep>
   <time name="dav">   27.26   27.33</time>
   <time name="total">   27.80   27.87</time>
   <energy>
    <i name="e_fr_energy">   -189.79732895 </i>
    <i name="e_wo_entrp">   -189.56449410 </i>
    <i name="e_0_energy">   -189.68091152 </i>
   </energy>
  </scstep>
  <scstep>
   <time name="dav">   25.31   25.37</time>
   <time name="total">   25.85   25.92</time>
   <energy>
    <i name="e_fr_energy">   -189.79763913 </i>
    <i name="e_wo_entrp">   -189.56480427 </i>
    <i name="e_0_energy">   -189.68122170 </i>
   </energy>
  </scstep>
  <scstep>
   <time name="dav">   24.08   24.14</time>
   <time name="total">   24.61   24.68</time>
   <energy>
    <i name="e_fr_energy">   -189.79735308 </i>
    <i name="e_wo_entrp">   -189.56440347 </i>
    <i name="e_0_energy">   -189.68087828 </i>
   </energy>
  </scstep>
  <scstep>
   <time name="dav">   20.13   20.18</time>
   <time name="total">   20.17   20.22</time>
   <energy>
    <i name="alphaZ">     82.35385500 </i>
    <i name="ewald">  41308.29111017 </i>
    <i name="hartreedc"> -47280.54000718 </i>
    <i name="XCdc">   -235.23204660 </i>
    <i name="pawpsdc">   4039.18997807 </i>
    <i name="pawaedc">  -3454.90437177 </i>
    <i name="eentropy">     -0.23292430 </i>
    <i name="bandstr">  -1410.16549768 </i>
    <i name="atom">   6761.44252427 </i>
    <i name="e_fr_energy">   -189.79738002 </i>
    <i name="e_wo_entrp">   -189.56445572 </i>
    <i name="e_0_energy">   -189.68091787 </i>
   </energy>
  </scstep>
  <structure>
   <crystal>
    <varray name="basis" >
     <v>       8.67080525       4.99702411       0.00000000 </v>
     <v>      -8.67061712       4.99669989       0.00000000 </v>
     <v>       0.00000000       0.00000000      30.00000000 </v>
    </varray>
    <i name="volume">   2599.58083249 </i>
    <varray name="rec_basis" >
     <v>       0.05766353       0.10006171       0.00000000 </v>
     <v>      -0.05766727       0.10006389       0.00000000 </v>
     <v>       0.00000000       0.00000000       0.03333333 </v>
    </varray>
   </crystal>
   <varray name="positions" >
    <v>       0.33444523       0.33181679       0.00009378 </v>
    <v>       0.99862507       0.33451121       0.00006219 </v>
    <v>       0.66540561       0.00191559      -0.00011276 </v>
    <v>       0.33320853      -0.00029169      -0.00020898 </v>
    <v>      -0.00016651       0.66695583       0.00003845 </v>
    <v>       0.66674089       0.33340123      -0.00002884 </v>
    <v>       0.00185843      -0.00140984      -0.00005882 </v>
    <v>       0.33096858       0.66821812       0.00010509 </v>
    <v>       0.66892418       0.66466626       0.00015407 </v>
    <v>       0.11244186       0.22540911       0.95328754 </v>
    <v>       0.22325956       0.11522523       0.04812975 </v>
    <v>       0.10992763       0.55147353       0.95187757 </v>
    <v>       0.22076046       0.44104381       0.04674956 </v>
    <v>       0.11050641       0.88939587       0.95062342 </v>
    <v>       0.22262492       0.77701949       0.04932686 </v>
    <v>       0.44187378       0.22448645       0.95197149 </v>
    <v>       0.55794465       0.10865321       0.04801537 </v>
    <v>       0.44261460       0.55193970       0.95216949 </v>
    <v>       0.55128708       0.44328362       0.04818220 </v>
    <v>       0.44847513       0.89001473       0.95179917 </v>
    <v>       0.55719144       0.78115223       0.04785627 </v>
    <v>       0.77982128       0.21979406       0.95299977 </v>
    <v>       0.88713409       0.11264320       0.04675058 </v>
    <v>       0.77723034       0.55606155       0.95064374 </v>
    <v>       0.89126802       0.44191621       0.04802908 </v>
    <v>       0.77569552       0.89082575       0.95213409 </v>
    <v>       0.88814766       0.77809319       0.04940976 </v>
   </varray>
  </structure>
  <varray name="forces" >
   <v>       0.34435008       0.01842019      -0.08409972 </v>
   <v>      -0.30012693       0.02640163       0.08394795 </v>
   <v>      -0.40979659      -0.04199975       0.07406357 </v>
   <v>       0.07505265      -0.20710486      -0.01075429 </v>
   <v>      -0.25939252       0.09990870       0.00768828 </v>
   <v>      -0.19695208       0.10078810       0.01249564 </v>
   <v>       0.57447537      -0.16231508      -0.08894357 </v>
   <v>      -0.57587491       0.02166376       0.07033240 </v>
   <v>       0.65261939       0.12219348      -0.08758545 </v>
   <v>      -0.02102649       0.05066075      -0.20905362 </v>
   <v>      -0.05962575       0.09150209       0.56771805 </v>
   <v>       0.06194584      -0.08576551      -0.56551266 </v>
   <v>       0.01048637      -0.05659870       0.24782639 </v>
   <v>      -0.04022179       0.00342096      -0.73897439 </v>
   <v>       0.02901476       0.00530023       0.70037450 </v>
   <v>      -0.12258045       0.00189947      -0.56375159 </v>
   <v>       0.11221514       0.00688929       0.52230297 </v>
   <v>      -0.00785958      -0.04985154      -0.16993199 </v>
   <v>      -0.05810617      -0.09680872       0.62481987 </v>
   <v>       0.06480155       0.08810847      -0.62258303 </v>
   <v>       0.00141647       0.05670111       0.20813084 </v>
   <v>       0.09864715       0.00679374      -0.47586687 </v>
   <v>      -0.02095033       0.00727799       0.16542393 </v>
   <v>      -0.03376388       0.00139241      -0.70162519 </v>
   <v>       0.13388690      -0.01185600       0.55709193 </v>
   <v>      -0.04436595      -0.00154925      -0.26910624 </v>
   <v>      -0.00826824       0.00452705       0.74557228 </v>
  </varray>
  <varray name="stress" >
   <v>     -10.17565719      -0.01245237       0.17086125 </v>
   <v>      -0.01245238      -9.76160761      -0.00233130 </v>
   <v>       0.17086111      -0.00233141       6.51746226 </v>
  </varray>
  <energy>
   <i name="e_fr_energy">   -189.79738002 </i>
   <i name="e_wo_entrp">   -189.68091787 </i>
   <i name="e_0_energy">     -0.23292430 </i>
  </energy>
  <time name="totalsc">  379.85  380.86</time>
 </calculation>
 <calculation>
  <scstep>
   <time name="dav">   21.83   21.88</time>
   <time name="total">   22.35   22.40</time>
   <energy>
    <i name="alphaZ">     85.82358379 </i>
    <i name="ewald">  42834.77989417 </i>
    <i name="hartreedc"> -48851.44149411 </i>
    <i name="XCdc">   -232.95701993 </i>
    <i name="pawpsdc">   4039.29441229 </i>
    <i name="pawaedc">  -3455.00670153 </i>
    <i name="eentropy">     -0.19157373 </i>
    <i name="bandstr">  -1373.11575739 </i>
    <i name="atom">   6761.44252427 </i>
    <i name="e_fr_energy">   -191.37213217 </i>
    <i name="e_wo_entrp">   -191.18055844 </i>
    <i name="e_0_energy">   -191.27634530 </i>
   </energy>
  </scstep>
  <scstep>
   <time name="dav">   32.79   32.87</time>
   <time name="total">   33.31   33.39</time>
   <energy>
    <i name="e_fr_energy">   -191.18865008 </i>
    <i name="e_wo_entrp">   -190.99913257 </i>
    <i name="e_0_energy">   -191.09389133 </i>
   </energy>
  </scstep>
  <scstep>
   <time name="dav">   30.14   30.21</time>
   <time name="total">   30.65   30.73</time>
   <energy>
    <i name="e_fr_energy">   -191.34494368 </i>
    <i name="e_wo_entrp">   -191.12099225 </i>
    <i name="e_0_energy">   -191.23296796 </i>
   </energy>
  </scstep>
  <scstep>
   <time name="dav">   30.77   30.84</time>
   <time name="total">   31.29   31.38</time>
   <energy>
    <i name="e_fr_energy">   -190.94321969 </i>
    <i name="e_wo_entrp">   -190.75240456 </i>
    <i name="e_0_energy">   -190.84781213 </i>
   </energy>
  </scstep>
  <scstep>
   <time name="dav">   30.37   30.44</time>
   <time name="total">   30.89   30.97</time>
   <energy>
    <i name="e_fr_energy">   -190.90013201 </i>
    <i name="e_wo_entrp">   -190.70554866 </i>
    <i name="e_0_energy">   -190.80284034 </i>
   </energy>
  </scstep>
  <scstep>
   <time name="dav">   30.53   30.60</time>
   <time name="total">   31.05   31.13</time>
   <energy>
    <i name="e_fr_energy">   -190.81470575 </i>
    <i name="e_wo_entrp">   -190.61653903 </i>
    <i name="e_0_energy">   -190.71562239 </i>
   </energy>
  </scstep>
  <scstep>
   <time name="dav">   30.99   31.07</time>
   <time name="total">   31.51   31.59</time>
   <energy>
    <i name="e_fr_energy">   -190.80282201 </i>
    <i name="e_wo_entrp">   -190.60872941 </i>
    <i name="e_0_energy">   -190.70577571 </i>
   </energy>
  </scstep>
  <scstep>
   <time name="dav">   26.34   26.41</time>
   <time name="total">   26.86   26.93</time>
   <energy>
    <i name="e_fr_energy">   -190.79938600 </i>
    <i name="e_wo_entrp">   -190.60408936 </i>
    <i name="e_0_energy">   -190.70173768 </i>
   </energy>
  </scstep>
  <scstep>
   <time name="dav">   31.09   31.16</time>
   <time name="total">   31.61   31.69</time>
   <energy>
    <i name="e_fr_energy">   -190.80033082 </i>
    <i name="e_wo_entrp">   -190.60474284 </i>
    <i name="e_0_energy">   -190.70253683 </i>
   </energy>
  </scstep>
  <scstep>
   <time name="dav">   28.38   28.45</time>
   <time name="total">   28.90   28.98</time>
   <energy>
    <i name="e_fr_energy">   -190.79970266 </i>
    <i name="e_wo_entrp">   -190.60415345 </i>
    <i name="e_0_energy">   -190.70192805 </i>
   </energy>
  </scstep>
  <scstep>
   <time name="dav">   24.01   24.06</time>
   <time name="total">   24.52   24.59</time>
   <energy>
    <i name="e_fr_energy">   -190.79955905 </i>
    <i name="e_wo_entrp">   -190.60408064 </i>
    <i name="e_0_energy">   -190.70181984 </i>
   </energy>
  </scstep>
  <scstep>
   <time name="dav">   20.51   20.55</time>
   <time name="total">   20.54   20.60</time>
   <energy>
    <i name="alphaZ">     85.82358379 </i>
    <i name="ewald">  42834.77989417 </i>
    <i name="hartreedc"> -48822.87667420 </i>
    <i name="XCdc">   -234.28535031 </i>
    <i name="pawpsdc">   4064.11513355 </i>
    <i name="pawaedc">  -3479.99871416 </i>
    <i name="eentropy">     -0.19551658 </i>
    <i name="bandstr">  -1399.60443318 </i>
    <i name="atom">   6761.44252427 </i>
    <i name="e_fr_energy">   -190.79955266 </i>
    <i name="e_wo_entrp">   -190.60403608 </i>
    <i name="e_0_energy">   -190.70179437 </i>
   </energy>
  </scstep>
  <structure>
   <crystal>
    <varray name="basis" >
     <v>       8.48759850       4.89764260       0.00000000 </v>
     <v>      -8.48815812       4.89861543       0.00000000 </v>
     <v>       0.00000000       0.00000000      30.00000000 </v>
    </varray>
    <i name="volume">   2494.48337485 </i>
    <varray name="rec_basis" >
     <v>       0.05891339       0.10208316       0.00000000 </v>
     <v>      -0.05890169       0.10207643       0.00000000 </v>
     <v>       0.00000000       0.00000000       0.03333333 </v>
    </varray>
   </crystal>
   <varray name="positions" >
    <v>       0.33588105       0.33071019      -0.00009281 </v>
    <v>       0.99775781       0.33581286       0.00023478 </v>
    <v>       0.66353849       0.00302445       0.00005881 </v>
    <v>       0.33208251      -0.00201317      -0.00020645 </v>
    <v>      -0.00050493       0.66867307       0.00004975 </v>
    <v>       0.66662855       0.33488936       0.00000470 </v>
    <v>       0.00281386      -0.00473355      -0.00023108 </v>
    <v>       0.32907761       0.67052563       0.00023556 </v>
    <v>       0.67217716       0.66311584      -0.00004334 </v>
    <v>       0.11288092       0.22623914       0.95247934 </v>
    <v>       0.22395926       0.11630914       0.04973345 </v>
    <v>       0.10926136       0.55039733       0.95027697 </v>
    <v>       0.22023661       0.44021206       0.04764035 </v>
    <v>       0.11052374       0.88941948       0.94860749 </v>
    <v>       0.22261813       0.77710392       0.05125694 </v>
    <v>       0.44136595       0.22503779       0.95039287 </v>
    <v>       0.55848230       0.10821362       0.04949946 </v>
    <v>       0.44207122       0.55130162       0.95142331 </v>
    <v>       0.55015858       0.44253000       0.04991738 </v>
    <v>       0.44958129       0.89066672       0.95006914 </v>
    <v>       0.55777009       0.78188382       0.04868371 </v>
    <v>       0.78032452       0.21939869       0.95162714 </v>
    <v>       0.88691360       0.11295360       0.04746056 </v>
    <v>       0.77726021       0.55603402       0.94871078 </v>
    <v>       0.89176133       0.44126593       0.04959266 </v>
    <v>       0.77531270       0.89117790       0.95116642 </v>
    <v>       0.88828055       0.77806499       0.05145198 </v>
   </varray>
  </structure>
  <varray name="forces" >
   <v>       0.36432608       0.01145101      -0.07817215 </v>
   <v>      -0.28063443       0.04624727       0.04706491 </v>
   <v>      -0.47922342      -0.07591234       0.07087496 </v>
   <v>       0.09947706      -0.24418519       0.02596532 </v>
   <v>      -0.31306492       0.12893282      -0.01340626 </v>
   <v>      -0.23581583       0.11019586       0.01466737 </v>
   <v>       0.59131615      -0.18502788      -0.01310601 </v>
   <v>      -0.64611530       0.01154901      -0.00530559 </v>
   <v>       0.73550907       0.16665770      -0.03190146 </v>
   <v>       0.02473837      -0.01898433      -0.08756002 </v>
   <v>       0.01877287       0.01141615       0.37368189 </v>
   <v>      -0.03423064      -0.02946198      -0.37749230 </v>
   <v>      -0.01628242      -0.00269100       0.14730934 </v>
   <v>       0.07003712       0.00939325      -0.59948001 </v>
   <v>      -0.07731407      -0.01540227       0.54580791 </v>
   <v>       0.01865424      -0.01156481      -0.39650792 </v>
   <v>      -0.02869605       0.01384735       0.36450430 </v>
   <v>      -0.03429465       0.02430947       0.02020925 </v>
   <v>       0.00173156      -0.02361849       0.47323587 </v>
   <v>      -0.01745896       0.04007661      -0.48411483 </v>
   <v>       0.04463268      -0.00150652       0.02336730 </v>
   <v>      -0.00931481       0.01395901      -0.37514507 </v>
   <v>       0.05062167       0.00323604       0.05532125 </v>
   <v>       0.09988628       0.00871647      -0.56702916 </v>
   <v>      -0.00428495       0.00461948       0.39311786 </v>
   <v>       0.01665475       0.00112618      -0.11670587 </v>
   <v>       0.04037252       0.00262112       0.59079913 </v>
  </varray>
  <varray name="stress" >
   <v>      -5.63065946      -0.00776471      -0.12112371 </v>
   <v>      -0.00776463      -5.91041191      -0.04450919 </v>
   <v>      -0.12112399      -0.04450926       4.52925693 </v>
  </varray>
  <energy>
   <i name="e_fr_energy">   -190.79955266 </i>
   <i name="e_wo_entrp">   -190.70179437 </i>
   <i name="e_0_energy">     -0.19551658 </i>
  </energy>
  <time name="totalsc">  385.49  386.51</time>
 </calculation>
 <calculation>
  <scstep>
   <time name="dav">   21.87   21.92</time>
   <time name="total">   22.38   22.43</time>
   <energy>
    <i name="alphaZ">     90.15849156 </i>
    <i name="ewald">  44668.71612546 </i>
    <i name="hartreedc"> -50711.48883601 </i>
    <i name="XCdc">   -231.80646818 </i>
    <i name="pawpsdc">   4064.07166164 </i>
    <i name="pawaedc">  -3479.95116917 </i>
    <i name="eentropy">     -0.16504424 </i>
    <i name="bandstr">  -1353.21810240 </i>
    <i name="atom">   6761.44252427 </i>
    <i name="e_fr_energy">   -192.24081707 </i>
    <i name="e_wo_entrp">   -192.07577283 </i>
    <i name="e_0_energy">   -192.15829495 </i>
   </energy>
  </scstep>
  <scstep>
   <time name="dav">   27.90   27.97</time>
   <time name="total">   28.41   28.48</time>
   <energy>
    <i name="e_fr_energy">   -191.97058483 </i>
    <i name="e_wo_entrp">   -191.79435555 </i>
    <i name="e_0_energy">   -191.88247019 </i>
   </energy>
  </scstep>
  <scstep>
   <time name="dav">   30.27   30.35</time>
   <time name="total">   30.78   30.86</time>
   <energy>
    <i name="e_fr_energy">   -192.04308905 </i>
    <i name="e_wo_entrp">   -191.86106169 </i>
    <i name="e_0_energy">   -191.95207537 </i>
   </energy>
  </scstep>
  <scstep>
   <time name="dav">   29.87   29.94</time>
   <time name="total">   30.38   30.46</time>
   <energy>
    <i name="e_fr_energy">   -191.85027292 </i>
    <i name="e_wo_entrp">   -191.67213092 </i>
    <i name="e_0_energy">   -191.76120192 </i>
   </energy>
  </scstep>
  <scstep>
   <time name="dav">   30.55   30.62</time>
   <time name="total">   31.05   31.14</time>
   <energy>
    <i name="e_fr_energy">   -191.59797001 </i>
    <i name="e_wo_entrp">   -191.42814122 </i>
    <i name="e_0_energy">   -191.51305562 </i>
   </energy>
  </scstep>
  <scstep>
   <time name="dav">   31.14   31.21</time>
   <time name="total">   31.65   31.73</time>
   <energy>
    <i name="e_fr_energy">   -191.58479715 </i>
    <i name="e_wo_entrp">   -191.40224125 </i>
    <i name="e_0_energy">   -191.49351920 </i>
   </energy>
  </scstep>
  <scstep>
   <time name="dav">   30.57   30.64</time>
   <time name="total">   31.08   31.16</time>
   <energy>
    <i name="e_fr_energy">   -191.56716403 </i>
    <i name="e_wo_entrp">   -191.39992169 </i>
    <i name="e_0_energy">   -191.48354286 </i>
   </energy>
  </scstep>
  <scstep>
   <time name="dav">   29.50   29.57</time>
   <time name="total">   30.01   30.09</time>
   <energy>
    <i name="e_fr_energy">   -191.56058192 </i>
    <i name="e_wo_entrp">   -191.38869119 </i>
    <i name="e_0_energy">   -191.47463656 </i>
   </energy>
  </scstep>
  <scstep>
   <time name="dav">   29.44   29.51</time>
   <time name="total">   29.95   30.03</time>
   <energy>
    <i name="e_fr_energy">   -191.55949862 </i>
    <i name="e_wo_entrp">   -191.38719890 </i>
    <i name="e_0_energy">   -191.47334876 </i>
   </energy>
  </scstep>
  <scstep>
   <time name="dav">   28.76   28.83</time>
   <time name="total">   29.27   29.35</time>
   <energy>
    <i name="e_fr_energy">   -191.55952506 </i>
    <i name="e_wo_entrp">   -191.38705015 </i>
    <i name="e_0_energy">   -191.47328761 </i>
   </energy>
  </scstep>
  <scstep>
   <time name="dav">   27.37   27.44</time>
   <time name="total">   27.41   27.49</time>
   <energy>
    <i name="alphaZ">     90.15849156 </i>
    <i name="ewald">  44668.71612546 </i>
    <i name="hartreedc"> -50677.29042145 </i>
    <i name="XCdc">   -233.32329459 </i>
    <i name="pawpsdc">   4087.73959229 </i>
    <i name="pawaedc">  -3503.72241857 </i>
    <i name="eentropy">     -0.17266899 </i>
    <i name="bandstr">  -1385.10740388 </i>
    <i name="atom">   6761.44252427 </i>
    <i name="e_fr_energy">   -191.55947390 </i>
    <i name="e_wo_entrp">   -191.38680491 </i>
    <i name="e_0_energy">   -191.47313941 </i>
   </energy>
  </scstep>
  <structure>
   <crystal>
    <varray name="basis" >
     <v>       8.28704690       4.77398137       0.00000000 </v>
     <v>      -8.28846347       4.77643846       0.00000000 </v>
     <v>       0.00000000       0.00000000      30.00000000 </v>
    </varray>
    <i name="volume">   2374.54619348 </i>
    <varray name="rec_basis" >
     <v>       0.06034549       0.10471639       0.00000000 </v>
     <v>      -0.06031445       0.10469849       0.00000000 </v>
     <v>       0.00000000       0.00000000       0.03333333 </v>
    </varray>
   </crystal>
   <varray name="positions" >
    <v>       0.33863076       0.32836952      -0.00041673 </v>
    <v>       0.99637110       0.33836557       0.00043729 </v>
    <v>       0.65927218       0.00531043       0.00035912 </v>
    <v>       0.32975778      -0.00573522      -0.00009575 </v>
    <v>      -0.00115596       0.67247901       0.00000287 </v>
    <v>       0.66630116       0.33796771       0.00006974 </v>
    <v>       0.00460231      -0.01128072      -0.00030847 </v>
    <v>       0.32486536       0.67521026       0.00023691 </v>
    <v>       0.67929645       0.66006199      -0.00021540 </v>
    <v>       0.11311501       0.22648196       0.95165247 </v>
    <v>       0.22466605       0.11684849       0.05178044 </v>
    <v>       0.10827228       0.54974758       0.94821650 </v>
    <v>       0.21979719       0.43968940       0.04869355 </v>
    <v>       0.11116987       0.88897838       0.94563771 </v>
    <v>       0.22186501       0.77756506       0.05401718 </v>
    <v>       0.44116056       0.22502992       0.94828901 </v>
    <v>       0.55866918       0.10835111       0.05146302 </v>
    <v>       0.44180394       0.55129249       0.95096275 </v>
    <v>       0.54936322       0.44177157       0.05234808 </v>
    <v>       0.45045485       0.89164575       0.94760310 </v>
    <v>       0.55836021       0.78211631       0.04931501 </v>
    <v>       0.78063358       0.21942839       0.94966849 </v>
    <v>       0.88703139       0.11292542       0.04814616 </v>
    <v>       0.77808398       0.55537989       0.94587724 </v>
    <v>       0.89198312       0.44109302       0.05168010 </v>
    <v>       0.77514274       0.89135379       0.95016978 </v>
    <v>       0.88870117       0.77776739       0.05440974 </v>
   </varray>
  </structure>
  <varray name="forces" >
   <v>       0.44226054      -0.04570102      -0.00197176 </v>
   <v>      -0.34320327       0.06237789       0.02958903 </v>
   <v>      -0.60632114      -0.04960821      -0.03893842 </v>
   <v>       0.05170219      -0.16414781      -0.00915104 </v>
   <v>      -0.07485523       0.07344702      -0.07475231 </v>
   <v>      -0.08338850       0.10469348      -0.05255308 </v>
   <v>       0.46490236      -0.09965799       0.02884145 </v>
   <v>      -0.59410359      -0.03118808      -0.05387572 </v>
   <v>       0.53003390       0.10656750       0.09909693 </v>
   <v>       0.10887437      -0.12158636       0.15597390 </v>
   <v>       0.07923630      -0.06348216       0.12010559 </v>
   <v>      -0.13597706       0.02869496      -0.13302254 </v>
   <v>      -0.05041359       0.11127492      -0.13629153 </v>
   <v>       0.12122884       0.02901661      -0.27895042 </v>
   <v>      -0.16637653      -0.06325869       0.28375211 </v>
   <v>       0.15049032      -0.03564352      -0.08585579 </v>
   <v>      -0.19896963       0.01472401       0.13058147 </v>
   <v>      -0.09457255       0.18108399       0.34059508 </v>
   <v>       0.03504270       0.06698964       0.17320791 </v>
   <v>      -0.09479287      -0.01118660      -0.19906876 </v>
   <v>       0.14940403      -0.09724141      -0.32840211 </v>
   <v>      -0.09751949      -0.00260584      -0.07763910 </v>
   <v>       0.14689502      -0.03469356      -0.21159929 </v>
   <v>       0.21828658       0.04147958      -0.30047839 </v>
   <v>      -0.14456860       0.02853417       0.09718988 </v>
   <v>       0.11497783      -0.02814261       0.19743355 </v>
   <v>       0.07172708      -0.00073990       0.32618333 </v>
  </varray>
  <varray name="stress" >
   <v>       0.21503399      -0.07366736      -0.44173260 </v>
   <v>      -0.07366716      -0.20600113      -0.12884642 </v>
   <v>      -0.44173251      -0.12884650      -0.15044759 </v>
  </varray>
  <energy>
   <i name="e_fr_energy">   -191.55947390 </i>
   <i name="e_wo_entrp">   -191.47313941 </i>
   <i name="e_0_energy">     -0.17266899 </i>
  </energy>
  <time name="totalsc">  364.49  365.45</time>
 </calculation>
 <calculation>
  <scstep>
   <time name="dav">   21.89   21.94</time>
   <time name="total">   22.39   22.45</time>
   <energy>
    <i name="alphaZ">     90.12626100 </i>
    <i name="ewald">  44634.90645318 </i>
    <i name="hartreedc"> -50643.83058060 </i>
    <i name="XCdc">   -233.43047968 </i>
    <i name="pawpsdc">   4088.09754076 </i>
    <i name="pawaedc">  -3504.07700940 </i>
    <i name="eentropy">     -0.16653030 </i>
    <i name="bandstr">  -1384.74518927 </i>
    <i name="atom">   6761.44252427 </i>
    <i name="e_fr_energy">   -191.67701004 </i>
    <i name="e_wo_entrp">   -191.51047974 </i>
    <i name="e_0_energy">   -191.59374489 </i>
   </energy>
  </scstep>
  <scstep>
   <time name="dav">   31.74   31.81</time>
   <time name="total">   32.24   32.33</time>
   <energy>
    <i name="e_fr_energy">   -191.74042378 </i>
    <i name="e_wo_entrp">   -191.55423152 </i>
    <i name="e_0_energy">   -191.64732765 </i>
   </energy>
  </scstep>
  <scstep>
   <time name="dav">   30.95   31.02</time>
   <time name="total">   31.46   31.55</time>
   <energy>
    <i name="e_fr_energy">   -191.69463837 </i>
    <i name="e_wo_entrp">   -191.52757173 </i>
    <i name="e_0_energy">   -191.61110505 </i>
   </energy>
  </scstep>
  <scstep>
   <time name="dav">   29.06   29.13</time>
   <time name="total">   29.57   29.65</time>
   <energy>
    <i name="e_fr_energy">   -191.69474896 </i>
    <i name="e_wo_entrp">   -191.52490427 </i>
    <i name="e_0_energy">   -191.60982661 </i>
   </energy>
  </scstep>
  <scstep>
   <time name="dav">   28.94   29.01</time>
   <time name="total">   29.44   29.52</time>
   <energy>
    <i name="e_fr_energy">   -191.69143548 </i>
    <i name="e_wo_entrp">   -191.52173535 </i>
    <i name="e_0_energy">   -191.60658542 </i>
   </energy>
  </scstep>
  <scstep>
   <time name="dav">   28.45   28.52</time>
   <time name="total">   28.96   29.04</time>
   <energy>
    <i name="e_fr_energy">   -191.69130917 </i>
    <i name="e_wo_entrp">   -191.52109428 </i>
    <i name="e_0_energy">   -191.60620173 </i>
   </energy>
  </scstep>
  <scstep>
   <time name="dav">   29.04   29.11</time>
   <time name="total">   29.55   29.63</time>
   <energy>
    <i name="e_fr_energy">   -191.69085744 </i>
    <i name="e_wo_entrp">   -191.52132009 </i>
    <i name="e_0_energy">   -191.60608877 </i>
   </energy>
  </scstep>
  <scstep>
   <time name="dav">   23.82   23.88</time>
   <time name="total">   24.33   24.39</time>
   <energy>
    <i name="e_fr_energy">   -191.69059237 </i>
    <i name="e_wo_entrp">   -191.52075318 </i>
    <i name="e_0_energy">   -191.60567278 </i>
   </energy>
  </scstep>
  <scstep>
   <time name="dav">   17.94   17.98</time>
   <time name="total">   17.97   18.02</time>
   <energy>
    <i name="alphaZ">     90.12626100 </i>
    <i name="ewald">  44634.90645318 </i>
    <i name="hartreedc"> -50645.13647538 </i>
    <i name="XCdc">   -233.39396393 </i>
    <i name="pawpsdc">   4086.30178691 </i>
    <i name="pawaedc">  -3502.24003217 </i>
    <i name="eentropy">     -0.16959337 </i>
    <i name="bandstr">  -1383.52755819 </i>
    <i name="atom">   6761.44252427 </i>
    <i name="e_fr_energy">   -191.69059767 </i>
    <i name="e_wo_entrp">   -191.52100430 </i>
    <i name="e_0_energy">   -191.60580099 </i>
   </energy>
  </scstep>
  <structure>
   <crystal>
    <varray name="basis" >
     <v>       8.29208941       4.77068957       0.00000000 </v>
     <v>      -8.29532028       4.77629288       0.00000000 </v>
     <v>       0.00000000       0.00000000      30.00000000 </v>
    </varray>
    <i name="volume">   2375.39536833 </i>
    <varray name="rec_basis" >
     <v>       0.06032208       0.10476555       0.00000000 </v>
     <v>      -0.06025131       0.10472475       0.00000000 </v>
     <v>       0.00000000       0.00000000       0.03333333 </v>
    </varray>
   </crystal>
   <varray name="positions" >
    <v>       0.33963394       0.32690854      -0.00041593 </v>
    <v>       0.99571664       0.33962331       0.00048143 </v>
    <v>       0.65734597       0.00676871       0.00029407 </v>
    <v>       0.32912010      -0.00665141      -0.00011153 </v>
    <v>      -0.00099805       0.67301126      -0.00011447 </v>
    <v>       0.66658559       0.33868721      -0.00001392 </v>
    <v>       0.00541548      -0.01302235      -0.00026190 </v>
    <v>       0.32306333       0.67669548       0.00015178 </v>
    <v>       0.68125397       0.65911292      -0.00005680 </v>
    <v>       0.11281853       0.22556137       0.95191186 </v>
    <v>       0.22456603       0.11629758       0.05194129 </v>
    <v>       0.10804103       0.55028938       0.94803543 </v>
    <v>       0.22021186       0.44039512       0.04846262 </v>
    <v>       0.11165164       0.88878194       0.94523747 </v>
    <v>       0.22108593       0.77772016       0.05442741 </v>
    <v>       0.44141749       0.22442216       0.94818255 </v>
    <v>       0.55817031       0.10899180       0.05164174 </v>
    <v>       0.44243652       0.55246333       0.95150938 </v>
    <v>       0.54980845       0.44201586       0.05258824 </v>
    <v>       0.45011463       0.89184633       0.94732252 </v>
    <v>       0.55829575       0.78120144       0.04878562 </v>
    <v>       0.78033711       0.21969494       0.94957279 </v>
    <v>       0.88727963       0.11233266       0.04780084 </v>
    <v>       0.77890258       0.55497077       0.94544141 </v>
    <v>       0.89170769       0.44165077       0.05180464 </v>
    <v>       0.77533590       0.89088219       0.95049695 </v>
    <v>       0.88889643       0.77756299       0.05488439 </v>
   </varray>
  </structure>
  <varray name="forces" >
   <v>       0.47026650      -0.06916815      -0.00546434 </v>
   <v>      -0.39227416       0.06875602       0.06372114 </v>
   <v>      -0.60274948      -0.03046800      -0.00594904 </v>
   <v>       0.01447997      -0.16779290       0.02812982 </v>
   <v>      -0.04343468       0.05492485      -0.03144944 </v>
   <v>      -0.06295526       0.12420418      -0.03061454 </v>
   <v>       0.48176829      -0.06933079       0.02101506 </v>
   <v>      -0.58921686      -0.02499785      -0.00922320 </v>
   <v>       0.55878693       0.08198548       0.03226327 </v>
   <v>       0.08498073      -0.08253247       0.21200932 </v>
   <v>       0.05571054      -0.02587714       0.12859364 </v>
   <v>      -0.07773378       0.00250128      -0.17032306 </v>
   <v>      -0.04004521       0.09485392      -0.20480859 </v>
   <v>       0.09837297       0.02398751      -0.23390369 </v>
   <v>      -0.13511506      -0.03496588       0.22073333 </v>
   <v>       0.11097898      -0.02251199      -0.08347207 </v>
   <v>      -0.15888638       0.00708890       0.09514346 </v>
   <v>      -0.08283648       0.12431160       0.37986679 </v>
   <v>       0.04958321       0.03335228       0.15041023 </v>
   <v>      -0.08290931      -0.00675092      -0.19815208 </v>
   <v>       0.09936215      -0.06044101      -0.36309062 </v>
   <v>      -0.05395367      -0.00330354      -0.09173237 </v>
   <v>       0.09886092      -0.03972754      -0.27626051 </v>
   <v>       0.14254896       0.02744059      -0.21376124 </v>
   <v>      -0.09941187       0.01429647       0.08149924 </v>
   <v>       0.07342479      -0.03254032       0.24688275 </v>
   <v>       0.08239729       0.01270542       0.25793673 </v>
  </varray>
  <varray name="stress" >
   <v>       0.07872140       0.00680570      -0.31533225 </v>
   <v>       0.00680567      -0.14227208      -0.03159922 </v>
   <v>      -0.31533217      -0.03159941      -0.82561754 </v>
  </varray>
  <energy>
   <i name="e_fr_energy">   -191.69059767 </i>
   <i name="e_wo_entrp">   -191.60580099 </i>
   <i name="e_0_energy">     -0.16959337 </i>
  </energy>
  <time name="totalsc">  288.09  288.85</time>
 </calculation>
 <calculation>
  <scstep>
   <time name="dav">   21.85   21.90</time>
   <time name="total">   22.36   22.42</time>
   <energy>
    <i name="alphaZ">     90.12667794 </i>
    <i name="ewald">  44630.64986102 </i>
    <i name="hartreedc"> -50640.86465412 </i>
    <i name="XCdc">   -233.42181148 </i>
    <i name="pawpsdc">   4086.27099923 </i>
    <i name="pawaedc">  -3502.20902246 </i>
    <i name="eentropy">     -0.16294585 </i>
    <i name="bandstr">  -1383.64961512 </i>
    <i name="atom">   6761.44252427 </i>
    <i name="e_fr_energy">   -191.81798656 </i>
    <i name="e_wo_entrp">   -191.65504071 </i>
    <i name="e_0_energy">   -191.73651364 </i>
   </energy>
  </scstep>
  <scstep>
   <time name="dav">   30.97   31.04</time>
   <time name="total">   31.47   31.56</time>
   <energy>
    <i name="e_fr_energy">   -191.86193550 </i>
    <i name="e_wo_entrp">   -191.68666493 </i>
    <i name="e_0_energy">   -191.77430021 </i>
   </energy>
  </scstep>
  <scstep>
   <time name="dav">   30.86   30.94</time>
   <time name="total">   31.37   31.46</time>
   <energy>
    <i name="e_fr_energy">   -191.83918009 </i>
    <i name="e_wo_entrp">   -191.67784431 </i>
    <i name="e_0_energy">   -191.75851220 </i>
   </energy>
  </scstep>
  <scstep>
   <time name="dav">   29.56   29.64</time>
   <time name="total">   30.07   30.15</time>
   <energy>
    <i name="e_fr_energy">   -191.83547442 </i>
    <i name="e_wo_entrp">   -191.67075497 </i>
    <i name="e_0_energy">   -191.75311470 </i>
   </energy>
  </scstep>
  <scstep>
   <time name="dav">   29.28   29.35</time>
   <time name="total">   29.79   29.87</time>
   <energy>
    <i name="e_fr_energy">   -191.83457560 </i>
    <i name="e_wo_entrp">   -191.67019111 </i>
    <i name="e_0_energy">   -191.75238336 </i>
   </energy>
  </scstep>
  <scstep>
   <time name="dav">   29.57   29.64</time>
   <time name="total">   30.07   30.15</time>
   <energy>
    <i name="e_fr_energy">   -191.83381553 </i>
    <i name="e_wo_entrp">   -191.66915351 </i>
    <i name="e_0_energy">   -191.75148452 </i>
   </energy>
  </scstep>
  <scstep>
   <time name="dav">   26.50   26.56</time>
   <time name="total">   27.01   27.08</time>
   <energy>
    <i name="e_fr_energy">   -191.83295314 </i>
    <i name="e_wo_entrp">   -191.66842941 </i>
    <i name="e_0_energy">   -191.75069127 </i>
   </energy>
  </scstep>
  <scstep>
   <time name="dav">   22.90   22.95</time>
   <time name="total">   22.94   23.00</time>
   <energy>
    <i name="alphaZ">     90.12667794 </i>
    <i name="ewald">  44630.64986102 </i>
    <i name="hartreedc"> -50641.36424753 </i>
    <i name="XCdc">   -233.40011995 </i>
[...]
      <set comment="kpoint 31">
       <r>  -17.5498    1.0000 </r>
       <r>  -17.2325    1.0000 </r>
       <r>  -16.9551    1.0000 </r>
       <r>  -16.6992    1.0000 </r>
       <r>  -16.5150    1.0000 </r>
       <r>  -16.4542    1.0000 </r>
       <r>  -16.3598    1.0000 </r>
       <r>  -16.1651    1.0000 </r>
       <r>  -16.1237    1.0000 </r>
       <r>  -16.0300    1.0000 </r>
       <r>  -15.9331    1.0000 </r>
       <r>  -15.8723    1.0000 </r>
       <r>  -15.7410    1.0000 </r>
       <r>  -15.6601    1.0000 </r>
       <r>  -15.5815    1.0000 </r>
       <r>  -15.4609    1.0000 </r>
       <r>  -15.3779    1.0000 </r>
       <r>  -15.2841    1.0000 </r>
       <r>   -9.7426    1.0000 </r>
       <r>   -9.4736    1.0000 </r>
       <r>   -9.3634    1.0000 </r>
       <r>   -8.9666    1.0000 </r>
       <r>   -8.8957    1.0000 </r>
       <r>   -8.7551    1.0000 </r>
       <r>   -8.5808    1.0000 </r>
       <r>   -8.4984    1.0000 </r>
       <r>   -8.4309    1.0000 </r>
       <r>   -8.3278    1.0000 </r>
       <r>   -8.2809    1.0000 </r>
       <r>   -8.1978    1.0000 </r>
       <r>   -8.1403    1.0000 </r>
       <r>   -8.0604    1.0000 </r>
       <r>   -7.9643    1.0000 </r>
       <r>   -7.9091    1.0000 </r>
       <r>   -7.8104    1.0000 </r>
       <r>   -7.7248    1.0000 </r>
       <r>   -7.6292    1.0000 </r>
       <r>   -7.4852    1.0000 </r>
       <r>   -7.3465    1.0000 </r>
       <r>   -7.2359    1.0000 </r>
       <r>   -7.1606    1.0000 </r>
       <r>   -7.0545    1.0000 </r>
       <r>   -7.0396    1.0000 </r>
       <r>   -6.9383    1.0000 </r>
       <r>   -6.8576    1.0000 </r>
       <r>   -6.7718    1.0000 </r>
       <r>   -6.6449    1.0000 </r>
       <r>   -6.5927    1.0000 </r>
       <r>   -6.5426    1.0000 </r>
       <r>   -6.4354    1.0000 </r>
       <r>   -6.3776    1.0000 </r>
       <r>   -6.3449    1.0000 </r>
       <r>   -6.2801    1.0000 </r>
       <r>   -6.2037    1.0000 </r>
       <r>   -6.1172    1.0000 </r>
       <r>   -6.0367    1.0000 </r>
       <r>   -5.9781    1.0000 </r>
       <r>   -5.9542    1.0000 </r>
       <r>   -5.8365    1.0000 </r>
       <r>   -5.6905    1.0000 </r>
       <r>   -5.6378    1.0000 </r>
       <r>   -5.5737    1.0000 </r>
       <r>   -5.5247    1.0000 </r>
       <r>   -5.3827    1.0000 </r>
       <r>   -5.2767    1.0000 </r>
       <r>   -5.2159    1.0000 </r>
       <r>   -4.9599    1.0000 </r>
       <r>   -4.8969    1.0000 </r>
       <r>   -4.8328    1.0000 </r>
       <r>   -4.7070    1.0000 </r>
       <r>   -4.5185    1.0000 </r>
       <r>   -4.4491    1.0000 </r>
       <r>   -4.3621    1.0000 </r>
       <r>   -4.2671    1.0000 </r>
       <r>   -4.1874    1.0000 </r>
       <r>   -3.9844    1.0000 </r>
       <r>   -3.9320    1.0000 </r>
       <r>   -3.7109    0.9997 </r>
       <r>   -3.5774    0.9942 </r>
       <r>   -3.1488    0.3062 </r>
       <r>   -2.9574    0.0315 </r>
       <r>   -2.8754    0.0073 </r>
       <r>   -2.6977    0.0001 </r>
       <r>   -2.5785    0.0000 </r>
       <r>   -2.4881    0.0000 </r>
       <r>   -2.3832    0.0000 </r>
       <r>   -2.1737    0.0000 </r>
       <r>   -2.1226    0.0000 </r>
       <r>   -2.0674    0.0000 </r>
       <r>   -1.9428    0.0000 </r>
       <r>   -1.6716    0.0000 </r>
       <r>   -1.4631    0.0000 </r>
       <r>   -1.4007    0.0000 </r>
       <r>   -1.3074    0.0000 </r>
       <r>   -1.2604    0.0000 </r>
       <r>   -1.1988    0.0000 </r>
       <r>   -1.0831    0.0000 </r>
       <r>   -0.9817    0.0000 </r>
       <r>   -0.9439    0.0000 </r>
       <r>   -0.8737    0.0000 </r>
       <r>   -0.8462    0.0000 </r>
       <r>   -0.7757    0.0000 </r>
       <r>   -0.6748    0.0000 </r>
       <r>   -0.5446    0.0000 </r>
       <r>   -0.4474    0.0000 </r>
       <r>   -0.3358    0.0000 </r>
       <r>   -0.2535    0.0000 </r>
       <r>   -0.1094    0.0000 </r>
       <r>   -0.0320    0.0000 </r>
       <r>    0.1003    0.0000 </r>
       <r>    0.3941    0.0000 </r>
       <r>    0.5934    0.0000 </r>
       <r>    0.7253    0.0000 </r>
       <r>    0.9572    0.0000 </r>
       <r>    1.1857    0.0000 </r>
       <r>    1.2872    0.0000 </r>
       <r>    1.5878    0.0000 </r>
       <r>    2.1429    0.0000 </r>
       <r>    2.3076    0.0000 </r>
       <r>    2.4064    0.0000 </r>
      </set>
      <set comment="kpoint 32">
       <r>  -17.5555    1.0000 </r>
       <r>  -17.1465    1.0000 </r>
       <r>  -17.0900    1.0000 </r>
       <r>  -16.7062    1.0000 </r>
       <r>  -16.4485    1.0000 </r>
       <r>  -16.3920    1.0000 </r>
       <r>  -16.2950    1.0000 </r>
       <r>  -16.2507    1.0000 </r>
       <r>  -16.1383    1.0000 </r>
       <r>  -16.0187    1.0000 </r>
       <r>  -15.9587    1.0000 </r>
       <r>  -15.8821    1.0000 </r>
       <r>  -15.7574    1.0000 </r>
       <r>  -15.6581    1.0000 </r>
       <r>  -15.6055    1.0000 </r>
       <r>  -15.4903    1.0000 </r>
       <r>  -15.3585    1.0000 </r>
       <r>  -15.2432    1.0000 </r>
       <r>   -9.6782    1.0000 </r>
       <r>   -9.6248    1.0000 </r>
       <r>   -9.4025    1.0000 </r>
       <r>   -8.9745    1.0000 </r>
       <r>   -8.7984    1.0000 </r>
       <r>   -8.5553    1.0000 </r>
       <r>   -8.5010    1.0000 </r>
       <r>   -8.4589    1.0000 </r>
       <r>   -8.4312    1.0000 </r>
       <r>   -8.3519    1.0000 </r>
       <r>   -8.2976    1.0000 </r>
       <r>   -8.2537    1.0000 </r>
       <r>   -8.2099    1.0000 </r>
       <r>   -8.1368    1.0000 </r>
       <r>   -8.0265    1.0000 </r>
       <r>   -7.9286    1.0000 </r>
       <r>   -7.8247    1.0000 </r>
       <r>   -7.7110    1.0000 </r>
       <r>   -7.5852    1.0000 </r>
       <r>   -7.4998    1.0000 </r>
       <r>   -7.3182    1.0000 </r>
       <r>   -7.2472    1.0000 </r>
       <r>   -7.1356    1.0000 </r>
       <r>   -7.0872    1.0000 </r>
       <r>   -7.0202    1.0000 </r>
       <r>   -6.9410    1.0000 </r>
       <r>   -6.8832    1.0000 </r>
       <r>   -6.7980    1.0000 </r>
       <r>   -6.6688    1.0000 </r>
       <r>   -6.5652    1.0000 </r>
       <r>   -6.4783    1.0000 </r>
       <r>   -6.4380    1.0000 </r>
       <r>   -6.3938    1.0000 </r>
       <r>   -6.3311    1.0000 </r>
       <r>   -6.2911    1.0000 </r>
       <r>   -6.2083    1.0000 </r>
       <r>   -6.1403    1.0000 </r>
       <r>   -6.0466    1.0000 </r>
       <r>   -5.9843    1.0000 </r>
       <r>   -5.8669    1.0000 </r>
       <r>   -5.8103    1.0000 </r>
       <r>   -5.7083    1.0000 </r>
       <r>   -5.6313    1.0000 </r>
       <r>   -5.5851    1.0000 </r>
       <r>   -5.4530    1.0000 </r>
       <r>   -5.4297    1.0000 </r>
       <r>   -5.3679    1.0000 </r>
       <r>   -5.2007    1.0000 </r>
       <r>   -5.1543    1.0000 </r>
       <r>   -4.8526    1.0000 </r>
       <r>   -4.7605    1.0000 </r>
       <r>   -4.6962    1.0000 </r>
       <r>   -4.4993    1.0000 </r>
       <r>   -4.4457    1.0000 </r>
       <r>   -4.3628    1.0000 </r>
       <r>   -4.2675    1.0000 </r>
       <r>   -4.1948    1.0000 </r>
       <r>   -4.0396    1.0000 </r>
       <r>   -4.0028    1.0000 </r>
       <r>   -3.6576    0.9990 </r>
       <r>   -3.5298    0.9856 </r>
       <r>   -3.1647    0.3467 </r>
       <r>   -2.9093    0.0139 </r>
       <r>   -2.8091    0.0018 </r>
       <r>   -2.7358    0.0003 </r>
       <r>   -2.5350    0.0000 </r>
       <r>   -2.4885    0.0000 </r>
       <r>   -2.3756    0.0000 </r>
       <r>   -2.1331    0.0000 </r>
       <r>   -2.0651    0.0000 </r>
       <r>   -2.0089    0.0000 </r>
       <r>   -1.9818    0.0000 </r>
       <r>   -1.6818    0.0000 </r>
       <r>   -1.5249    0.0000 </r>
       <r>   -1.4363    0.0000 </r>
       <r>   -1.3595    0.0000 </r>
       <r>   -1.2624    0.0000 </r>
       <r>   -1.2296    0.0000 </r>
       <r>   -1.0723    0.0000 </r>
       <r>   -1.0188    0.0000 </r>
       <r>   -0.9570    0.0000 </r>
       <r>   -0.8587    0.0000 </r>
       <r>   -0.8307    0.0000 </r>
       <r>   -0.7282    0.0000 </r>
       <r>   -0.6905    0.0000 </r>
       <r>   -0.6004    0.0000 </r>
       <r>   -0.4449    0.0000 </r>
       <r>   -0.2923    0.0000 </r>
       <r>   -0.1764    0.0000 </r>
       <r>   -0.0670    0.0000 </r>
       <r>    0.0025    0.0000 </r>
       <r>    0.1278    0.0000 </r>
       <r>    0.4104    0.0000 </r>
       <r>    0.6092    0.0000 </r>
       <r>    0.7690    0.0000 </r>
       <r>    0.9064    0.0000 </r>
       <r>    1.1274    0.0000 </r>
       <r>    1.2430    0.0000 </r>
       <r>    1.4378    0.0000 </r>
       <r>    2.1060    0.0000 </r>
       <r>    2.2801    0.0000 </r>
       <r>    2.5792    0.0000 </r>
      </set>
      <set comment="kpoint 33">
       <r>  -17.5329    1.0000 </r>
       <r>  -17.2889    1.0000 </r>
       <r>  -16.9143    1.0000 </r>
       <r>  -16.7110    1.0000 </r>
       <r>  -16.4875    1.0000 </r>
       <r>  -16.4283    1.0000 </r>
       <r>  -16.3465    1.0000 </r>
       <r>  -16.2275    1.0000 </r>
       <r>  -16.0880    1.0000 </r>
       <r>  -15.9900    1.0000 </r>
       <r>  -15.9514    1.0000 </r>
       <r>  -15.8715    1.0000 </r>
       <r>  -15.7665    1.0000 </r>
       <r>  -15.6631    1.0000 </r>
       <r>  -15.6323    1.0000 </r>
       <r>  -15.5385    1.0000 </r>
       <r>  -15.3189    1.0000 </r>
       <r>  -15.2390    1.0000 </r>
       <r>   -9.7939    1.0000 </r>
       <r>   -9.5074    1.0000 </r>
       <r>   -9.2938    1.0000 </r>
       <r>   -8.9830    1.0000 </r>
       <r>   -8.9518    1.0000 </r>
       <r>   -8.6628    1.0000 </r>
       <r>   -8.5300    1.0000 </r>
       <r>   -8.4586    1.0000 </r>
       <r>   -8.3828    1.0000 </r>
       <r>   -8.3189    1.0000 </r>
       <r>   -8.2858    1.0000 </r>
       <r>   -8.2550    1.0000 </r>
       <r>   -8.1624    1.0000 </r>
       <r>   -8.0981    1.0000 </r>
       <r>   -8.0425    1.0000 </r>
       <r>   -7.8833    1.0000 </r>
       <r>   -7.7940    1.0000 </r>
       <r>   -7.6773    1.0000 </r>
       <r>   -7.6224    1.0000 </r>
       <r>   -7.4319    1.0000 </r>
       <r>   -7.3063    1.0000 </r>
       <r>   -7.2486    1.0000 </r>
       <r>   -7.1539    1.0000 </r>
       <r>   -7.0959    1.0000 </r>
       <r>   -7.0491    1.0000 </r>
       <r>   -6.9114    1.0000 </r>
       <r>   -6.8236    1.0000 </r>
       <r>   -6.7786    1.0000 </r>
       <r>   -6.6444    1.0000 </r>
       <r>   -6.6049    1.0000 </r>
       <r>   -6.5175    1.0000 </r>
       <r>   -6.4683    1.0000 </r>
       <r>   -6.4437    1.0000 </r>
       <r>   -6.3662    1.0000 </r>
       <r>   -6.2700    1.0000 </r>
       <r>   -6.1926    1.0000 </r>
       <r>   -6.1221    1.0000 </r>
       <r>   -6.0888    1.0000 </r>
       <r>   -6.0113    1.0000 </r>
       <r>   -5.9071    1.0000 </r>
       <r>   -5.8538    1.0000 </r>
       <r>   -5.7284    1.0000 </r>
       <r>   -5.6914    1.0000 </r>
       <r>   -5.5869    1.0000 </r>
       <r>   -5.4954    1.0000 </r>
       <r>   -5.4127    1.0000 </r>
       <r>   -5.2960    1.0000 </r>
       <r>   -5.1980    1.0000 </r>
       <r>   -5.1044    1.0000 </r>
       <r>   -4.8300    1.0000 </r>
       <r>   -4.7946    1.0000 </r>
       <r>   -4.5974    1.0000 </r>
       <r>   -4.5881    1.0000 </r>
       <r>   -4.4348    1.0000 </r>
       <r>   -4.3371    1.0000 </r>
       <r>   -4.2325    1.0000 </r>
       <r>   -4.1438    1.0000 </r>
       <r>   -4.1094    1.0000 </r>
       <r>   -4.0299    1.0000 </r>
       <r>   -3.6850    0.9995 </r>
       <r>   -3.5355    0.9870 </r>
       <r>   -3.1087    0.2147 </r>
       <r>   -2.9612    0.0334 </r>
       <r>   -2.7828    0.0010 </r>
       <r>   -2.6883    0.0001 </r>
       <r>   -2.5401    0.0000 </r>
       <r>   -2.4587    0.0000 </r>
       <r>   -2.3675    0.0000 </r>
       <r>   -2.0820    0.0000 </r>
       <r>   -2.0249    0.0000 </r>
       <r>   -1.9974    0.0000 </r>
       <r>   -1.8858    0.0000 </r>
       <r>   -1.6910    0.0000 </r>
       <r>   -1.5801    0.0000 </r>
       <r>   -1.5097    0.0000 </r>
       <r>   -1.4077    0.0000 </r>
       <r>   -1.3019    0.0000 </r>
       <r>   -1.2193    0.0000 </r>
       <r>   -1.0728    0.0000 </r>
       <r>   -1.0520    0.0000 </r>
       <r>   -0.9673    0.0000 </r>
       <r>   -0.8924    0.0000 </r>
       <r>   -0.8416    0.0000 </r>
       <r>   -0.6985    0.0000 </r>
       <r>   -0.6524    0.0000 </r>
       <r>   -0.6197    0.0000 </r>
       <r>   -0.4297    0.0000 </r>
       <r>   -0.2812    0.0000 </r>
       <r>   -0.1533    0.0000 </r>
       <r>   -0.0217    0.0000 </r>
       <r>    0.0264    0.0000 </r>
       <r>    0.1196    0.0000 </r>
       <r>    0.4215    0.0000 </r>
       <r>    0.7136    0.0000 </r>
       <r>    0.8135    0.0000 </r>
       <r>    0.8824    0.0000 </r>
       <r>    1.0799    0.0000 </r>
       <r>    1.2324    0.0000 </r>
       <r>    1.2924    0.0000 </r>
       <r>    2.1298    0.0000 </r>
       <r>    2.3169    0.0000 </r>
       <r>    2.3858    0.0000 </r>
      </set>
      <set comment="kpoint 34">
       <r>  -17.5055    1.0000 </r>
       <r>  -17.3589    1.0000 </r>
       <r>  -16.7595    1.0000 </r>
       <r>  -16.6790    1.0000 </r>
       <r>  -16.6727    1.0000 </r>
       <r>  -16.4366    1.0000 </r>
       <r>  -16.3312    1.0000 </r>
       <r>  -16.2413    1.0000 </r>
       <r>  -16.0440    1.0000 </r>
       <r>  -15.9958    1.0000 </r>
       <r>  -15.9372    1.0000 </r>
       <r>  -15.8466    1.0000 </r>
       <r>  -15.7233    1.0000 </r>
       <r>  -15.7085    1.0000 </r>
       <r>  -15.6552    1.0000 </r>
       <r>  -15.5573    1.0000 </r>
       <r>  -15.2895    1.0000 </r>
       <r>  -15.2548    1.0000 </r>
       <r>   -9.8367    1.0000 </r>
       <r>   -9.4162    1.0000 </r>
       <r>   -9.1693    1.0000 </r>
       <r>   -9.1060    1.0000 </r>
       <r>   -8.9551    1.0000 </r>
       <r>   -8.8274    1.0000 </r>
       <r>   -8.5374    1.0000 </r>
       <r>   -8.4615    1.0000 </r>
       <r>   -8.4194    1.0000 </r>
       <r>   -8.3041    1.0000 </r>
       <r>   -8.2772    1.0000 </r>
       <r>   -8.1961    1.0000 </r>
       <r>   -8.1476    1.0000 </r>
       <r>   -8.1069    1.0000 </r>
       <r>   -7.9667    1.0000 </r>
       <r>   -7.8815    1.0000 </r>
       <r>   -7.7769    1.0000 </r>
       <r>   -7.7357    1.0000 </r>
       <r>   -7.5221    1.0000 </r>
       <r>   -7.3548    1.0000 </r>
       <r>   -7.3117    1.0000 </r>
       <r>   -7.2372    1.0000 </r>
       <r>   -7.1271    1.0000 </r>
       <r>   -7.0829    1.0000 </r>
       <r>   -7.0533    1.0000 </r>
       <r>   -7.0437    1.0000 </r>
       <r>   -6.8177    1.0000 </r>
       <r>   -6.7471    1.0000 </r>
       <r>   -6.6170    1.0000 </r>
       <r>   -6.5830    1.0000 </r>
       <r>   -6.5616    1.0000 </r>
       <r>   -6.5328    1.0000 </r>
       <r>   -6.4516    1.0000 </r>
       <r>   -6.3419    1.0000 </r>
       <r>   -6.2596    1.0000 </r>
       <r>   -6.2227    1.0000 </r>
       <r>   -6.1675    1.0000 </r>
       <r>   -6.0735    1.0000 </r>
       <r>   -6.0440    1.0000 </r>
       <r>   -5.8799    1.0000 </r>
       <r>   -5.8413    1.0000 </r>
       <r>   -5.7982    1.0000 </r>
       <r>   -5.7059    1.0000 </r>
       <r>   -5.6109    1.0000 </r>
       <r>   -5.5335    1.0000 </r>
       <r>   -5.4028    1.0000 </r>
       <r>   -5.2769    1.0000 </r>
       <r>   -5.1958    1.0000 </r>
       <r>   -4.9554    1.0000 </r>
       <r>   -4.8682    1.0000 </r>
       <r>   -4.7934    1.0000 </r>
       <r>   -4.6580    1.0000 </r>
       <r>   -4.5176    1.0000 </r>
       <r>   -4.4471    1.0000 </r>
       <r>   -4.3571    1.0000 </r>
       <r>   -4.2303    1.0000 </r>
       <r>   -4.1578    1.0000 </r>
       <r>   -4.0479    1.0000 </r>
       <r>   -4.0247    1.0000 </r>
       <r>   -3.7257    0.9998 </r>
       <r>   -3.5504    0.9902 </r>
       <r>   -3.0942    0.1859 </r>
       <r>   -2.9891    0.0509 </r>
       <r>   -2.7697    0.0007 </r>
       <r>   -2.6606    0.0000 </r>
       <r>   -2.5476    0.0000 </r>
       <r>   -2.4496    0.0000 </r>
       <r>   -2.3617    0.0000 </r>
       <r>   -2.0524    0.0000 </r>
       <r>   -2.0207    0.0000 </r>
       <r>   -1.9758    0.0000 </r>
       <r>   -1.8225    0.0000 </r>
       <r>   -1.7020    0.0000 </r>
       <r>   -1.6237    0.0000 </r>
       <r>   -1.5129    0.0000 </r>
       <r>   -1.4380    0.0000 </r>
       <r>   -1.3322    0.0000 </r>
       <r>   -1.2127    0.0000 </r>
       <r>   -1.0692    0.0000 </r>
       <r>   -1.0605    0.0000 </r>
       <r>   -0.9742    0.0000 </r>
       <r>   -0.9094    0.0000 </r>
       <r>   -0.8571    0.0000 </r>
       <r>   -0.6864    0.0000 </r>
       <r>   -0.6482    0.0000 </r>
       <r>   -0.6248    0.0000 </r>
       <r>   -0.4048    0.0000 </r>
       <r>   -0.2797    0.0000 </r>
       <r>   -0.1649    0.0000 </r>
       <r>    0.0133    0.0000 </r>
       <r>    0.0292    0.0000 </r>
       <r>    0.0970    0.0000 </r>
       <r>    0.4333    0.0000 </r>
       <r>    0.7595    0.0000 </r>
       <r>    0.8285    0.0000 </r>
       <r>    0.9110    0.0000 </r>
       <r>    1.0617    0.0000 </r>
       <r>    1.1962    0.0000 </r>
       <r>    1.2651    0.0000 </r>
       <r>    2.1903    0.0000 </r>
       <r>    2.2569    0.0000 </r>
       <r>    2.4093    0.0000 </r>
      </set>
     </set>
    </set>
   </array>
  </eigenvalues>
  <separator name="orbital magnetization" >
   <v name="MAGDIPOLOUT">      0.00000000      0.00000000      0.00000000</v>
  </separator>
 </calculation>
 <structure name="finalpos" >
  <crystal>
   <varray name="basis" >
    <v>       8.33589997       4.79311676       0.00000000 </v>
    <v>      -8.34114082       4.80227416       0.00000000 </v>
    <v>       0.00000000       0.00000000      30.00000000 </v>
   </varray>
   <i name="volume">   2400.34016586 </i>
   <varray name="rec_basis" >
    <v>       0.06001992       0.10424948       0.00000000 </v>
    <v>      -0.05990547       0.10418398       0.00000000 </v>
    <v>       0.00000000       0.00000000       0.03333333 </v>
   </varray>
  </crystal>
  <varray name="positions" >
   <v>       0.35320516       0.31439040       0.00280264 </v>
   <v>       0.98404867       0.34977455      -0.00164060 </v>
   <v>       0.64738369       0.02070352      -0.00272670 </v>
   <v>       0.31328310      -0.02039069      -0.00007481 </v>
   <v>      -0.00077349       0.67100987      -0.00025650 </v>
   <v>       0.68372178       0.35422981      -0.00011522 </v>
   <v>       0.01464225      -0.02037051       0.00155152 </v>
   <v>       0.31251625       0.68160780      -0.00144835 </v>
   <v>       0.68876243       0.65217169       0.00181680 </v>
   <v>       0.11483425       0.22476628       0.95776901 </v>
   <v>       0.22461078       0.11065976       0.05516726 </v>
   <v>       0.10675125       0.55117596       0.94506564 </v>
   <v>       0.22081980       0.44045736       0.04369359 </v>
   <v>       0.11008873       0.88484005       0.94344529 </v>
   <v>       0.21694680       0.77593180       0.05611915 </v>
   <v>       0.44603750       0.22022727       0.94968168 </v>
   <v>       0.55341886       0.11356974       0.04999848 </v>
   <v>       0.44262823       0.55135443       0.95727606 </v>
   <v>       0.55687896       0.44268848       0.05561772 </v>
   <v>       0.44356197       0.89147350       0.94478188 </v>
   <v>       0.55839361       0.78275176       0.04297064 </v>
   <v>       0.78014447       0.22530932       0.94620996 </v>
   <v>       0.88554360       0.11123766       0.04229494 </v>
   <v>       0.78198881       0.55700151       0.94366057 </v>
   <v>       0.89282795       0.44451533       0.05383672 </v>
   <v>       0.77548626       0.89075959       0.95513132 </v>
   <v>       0.89046279       0.77636820       0.05737122 </v>
  </varray>
 </structure>
</modeling>
