unknown system                          
           1
     8.859802    5.103054    0.000000
    -8.859670    5.102827    0.000000
     0.000000    0.000000   30.000000
   V    Mo   W    S 
   3   3   3  18
Direct configuration=     1
   0.33333334  0.33333334  0.00000000
   1.00000000  0.33333334  0.00000000
   0.66666669  0.00000000  0.00000000
   0.33333334  0.00000000  0.00000000
   0.00000000  0.66666669  0.00000000
   0.66666669  0.33333334  0.00000000
   0.00000000  0.00000000  0.00000000
   0.33333334  0.66666669  0.00000000
   0.66666669  0.66666669  0.00000000
   0.11068511  0.22244981  0.95539999
   0.22244981  0.11068511  0.04460000
   0.11068511  0.55578315  0.95539999
   0.22244981  0.44401845  0.04460000
   0.11068511  0.88911647  0.95539999
   0.22244981  0.77735180  0.04460000
   0.44401845  0.22244981  0.95539999
   0.55578315  0.11068511  0.04460000
   0.44401845  0.55578315  0.95539999
   0.55578315  0.44401845  0.04460000
   0.44401845  0.88911647  0.95539999
   0.55578315  0.77735180  0.04460000
   0.77735180  0.22244981  0.95539999
   0.88911647  0.11068511  0.04460000
   0.77735180  0.55578315  0.95539999
   0.88911647  0.44401845  0.04460000
   0.77735180  0.88911647  0.95539999
   0.88911647  0.77735180  0.04460000
unknown system                          
           1
     8.670805    4.997024    0.000000
    -8.670617    4.996700    0.000000
     0.000000    0.000000   30.000000
   V    Mo   W    S 
   3   3   3  18
Direct configuration=     2
   0.33413412  0.33213251  0.00013324
   0.99890465  0.33421284  0.00001362
   0.66578752  0.00151814 -0.00014263
   0.33341591  0.00002453 -0.00018618
  -0.00010225  0.66664241  0.00003097
   0.66674017  0.33314041 -0.00003079
   0.00150751 -0.00074032 -0.00000022
   0.33152314  0.66768850  0.00005489
   0.66817831  0.66511849  0.00019308
   0.11251025  0.22559778  0.95315396
   0.22339377  0.11521321  0.04809491
   0.10977426  0.55146484  0.95191017
   0.22070576  0.44085318  0.04686265
   0.11063441  0.88925511  0.95071690
   0.22249069  0.77714354  0.04925135
   0.44193694  0.22443015  0.95201543
   0.55788496  0.10869775  0.04798915
   0.44256929  0.55177736  0.95200088
   0.55129518  0.44314955  0.04812379
   0.44848051  0.89015439  0.95185666
   0.55724200  0.78131528  0.04800461
   0.77978505  0.21982287  0.95300988
   0.88701401  0.11273805  0.04690368
   0.77735681  0.55592025  0.95071977
   0.89121535  0.44200295  0.04798809
   0.77559768  0.89092120  0.95201103
   0.88823845  0.77801950  0.04932103
unknown system                          
           1
     8.487598    4.897643    0.000000
    -8.488158    4.898615    0.000000
     0.000000    0.000000   30.000000
   V    Mo   W    S 
   3   3   3  18
Direct configuration=     3
   0.33444523  0.33181679  0.00009378
   0.99862507  0.33451121  0.00006219
   0.66540561  0.00191559 -0.00011276
   0.33320853 -0.00029169 -0.00020898
  -0.00016651  0.66695583  0.00003845
   0.66674089  0.33340123 -0.00002884
   0.00185843 -0.00140984 -0.00005882
   0.33096858  0.66821812  0.00010509
   0.66892418  0.66466626  0.00015407
   0.11244186  0.22540911  0.95328754
   0.22325956  0.11522523  0.04812975
   0.10992763  0.55147353  0.95187757
   0.22076046  0.44104381  0.04674956
   0.11050641  0.88939587  0.95062342
   0.22262492  0.77701949  0.04932686
   0.44187378  0.22448645  0.95197149
   0.55794465  0.10865321  0.04801537
   0.44261460  0.55193970  0.95216949
   0.55128708  0.44328362  0.04818220
   0.44847513  0.89001473  0.95179917
   0.55719144  0.78115223  0.04785627
   0.77982128  0.21979406  0.95299977
   0.88713409  0.11264320  0.04675058
   0.77723034  0.55606155  0.95064374
   0.89126802  0.44191621  0.04802908
   0.77569552  0.89082575  0.95213409
   0.88814766  0.77809319  0.04940976
unknown system                          
           1
     8.287047    4.773981    0.000000
    -8.288463    4.776438    0.000000
     0.000000    0.000000   30.000000
   V    Mo   W    S 
   3   3   3  18
Direct configuration=     4
   0.33588105  0.33071019 -0.00009281
   0.99775781  0.33581286  0.00023478
   0.66353849  0.00302445  0.00005881
   0.33208251 -0.00201317 -0.00020645
  -0.00050493  0.66867307  0.00004975
   0.66662855  0.33488936  0.00000470
   0.00281386 -0.00473355 -0.00023108
   0.32907761  0.67052563  0.00023556
   0.67217716  0.66311584 -0.00004334
   0.11288092  0.22623914  0.95247934
   0.22395926  0.11630914  0.04973345
   0.10926136  0.55039733  0.95027697
   0.22023661  0.44021206  0.04764035
   0.11052374  0.88941948  0.94860749
   0.22261813  0.77710392  0.05125694
   0.44136595  0.22503779  0.95039287
   0.55848230  0.10821362  0.04949946
   0.44207122  0.55130162  0.95142331
   0.55015858  0.44253000  0.04991738
   0.44958129  0.89066672  0.95006914
   0.55777009  0.78188382  0.04868371
   0.78032452  0.21939869  0.95162714
   0.88691360  0.11295360  0.04746056
   0.77726021  0.55603402  0.94871078
   0.89176133  0.44126593  0.04959266
   0.77531270  0.89117790  0.95116642
   0.88828055  0.77806499  0.05145198
unknown system                          
           1
     8.292089    4.770690    0.000000
    -8.295320    4.776293    0.000000
     0.000000    0.000000   30.000000
   V    Mo   W    S 
   3   3   3  18
Direct configuration=     5
   0.33863076  0.32836952 -0.00041673
   0.99637110  0.33836557  0.00043729
   0.65927218  0.00531043  0.00035912
   0.32975778 -0.00573522 -0.00009575
  -0.00115596  0.67247901  0.00000287
   0.66630116  0.33796771  0.00006974
   0.00460231 -0.01128072 -0.00030847
   0.32486536  0.67521026  0.00023691
   0.67929645  0.66006199 -0.00021540
   0.11311501  0.22648196  0.95165247
   0.22466605  0.11684849  0.05178044
   0.10827228  0.54974758  0.94821650
   0.21979719  0.43968940  0.04869355
   0.11116987  0.88897838  0.94563771
   0.22186501  0.77756506  0.05401718
   0.44116056  0.22502992  0.94828901
   0.55866918  0.10835111  0.05146302
   0.44180394  0.55129249  0.95096275
   0.54936322  0.44177157  0.05234808
   0.45045485  0.89164575  0.94760310
   0.55836021  0.78211631  0.04931501
   0.78063358  0.21942839  0.94966849
   0.88703139  0.11292542  0.04814616
   0.77808398  0.55537989  0.94587724
   0.89198312  0.44109302  0.05168010
   0.77514274  0.89135379  0.95016978
   0.88870117  0.77776739  0.05440974
unknown system                          
           1
     8.294786    4.769369    0.000000
    -8.297800    4.774591    0.000000
     0.000000    0.000000   30.000000
   V    Mo   W    S 
   3   3   3  18
Direct configuration=     6
   0.33963394  0.32690854 -0.00041593
   0.99571664  0.33962331  0.00048143
   0.65734597  0.00676871  0.00029407
   0.32912010 -0.00665141 -0.00011153
  -0.00099805  0.67301126 -0.00011447
   0.66658559  0.33868721 -0.00001392
   0.00541548 -0.01302235 -0.00026190
   0.32306333  0.67669548  0.00015178
   0.68125397  0.65911292 -0.00005680
   0.11281853  0.22556137  0.95191186
   0.22456603  0.11629758  0.05194129
   0.10804103  0.55028938  0.94803543
   0.22021186  0.44039512  0.04846262
   0.11165164  0.88878194  0.94523747
   0.22108593  0.77772016  0.05442741
   0.44141749  0.22442216  0.94818255
   0.55817031  0.10899180  0.05164174
   0.44243652  0.55246333  0.95150938
   0.54980845  0.44201586  0.05258824
   0.45011463  0.89184633  0.94732252
   0.55829575  0.78120144  0.04878562
   0.78033711  0.21969494  0.94957279
   0.88727963  0.11233266  0.04780084
   0.77890258  0.55497077  0.94544141
   0.89170769  0.44165077  0.05180464
   0.77533590  0.89088219  0.95049695
   0.88889643  0.77756299  0.05488439
unknown system                          
           1
     8.306208    4.767812    0.000000
    -8.309825    4.774075    0.000000
     0.000000    0.000000   30.000000
   V    Mo   W    S 
   3   3   3  18
Direct configuration=     7
   0.34073431  0.32503681 -0.00042351
   0.99485252  0.34124184  0.00059315
   0.65527966  0.00851004  0.00028213
   0.32824909 -0.00760325 -0.00006197
  -0.00082783  0.67342800 -0.00016897
   0.66707745  0.33955735 -0.00006803
   0.00656112 -0.01490056 -0.00022433
   0.32106888  0.67840717  0.00013616
   0.68344838  0.65780153  0.00000030
   0.11263069  0.22483095  0.95229447
   0.22459532  0.11597330  0.05215292
   0.10781499  0.55055452  0.94774971
   0.22061374  0.44105374  0.04809111
   0.11209372  0.88860462  0.94484687
   0.22046770  0.77795452  0.05479578
   0.44164877  0.22394403  0.94805098
   0.55770074  0.10953658  0.05179430
   0.44286202  0.55341611  0.95218595
   0.55015788  0.44204719  0.05283544
   0.44980512  0.89206545  0.94699085
   0.55827320  0.78054878  0.04813766
   0.78014487  0.21984809  0.94942517
   0.88737371  0.11179702  0.04730562
   0.77950176  0.55467414  0.94508619
   0.89146779  0.44204732  0.05193262
   0.77539077  0.89046614  0.95094233
   0.88922808  0.77737303  0.05531700
unknown system                          
           1
     8.319519    4.760336    0.000000
    -8.325033    4.769884    0.000000
     0.000000    0.000000   30.000000
   V    Mo   W    S 
   3   3   3  18
Direct configuration=     8
   0.34191356  0.32278108 -0.00039043
   0.99368245  0.34330423  0.00063680
   0.65306584  0.01046176  0.00018781
   0.32710066 -0.00865581 -0.00004915
  -0.00048942  0.67361718 -0.00026746
   0.66795416  0.34048913 -0.00015136
   0.00801493 -0.01677010 -0.00012712
   0.31912174  0.68020857 -0.00000727
   0.68544634  0.65643477  0.00018072
   0.11244538  0.22411969  0.95280082
   0.22460960  0.11571466  0.05244679
   0.10759993  0.55067453  0.94743425
   0.22101672  0.44174683  0.04761951
   0.11259823  0.88830122  0.94442112
   0.21972796  0.77833437  0.05526558
   0.44199118  0.22342454  0.94788509
   0.55711643  0.11018672  0.05199188
   0.44320491  0.55432829  0.95299985
   0.55055319  0.44204384  0.05310031
   0.44943229  0.89231770  0.94666204
   0.55829584  0.77997028  0.04735973
   0.78003742  0.21999997  0.94925270
   0.88741274  0.11125160  0.04667394
   0.78021691  0.55426438  0.94466356
   0.89116624  0.44242131  0.05215641
   0.77540610  0.89008508  0.95149925
   0.88957313  0.77715863  0.05575452
unknown system                          
           1
     8.334198    4.766881    0.000000
    -8.341443    4.779450    0.000000
     0.000000    0.000000   30.000000
   V    Mo   W    S 
   3   3   3  18
Direct configuration=     9
   0.34479029  0.31745510 -0.00013788
   0.99061482  0.34786483  0.00060418
   0.64845749  0.01458629 -0.00015432
   0.32365382 -0.01127692  0.00006735
   0.00037285  0.67377157 -0.00040811
   0.67053022  0.34316222 -0.00032981
   0.01189508 -0.02006919  0.00021495
   0.31572893  0.68414477 -0.00031107
   0.68886807  0.65311806  0.00060519
   0.11222014  0.22275142  0.95418705
   0.22474156  0.11531920  0.05312066
   0.10717181  0.55074683  0.94665880
   0.22194960  0.44324094  0.04629007
   0.11360845  0.88733694  0.94357384
   0.21824229  0.77923595  0.05606206
   0.44298709  0.22231835  0.94757857
   0.55561509  0.11171337  0.05228326
   0.44353404  0.55585565  0.95503687
   0.55137629  0.44166261  0.05359639
   0.44845604  0.89302966  0.94595665
   0.55841085  0.77911825  0.04544182
   0.77982350  0.22034396  0.94880406
   0.88733341  0.10997674  0.04501112
   0.78158289  0.55343425  0.94394632
   0.89033915  0.44331360  0.05275325
   0.77541191  0.88944453  0.95300123
   0.89049878  0.77661549  0.05654740
unknown system                          
           1
     8.329085    4.769469    0.000000
    -8.337393    4.783912    0.000000
     0.000000    0.000000   30.000000
   V    Mo   W    S 
   3   3   3  18
Direct configuration=    10
   0.34595174  0.31603922  0.00008328
   0.98931544  0.34917166  0.00042113
   0.64747436  0.01572901 -0.00039454
   0.32204531 -0.01239443  0.00004580
   0.00065106  0.67351746 -0.00045557
   0.67212267  0.34458011 -0.00038621
   0.01310674 -0.02068651  0.00041578
   0.31509123  0.68489500 -0.00053924
   0.68931047  0.65222636  0.00082665
   0.11219357  0.22257708  0.95475552
   0.22485060  0.11517769  0.05347380
   0.10707451  0.55065623  0.94640663
   0.22212904  0.44348083  0.04574273
   0.11387697  0.88684287  0.94331687
   0.21773219  0.77953731  0.05632476
   0.44342712  0.22180972  0.94748953
   0.55493958  0.11231488  0.05233361
   0.44339338  0.55598503  0.95572512
   0.55157849  0.44134499  0.05382839
   0.44795560  0.89334307  0.94570635
   0.55855440  0.77909827  0.04481604
   0.77986762  0.22062312  0.94857687
   0.88731518  0.10964174  0.04436575
   0.78202411  0.55321675  0.94372411
   0.89002800  0.44365310  0.05304532
   0.77543065  0.88941641  0.95357977
   0.89077443  0.77641752  0.05677165
unknown system                          
           1
     8.334776    4.774966    0.000000
    -8.343235    4.789679    0.000000
     0.000000    0.000000   30.000000
   V    Mo   W    S 
   3   3   3  18
Direct configuration=    11
   0.34685690  0.31561119  0.00032078
   0.98830895  0.34952372  0.00017941
   0.64737300  0.01627275 -0.00056853
   0.32068780 -0.01340180  0.00003076
   0.00071239  0.67315659 -0.00043124
   0.67379091  0.34599800 -0.00037792
   0.01373257 -0.02062807  0.00057627
   0.31502307  0.68494648 -0.00065373
   0.68909926  0.65183059  0.00097088
   0.11225879  0.22274858  0.95522004
   0.22491922  0.11496482  0.05369892
   0.10710321  0.55056357  0.94628299
   0.22203640  0.44333718  0.04530702
   0.11376609  0.88642888  0.94330039
   0.21762150  0.77955546  0.05628026
   0.44377961  0.22147172  0.94758951
   0.55450628  0.11260410  0.05213495
   0.44314865  0.55561884  0.95610243
   0.55175766  0.44108157  0.05396755
   0.44748659  0.89351349  0.94560166
   0.55865098  0.77940204  0.04446752
   0.77995368  0.22097161  0.94838755
   0.88729244  0.10962063  0.04390748
   0.78213620  0.55333150  0.94372251
   0.88988053  0.44388183  0.05320893
   0.77548965  0.88953137  0.95399393
   0.89084212  0.77627783  0.05677957
unknown system                          
           1
     8.336398    4.782491    0.000000
    -8.344847    4.797206    0.000000
     0.000000    0.000000   30.000000
   V    Mo   W    S 
   3   3   3  18
Direct configuration=    12
   0.34762411  0.31538915  0.00051291
   0.98756315  0.34961171 -0.00003276
   0.64738488  0.01668703 -0.00071714
   0.31964707 -0.01417538  0.00000461
   0.00059310  0.67275728 -0.00041167
   0.67517966  0.34721613 -0.00035587
   0.01416042 -0.02051372  0.00069320
   0.31489162  0.68485392 -0.00075859
   0.68891716  0.65156704  0.00107241
   0.11236425  0.22300175  0.95553579
   0.22496464  0.11476823  0.05386858
   0.10718590  0.55052388  0.94616611
   0.22190181  0.44306166  0.04504045
   0.11351209  0.88611833  0.94329591
   0.21759902  0.77942491  0.05626158
   0.44404070  0.22128548  0.94774635
   0.55425951  0.11275819  0.05192665
   0.44298750  0.55518494  0.95627258
   0.55193440  0.44096283  0.05411504
   0.44716688  0.89354285  0.94552826
   0.55870363  0.77971144  0.04431298
   0.78000353  0.22125695  0.94818479
   0.88725379  0.10974318  0.04365634
   0.78217940  0.55358858  0.94370639
   0.88991353  0.44403793  0.05334695
   0.77548706  0.88964412  0.95421901
   0.89079566  0.77620606  0.05680903
unknown system                          
           1
     8.339945    4.787446    0.000000
    -8.347108    4.799930    0.000000
     0.000000    0.000000   30.000000
   V    Mo   W    S 
   3   3   3  18
Direct configuration=    13
   0.35011945  0.31452289  0.00113384
   0.98514533  0.35004473 -0.00065448
   0.64717084  0.01824256 -0.00120324
   0.31620442 -0.01690752 -0.00006014
   0.00016184  0.67158600 -0.00034140
   0.67976568  0.35123297 -0.00028150
   0.01549328 -0.02043850  0.00104154
   0.31423726  0.68464422 -0.00105185
   0.68860189  0.65073071  0.00140132
   0.11271169  0.22365283  0.95659180
   0.22505819  0.11397628  0.05436030
   0.10742556  0.55051077  0.94579717
   0.22150860  0.44232626  0.04415072
   0.11262708  0.88515928  0.94328925
   0.21746643  0.77891805  0.05618750
   0.44496082  0.22069482  0.94829719
   0.55350801  0.11328631  0.05122218
   0.44262778  0.55396902  0.95687929
   0.55272336  0.44075219  0.05456626
   0.44610690  0.89354991  0.94532167
   0.55874509  0.78057001  0.04371739
   0.78005938  0.22222825  0.94755972
   0.88712336  0.11011919  0.04282885
   0.78235367  0.55446668  0.94363690
   0.89013071  0.44450109  0.05372549
   0.77552914  0.88987559  0.95498558
   0.89064868  0.77599986  0.05689854
unknown system                          
           1
     8.339464    4.791010    0.000000
    -8.345607    4.801730    0.000000
     0.000000    0.000000   30.000000
   V    Mo   W    S 
   3   3   3  18
Direct configuration=    14
   0.35072342  0.31450971  0.00136758
   0.98469969  0.35000807 -0.00082776
   0.64717815  0.01874137 -0.00139965
   0.31551536 -0.01764007 -0.00007784
  -0.00006733  0.67126505 -0.00032427
   0.68092230  0.35202525 -0.00025270
   0.01535434 -0.02047472  0.00112634
   0.31396949  0.68414104 -0.00111359
   0.68858256  0.65093669  0.00147626
   0.11290681  0.22389052  0.95688028
   0.22504991  0.11347746  0.05452198
   0.10742401  0.55058284  0.94563564
   0.22130680  0.44198832  0.04395681
   0.11206312  0.88483787  0.94325368
   0.21733875  0.77845931  0.05621826
   0.44541170  0.22053162  0.94854338
   0.55340357  0.11349969  0.05095277
   0.44263499  0.55354119  0.95695851
   0.55330353  0.44091931  0.05477935
   0.44578297  0.89340081  0.94524298
   0.55865242  0.78087947  0.04358003
   0.77996177  0.22268610  0.94730439
   0.88700548  0.11039319  0.04268637
   0.78245489  0.55502366  0.94355304
   0.89056460  0.44464138  0.05385127
   0.77551559  0.88993311  0.95511635
   0.89055555  0.77601621  0.05699042
unknown system                          
           1
     8.341068    4.792572    0.000000
    -8.346815    4.802604    0.000000
     0.000000    0.000000   30.000000
   V    Mo   W    S 
   3   3   3  18
Direct configuration=    15
   0.35189400  0.31427144  0.00177398
   0.98384855  0.35007115 -0.00114672
   0.64721457  0.01955227 -0.00176137
   0.31403580 -0.01896502 -0.00011026
  -0.00038079  0.67082825 -0.00029593
   0.68285593  0.35366575 -0.00020448
   0.01554086 -0.02050868  0.00129435
   0.31344276  0.68354063 -0.00124873
   0.68857031  0.65091108  0.00162372
   0.11326976  0.22425286  0.95738247
   0.22501246  0.11272401  0.05472675
   0.10745781  0.55070539  0.94542704
   0.22105922  0.44145390  0.04361348
   0.11129585  0.88442447  0.94328753
   0.21719069  0.77777918  0.05618428
   0.44599737  0.22030051  0.94896823
   0.55314075  0.11383113  0.05054189
   0.44260100  0.55280726  0.95715879
   0.55418704  0.44115584  0.05503060
   0.44516539  0.89308665  0.94514067
   0.55853320  0.78140277  0.04331675
   0.77991452  0.22342785  0.94692200
   0.88677970  0.11076110  0.04240572
   0.78250995  0.55579759  0.94353280
   0.89115524  0.44483469  0.05400229
   0.77549363  0.89008735  0.95535632
   0.89042886  0.77601506  0.05707773
unknown system                          
           1
     8.339271    4.792272    0.000000
    -8.344850    4.802012    0.000000
     0.000000    0.000000   30.000000
   V    Mo   W    S 
   3   3   3  18
Direct configuration=    16
   0.35198303  0.31433595  0.00187819
   0.98400312  0.35001699 -0.00118083
   0.64729531  0.01966502 -0.00185701
   0.31408952 -0.01898542 -0.00010006
  -0.00040198  0.67091660 -0.00028302
   0.68267698  0.35350046 -0.00018718
   0.01530936 -0.02049261  0.00131162
   0.31333251  0.68321556 -0.00126141
   0.68859030  0.65115040  0.00163373
   0.11344501  0.22429992  0.95740834
   0.22497287  0.11247998  0.05475558
   0.10737411  0.55077307  0.94537804
   0.22103407  0.44130639  0.04364105
   0.11108714  0.88444733  0.94329560
   0.21713021  0.77750102  0.05617906
   0.44607151  0.22030676  0.94906249
   0.55318217  0.11385760  0.05048044
   0.44264367  0.55263430  0.95713962
   0.55451927  0.44134738  0.05508568
   0.44500518  0.89285334  0.94510647
   0.55847558  0.78152443  0.04330001
   0.77992085  0.22366054  0.94683818
   0.88664252  0.11086465  0.04243881
   0.78248973  0.55600234  0.94353897
   0.89144908  0.44481809  0.05397855
   0.77547549  0.89015149  0.95529901
   0.89041785  0.77606289  0.05711994
unknown system                          
           1
     8.339666    4.792817    0.000000
    -8.345297    4.802648    0.000000
     0.000000    0.000000   30.000000
   V    Mo   W    S 
   3   3   3  18
Direct configuration=    17
   0.35209830  0.31438603  0.00197417
   0.98404786  0.34995501 -0.00122436
   0.64731588  0.01977112 -0.00194932
   0.31398766 -0.01917906 -0.00010390
  -0.00043808  0.67099825 -0.00028003
   0.68274855  0.35358951 -0.00018146
   0.01519421 -0.02052086  0.00133231
   0.31325780  0.68306032 -0.00128104
   0.68864578  0.65127024  0.00164671
   0.11357598  0.22431009  0.95744178
   0.22491686  0.11227456  0.05478088
   0.10733938  0.55085200  0.94535230
   0.22102790  0.44122718  0.04364891
   0.11096229  0.88447860  0.94332420
   0.21711576  0.77732822  0.05615977
   0.44612058  0.22028394  0.94912979
   0.55319751  0.11385359  0.05042482
   0.44267308  0.55251415  0.95714477
   0.55477971  0.44150007  0.05512656
   0.44486360  0.89269499  0.94509464
   0.55843420  0.78163045  0.04326931
   0.77990448  0.22381300  0.94678346
   0.88652672  0.11090481  0.04243994
   0.78244174  0.55612196  0.94357068
   0.89159207  0.44480372  0.05396040
   0.77547407  0.89020320  0.95528029
   0.89041058  0.77608937  0.05713432
unknown system                          
           1
     8.338071    4.792312    0.000000
    -8.343695    4.802133    0.000000
     0.000000    0.000000   30.000000
   V    Mo   W    S 
   3   3   3  18
Direct configuration=    18
   0.35227151  0.31438916  0.00208615
   0.98405944  0.34991511 -0.00127927
   0.64734094  0.01993533 -0.00205402
   0.31393561 -0.01930106 -0.00009931
  -0.00047829  0.67101176 -0.00027491
   0.68284958  0.35363177 -0.00016851
   0.01508763 -0.02048901  0.00136589
   0.31316224  0.68282121 -0.00130746
   0.68863109  0.65141555  0.00167246
   0.11376304  0.22437886  0.95748571
   0.22486985  0.11205160  0.05482196
   0.10724481  0.55089798  0.94531689
   0.22099860  0.44107890  0.04365821
   0.11081221  0.88452371  0.94333523
   0.21707636  0.77710604  0.05615655
   0.44611434  0.22028131  0.94921951
   0.55322659  0.11381233  0.05035690
   0.44268162  0.55232985  0.95715160
   0.55505829  0.44167377  0.05518904
   0.44471107  0.89251214  0.94505531
   0.55842179  0.78179241  0.04323359
   0.77993535  0.22401969  0.94671278
   0.88637233  0.11097292  0.04243378
   0.78240137  0.55627341  0.94358216
   0.89180260  0.44475615  0.05392934
   0.77545486  0.89029158  0.95524745
   0.89040963  0.77613201  0.05717290
unknown system                          
           1
     8.337286    4.792398    0.000000
    -8.342860    4.802133    0.000000
     0.000000    0.000000   30.000000
   V    Mo   W    S 
   3   3   3  18
Direct configuration=    19
   0.35245961  0.31439464  0.00221307
   0.98408360  0.34985900 -0.00134027
   0.64737835  0.02005175 -0.00217630
   0.31377308 -0.01951110 -0.00009743
  -0.00055304  0.67104541 -0.00027254
   0.68296818  0.35379632 -0.00015918
   0.01500076 -0.02047060  0.00139000
   0.31305243  0.68261228 -0.00132650
   0.68866058  0.65153354  0.00168966
   0.11396792  0.22442315  0.95753435
   0.22482328  0.11181501  0.05486894
   0.10717291  0.55097815  0.94527598
   0.22099546  0.44097097  0.04366379
   0.11068055  0.88459016  0.94336707
   0.21706727  0.77689091  0.05613575
   0.44611902  0.22027343  0.94930357
   0.55324190  0.11379356  0.05030253
   0.44268580  0.55215027  0.95716927
   0.55537006  0.44185132  0.05525429
   0.44451180  0.89230714  0.94501428
   0.55839730  0.78194629  0.04319049
   0.77995881  0.22424304  0.94662627
   0.88621828  0.11100605  0.04242339
   0.78232343  0.55640394  0.94361332
   0.89198262  0.44472235  0.05390661
   0.77546461  0.89036524  0.95522818
   0.89040989  0.77617223  0.05720130
unknown system                          
           1
     8.334787    4.792925    0.000000
    -8.340006    4.802045    0.000000
     0.000000    0.000000   30.000000
   V    Mo   W    S 
   3   3   3  18
Direct configuration=    20
   0.35262882  0.31443029  0.00236016
   0.98406214  0.34986200 -0.00141475
   0.64739143  0.02023735 -0.00230113
   0.31367419 -0.01974524 -0.00008687
  -0.00060319  0.67100247 -0.00026301
   0.68323100  0.35389493 -0.00014153
   0.01486613 -0.02045752  0.00144019
   0.31290992  0.68232238 -0.00136365
   0.68867454  0.65173703  0.00173234
   0.11417338  0.22451024  0.95758806
   0.22475560  0.11150652  0.05494910
   0.10705520  0.55101798  0.94522849
   0.22094326  0.44083171  0.04367392
   0.11052895  0.88465226  0.94337221
   0.21702626  0.77665754  0.05613609
   0.44611088  0.22023970  0.94938677
   0.55328613  0.11373293  0.05021965
   0.44267738  0.55195990  0.95718760
   0.55575524  0.44207740  0.05535471
   0.44426954  0.89209109  0.94495411
   0.55839865  0.78214027  0.04313767
   0.78001697  0.22453230  0.94652571
   0.88605354  0.11107473  0.04239473
   0.78225442  0.55655579  0.94361012
   0.89219308  0.44465708  0.05387800
   0.77546496  0.89046247  0.95519693
   0.89041603  0.77623084  0.05724430
unknown system                          
           1
     8.335900    4.793117    0.000000
    -8.341141    4.802274    0.000000
     0.000000    0.000000   30.000000
   V    Mo   W    S 
   3   3   3  18
Direct configuration=    21
   0.35317087  0.31442392  0.00277833
   0.98404640  0.34977412 -0.00163868
   0.64738977  0.02070115 -0.00270518
   0.31329818 -0.02041210 -0.00008361
  -0.00075959  0.67101395 -0.00026352
   0.68375220  0.35421440 -0.00012496
   0.01461796 -0.02039591  0.00154004
   0.31252984  0.68162661 -0.00144454
   0.68877325  0.65218324  0.00180738
   0.11480029  0.22475056  0.95775861
   0.22459659  0.11066075  0.05516819
   0.10674212  0.55116165  0.94507285
   0.22081611  0.44046201  0.04369869
   0.11009218  0.88483983  0.94344616
   0.21694849  0.77594852  0.05612267
   0.44605907  0.22021336  0.94966971
   0.55341414  0.11357683  0.05000312
   0.44264047  0.55138060  0.95726292
   0.55686284  0.44269244  0.05562227
   0.44358630  0.89148840  0.94479055
   0.55838994  0.78273188  0.04298014
   0.78014490  0.22530418  0.94622514
   0.88555458  0.11124171  0.04230693
   0.78199746  0.55699585  0.94366144
   0.89281698  0.44451740  0.05384082
   0.77547874  0.89075164  0.95512848
   0.89045437  0.77636748  0.05737594
unknown system                          
           1
     8.335900    4.793117    0.000000
    -8.341141    4.802274    0.000000
     0.000000    0.000000   30.000000
   V    Mo   W    S 
   3   3   3  18
Direct configuration=    22
   0.35320516  0.31439040  0.00280264
   0.98404867  0.34977455 -0.00164060
   0.64738369  0.02070352 -0.00272670
   0.31328310 -0.02039069 -0.00007481
  -0.00077349  0.67100987 -0.00025650
   0.68372178  0.35422981 -0.00011522
   0.01464225 -0.02037051  0.00155152
   0.31251625  0.68160780 -0.00144835
   0.68876243  0.65217169  0.00181680
   0.11483425  0.22476628  0.95776901
   0.22461078  0.11065976  0.05516726
   0.10675125  0.55117596  0.94506564
   0.22081980  0.44045736  0.04369359
   0.11008873  0.88484005  0.94344529
   0.21694680  0.77593180  0.05611915
   0.44603750  0.22022727  0.94968168
   0.55341886  0.11356974  0.04999848
   0.44262823  0.55135443  0.95727606
   0.55687896  0.44268848  0.05561772
   0.44356197  0.89147350  0.94478188
   0.55839361  0.78275176  0.04297064
   0.78014447  0.22530932  0.94620996
   0.88554360  0.11123766  0.04229494
   0.78198881  0.55700151  0.94366057
   0.89282795  0.44451533  0.05383672
   0.77548626  0.89075959  0.95513132
   0.89046279  0.77636820  0.05737122
