   27   27  100    1
  0.9710400E+02  0.1002848E-08  0.1002848E-08  0.3000000E-08  0.5000000E-15
  1.000000000000000E-004
  CAR 
 unknown system                          
    159     34    120
 
  0.0000000E+00  0.0000000E+00  0.0000000E+00  0.1562500E-01
    1      -17.807686   1.000000
    2      -16.732675   1.000000
    3      -16.585503   1.000000
    4      -16.556853   1.000000
    5      -16.480607   1.000000
    6      -16.417687   1.000000
    7      -16.401316   1.000000
    8      -16.384472   1.000000
    9      -16.205984   1.000000
   10      -16.106134   1.000000
   11      -16.046971   1.000000
   12      -16.008389   1.000000
   13      -15.840015   1.000000
   14      -15.832979   1.000000
   15      -15.552566   1.000000
   16      -15.502582   1.000000
   17      -15.499370   1.000000
   18      -15.258765   1.000000
   19       -9.147502   1.000000
   20       -8.869384   1.000000
   21       -8.848532   1.000000
   22       -8.796447   1.000000
   23       -8.731394   1.000000
   24       -8.710525   1.000000
   25       -8.635167   1.000000
   26       -8.617473   1.000000
   27       -8.542269   1.000000
   28       -8.482266   1.000000
   29       -8.448730   1.000000
   30       -8.334073   1.000000
   31       -8.251619   1.000000
   32       -8.241591   1.000000
   33       -8.191655   1.000000
   34       -8.130548   1.000000
   35       -7.980260   1.000000
   36       -7.832835   1.000000
   37       -7.754412   1.000000
   38       -7.555216   1.000000
   39       -7.471208   1.000000
   40       -7.413516   1.000000
   41       -7.278332   1.000000
   42       -7.276085   1.000000
   43       -7.154308   1.000000
   44       -6.961140   1.000000
   45       -6.865377   1.000000
   46       -6.851085   1.000000
   47       -6.770422   1.000000
   48       -6.742987   1.000000
   49       -6.572951   1.000000
   50       -6.567957   1.000000
   51       -6.510275   1.000000
   52       -6.416835   1.000000
   53       -6.244358   1.000000
   54       -6.131374   1.000000
   55       -6.116061   1.000000
   56       -6.000923   1.000000
   57       -5.899595   1.000000
   58       -5.833977   1.000000
   59       -5.815194   1.000000
   60       -5.571058   1.000000
   61       -5.547383   1.000000
   62       -5.393836   1.000000
   63       -5.316540   1.000000
   64       -5.214477   1.000000
   65       -5.070204   1.000000
   66       -4.980267   1.000000
   67       -4.928345   1.000000
   68       -4.770809   1.000000
   69       -4.704961   1.000000
   70       -4.642558   1.000000
   71       -4.595467   1.000000
   72       -4.531719   1.000000
   73       -4.481622   1.000000
   74       -4.327186   1.000000
   75       -4.088924   1.000000
   76       -4.080279   1.000000
   77       -3.681409   0.987354
   78       -3.530160   0.878477
   79       -3.490528   0.812504
   80       -3.460348   0.749769
   81       -3.228711   0.167483
   82       -2.799349   0.000032
   83       -2.741679   0.000005
   84       -2.624302   0.000000
   85       -2.425741   0.000000
   86       -2.321161   0.000000
   87       -2.228750   0.000000
   88       -2.154415   0.000000
   89       -1.987570   0.000000
   90       -1.945130   0.000000
   91       -1.541341   0.000000
   92       -1.482427   0.000000
   93       -1.422586   0.000000
   94       -1.253353   0.000000
   95       -1.223582   0.000000
   96       -1.154161   0.000000
   97       -1.122263   0.000000
   98       -1.109036   0.000000
   99       -0.846622   0.000000
  100       -0.689937   0.000000
  101       -0.652409   0.000000
  102       -0.619843   0.000000
  103       -0.449460   0.000000
  104       -0.420833   0.000000
  105       -0.366320   0.000000
  106       -0.060007   0.000000
  107       -0.021808   0.000000
  108        0.133150   0.000000
  109        0.147584   0.000000
  110        0.251545   0.000000
  111        0.331141   0.000000
  112        0.409618   0.000000
  113        0.536833   0.000000
  114        0.981034   0.000000
  115        1.037724   0.000000
  116        1.104561   0.000000
  117        1.464504   0.000000
  118        1.653027   0.000000
  119        1.838678   0.000000
  120        2.162864   0.000000
 
  0.1250000E+00  0.2775558E-16  0.0000000E+00  0.3125000E-01
    1      -17.781656   1.000000
    2      -16.774797   1.000000
    3      -16.684467   1.000000
    4      -16.594481   1.000000
    5      -16.500120   1.000000
    6      -16.416752   1.000000
    7      -16.375874   1.000000
    8      -16.311735   1.000000
    9      -16.204790   1.000000
   10      -16.082002   1.000000
   11      -16.005630   1.000000
   12      -15.965548   1.000000
   13      -15.856283   1.000000
   14      -15.804809   1.000000
   15      -15.583548   1.000000
   16      -15.502825   1.000000
   17      -15.490871   1.000000
   18      -15.272033   1.000000
   19       -9.121039   1.000000
   20       -9.089517   1.000000
   21       -8.926534   1.000000
   22       -8.887313   1.000000
   23       -8.829617   1.000000
   24       -8.768467   1.000000
   25       -8.685017   1.000000
   26       -8.611111   1.000000
   27       -8.533388   1.000000
   28       -8.410904   1.000000
   29       -8.340866   1.000000
   30       -8.295497   1.000000
   31       -8.244192   1.000000
   32       -8.142561   1.000000
   33       -8.057500   1.000000
   34       -7.955030   1.000000
   35       -7.928645   1.000000
   36       -7.786347   1.000000
   37       -7.776044   1.000000
   38       -7.532582   1.000000
   39       -7.440250   1.000000
   40       -7.401540   1.000000
   41       -7.302066   1.000000
   42       -7.249724   1.000000
   43       -7.177901   1.000000
   44       -7.002025   1.000000
   45       -6.953837   1.000000
   46       -6.853458   1.000000
   47       -6.776990   1.000000
   48       -6.724002   1.000000
   49       -6.621900   1.000000
   50       -6.589532   1.000000
   51       -6.514305   1.000000
   52       -6.339299   1.000000
   53       -6.253404   1.000000
   54       -6.152158   1.000000
   55       -6.049732   1.000000
   56       -6.019452   1.000000
   57       -5.914453   1.000000
   58       -5.846408   1.000000
   59       -5.763238   1.000000
   60       -5.554143   1.000000
   61       -5.492622   1.000000
   62       -5.422222   1.000000
   63       -5.307372   1.000000
   64       -5.276502   1.000000
   65       -5.181549   1.000000
   66       -5.001673   1.000000
   67       -4.972916   1.000000
   68       -4.935739   1.000000
   69       -4.779368   1.000000
   70       -4.598126   1.000000
   71       -4.537615   1.000000
   72       -4.445154   1.000000
   73       -4.360018   1.000000
   74       -4.280116   1.000000
   75       -4.107118   1.000000
   76       -3.992659   0.999995
   77       -3.742584   0.996201
   78       -3.670203   0.984523
   79       -3.608515   0.957416
   80       -3.336028   0.418662
   81       -3.171738   0.085810
   82       -2.826870   0.000071
   83       -2.729925   0.000004
   84       -2.589632   0.000000
   85       -2.469596   0.000000
   86       -2.283629   0.000000
   87       -2.192319   0.000000
   88       -2.128834   0.000000
   89       -2.017468   0.000000
   90       -1.885062   0.000000
   91       -1.576154   0.000000
   92       -1.480660   0.000000
   93       -1.407455   0.000000
   94       -1.260625   0.000000
   95       -1.233678   0.000000
   96       -1.163434   0.000000
   97       -1.108676   0.000000
   98       -1.089968   0.000000
   99       -0.836634   0.000000
  100       -0.747742   0.000000
  101       -0.688014   0.000000
  102       -0.654555   0.000000
  103       -0.522112   0.000000
  104       -0.509390   0.000000
  105       -0.417335   0.000000
  106       -0.126486   0.000000
  107       -0.087698   0.000000
  108        0.100070   0.000000
  109        0.185605   0.000000
  110        0.222312   0.000000
  111        0.408944   0.000000
  112        0.516500   0.000000
  113        0.617818   0.000000
  114        0.969628   0.000000
  115        1.056581   0.000000
  116        1.115401   0.000000
  117        1.405761   0.000000
  118        1.698684   0.000000
  119        1.876043   0.000000
  120        2.198232   0.000000
 
  0.2500000E+00  0.5551115E-16  0.0000000E+00  0.3125000E-01
    1      -17.704512   1.000000
    2      -16.974294   1.000000
    3      -16.716768   1.000000
    4      -16.654244   1.000000
    5      -16.563155   1.000000
    6      -16.412287   1.000000
    7      -16.313102   1.000000
    8      -16.265377   1.000000
    9      -16.139975   1.000000
   10      -16.050472   1.000000
   11      -15.954548   1.000000
   12      -15.904447   1.000000
   13      -15.856725   1.000000
   14      -15.726151   1.000000
   15      -15.639135   1.000000
   16      -15.513101   1.000000
   17      -15.485695   1.000000
   18      -15.304070   1.000000
   19       -9.433117   1.000000
   20       -9.100159   1.000000
   21       -9.038697   1.000000
   22       -9.001408   1.000000
   23       -8.957826   1.000000
   24       -8.863979   1.000000
   25       -8.677170   1.000000
   26       -8.634395   1.000000
   27       -8.463369   1.000000
   28       -8.330119   1.000000
   29       -8.249916   1.000000
   30       -8.228247   1.000000
   31       -8.143958   1.000000
   32       -8.040464   1.000000
   33       -7.982400   1.000000
   34       -7.894060   1.000000
   35       -7.844182   1.000000
   36       -7.727396   1.000000
   37       -7.562016   1.000000
   38       -7.499621   1.000000
   39       -7.399382   1.000000
   40       -7.357104   1.000000
   41       -7.276111   1.000000
   42       -7.267708   1.000000
   43       -7.105559   1.000000
   44       -7.023897   1.000000
   45       -6.964133   1.000000
   46       -6.892883   1.000000
   47       -6.844098   1.000000
   48       -6.782543   1.000000
   49       -6.648095   1.000000
   50       -6.507332   1.000000
   51       -6.463738   1.000000
   52       -6.328888   1.000000
   53       -6.183650   1.000000
   54       -6.157877   1.000000
   55       -6.115097   1.000000
   56       -6.004895   1.000000
   57       -5.913945   1.000000
   58       -5.816554   1.000000
   59       -5.748475   1.000000
   60       -5.570726   1.000000
   61       -5.546295   1.000000
   62       -5.466972   1.000000
   63       -5.423816   1.000000
   64       -5.409380   1.000000
   65       -5.304068   1.000000
   66       -5.133227   1.000000
   67       -4.981734   1.000000
   68       -4.936889   1.000000
   69       -4.787578   1.000000
   70       -4.620225   1.000000
   71       -4.449456   1.000000
   72       -4.358341   1.000000
   73       -4.245803   1.000000
   74       -4.171302   1.000000
   75       -4.158918   1.000000
   76       -4.037989   0.999999
   77       -3.873553   0.999838
   78       -3.678432   0.986649
   79       -3.598827   0.950830
   80       -3.306472   0.339326
   81       -3.118301   0.040503
   82       -2.856694   0.000162
   83       -2.720554   0.000003
   84       -2.540640   0.000000
   85       -2.493808   0.000000
   86       -2.306623   0.000000
   87       -2.129777   0.000000
   88       -2.015011   0.000000
   89       -1.984026   0.000000
   90       -1.814809   0.000000
   91       -1.621801   0.000000
   92       -1.512865   0.000000
   93       -1.384261   0.000000
   94       -1.281102   0.000000
   95       -1.237426   0.000000
   96       -1.193039   0.000000
   97       -1.085236   0.000000
   98       -1.064311   0.000000
   99       -0.895368   0.000000
  100       -0.817858   0.000000
  101       -0.769914   0.000000
  102       -0.760883   0.000000
  103       -0.665403   0.000000
  104       -0.597533   0.000000
  105       -0.504320   0.000000
  106       -0.309614   0.000000
  107       -0.196588   0.000000
  108        0.053314   0.000000
  109        0.168937   0.000000
  110        0.231673   0.000000
  111        0.488004   0.000000
  112        0.690852   0.000000
  113        0.794247   0.000000
  114        0.942392   0.000000
  115        1.112954   0.000000
  116        1.166348   0.000000
  117        1.291300   0.000000
  118        1.823989   0.000000
  119        1.984233   0.000000
  120        2.303138   0.000000
 
  0.3750000E+00  0.0000000E+00  0.0000000E+00  0.3125000E-01
    1      -17.579601   1.000000
    2      -17.198909   1.000000
    3      -16.743066   1.000000
    4      -16.682876   1.000000
    5      -16.582735   1.000000
    6      -16.456753   1.000000
    7      -16.276266   1.000000
    8      -16.195870   1.000000
    9      -16.093125   1.000000
   10      -16.001659   1.000000
   11      -15.950833   1.000000
   12      -15.882147   1.000000
   13      -15.800052   1.000000
   14      -15.709140   1.000000
   15      -15.657288   1.000000
   16      -15.513577   1.000000
   17      -15.488062   1.000000
   18      -15.335064   1.000000
   19       -9.671379   1.000000
   20       -9.187439   1.000000
   21       -9.119993   1.000000
   22       -9.084317   1.000000
   23       -9.006550   1.000000
   24       -8.858220   1.000000
   25       -8.614418   1.000000
   26       -8.562863   1.000000
   27       -8.435687   1.000000
   28       -8.297556   1.000000
   29       -8.279859   1.000000
   30       -8.189630   1.000000
   31       -8.063271   1.000000
   32       -8.014985   1.000000
   33       -7.980654   1.000000
   34       -7.879875   1.000000
   35       -7.772923   1.000000
   36       -7.714976   1.000000
   37       -7.572088   1.000000
   38       -7.433171   1.000000
   39       -7.368011   1.000000
   40       -7.347543   1.000000
   41       -7.277409   1.000000
   42       -7.164921   1.000000
   43       -7.098282   1.000000
   44       -7.021252   1.000000
   45       -6.885676   1.000000
   46       -6.836979   1.000000
   47       -6.682254   1.000000
   48       -6.652111   1.000000
   49       -6.562208   1.000000
   50       -6.485591   1.000000
   51       -6.392334   1.000000
   52       -6.320482   1.000000
   53       -6.236766   1.000000
   54       -6.131531   1.000000
   55       -6.095470   1.000000
   56       -6.041860   1.000000
   57       -5.978942   1.000000
   58       -5.945878   1.000000
   59       -5.843455   1.000000
   60       -5.701070   1.000000
   61       -5.649787   1.000000
   62       -5.567823   1.000000
   63       -5.525937   1.000000
   64       -5.413930   1.000000
   65       -5.342715   1.000000
   66       -5.156516   1.000000
   67       -5.003821   1.000000
   68       -4.845620   1.000000
   69       -4.766038   1.000000
   70       -4.688640   1.000000
   71       -4.606254   1.000000
   72       -4.308934   1.000000
   73       -4.212037   1.000000
   74       -4.164023   1.000000
   75       -4.116481   1.000000
   76       -4.033040   0.999999
   77       -3.849855   0.999696
   78       -3.629096   0.969048
   79       -3.494842   0.820604
   80       -3.358008   0.480104
   81       -3.091641   0.026594
   82       -2.859294   0.000174
   83       -2.749906   0.000007
   84       -2.519195   0.000000
   85       -2.460191   0.000000
   86       -2.359664   0.000000
   87       -2.053276   0.000000
   88       -1.928338   0.000000
   89       -1.905613   0.000000
   90       -1.777102   0.000000
   91       -1.633091   0.000000
   92       -1.528772   0.000000
   93       -1.410126   0.000000
   94       -1.303554   0.000000
   95       -1.238971   0.000000
   96       -1.212037   0.000000
   97       -1.090576   0.000000
   98       -1.075602   0.000000
   99       -1.006086   0.000000
  100       -0.899805   0.000000
  101       -0.853062   0.000000
  102       -0.790769   0.000000
  103       -0.755064   0.000000
  104       -0.624179   0.000000
  105       -0.565000   0.000000
  106       -0.450396   0.000000
  107       -0.317016   0.000000
  108       -0.002306   0.000000
  109        0.147338   0.000000
  110        0.211711   0.000000
  111        0.496288   0.000000
  112        0.833952   0.000000
  113        0.923264   0.000000
  114        0.962019   0.000000
  115        1.166386   0.000000
  116        1.194181   0.000000
  117        1.242047   0.000000
  118        2.010346   0.000000
  119        2.156725   0.000000
  120        2.475095   0.000000
 
  0.5000000E+00  0.1110223E-15  0.0000000E+00  0.1562500E-01
    1      -17.438793   1.000000
    2      -17.375209   1.000000
    3      -16.754796   1.000000
    4      -16.693874   1.000000
    5      -16.578937   1.000000
    6      -16.478362   1.000000
    7      -16.281036   1.000000
    8      -16.104585   1.000000
    9      -16.083772   1.000000
   10      -16.068397   1.000000
   11      -15.912150   1.000000
   12      -15.834721   1.000000
   13      -15.785911   1.000000
   14      -15.736572   1.000000
   15      -15.672906   1.000000
   16      -15.496925   1.000000
   17      -15.489757   1.000000
   18      -15.347232   1.000000
   19       -9.755866   1.000000
   20       -9.220750   1.000000
   21       -9.153554   1.000000
   22       -9.117631   1.000000
   23       -9.056526   1.000000
   24       -8.710844   1.000000
   25       -8.653361   1.000000
   26       -8.577499   1.000000
   27       -8.413233   1.000000
   28       -8.352036   1.000000
   29       -8.185420   1.000000
   30       -8.173426   1.000000
   31       -8.074674   1.000000
   32       -8.035847   1.000000
   33       -7.940095   1.000000
   34       -7.878424   1.000000
   35       -7.827233   1.000000
   36       -7.659214   1.000000
   37       -7.590663   1.000000
   38       -7.496829   1.000000
   39       -7.406036   1.000000
   40       -7.345896   1.000000
   41       -7.262858   1.000000
   42       -7.086164   1.000000
   43       -7.045790   1.000000
   44       -6.990103   1.000000
   45       -6.840376   1.000000
   46       -6.658222   1.000000
   47       -6.638693   1.000000
   48       -6.569696   1.000000
   49       -6.499474   1.000000
   50       -6.477965   1.000000
   51       -6.366963   1.000000
   52       -6.347164   1.000000
   53       -6.339502   1.000000
   54       -6.272713   1.000000
   55       -6.123720   1.000000
   56       -6.004341   1.000000
   57       -5.955895   1.000000
   58       -5.908992   1.000000
   59       -5.803283   1.000000
   60       -5.724192   1.000000
   61       -5.690357   1.000000
   62       -5.601722   1.000000
   63       -5.561033   1.000000
   64       -5.550185   1.000000
   65       -5.419212   1.000000
   66       -5.126281   1.000000
   67       -5.119452   1.000000
   68       -4.787823   1.000000
   69       -4.775644   1.000000
   70       -4.725788   1.000000
   71       -4.508538   1.000000
   72       -4.443851   1.000000
   73       -4.171240   1.000000
   74       -4.153121   1.000000
   75       -4.116177   1.000000
   76       -3.961002   0.999987
   77       -3.853174   0.999721
   78       -3.560173   0.916150
   79       -3.462753   0.755145
   80       -3.411072   0.627532
   81       -3.075399   0.020268
   82       -2.853580   0.000149
   83       -2.779578   0.000017
   84       -2.504216   0.000000
   85       -2.449657   0.000000
   86       -2.374151   0.000000
   87       -2.022231   0.000000
   88       -1.896285   0.000000
   89       -1.870756   0.000000
   90       -1.777655   0.000000
   91       -1.630660   0.000000
   92       -1.492854   0.000000
   93       -1.450157   0.000000
   94       -1.318734   0.000000
   95       -1.240221   0.000000
   96       -1.219733   0.000000
   97       -1.131477   0.000000
   98       -1.105081   0.000000
   99       -1.000349   0.000000
  100       -0.954732   0.000000
  101       -0.843931   0.000000
  102       -0.821882   0.000000
  103       -0.787130   0.000000
  104       -0.614144   0.000000
  105       -0.588054   0.000000
  106       -0.511712   0.000000
  107       -0.368201   0.000000
  108       -0.026335   0.000000
  109        0.142062   0.000000
  110        0.197027   0.000000
  111        0.486044   0.000000
  112        0.880143   0.000000
  113        0.923291   0.000000
  114        1.079849   0.000000
  115        1.099945   0.000000
  116        1.203984   0.000000
  117        1.267939   0.000000
  118        2.243349   0.000000
  119        2.251569   0.000000
  120        2.374765   0.000000
 
  0.0000000E+00  0.1250000E+00  0.0000000E+00  0.3125000E-01
    1      -17.781920   1.000000
    2      -16.783185   1.000000
    3      -16.658608   1.000000
    4      -16.605245   1.000000
    5      -16.539649   1.000000
    6      -16.416402   1.000000
    7      -16.343908   1.000000
    8      -16.292514   1.000000
    9      -16.181755   1.000000
   10      -16.099199   1.000000
   11      -16.031123   1.000000
   12      -15.968688   1.000000
   13      -15.837892   1.000000
   14      -15.823297   1.000000
   15      -15.576680   1.000000
   16      -15.506974   1.000000
   17      -15.496033   1.000000
   18      -15.265615   1.000000
   19       -9.128971   1.000000
   20       -9.090427   1.000000
   21       -8.964007   1.000000
   22       -8.893998   1.000000
   23       -8.837642   1.000000
   24       -8.686366   1.000000
   25       -8.649968   1.000000
   26       -8.612350   1.000000
   27       -8.523089   1.000000
   28       -8.442281   1.000000
   29       -8.364273   1.000000
   30       -8.271521   1.000000
   31       -8.234471   1.000000
   32       -8.134012   1.000000
   33       -8.093847   1.000000
   34       -7.989081   1.000000
   35       -7.914071   1.000000
   36       -7.801085   1.000000
   37       -7.687524   1.000000
   38       -7.621809   1.000000
   39       -7.524177   1.000000
   40       -7.349717   1.000000
   41       -7.307040   1.000000
   42       -7.246837   1.000000
   43       -7.139901   1.000000
   44       -7.017586   1.000000
   45       -6.956212   1.000000
   46       -6.841261   1.000000
   47       -6.793553   1.000000
   48       -6.666284   1.000000
   49       -6.600867   1.000000
   50       -6.553746   1.000000
   51       -6.488617   1.000000
   52       -6.376395   1.000000
   53       -6.247249   1.000000
   54       -6.175967   1.000000
   55       -6.116994   1.000000
   56       -5.997880   1.000000
   57       -5.935030   1.000000
   58       -5.841504   1.000000
   59       -5.769996   1.000000
   60       -5.569434   1.000000
   61       -5.521204   1.000000
   62       -5.417738   1.000000
   63       -5.368304   1.000000
   64       -5.235368   1.000000
   65       -5.100743   1.000000
   66       -5.045967   1.000000
   67       -4.954984   1.000000
   68       -4.866459   1.000000
   69       -4.732332   1.000000
   70       -4.647114   1.000000
   71       -4.546608   1.000000
   72       -4.492858   1.000000
   73       -4.431757   1.000000
   74       -4.182814   1.000000
   75       -4.111294   1.000000
   76       -4.005916   0.999997
   77       -3.749514   0.996721
   78       -3.660513   0.981652
   79       -3.602150   0.953175
   80       -3.404472   0.609747
   81       -3.116874   0.039633
   82       -2.792916   0.000026
   83       -2.713979   0.000002
   84       -2.623919   0.000000
   85       -2.417314   0.000000
   86       -2.309305   0.000000
   87       -2.197473   0.000000
   88       -2.134650   0.000000
   89       -1.998448   0.000000
   90       -1.909531   0.000000
   91       -1.564717   0.000000
   92       -1.499191   0.000000
   93       -1.403366   0.000000
   94       -1.253526   0.000000
   95       -1.224915   0.000000
   96       -1.169181   0.000000
   97       -1.108257   0.000000
   98       -1.091030   0.000000
   99       -0.846333   0.000000
  100       -0.760716   0.000000
  101       -0.729266   0.000000
  102       -0.690813   0.000000
  103       -0.550525   0.000000
  104       -0.461449   0.000000
  105       -0.399703   0.000000
  106       -0.067736   0.000000
  107       -0.039485   0.000000
  108        0.087269   0.000000
  109        0.161058   0.000000
  110        0.286155   0.000000
  111        0.379038   0.000000
  112        0.475039   0.000000
  113        0.567429   0.000000
  114        0.966535   0.000000
  115        1.056275   0.000000
  116        1.127666   0.000000
  117        1.433444   0.000000
  118        1.696857   0.000000
  119        1.876835   0.000000
  120        2.198044   0.000000
 
  0.1250000E+00  0.1250000E+00  0.0000000E+00  0.3125000E-01
    1      -17.730328   1.000000
    2      -16.887537   1.000000
    3      -16.778917   1.000000
    4      -16.654689   1.000000
    5      -16.454804   1.000000
    6      -16.406421   1.000000
    7      -16.367637   1.000000
    8      -16.258502   1.000000
    9      -16.160294   1.000000
   10      -16.069495   1.000000
   11      -15.989922   1.000000
   12      -15.913034   1.000000
   13      -15.835948   1.000000
   14      -15.772213   1.000000
   15      -15.619882   1.000000
   16      -15.512622   1.000000
   17      -15.485238   1.000000
   18      -15.289997   1.000000
   19       -9.281263   1.000000
   20       -9.238634   1.000000
   21       -9.068019   1.000000
   22       -8.981394   1.000000
   23       -8.801013   1.000000
   24       -8.753305   1.000000
   25       -8.665647   1.000000
   26       -8.613423   1.000000
   27       -8.530101   1.000000
   28       -8.347527   1.000000
   29       -8.328174   1.000000
   30       -8.245844   1.000000
   31       -8.213835   1.000000
   32       -8.088870   1.000000
   33       -7.953492   1.000000
   34       -7.902151   1.000000
   35       -7.820189   1.000000
   36       -7.775324   1.000000
   37       -7.590926   1.000000
   38       -7.533408   1.000000
   39       -7.380395   1.000000
   40       -7.344157   1.000000
   41       -7.307581   1.000000
   42       -7.252992   1.000000
   43       -7.161545   1.000000
   44       -7.043975   1.000000
   45       -6.996430   1.000000
   46       -6.903852   1.000000
   47       -6.792183   1.000000
   48       -6.742520   1.000000
   49       -6.635211   1.000000
   50       -6.536392   1.000000
   51       -6.468481   1.000000
   52       -6.318926   1.000000
   53       -6.248348   1.000000
   54       -6.133654   1.000000
   55       -6.089563   1.000000
   56       -6.045080   1.000000
   57       -5.896102   1.000000
   58       -5.853784   1.000000
   59       -5.710936   1.000000
   60       -5.610692   1.000000
   61       -5.521417   1.000000
   62       -5.458489   1.000000
   63       -5.403988   1.000000
   64       -5.326131   1.000000
   65       -5.189448   1.000000
   66       -5.160079   1.000000
   67       -5.010685   1.000000
   68       -4.929581   1.000000
   69       -4.754011   1.000000
   70       -4.620424   1.000000
   71       -4.493680   1.000000
   72       -4.393536   1.000000
   73       -4.275795   1.000000
   74       -4.146268   1.000000
   75       -4.123856   1.000000
   76       -4.061590   1.000000
   77       -3.821755   0.999380
   78       -3.714040   0.993200
   79       -3.639061   0.973655
   80       -3.321933   0.380190
   81       -3.090390   0.026054
   82       -2.832417   0.000083
   83       -2.700692   0.000001
   84       -2.578873   0.000000
   85       -2.454315   0.000000
   86       -2.284572   0.000000
   87       -2.172416   0.000000
   88       -2.055041   0.000000
   89       -1.997014   0.000000
   90       -1.836372   0.000000
   91       -1.608291   0.000000
   92       -1.507152   0.000000
   93       -1.391843   0.000000
   94       -1.267393   0.000000
   95       -1.239202   0.000000
   96       -1.182321   0.000000
   97       -1.094124   0.000000
   98       -1.073919   0.000000
   99       -0.855996   0.000000
  100       -0.844168   0.000000
  101       -0.787480   0.000000
  102       -0.723783   0.000000
  103       -0.639090   0.000000
  104       -0.593465   0.000000
  105       -0.447465   0.000000
  106       -0.224736   0.000000
  107       -0.132168   0.000000
  108        0.064813   0.000000
  109        0.182637   0.000000
  110        0.259037   0.000000
  111        0.459208   0.000000
  112        0.591504   0.000000
  113        0.723429   0.000000
  114        0.939529   0.000000
  115        1.063723   0.000000
  116        1.179381   0.000000
  117        1.364219   0.000000
  118        1.782574   0.000000
  119        1.949448   0.000000
  120        2.268172   0.000000
 
  0.2500000E+00  0.1250000E+00  0.0000000E+00  0.3125000E-01
    1      -17.629160   1.000000
    2      -17.077483   1.000000
    3      -16.891848   1.000000
    4      -16.629107   1.000000
    5      -16.475875   1.000000
    6      -16.418124   1.000000
    7      -16.290376   1.000000
    8      -16.257257   1.000000
    9      -16.104329   1.000000
   10      -16.014064   1.000000
   11      -15.961578   1.000000
   12      -15.920624   1.000000
   13      -15.809560   1.000000
   14      -15.693770   1.000000
   15      -15.664361   1.000000
   16      -15.515692   1.000000
   17      -15.482332   1.000000
   18      -15.321012   1.000000
   19       -9.557727   1.000000
   20       -9.354543   1.000000
   21       -9.181102   1.000000
   22       -8.950910   1.000000
   23       -8.854594   1.000000
   24       -8.781336   1.000000
   25       -8.626240   1.000000
   26       -8.577045   1.000000
   27       -8.447940   1.000000
   28       -8.334045   1.000000
   29       -8.255031   1.000000
   30       -8.204882   1.000000
   31       -8.152512   1.000000
   32       -8.044030   1.000000
   33       -8.033432   1.000000
   34       -7.921364   1.000000
   35       -7.864679   1.000000
   36       -7.613026   1.000000
   37       -7.505221   1.000000
   38       -7.433678   1.000000
   39       -7.346142   1.000000
   40       -7.316499   1.000000
   41       -7.272143   1.000000
   42       -7.201554   1.000000
   43       -7.100191   1.000000
   44       -7.062301   1.000000
   45       -6.951267   1.000000
   46       -6.810179   1.000000
   47       -6.754119   1.000000