       N       E                     dE             d eps       ncg     rms          rms(c)
DAV:   1     0.112417158649E+04    0.11242E+04   -0.35864E+04  8160   0.577E+02
DAV:   2    -0.508799602922E+01   -0.11293E+04   -0.10908E+04 11080   0.173E+02
DAV:   3    -0.200015564498E+03   -0.19493E+03   -0.18711E+03 10960   0.817E+01
DAV:   4    -0.209049962794E+03   -0.90344E+01   -0.87269E+01 12240   0.256E+01
DAV:   5    -0.209350995267E+03   -0.30103E+00   -0.30013E+00 11440   0.339E+00    0.275E+01
DAV:   6    -0.236562192907E+03   -0.27211E+02   -0.10052E+02 12880   0.596E+01    0.595E+01
DAV:   7    -0.196086791381E+03    0.40475E+02   -0.16757E+02 12680   0.146E+02    0.198E+01
DAV:   8    -0.189219070609E+03    0.68677E+01   -0.16389E+01 12000   0.123E+01    0.118E+01
DAV:   9    -0.188014042334E+03    0.12050E+01   -0.29931E+00 13440   0.662E+00    0.824E+00
DAV:  10    -0.187021818143E+03    0.99222E+00   -0.14394E+00 13080   0.677E+00    0.201E+00
DAV:  11    -0.187219792911E+03   -0.19797E+00   -0.80767E-01 13240   0.456E+00    0.479E+00
DAV:  12    -0.187060114694E+03    0.15968E+00   -0.39494E-01 12160   0.413E+00    0.344E+00
DAV:  13    -0.186941369463E+03    0.11875E+00   -0.20783E-01 12480   0.288E+00    0.122E+00
DAV:  14    -0.186934599785E+03    0.67697E-02   -0.47046E-02 13080   0.117E+00    0.103E+00
DAV:  15    -0.186928150032E+03    0.64498E-02   -0.15102E-02 13480   0.624E-01    0.591E-01
DAV:  16    -0.186923928411E+03    0.42216E-02   -0.88471E-03 12960   0.400E-01    0.168E-01
DAV:  17    -0.186923683795E+03    0.24462E-03   -0.34226E-03 12000   0.165E-01    0.205E-01
DAV:  18    -0.186923149788E+03    0.53401E-03   -0.15842E-03 12200   0.176E-01    0.864E-02
DAV:  19    -0.186923551214E+03   -0.40143E-03   -0.74180E-04 10880   0.791E-02    0.941E-02
DAV:  20    -0.186924102530E+03   -0.55132E-03   -0.64335E-04  9720   0.847E-02    0.794E-02
DAV:  21    -0.186925251835E+03   -0.11493E-02   -0.35652E-04  9160   0.753E-02    0.242E-02
DAV:  22    -0.186926145720E+03   -0.89388E-03   -0.93054E-05  7120   0.267E-02    0.276E-02
DAV:  23    -0.186926854312E+03   -0.70859E-03   -0.60393E-05  7600   0.229E-02    0.144E-02
DAV:  24    -0.186927531522E+03   -0.67721E-03   -0.44642E-05  7120   0.199E-02    0.101E-02
DAV:  25    -0.186927900609E+03   -0.36909E-03   -0.10670E-05  6320   0.137E-02    0.522E-03
DAV:  26    -0.186928119936E+03   -0.21933E-03   -0.76893E-06  6800   0.804E-03    0.300E-03
DAV:  27    -0.186928203095E+03   -0.83159E-04   -0.30184E-06  7200   0.558E-03
   1 F= -.18692820E+03 E0= -.18675598E+03  d E =-.186928E+03
       N       E                     dE             d eps       ncg     rms          rms(c)
DAV:   1    -0.187487590465E+03   -0.55947E+00   -0.26699E+02  8160   0.346E+01    0.463E+00
DAV:   2    -0.189404054976E+03   -0.19165E+01   -0.20559E+01 12920   0.154E+01    0.883E+00
DAV:   3    -0.189395236055E+03    0.88189E-02   -0.40607E+00 12320   0.117E+01    0.701E+00
DAV:   4    -0.188763660776E+03    0.63158E+00   -0.60204E-01 12160   0.457E+00    0.173E+00
DAV:   5    -0.188773517870E+03   -0.98571E-02   -0.31840E-01 10200   0.155E+00    0.236E+00
DAV:   6    -0.188716952479E+03    0.56565E-01   -0.30111E-01 12160   0.221E+00    0.203E+00
DAV:   7    -0.188721645811E+03   -0.46933E-02   -0.17722E-01 12240   0.262E+00    0.234E+00
DAV:   8    -0.188677748453E+03    0.43897E-01   -0.81857E-02 12880   0.153E+00    0.376E-01
DAV:   9    -0.188675741764E+03    0.20067E-02   -0.67796E-03 10560   0.283E-01    0.200E-01
DAV:  10    -0.188677110713E+03   -0.13689E-02   -0.45630E-03 13520   0.394E-01    0.481E-01
DAV:  11    -0.188675320085E+03    0.17906E-02   -0.36256E-03 12480   0.354E-01    0.107E-01
DAV:  12    -0.188675434706E+03   -0.11462E-03   -0.64847E-04 11280   0.976E-02    0.796E-02
DAV:  13    -0.188675366393E+03    0.68313E-04   -0.19433E-04  8000   0.467E-02
   2 F= -.18867537E+03 E0= -.18853341E+03  d E =-.174716E+01
       N       E                     dE             d eps       ncg     rms          rms(c)
DAV:   1    -0.190573864758E+03   -0.18984E+01   -0.30372E+01  8880   0.141E+01    0.447E+00
DAV:   2    -0.190675350807E+03   -0.10149E+00   -0.29226E+00 11360   0.101E+01    0.807E+00
DAV:   3    -0.190029061047E+03    0.64629E+00   -0.13790E+00 12280   0.857E+00    0.392E+00
DAV:   4    -0.189846476451E+03    0.18258E+00   -0.66520E-01 12280   0.364E+00    0.250E+00
DAV:   5    -0.189768026389E+03    0.78450E-01   -0.28892E-01 12000   0.196E+00    0.120E+00
DAV:   6    -0.189749687751E+03    0.18339E-01   -0.60801E-02 11880   0.138E+00    0.862E-01
DAV:   7    -0.189743931640E+03    0.57561E-02   -0.14661E-02 11480   0.715E-01    0.201E-01
DAV:   8    -0.189743966895E+03   -0.35255E-04   -0.21059E-03 12320   0.164E-01    0.147E-01
DAV:   9    -0.189744107952E+03   -0.14106E-03   -0.10787E-03 10680   0.145E-01    0.153E-01
DAV:  10    -0.189744605725E+03   -0.49777E-03   -0.14571E-03 10400   0.266E-01    0.261E-01
DAV:  11    -0.189743968788E+03    0.63694E-03   -0.85605E-04  9120   0.195E-01    0.219E-02
DAV:  12    -0.189743992472E+03   -0.23684E-04   -0.66708E-05  5720   0.280E-02
   3 F= -.18974399E+03 E0= -.18962431E+03  d E =-.106863E+01
       N       E                     dE             d eps       ncg     rms          rms(c)
DAV:   1    -0.191236312472E+03   -0.14923E+01   -0.63102E+01  8160   0.182E+01    0.464E+00
DAV:   2    -0.191351000648E+03   -0.11469E+00   -0.55886E+00 13600   0.100E+01    0.683E+00
DAV:   3    -0.191001164914E+03    0.34984E+00   -0.16822E+00 12040   0.922E+00    0.493E+00
DAV:   4    -0.190759351212E+03    0.24181E+00   -0.86775E-01 12280   0.506E+00    0.256E+00
DAV:   5    -0.190666878882E+03    0.92472E-01   -0.27715E-01 12160   0.209E+00    0.123E+00
DAV:   6    -0.190657314426E+03    0.95645E-02   -0.10653E-01 11720   0.199E+00    0.143E+00
DAV:   7    -0.190643570906E+03    0.13744E-01   -0.52386E-02 11400   0.159E+00    0.599E-01
DAV:   8    -0.190638733825E+03    0.48371E-02   -0.67678E-03 12240   0.471E-01    0.118E-01
DAV:   9    -0.190639297121E+03   -0.56330E-03   -0.19501E-03 10840   0.152E-01    0.153E-01
DAV:  10    -0.190639123964E+03    0.17316E-03   -0.90903E-04 10640   0.191E-01    0.117E-01
DAV:  11    -0.190639044841E+03    0.79124E-04   -0.32095E-04  7760   0.124E-01
   4 F= -.19063904E+03 E0= -.19053883E+03  d E =-.895052E+00
       N       E                     dE             d eps       ncg     rms          rms(c)
DAV:   1    -0.191939650536E+03   -0.13005E+01   -0.11431E+02  8160   0.242E+01    0.569E+00
DAV:   2    -0.192054632771E+03   -0.11498E+00   -0.93610E+00 13560   0.118E+01    0.707E+00
DAV:   3    -0.191733126623E+03    0.32151E+00   -0.23323E+00 11760   0.113E+01    0.628E+00
DAV:   4    -0.191363282015E+03    0.36984E+00   -0.13662E+00 12240   0.751E+00    0.316E+00
DAV:   5    -0.191205725652E+03    0.15756E+00   -0.42975E-01 12600   0.313E+00    0.159E+00
DAV:   6    -0.191202884576E+03    0.28411E-02   -0.18778E-01 12560   0.303E+00    0.196E+00
DAV:   7    -0.191169591150E+03    0.33293E-01   -0.88399E-02 12400   0.214E+00    0.549E-01
DAV:   8    -0.191164364113E+03    0.52270E-02   -0.90719E-03 11200   0.467E-01    0.148E-01
DAV:   9    -0.191165217653E+03   -0.85354E-03   -0.33495E-03 11360   0.255E-01    0.223E-01
DAV:  10    -0.191164842161E+03    0.37549E-03   -0.13773E-03 10320   0.275E-01    0.102E-01
DAV:  11    -0.191164772244E+03    0.69917E-04   -0.25785E-04  6960   0.995E-02
   5 F= -.19116477E+03 E0= -.19107389E+03  d E =-.525727E+00
       N       E                     dE             d eps       ncg     rms          rms(c)
DAV:   1    -0.191205033387E+03   -0.40191E-01   -0.36030E+00  8160   0.406E+00    0.521E-01
DAV:   2    -0.191217066296E+03   -0.12033E-01   -0.14426E-01 13200   0.127E+00    0.726E-01
DAV:   3    -0.191213617819E+03    0.34485E-02   -0.30687E-02 12440   0.122E+00    0.688E-01
DAV:   4    -0.191209617717E+03    0.40001E-02   -0.12057E-02 11240   0.806E-01    0.310E-01
DAV:   5    -0.191208191974E+03    0.14257E-02   -0.37629E-03 10160   0.379E-01    0.201E-01
DAV:   6    -0.191208431033E+03   -0.23906E-03   -0.25094E-03 12080   0.379E-01    0.233E-01
DAV:   7    -0.191207801470E+03    0.62956E-03   -0.94900E-04 10320   0.221E-01    0.343E-02
DAV:   8    -0.191207836163E+03   -0.34693E-04   -0.10809E-04  6080   0.657E-02
   6 F= -.19120784E+03 E0= -.19111433E+03  d E =-.430639E-01
       N       E                     dE             d eps       ncg     rms          rms(c)
DAV:   1    -0.191220010313E+03   -0.12209E-01   -0.32274E-01  8160   0.122E+00    0.173E-01
DAV:   2    -0.191220798614E+03   -0.78830E-03   -0.12416E-02 11640   0.366E-01    0.222E-01
DAV:   3    -0.191220746512E+03    0.52101E-04   -0.30859E-03 12440   0.409E-01    0.245E-01
DAV:   4    -0.191220172423E+03    0.57409E-03   -0.13705E-03  9800   0.274E-01    0.993E-02
DAV:   5    -0.191220099523E+03    0.72900E-04   -0.48921E-04  8960   0.140E-01
   7 F= -.19122010E+03 E0= -.19112553E+03  d E =-.122634E-01
       N       E                     dE             d eps       ncg     rms          rms(c)
DAV:   1    -0.191218962418E+03    0.12100E-02   -0.99793E-01  8160   0.238E+00    0.583E-01
DAV:   2    -0.191216596952E+03    0.23655E-02   -0.71909E-02 12440   0.101E+00    0.718E-01
DAV:   3    -0.191216975942E+03   -0.37899E-03   -0.31057E-02 11720   0.135E+00    0.801E-01
DAV:   4    -0.191210299375E+03    0.66766E-02   -0.15672E-02 11440   0.911E-01    0.344E-01
DAV:   5    -0.191210482414E+03   -0.18304E-03   -0.74951E-03 10400   0.624E-01    0.409E-01
DAV:   6    -0.191208430074E+03    0.20523E-02   -0.33391E-03 11920   0.410E-01    0.671E-02
DAV:   7    -0.191208496768E+03   -0.66694E-04   -0.42795E-04  9640   0.101E-01
   8 F= -.19120850E+03 E0= -.19111557E+03  d E =0.116028E-01
       N       E                     dE             d eps       ncg     rms          rms(c)
DAV:   1    -0.191289105107E+03   -0.80675E-01   -0.65950E+00  8160   0.567E+00    0.952E-01
DAV:   2    -0.191298042845E+03   -0.89377E-02   -0.25747E-01 12920   0.197E+00    0.135E+00
DAV:   3    -0.191289805445E+03    0.82374E-02   -0.88616E-02 12200   0.226E+00    0.114E+00
DAV:   4    -0.191276346015E+03    0.13459E-01   -0.36704E-02 12320   0.135E+00    0.604E-01
DAV:   5    -0.191276100190E+03    0.24583E-03   -0.21872E-02 10800   0.103E+00    0.731E-01
DAV:   6    -0.191270675833E+03    0.54244E-02   -0.12895E-02 11880   0.795E-01    0.211E-01
DAV:   7    -0.191270112582E+03    0.56325E-03   -0.21426E-03 10800   0.233E-01    0.809E-02
DAV:   8    -0.191270163494E+03   -0.50912E-04   -0.64160E-04 11200   0.168E-01
   9 F= -.19127016E+03 E0= -.19117283E+03  d E =-.616667E-01
       N       E                     dE             d eps       ncg     rms          rms(c)
DAV:   1    -0.191291679681E+03   -0.21567E-01   -0.72622E-01  8160   0.185E+00    0.282E-01
DAV:   2    -0.191293555858E+03   -0.18762E-02   -0.31384E-02 12720   0.650E-01    0.413E-01
DAV:   3    -0.191292458295E+03    0.10976E-02   -0.79288E-03 11800   0.642E-01    0.322E-01
DAV:   4    -0.191291635841E+03    0.82245E-03   -0.34239E-03 10880   0.396E-01    0.196E-01
DAV:   5    -0.191291366108E+03    0.26973E-03   -0.18055E-03  9760   0.305E-01    0.183E-01
DAV:   6    -0.191291057144E+03    0.30896E-03   -0.92825E-04  9760   0.223E-01    0.724E-02
DAV:   7    -0.191290998003E+03    0.59141E-04   -0.14025E-04  6080   0.748E-02
  10 F= -.19129100E+03 E0= -.19119330E+03  d E =-.208345E-01
       N       E                     dE             d eps       ncg     rms          rms(c)
DAV:   1    -0.191340722240E+03   -0.49665E-01   -0.30318E+00  8160   0.369E+00    0.387E-01
DAV:   2    -0.191349716581E+03   -0.89943E-02   -0.81215E-02 13560   0.104E+00    0.686E-01
DAV:   3    -0.191346101458E+03    0.36151E-02   -0.19848E-02 12120   0.103E+00    0.480E-01
DAV:   4    -0.191343951439E+03    0.21500E-02   -0.56216E-03 11480   0.513E-01    0.197E-01
DAV:   5    -0.191343553927E+03    0.39751E-03   -0.19474E-03 11680   0.288E-01    0.183E-01
DAV:   6    -0.191343484445E+03    0.69482E-04   -0.13607E-03 11200   0.284E-01    0.143E-01
DAV:   7    -0.191343236292E+03    0.24815E-03   -0.41938E-04  8240   0.138E-01    0.282E-02
DAV:   8    -0.191343237769E+03   -0.14773E-05   -0.67663E-05  6160   0.434E-02
  11 F= -.19134324E+03 E0= -.19124573E+03  d E =-.522398E-01
       N       E                     dE             d eps       ncg     rms          rms(c)
DAV:   1    -0.191293834626E+03    0.49402E-01   -0.26759E+00  8160   0.351E+00    0.439E-01
DAV:   2    -0.191299742299E+03   -0.59077E-02   -0.79359E-02 13320   0.102E+00    0.646E-01
DAV:   3    -0.191297881651E+03    0.18606E-02   -0.20974E-02 11840   0.109E+00    0.590E-01
DAV:   4    -0.191294375940E+03    0.35057E-02   -0.84258E-03 11480   0.638E-01    0.215E-01
DAV:   5    -0.191293933814E+03    0.44213E-03   -0.27877E-03 11360   0.311E-01    0.205E-01
DAV:   6    -0.191293745232E+03    0.18858E-03   -0.18440E-03 11760   0.318E-01    0.159E-01
DAV:   7    -0.191293457302E+03    0.28793E-03   -0.61619E-04  9800   0.167E-01    0.367E-02
DAV:   8    -0.191293442837E+03    0.14466E-04   -0.75388E-05  6480   0.382E-02
  12 F= -.19129344E+03 E0= -.19119589E+03  d E =0.497949E-01
       N       E                     dE             d eps       ncg     rms          rms(c)
DAV:   1    -0.191376046329E+03   -0.82589E-01   -0.65672E+00  8160   0.556E+00    0.727E-01
DAV:   2    -0.191388956375E+03   -0.12910E-01   -0.21060E-01 13560   0.163E+00    0.988E-01
DAV:   3    -0.191386166358E+03    0.27900E-02   -0.54756E-02 11400   0.174E+00    0.933E-01
DAV:   4    -0.191376546007E+03    0.96204E-02   -0.21108E-02 11920   0.105E+00    0.395E-01
DAV:   5    -0.191376217517E+03    0.32849E-03   -0.10273E-02 11200   0.687E-01    0.482E-01
DAV:   6    -0.191374148495E+03    0.20690E-02   -0.67930E-03 11560   0.597E-01    0.204E-01
DAV:   7    -0.191373581152E+03    0.56734E-03   -0.15073E-03 10880   0.213E-01    0.534E-02
DAV:   8    -0.191373521245E+03    0.59907E-04   -0.22021E-04  8600   0.584E-02
  13 F= -.19137352E+03 E0= -.19127638E+03  d E =-.800784E-01
       N       E                     dE             d eps       ncg     rms          rms(c)
DAV:   1    -0.191399280416E+03   -0.25699E-01   -0.58783E-01  8160   0.164E+00    0.193E-01
DAV:   2    -0.191401750439E+03   -0.24700E-02   -0.19200E-02 12800   0.622E-01    0.415E-01
DAV:   3    -0.191399985797E+03    0.17646E-02   -0.42743E-03 11800   0.500E-01    0.160E-01
DAV:   4    -0.191399831676E+03    0.15412E-03   -0.10686E-03  9720   0.215E-01    0.128E-01
DAV:   5    -0.191399781086E+03    0.50590E-04   -0.80818E-04 10080   0.215E-01
  14 F= -.19139978E+03 E0= -.19130396E+03  d E =-.262598E-01
       N       E                     dE             d eps       ncg     rms          rms(c)
DAV:   1    -0.191466400633E+03   -0.66569E-01   -0.40833E+00  8160   0.430E+00    0.448E-01
DAV:   2    -0.191478607942E+03   -0.12207E-01   -0.10993E-01 13520   0.135E+00    0.841E-01
DAV:   3    -0.191471931662E+03    0.66763E-02   -0.20743E-02 12160   0.111E+00    0.404E-01
DAV:   4    -0.191470599736E+03    0.13319E-02   -0.54296E-03 11160   0.509E-01    0.281E-01
DAV:   5    -0.191470390988E+03    0.20875E-03   -0.40602E-03 10160   0.488E-01    0.284E-01
DAV:   6    -0.191469729416E+03    0.66157E-03   -0.21147E-03 12680   0.321E-01    0.106E-01
DAV:   7    -0.191469502079E+03    0.22734E-03   -0.48610E-04  9480   0.100E-01    0.240E-02
DAV:   8    -0.191469505178E+03   -0.30990E-05   -0.67890E-05  6880   0.275E-02
  15 F= -.19146951E+03 E0= -.19137771E+03  d E =-.697241E-01
       N       E                     dE             d eps       ncg     rms          rms(c)
DAV:   1    -0.191494815189E+03   -0.25313E-01   -0.48106E-01  8160   0.149E+00    0.159E-01
DAV:   2    -0.191496060689E+03   -0.12455E-02   -0.14165E-02 13520   0.412E-01    0.246E-01
DAV:   3    -0.191495770578E+03    0.29011E-03   -0.29029E-03 11320   0.411E-01    0.202E-01
DAV:   4    -0.191495316242E+03    0.45434E-03   -0.81111E-04  9160   0.207E-01    0.621E-02
DAV:   5    -0.191495281188E+03    0.35054E-04   -0.22644E-04  5920   0.808E-02
  16 F= -.19149528E+03 E0= -.19140506E+03  d E =-.257760E-01
       N       E                     dE             d eps       ncg     rms          rms(c)
DAV:   1    -0.191523393995E+03   -0.28078E-01   -0.61858E-01  8160   0.180E+00    0.413E-01
DAV:   2    -0.191527478242E+03   -0.40842E-02   -0.39030E-02 11400   0.115E+00    0.843E-01
DAV:   3    -0.191520228428E+03    0.72498E-02   -0.15767E-02 11360   0.103E+00    0.280E-01
DAV:   4    -0.191519009615E+03    0.12188E-02   -0.33193E-03 12240   0.309E-01    0.183E-01
DAV:   5    -0.191519375295E+03   -0.36568E-03   -0.32607E-03 11240   0.403E-01    0.305E-01
DAV:   6    -0.191518319631E+03    0.10557E-02   -0.18803E-03 10600   0.333E-01    0.507E-02
DAV:   7    -0.191518314273E+03    0.53574E-05   -0.12730E-04  5560   0.603E-02
  17 F= -.19151831E+03 E0= -.19142926E+03  d E =-.230331E-01
       N       E                     dE             d eps       ncg     rms          rms(c)
DAV:   1    -0.191603342355E+03   -0.85023E-01   -0.61229E+00  8160   0.527E+00    0.549E-01
DAV:   2    -0.191625448721E+03   -0.22106E-01   -0.18465E-01 12600   0.178E+00    0.109E+00
DAV:   3    -0.191613561275E+03    0.11887E-01   -0.34015E-02 12200   0.146E+00    0.484E-01
DAV:   4    -0.191611458492E+03    0.21028E-02   -0.72674E-03 11080   0.621E-01    0.323E-01
DAV:   5    -0.191611090398E+03    0.36809E-03   -0.47659E-03 10160   0.561E-01    0.316E-01
DAV:   6    -0.191610259141E+03    0.83126E-03   -0.26382E-03 12720   0.366E-01    0.124E-01
DAV:   7    -0.191609950020E+03    0.30912E-03   -0.75393E-04  9560   0.126E-01    0.442E-02
DAV:   8    -0.191609961233E+03   -0.11213E-04   -0.15302E-04  6600   0.908E-02
  18 F= -.19160996E+03 E0= -.19152691E+03  d E =-.916470E-01
       N       E                     dE             d eps       ncg     rms          rms(c)
DAV:   1    -0.191670426090E+03   -0.60476E-01   -0.31783E+00  8160   0.383E+00    0.396E-01
DAV:   2    -0.191678364803E+03   -0.79387E-02   -0.96634E-02 12160   0.979E-01    0.541E-01
DAV:   3    -0.191677763993E+03    0.60081E-03   -0.16416E-02 12400   0.101E+00    0.518E-01
DAV:   4    -0.191674594894E+03    0.31691E-02   -0.46433E-03 11240   0.539E-01    0.143E-01
DAV:   5    -0.191674641112E+03   -0.46218E-04   -0.16576E-03 12400   0.265E-01    0.183E-01
DAV:   6    -0.191674523025E+03    0.11809E-03   -0.13336E-03 10880   0.304E-01    0.146E-01
DAV:   7    -0.191674215995E+03    0.30703E-03   -0.43238E-04  8360   0.158E-01    0.257E-02
DAV:   8    -0.191674221375E+03   -0.53804E-05   -0.69800E-05  6080   0.351E-02
  19 F= -.19167422E+03 E0= -.19159417E+03  d E =-.642601E-01
       N       E                     dE             d eps       ncg     rms          rms(c)
DAV:   1    -0.191792681363E+03   -0.11847E+00   -0.60125E+01  8160   0.167E+01    0.162E+00
DAV:   2    -0.191969038722E+03   -0.17636E+00   -0.19411E+00 11920   0.431E+00    0.229E+00
DAV:   3    -0.191941805718E+03    0.27233E-01   -0.27088E-01 12360   0.409E+00    0.186E+00
DAV:   4    -0.191898614376E+03    0.43191E-01   -0.68212E-02 12240   0.214E+00    0.654E-01
DAV:   5    -0.191900583229E+03   -0.19689E-02   -0.28521E-02 12440   0.141E+00    0.867E-01
DAV:   6    -0.191894016154E+03    0.65671E-02   -0.20860E-02 12720   0.121E+00    0.427E-01
DAV:   7    -0.191890524745E+03    0.34914E-02   -0.65970E-03 11720   0.458E-01    0.975E-02
DAV:   8    -0.191890629527E+03   -0.10478E-03   -0.12708E-03 11760   0.192E-01    0.125E-01
DAV:   9    -0.191890498964E+03    0.13056E-03   -0.72006E-04 10480   0.213E-01    0.922E-02
DAV:  10    -0.191890371552E+03    0.12741E-03   -0.23086E-04  6960   0.105E-01    0.201E-02
DAV:  11    -0.191890392852E+03   -0.21300E-04   -0.94467E-05  6640   0.324E-02
  20 F= -.19189039E+03 E0= -.19181244E+03  d E =-.216171E+00
       N       E                     dE             d eps       ncg     rms          rms(c)
DAV:   1    -0.191914226840E+03   -0.23855E-01   -0.12187E+00  8160   0.249E+00    0.508E-01
DAV:   2    -0.191918434487E+03   -0.42076E-02   -0.85375E-02 11720   0.131E+00    0.752E-01
DAV:   3    -0.191913831290E+03    0.46032E-02   -0.18808E-02 11320   0.121E+00    0.435E-01
DAV:   4    -0.191910984333E+03    0.28470E-02   -0.54720E-03 12320   0.560E-01    0.235E-01
DAV:   5    -0.191911436091E+03   -0.45176E-03   -0.45135E-03 11520   0.518E-01    0.350E-01
DAV:   6    -0.191909961751E+03    0.14743E-02   -0.25694E-03 11680   0.421E-01    0.646E-02
DAV:   7    -0.191909961152E+03    0.59983E-06   -0.25312E-04  7240   0.980E-02
  21 F= -.19190996E+03 E0= -.19183036E+03  d E =-.195683E-01
       N       E                     dE             d eps       ncg     rms          rms(c)
DAV:   1    -0.191928828024E+03   -0.18866E-01   -0.11880E+00  8160   0.232E+00    0.302E-01
DAV:   2    -0.191935848037E+03   -0.70200E-02   -0.55160E-02 10680   0.117E+00    0.648E-01
DAV:   3    -0.191931013686E+03    0.48344E-02   -0.10512E-02 12240   0.832E-01    0.194E-01
DAV:   4    -0.191930627305E+03    0.38638E-03   -0.15540E-03 11280   0.289E-01    0.169E-01
DAV:   5    -0.191930652797E+03   -0.25493E-04   -0.13055E-03 10240   0.320E-01    0.184E-01
DAV:   6    -0.191930256129E+03    0.39667E-03   -0.81012E-04 11480   0.204E-01    0.400E-02
DAV:   7    -0.191930242206E+03    0.13924E-04   -0.12374E-04  6040   0.529E-02
  22 F= -.19193024E+03 E0= -.19185059E+03  d E =-.202811E-01
       N       E                     dE             d eps       ncg     rms          rms(c)
DAV:   1    -0.191945866904E+03   -0.15611E-01   -0.10407E+00  8160   0.218E+00    0.242E-01
DAV:   2    -0.191949036763E+03   -0.31699E-02   -0.40886E-02 12040   0.636E-01    0.295E-01
DAV:   3    -0.191949144653E+03   -0.10789E-03   -0.55858E-03 12440   0.611E-01    0.315E-01
DAV:   4    -0.191947833732E+03    0.13109E-02   -0.16741E-03 10880   0.346E-01    0.706E-02
DAV:   5    -0.191947902569E+03   -0.68837E-04   -0.66873E-04  9880   0.143E-01
  23 F= -.19194790E+03 E0= -.19186737E+03  d E =-.176604E-01
       N       E                     dE             d eps       ncg     rms          rms(c)
DAV:   1    -0.191967273747E+03   -0.19440E-01   -0.12376E+01  8160   0.745E+00    0.755E-01
DAV:   2    -0.192008365195E+03   -0.41091E-01   -0.45030E-01 11880   0.219E+00    0.107E+00
DAV:   3    -0.192003825920E+03    0.45393E-02   -0.61279E-02 12280   0.197E+00    0.872E-01
DAV:   4    -0.191993471899E+03    0.10354E-01   -0.13102E-02 12280   0.941E-01    0.248E-01
DAV:   5    -0.191995874676E+03   -0.24028E-02   -0.67982E-03 12600   0.711E-01    0.502E-01
DAV:   6    -0.191992623446E+03    0.32512E-02   -0.46522E-03 11160   0.575E-01    0.781E-02
DAV:   7    -0.191992582776E+03    0.40670E-04   -0.59600E-04 10280   0.986E-02
  24 F= -.19199258E+03 E0= -.19190970E+03  d E =-.446802E-01
       N       E                     dE             d eps       ncg     rms          rms(c)
DAV:   1    -0.192000453413E+03   -0.78300E-02   -0.35810E+00  8160   0.404E+00    0.465E-01
DAV:   2    -0.192011843867E+03   -0.11390E-01   -0.15838E-01 12040   0.123E+00    0.465E-01
DAV:   3    -0.192013544267E+03   -0.17004E-02   -0.16799E-02 11600   0.107E+00    0.606E-01
DAV:   4    -0.192008818243E+03    0.47260E-02   -0.64645E-03 11400   0.720E-01    0.188E-01
DAV:   5    -0.192009110777E+03   -0.29253E-03   -0.30312E-03 10640   0.407E-01    0.261E-01
DAV:   6    -0.192008429924E+03    0.68085E-03   -0.21908E-03 11960   0.375E-01    0.114E-01
DAV:   7    -0.192008224334E+03    0.20559E-03   -0.50653E-04  8920   0.115E-01    0.338E-02
DAV:   8    -0.192008205694E+03    0.18641E-04   -0.73758E-05  8040   0.405E-02
  25 F= -.19200821E+03 E0= -.19192389E+03  d E =-.156229E-01
       N       E                     dE             d eps       ncg     rms          rms(c)
DAV:   1    -0.192009974675E+03   -0.17503E-02   -0.29759E+00  8160   0.362E+00    0.356E-01
DAV:   2    -0.192020090832E+03   -0.10116E-01   -0.10912E-01 11760   0.109E+00    0.489E-01
DAV:   3    -0.192019112515E+03    0.97832E-03   -0.13940E-02 12080   0.917E-01    0.408E-01
DAV:   4    -0.192017040101E+03    0.20724E-02   -0.31314E-03 11360   0.471E-01    0.148E-01
DAV:   5    -0.192017275261E+03   -0.23516E-03   -0.12728E-03 11160   0.330E-01    0.202E-01
DAV:   6    -0.192016828192E+03    0.44707E-03   -0.10457E-03 11520   0.234E-01    0.496E-02
DAV:   7    -0.192016814045E+03    0.14148E-04   -0.17132E-04  5720   0.931E-02
  26 F= -.19201681E+03 E0= -.19193200E+03  d E =-.860835E-02
       N       E                     dE             d eps       ncg     rms          rms(c)
DAV:   1    -0.192017432296E+03   -0.60410E-03   -0.77787E-02  8240   0.599E-01    0.751E-02
DAV:   2    -0.192017898110E+03   -0.46581E-03   -0.32012E-03 11640   0.286E-01    0.168E-01
DAV:   3    -0.192017539361E+03    0.35875E-03   -0.67761E-04 10160   0.219E-01    0.451E-02
DAV:   4    -0.192017528557E+03    0.10804E-04   -0.95326E-05  6080   0.704E-02
  27 F= -.19201753E+03 E0= -.19193262E+03  d E =-.714513E-03
       N       E                     dE             d eps       ncg     rms          rms(c)
DAV:   1    -0.192018909550E+03   -0.13702E-02   -0.12424E-01  8160   0.743E-01    0.803E-02
DAV:   2    -0.192019267300E+03   -0.35775E-03   -0.45191E-03 12200   0.202E-01    0.852E-02
DAV:   3    -0.192019280943E+03   -0.13643E-04   -0.46103E-04 11240   0.178E-01
  28 F= -.19201928E+03 E0= -.19193414E+03  d E =-.175239E-02
       N       E                     dE             d eps       ncg     rms          rms(c)
DAV:   1    -0.192019669985E+03   -0.40268E-03   -0.15968E-02  8240   0.288E-01    0.494E-02
DAV:   2    -0.192019694972E+03   -0.24986E-04   -0.60741E-04 10440   0.743E-02
  29 F= -.19201969E+03 E0= -.19193447E+03  d E =-.414029E-03
       N       E                     dE             d eps       ncg     rms          rms(c)
DAV:   1    -0.192020883470E+03   -0.12135E-02   -0.11327E-01  8160   0.709E-01    0.866E-02
DAV:   2    -0.192021413422E+03   -0.52995E-03   -0.39744E-03 12280   0.260E-01    0.174E-01
DAV:   3    -0.192021065803E+03    0.34762E-03   -0.92622E-04 10200   0.242E-01    0.683E-02
DAV:   4    -0.192021059499E+03    0.63043E-05   -0.11025E-04  5760   0.928E-02
  30 F= -.19202106E+03 E0= -.19193590E+03  d E =-.136453E-02
       N       E                     dE             d eps       ncg     rms          rms(c)
DAV:   1    -0.192022262155E+03   -0.11964E-02   -0.13682E-01  8160   0.781E-01    0.898E-02
DAV:   2    -0.192022815420E+03   -0.55327E-03   -0.48480E-03 12240   0.254E-01    0.155E-01
DAV:   3    -0.192022566616E+03    0.24880E-03   -0.73725E-04 10240   0.233E-01    0.804E-02
DAV:   4    -0.192022535126E+03    0.31490E-04   -0.12872E-04  5680   0.103E-01
  31 F= -.19202254E+03 E0= -.19193730E+03  d E =-.147563E-02
       N       E                     dE             d eps       ncg     rms          rms(c)
DAV:   1    -0.192023224595E+03   -0.65798E-03   -0.44248E-02  8160   0.450E-01    0.636E-02
DAV:   2    -0.192023484035E+03   -0.25944E-03   -0.17823E-03 12680   0.186E-01    0.130E-01
DAV:   3    -0.192023270991E+03    0.21304E-03   -0.44891E-04  8840   0.172E-01    0.446E-02
DAV:   4    -0.192023284823E+03   -0.13832E-04   -0.73050E-05  5680   0.763E-02
  32 F= -.19202328E+03 E0= -.19193818E+03  d E =-.749697E-03
       N       E                     dE             d eps       ncg     rms          rms(c)
DAV:   1    -0.192024207696E+03   -0.93671E-03   -0.10208E-01  8160   0.674E-01    0.758E-02
DAV:   2    -0.192024568473E+03   -0.36078E-03   -0.34336E-03 13040   0.233E-01    0.124E-01
DAV:   3    -0.192024400496E+03    0.16798E-03   -0.44743E-04  9360   0.188E-01    0.639E-02
DAV:   4    -0.192024384852E+03    0.15644E-04   -0.98131E-05  5480   0.857E-02
  33 F= -.19202438E+03 E0= -.19193922E+03  d E =-.110003E-02
       N       E                     dE             d eps       ncg     rms          rms(c)
DAV:   1    -0.192025146319E+03   -0.74582E-03   -0.68386E-02  8160   0.556E-01    0.712E-02
DAV:   2    -0.192025560479E+03   -0.41416E-03   -0.26073E-03 12840   0.226E-01    0.163E-01
DAV:   3    -0.192025236828E+03    0.32365E-03   -0.69160E-04  9200   0.212E-01    0.497E-02
DAV:   4    -0.192025251905E+03   -0.15076E-04   -0.80650E-05  5440   0.750E-02
  34 F= -.19202525E+03 E0= -.19194019E+03  d E =-.867053E-03
