<?xml version="1.0" encoding="ISO-8859-1"?>
<modeling>
 <generator>
  <i name="program" type="string">vasp </i>
  <i name="version" type="string">5.4.1  </i>
  <i name="subversion" type="string">05Feb16 (build Jul 05 2020 17:13:04) complex                          parallel </i>
  <i name="platform" type="string">IFC91_ompi </i>
  <i name="date" type="string">2024 04 26 </i>
  <i name="time" type="string">21:03:01 </i>
 </generator>
 <incar>
  <i type="int" name="ISTART">     0</i>
  <i type="string" name="PREC">normal</i>
  <i type="string" name="ALGO"> Normal</i>
  <i type="int" name="ISPIN">     1</i>
  <i type="int" name="ICHARG">     2</i>
  <i type="int" name="IBRION">     1</i>
  <i type="int" name="NSW">   100</i>
  <i type="int" name="ISIF">     3</i>
  <i type="int" name="ISYM">     0</i>
  <i name="SYMPREC">      0.00000001</i>
  <i name="POTIM">      0.50000000</i>
  <i type="logical" name="LREAL"> F  </i>
  <i type="logical" name="LPLANE"> F  </i>
  <i type="int" name="ISMEAR">     0</i>
  <i type="logical" name="LWAVE"> F  </i>
  <i type="logical" name="LCHARG"> F  </i>
  <v type="int" name="KPOINT_BSE">    -1     0     0     0</v>
 </incar>
 <kpoints>
  <generation param="Gamma">
   <v type="int" name="divisions">       8        8        1 </v>
   <v name="usershift">      0.00000000       0.00000000       0.00000000 </v>
   <v name="genvec1">      0.12500000       0.00000000       0.00000000 </v>
   <v name="genvec2">     -0.00000000       0.12500000       0.00000000 </v>
   <v name="genvec3">      0.00000000       0.00000000       1.00000000 </v>
   <v name="shift">      0.00000000       0.00000000       0.00000000 </v>
  </generation>
  <varray name="kpointlist" >
   <v>       0.00000000       0.00000000       0.00000000 </v>
   <v>       0.12500000       0.00000000       0.00000000 </v>
   <v>       0.25000000       0.00000000       0.00000000 </v>
   <v>       0.37500000       0.00000000       0.00000000 </v>
   <v>       0.50000000       0.00000000       0.00000000 </v>
   <v>       0.00000000       0.12500000       0.00000000 </v>
   <v>       0.12500000       0.12500000       0.00000000 </v>
   <v>       0.25000000       0.12500000       0.00000000 </v>
   <v>       0.37500000       0.12500000       0.00000000 </v>
   <v>       0.50000000       0.12500000       0.00000000 </v>
   <v>      -0.37500000       0.12500000       0.00000000 </v>
   <v>      -0.25000000       0.12500000       0.00000000 </v>
   <v>      -0.12500000       0.12500000       0.00000000 </v>
   <v>       0.00000000       0.25000000       0.00000000 </v>
   <v>       0.12500000       0.25000000       0.00000000 </v>
   <v>       0.25000000       0.25000000       0.00000000 </v>
   <v>       0.37500000       0.25000000       0.00000000 </v>
   <v>       0.50000000       0.25000000       0.00000000 </v>
   <v>      -0.37500000       0.25000000       0.00000000 </v>
   <v>      -0.25000000       0.25000000       0.00000000 </v>
   <v>      -0.12500000       0.25000000       0.00000000 </v>
   <v>      -0.00000000       0.37500000       0.00000000 </v>
   <v>       0.12500000       0.37500000       0.00000000 </v>
   <v>       0.25000000       0.37500000       0.00000000 </v>
   <v>       0.37500000       0.37500000       0.00000000 </v>
   <v>       0.50000000       0.37500000       0.00000000 </v>
   <v>      -0.37500000       0.37500000       0.00000000 </v>
   <v>      -0.25000000       0.37500000       0.00000000 </v>
   <v>      -0.12500000       0.37500000       0.00000000 </v>
   <v>       0.00000000       0.50000000       0.00000000 </v>
   <v>       0.12500000       0.50000000       0.00000000 </v>
   <v>       0.25000000       0.50000000       0.00000000 </v>
   <v>       0.37500000       0.50000000       0.00000000 </v>
   <v>       0.50000000       0.50000000       0.00000000 </v>
  </varray>
  <varray name="weights" >
   <v>       0.01562500 </v>
   <v>       0.03125000 </v>
   <v>       0.03125000 </v>
   <v>       0.03125000 </v>
   <v>       0.01562500 </v>
   <v>       0.03125000 </v>
   <v>       0.03125000 </v>
   <v>       0.03125000 </v>
   <v>       0.03125000 </v>
   <v>       0.03125000 </v>
   <v>       0.03125000 </v>
   <v>       0.03125000 </v>
   <v>       0.03125000 </v>
   <v>       0.03125000 </v>
   <v>       0.03125000 </v>
   <v>       0.03125000 </v>
   <v>       0.03125000 </v>
   <v>       0.03125000 </v>
   <v>       0.03125000 </v>
   <v>       0.03125000 </v>
   <v>       0.03125000 </v>
   <v>       0.03125000 </v>
   <v>       0.03125000 </v>
   <v>       0.03125000 </v>
   <v>       0.03125000 </v>
   <v>       0.03125000 </v>
   <v>       0.03125000 </v>
   <v>       0.03125000 </v>
   <v>       0.03125000 </v>
   <v>       0.01562500 </v>
   <v>       0.03125000 </v>
   <v>       0.03125000 </v>
   <v>       0.03125000 </v>
   <v>       0.01562500 </v>
  </varray>
 </kpoints>
 <parameters>
  <separator name="general" >
   <i type="string" name="SYSTEM">unknown system</i>
   <i type="logical" name="LCOMPAT"> F  </i>
  </separator>
  <separator name="electronic" >
   <i type="string" name="PREC">normal</i>
   <i name="ENMAX">    280.00000000</i>
   <i name="ENAUG">    373.43800000</i>
   <i name="EDIFF">      0.00010000</i>
   <i type="int" name="IALGO">    38</i>
   <i type="int" name="IWAVPR">    11</i>
   <i type="int" name="NBANDS">   120</i>
   <i name="NELECT">    159.00000000</i>
   <i type="int" name="TURBO">     0</i>
   <i type="int" name="IRESTART">     0</i>
   <i type="int" name="NREBOOT">     0</i>
   <i type="int" name="NMIN">     0</i>
   <i name="EREF">      0.00000000</i>
   <separator name="electronic smearing" >
    <i type="int" name="ISMEAR">     0</i>
    <i name="SIGMA">      0.20000000</i>
    <i name="KSPACING">      0.50000000</i>
    <i type="logical" name="KGAMMA"> T  </i>
   </separator>
   <separator name="electronic projectors" >
    <i type="logical" name="LREAL"> F  </i>
    <v name="ROPT">      0.00000000      0.00000000      0.00000000      0.00000000</v>
    <i type="int" name="LMAXPAW">  -100</i>
    <i type="int" name="LMAXMIX">     2</i>
    <i type="logical" name="NLSPLINE"> F  </i>
   </separator>
   <separator name="electronic startup" >
    <i type="int" name="ISTART">     0</i>
    <i type="int" name="ICHARG">     2</i>
    <i type="int" name="INIWAV">     1</i>
   </separator>
   <separator name="electronic spin" >
    <i type="int" name="ISPIN">     1</i>
    <i type="logical" name="LNONCOLLINEAR"> F  </i>
    <v name="MAGMOM">      1.00000000      1.00000000      1.00000000      1.00000000      1.00000000      1.00000000      1.00000000      1.00000000      1.00000000      1.00000000      1.00000000      1.00000000      1.00000000      1.00000000      1.00000000      1.00000000      1.00000000      1.00000000      1.00000000      1.00000000
      1.00000000      1.00000000      1.00000000      1.00000000      1.00000000      1.00000000      1.00000000</v>
    <i name="NUPDOWN">     -1.00000000</i>
    <i type="logical" name="LSORBIT"> F  </i>
    <v name="SAXIS">      0.00000000      0.00000000      1.00000000</v>
    <i type="logical" name="LSPIRAL"> F  </i>
    <v name="QSPIRAL">      0.00000000      0.00000000      0.00000000</v>
    <i type="logical" name="LZEROZ"> F  </i>
   </separator>
   <separator name="electronic exchange-correlation" >
    <i type="logical" name="LASPH"> F  </i>
    <i type="logical" name="LMETAGGA"> F  </i>
   </separator>
   <separator name="electronic convergence" >
    <i type="int" name="NELM">    60</i>
    <i type="int" name="NELMDL">    -5</i>
    <i type="int" name="NELMIN">     2</i>
    <i name="ENINI">    280.00000000</i>
    <separator name="electronic convergence detail" >
     <i type="logical" name="LDIAG"> T  </i>
     <i type="logical" name="LSUBROT"> F  </i>
     <i name="WEIMIN">      0.00100000</i>
     <i name="EBREAK">      0.00000021</i>
     <i name="DEPER">      0.30000000</i>
     <i type="int" name="NRMM">     4</i>
     <i name="TIME">      0.40000000</i>
    </separator>
   </separator>
   <separator name="electronic mixer" >
    <i name="AMIX">      0.40000000</i>
    <i name="BMIX">      1.00000000</i>
    <i name="AMIN">      0.10000000</i>
    <i name="AMIX_MAG">      1.60000000</i>
    <i name="BMIX_MAG">      1.00000000</i>
    <separator name="electronic mixer details" >
     <i type="int" name="IMIX">     4</i>
     <i type="logical" name="MIXFIRST"> F  </i>
     <i type="int" name="MAXMIX">   -45</i>
     <i name="WC">    100.00000000</i>
     <i type="int" name="INIMIX">     1</i>
     <i type="int" name="MIXPRE">     1</i>
     <i type="int" name="MREMOVE">     5</i>
    </separator>
   </separator>
   <separator name="electronic dipolcorrection" >
    <i type="logical" name="LDIPOL"> F  </i>
    <i type="logical" name="LMONO"> F  </i>
    <i type="int" name="IDIPOL">     0</i>
    <i name="EPSILON">      1.00000000</i>
    <v name="DIPOL">   -100.00000000   -100.00000000   -100.00000000</v>
    <i name="EFIELD">      0.00000000</i>
   </separator>
  </separator>
  <separator name="grids" >
   <i type="int" name="NGX">    42</i>
   <i type="int" name="NGY">    42</i>
   <i type="int" name="NGZ">   126</i>
   <i type="int" name="NGXF">    84</i>
   <i type="int" name="NGYF">    84</i>
   <i type="int" name="NGZF">   252</i>
   <i type="logical" name="ADDGRID"> F  </i>
  </separator>
  <separator name="ionic" >
   <i type="int" name="NSW">   100</i>
   <i type="int" name="IBRION">     1</i>
   <i type="int" name="ISIF">     3</i>
   <i name="PSTRESS">      0.00000000</i>
   <i name="EDIFFG">      0.00100000</i>
   <i type="int" name="NFREE">     0</i>
   <i name="POTIM">      0.50000000</i>
   <i name="SMASS">     -3.00000000</i>
   <i name="SCALEE">      1.00000000</i>
  </separator>
  <separator name="ionic md" >
   <i name="TEBEG">      0.00010000</i>
   <i name="TEEND">      0.00010000</i>
   <i type="int" name="NBLOCK">     1</i>
   <i type="int" name="KBLOCK">   100</i>
   <i type="int" name="NPACO">   256</i>
   <i name="APACO">     16.00000000</i>
  </separator>
  <separator name="symmetry" >
   <i type="int" name="ISYM">     0</i>
   <i name="SYMPREC">      0.00000001</i>
  </separator>
  <separator name="dos" >
   <i type="logical" name="LORBIT"> F  </i>
   <v name="RWIGS">     -1.00000000     -1.00000000     -1.00000000     -1.00000000</v>
   <i type="int" name="NEDOS">   301</i>
   <i name="EMIN">     10.00000000</i>
   <i name="EMAX">    -10.00000000</i>
   <i name="EFERMI">      0.00000000</i>
  </separator>
  <separator name="writing" >
   <i type="int" name="NWRITE">     2</i>
   <i type="logical" name="LWAVE"> F  </i>
   <i type="logical" name="LCHARG"> F  </i>
   <i type="logical" name="LPARD"> F  </i>
   <i type="logical" name="LVTOT"> F  </i>
   <i type="logical" name="LVHAR"> F  </i>
   <i type="logical" name="LELF"> F  </i>
   <i type="logical" name="LOPTICS"> F  </i>
   <v name="STM">      0.00000000      0.00000000      0.00000000      0.00000000      0.00000000      0.00000000      0.00000000</v>
  </separator>
  <separator name="performance" >
   <i type="int" name="NPAR">    40</i>
   <i type="int" name="NSIM">     4</i>
   <i type="int" name="NBLK">    -1</i>
   <i type="logical" name="LPLANE"> F  </i>
   <i type="logical" name="LSCALAPACK"> T  </i>
   <i type="logical" name="LSCAAWARE"> F  </i>
   <i type="logical" name="LSCALU"> F  </i>
   <i type="logical" name="LASYNC"> F  </i>
   <i type="logical" name="LORBITALREAL"> F  </i>
  </separator>
  <separator name="miscellaneous" >
   <i type="int" name="IDIOT">     3</i>
   <i type="logical" name="LMUSIC"> F  </i>
   <v name="POMASS">     50.94100000     95.94000000    183.85000000     32.06600000</v>
   <v name="DARWINR">      0.00000000      0.00000000      0.00000000      0.00000000</v>
   <v name="DARWINV">      1.00000000      1.00000000      1.00000000      1.00000000</v>
   <i type="logical" name="LCORR"> T  </i>
  </separator>
  <i type="logical" name="GGA_COMPAT"> T  </i>
  <i type="logical" name="LBERRY"> F  </i>
  <i type="int" name="ICORELEVEL">     0</i>
  <i type="logical" name="LDAU"> F  </i>
  <i type="int" name="I_CONSTRAINED_M">     0</i>
  <separator name="electronic exchange-correlation" >
   <i type="string" name="GGA">--</i>
   <i type="int" name="VOSKOWN">     0</i>
   <i type="logical" name="LHFCALC"> F  </i>
   <i type="string" name="PRECFOCK"></i>
   <i type="logical" name="LSYMGRAD"> F  </i>
   <i type="logical" name="LHFONE"> F  </i>
   <i type="logical" name="LRHFCALC"> F  </i>
   <i type="logical" name="LTHOMAS"> F  </i>
   <i type="logical" name="LMODELHF"> F  </i>
   <i name="ENCUT4O">     -1.00000000</i>
   <i type="int" name="EXXOEP">     0</i>
   <i type="int" name="FOURORBIT">     0</i>
   <i name="AEXX">      0.00000000</i>
   <i name="HFALPHA">      0.00000000</i>
   <i name="MCALPHA">      0.00000000</i>
   <i name="ALDAX">      1.00000000</i>
   <i name="AGGAX">      1.00000000</i>
   <i name="ALDAC">      1.00000000</i>
   <i name="AGGAC">      1.00000000</i>
   <i type="int" name="NKREDX">     1</i>
   <i type="int" name="NKREDY">     1</i>
   <i type="int" name="NKREDZ">     1</i>
   <i type="logical" name="SHIFTRED"> F  </i>
   <i type="logical" name="ODDONLY"> F  </i>
   <i type="logical" name="EVENONLY"> F  </i>
   <i type="int" name="LMAXFOCK">     0</i>
   <i type="int" name="NMAXFOCKAE">     0</i>
   <i type="logical" name="LFOCKAEDFT"> F  </i>
   <i name="HFSCREEN">      0.00000000</i>
   <i name="HFSCREENC">      0.00000000</i>
   <i type="int" name="NBANDSGWLOW">     0</i>
  </separator>
  <separator name="vdW DFT" >
   <i type="logical" name="LUSE_VDW"> F  </i>
   <i name="Zab_VDW">     -0.84910000</i>
   <i name="PARAM1">      0.12340000</i>
   <i name="PARAM2">      1.00000000</i>
   <i name="PARAM3">      0.00000000</i>
  </separator>
  <separator name="model GW" >
   <i type="int" name="MODEL_GW">     0</i>
   <i name="MODEL_EPS0">     58.26239943</i>
   <i name="MODEL_ALPHA">      1.00000000</i>
  </separator>
  <separator name="linear response parameters" >
   <i type="logical" name="LEPSILON"> F  </i>
   <i type="logical" name="LRPA"> F  </i>
   <i type="logical" name="LNABLA"> F  </i>
   <i type="logical" name="LVEL"> F  </i>
   <i type="int" name="KINTER">     0</i>
   <i name="CSHIFT">      0.10000000</i>
   <i name="OMEGAMAX">     -1.00000000</i>
   <i name="DEG_THRESHOLD">      0.00200000</i>
  </separator>
  <separator name="orbital magnetization" >
   <i type="logical" name="NUCIND"> F  </i>
   <v name="MAGPOS">      0.00000000      0.00000000      0.00000000</v>
   <i type="logical" name="LNICSALL"> T  </i>
   <i type="logical" name="ORBITALMAG"> F  </i>
   <i type="logical" name="LMAGBLOCH"> F  </i>
   <i type="logical" name="LCHIMAG"> F  </i>
   <i type="logical" name="LGAUGE"> T  </i>
   <i type="int" name="MAGATOM">     0</i>
   <v name="MAGDIPOL">      0.00000000      0.00000000      0.00000000</v>
   <v name="AVECCONST">      0.00000000      0.00000000      0.00000000</v>
  </separator>
  <separator name="response functions" >
   <i type="logical" name="LADDER"> F  </i>
   <i type="logical" name="LFXC"> F  </i>
   <i type="logical" name="LHARTREE"> T  </i>
   <i type="int" name="IBSE">     0</i>
   <v type="int" name="KPOINT">    -1     0     0     0</v>
   <i type="logical" name="LTCTE"> F  </i>
   <i type="logical" name="LTETE"> F  </i>
   <i type="logical" name="LTRIPLET"> F  </i>
   <i type="logical" name="LFXCEPS"> F  </i>
   <i type="logical" name="LFXHEG"> F  </i>
   <i type="int" name="NATURALO">     0</i>
   <i type="logical" name="L2ORDER"> F  </i>
   <i type="logical" name="LUSEW"> F  </i>
   <i name="ENCUTGW">     -2.00000000</i>
   <i name="ENCUTGWSOFT">     -2.00000000</i>
   <i name="ENCUTLF">     -1.00000000</i>
   <i type="int" name="LMAXMP2">    -1</i>
   <i name="SCISSOR">      0.00000000</i>
   <i type="int" name="NOMEGA">     0</i>
   <i type="int" name="NOMEGAR">     0</i>
   <i type="int" name="NBANDSGW">    -1</i>
   <i type="int" name="NBANDSO">    -1</i>
   <i type="int" name="NBANDSV">    -1</i>
   <i type="int" name="NELM">     1</i>
   <i type="int" name="NELMHF">     1</i>
   <i type="int" name="DIM">     3</i>
   <i type="int" name="ANTIRES">     0</i>
   <i name="OMEGAMAX">    -30.00000000</i>
   <i name="OMEGAMIN">    -30.00000000</i>
   <i name="OMEGATL">   -200.00000000</i>
   <i type="int" name="OMEGAGRID">     0</i>
   <i name="CSHIFT">     -0.10000000</i>
   <i type="logical" name="SELFENERGY"> F  </i>
   <i type="logical" name="LSPECTRAL"> F  </i>
   <i type="logical" name="LSPECTRALGW"> F  </i>
   <i type="logical" name="LSINGLES"> F  </i>
   <i type="logical" name="LFERMIGW"> F  </i>
   <i type="logical" name="ODDONLYGW"> F  </i>
   <i type="logical" name="EVENONLYGW"> F  </i>
   <i type="int" name="NKREDLFX">     1</i>
   <i type="int" name="NKREDLFY">     1</i>
   <i type="int" name="NKREDLFZ">     1</i>
   <i type="int" name="MAXMEM">  1800</i>
   <i type="int" name="TELESCOPE">     0</i>
   <i type="int" name="TAUPAR">     1</i>
   <i type="int" name="OMEGAPAR">    -1</i>
   <i name="LAMBDA">      1.00000000</i>
  </separator>
  <separator name="External order field" >
   <i name="OFIELD_KAPPA">      0.00000000</i>
   <v name="OFIELD_K">      0.00000000      0.00000000      0.00000000</v>
   <i name="OFIELD_Q6_NEAR">      0.00000000</i>
   <i name="OFIELD_Q6_FAR">      0.00000000</i>
   <i name="OFIELD_A">      0.00000000</i>
  </separator>
 </parameters>
 <atominfo>
  <atoms>      27 </atoms>
  <types>       4 </types>
  <array name="atoms" >
   <dimension dim="1">ion</dimension>
   <field type="string">element</field>
   <field type="int">atomtype</field>
   <set>
    <rc><c>V </c><c>   1</c></rc>
    <rc><c>V </c><c>   1</c></rc>
    <rc><c>V </c><c>   1</c></rc>
    <rc><c>Mo</c><c>   2</c></rc>
    <rc><c>Mo</c><c>   2</c></rc>
    <rc><c>Mo</c><c>   2</c></rc>
    <rc><c>W </c><c>   3</c></rc>
    <rc><c>W </c><c>   3</c></rc>
    <rc><c>W </c><c>   3</c></rc>
    <rc><c>S </c><c>   4</c></rc>
    <rc><c>S </c><c>   4</c></rc>
    <rc><c>S </c><c>   4</c></rc>
    <rc><c>S </c><c>   4</c></rc>
    <rc><c>S </c><c>   4</c></rc>
    <rc><c>S </c><c>   4</c></rc>
    <rc><c>S </c><c>   4</c></rc>
    <rc><c>S </c><c>   4</c></rc>
    <rc><c>S </c><c>   4</c></rc>
    <rc><c>S </c><c>   4</c></rc>
    <rc><c>S </c><c>   4</c></rc>
    <rc><c>S </c><c>   4</c></rc>
    <rc><c>S </c><c>   4</c></rc>
    <rc><c>S </c><c>   4</c></rc>
    <rc><c>S </c><c>   4</c></rc>
    <rc><c>S </c><c>   4</c></rc>
    <rc><c>S </c><c>   4</c></rc>
    <rc><c>S </c><c>   4</c></rc>
   </set>
  </array>
  <array name="atomtypes" >
   <dimension dim="1">type</dimension>
   <field type="int">atomspertype</field>
   <field type="string">element</field>
   <field>mass</field>
   <field>valence</field>
   <field type="string">pseudopotential</field>
   <set>
    <rc><c>   3</c><c>V </c><c>     50.94100000</c><c>      5.00000000</c><c> PAW_PBE V 08Apr2002                    </c></rc>
    <rc><c>   3</c><c>Mo</c><c>     95.94000000</c><c>      6.00000000</c><c> PAW_PBE Mo 08Apr2002                   </c></rc>
    <rc><c>   3</c><c>W </c><c>    183.85000000</c><c>      6.00000000</c><c> PAW_PBE W 08Apr2002                    </c></rc>
    <rc><c>  18</c><c>S </c><c>     32.06600000</c><c>      6.00000000</c><c>  PAW_PBE S 17Jan2003                   </c></rc>
   </set>
  </array>
 </atominfo>
 <structure name="initialpos" >
  <crystal>
   <varray name="basis" >
    <v>       8.66999996       5.03999989       0.00000000 </v>
    <v>      -8.66999982       5.04000013       0.00000000 </v>
    <v>       0.00000000       0.00000000      30.00000000 </v>
   </varray>
   <i name="volume">   2621.80797419 </i>
   <varray name="rec_basis" >
    <v>       0.05767013       0.09920635       0.00000000 </v>
    <v>      -0.05767013       0.09920635       0.00000000 </v>
    <v>       0.00000000       0.00000000       0.03333333 </v>
   </varray>
  </crystal>
  <varray name="positions" >
   <v>       0.66666669       0.00000000       0.00000000 </v>
   <v>       0.00000000       0.66666669       0.00000000 </v>
   <v>       0.33333334       0.33333334       0.00000000 </v>
   <v>       1.00000000       0.33333334       0.00000000 </v>
   <v>       0.66666669       0.33333334       0.00000000 </v>
   <v>       0.33333334       0.00000000       0.00000000 </v>
   <v>       0.00000000       0.00000000       0.00000000 </v>
   <v>       0.33333334       0.66666669       0.00000000 </v>
   <v>       0.66666669       0.66666669       0.00000000 </v>
   <v>       0.11068511       0.22244981       0.95539999 </v>
   <v>       0.22244981       0.11068511       0.04460000 </v>
   <v>       0.11068511       0.55578315       0.95539999 </v>
   <v>       0.22244981       0.44401845       0.04460000 </v>
   <v>       0.11068511       0.88911647       0.95539999 </v>
   <v>       0.22244981       0.77735180       0.04460000 </v>
   <v>       0.44401845       0.22244981       0.95539999 </v>
   <v>       0.55578315       0.11068511       0.04460000 </v>
   <v>       0.44401845       0.55578315       0.95539999 </v>
   <v>       0.55578315       0.44401845       0.04460000 </v>
   <v>       0.44401845       0.88911647       0.95539999 </v>
   <v>       0.55578315       0.77735180       0.04460000 </v>
   <v>       0.77735180       0.22244981       0.95539999 </v>
   <v>       0.88911647       0.11068511       0.04460000 </v>
   <v>       0.77735180       0.55578315       0.95539999 </v>
   <v>       0.88911647       0.44401845       0.04460000 </v>
   <v>       0.77735180       0.88911647       0.95539999 </v>
   <v>       0.88911647       0.77735180       0.04460000 </v>
  </varray>
 </structure>
 <calculation>
  <scstep>
   <time name="dav">   22.02   22.08</time>
   <time name="total">   22.07   22.13</time>
   <energy>
    <i name="alphaZ">     81.65567618 </i>
    <i name="ewald">  41888.36874788 </i>
    <i name="hartreedc"> -47720.98535188 </i>
    <i name="XCdc">   -242.93567428 </i>
    <i name="pawpsdc">   3467.42045192 </i>
    <i name="pawaedc">  -2871.19716117 </i>
    <i name="eentropy">     -0.52220350 </i>
    <i name="bandstr">   -239.07542293 </i>
    <i name="atom">   6761.44252427 </i>
    <i name="e_fr_energy">   1124.17158649 </i>
    <i name="e_wo_entrp">   1124.69378999 </i>
    <i name="e_0_energy">   1124.43268824 </i>
   </energy>
  </scstep>
  <scstep>
   <time name="dav">   28.28   28.35</time>
   <time name="total">   28.28   28.36</time>
   <energy>
    <i name="e_fr_energy">     -5.08799603 </i>
    <i name="e_wo_entrp">     -4.93421472 </i>
    <i name="e_0_energy">     -5.01110537 </i>
   </energy>
  </scstep>
  <scstep>
   <time name="dav">   27.99   28.06</time>
   <time name="total">   27.99   28.06</time>
   <energy>
    <i name="e_fr_energy">   -200.01556450 </i>
    <i name="e_wo_entrp">   -199.78405883 </i>
    <i name="e_0_energy">   -199.89981167 </i>
   </energy>
  </scstep>
  <scstep>
   <time name="dav">   30.70   30.77</time>
   <time name="total">   30.70   30.78</time>
   <energy>
    <i name="e_fr_energy">   -209.04996279 </i>
    <i name="e_wo_entrp">   -208.78697703 </i>
    <i name="e_0_energy">   -208.91846991 </i>
   </energy>
  </scstep>
  <scstep>
   <time name="dav">   28.90   28.96</time>
   <time name="total">   29.36   29.44</time>
   <energy>
    <i name="e_fr_energy">   -209.35099527 </i>
    <i name="e_wo_entrp">   -209.09119310 </i>
    <i name="e_0_energy">   -209.22109418 </i>
   </energy>
  </scstep>
  <scstep>
   <time name="dav">   31.99   32.07</time>
   <time name="total">   32.49   32.58</time>
   <energy>
    <i name="e_fr_energy">   -236.56219291 </i>
    <i name="e_wo_entrp">   -236.29128318 </i>
    <i name="e_0_energy">   -236.42673804 </i>
   </energy>
  </scstep>
  <scstep>
   <time name="dav">   31.49   31.57</time>
   <time name="total">   32.00   32.08</time>
   <energy>
    <i name="e_fr_energy">   -196.08679138 </i>
    <i name="e_wo_entrp">   -195.83068980 </i>
    <i name="e_0_energy">   -195.95874059 </i>
   </energy>
  </scstep>
  <scstep>
   <time name="dav">   30.14   30.21</time>
   <time name="total">   30.65   30.73</time>
   <energy>
    <i name="e_fr_energy">   -189.21907061 </i>
    <i name="e_wo_entrp">   -188.93288900 </i>
    <i name="e_0_energy">   -189.07597981 </i>
   </energy>
  </scstep>
  <scstep>
   <time name="dav">   33.23   33.31</time>
   <time name="total">   33.75   33.84</time>
   <energy>
    <i name="e_fr_energy">   -188.01404233 </i>
    <i name="e_wo_entrp">   -187.70405731 </i>
    <i name="e_0_energy">   -187.85904982 </i>
   </energy>
  </scstep>
  <scstep>
   <time name="dav">   32.41   32.49</time>
   <time name="total">   32.94   33.03</time>
   <energy>
    <i name="e_fr_energy">   -187.02181814 </i>
    <i name="e_wo_entrp">   -186.67005922 </i>
    <i name="e_0_energy">   -186.84593868 </i>
   </energy>
  </scstep>
  <scstep>
   <time name="dav">   32.75   32.83</time>
   <time name="total">   33.28   33.37</time>
   <energy>
    <i name="e_fr_energy">   -187.21979291 </i>
    <i name="e_wo_entrp">   -186.89070131 </i>
    <i name="e_0_energy">   -187.05524711 </i>
   </energy>
  </scstep>
  <scstep>
   <time name="dav">   30.53   30.60</time>
   <time name="total">   31.06   31.14</time>
   <energy>
    <i name="e_fr_energy">   -187.06011469 </i>
    <i name="e_wo_entrp">   -186.72925291 </i>
    <i name="e_0_energy">   -186.89468380 </i>
   </energy>
  </scstep>
  <scstep>
   <time name="dav">   31.19   31.26</time>
   <time name="total">   31.72   31.80</time>
   <energy>
    <i name="e_fr_energy">   -186.94136946 </i>
    <i name="e_wo_entrp">   -186.59621400 </i>
    <i name="e_0_energy">   -186.76879173 </i>
   </energy>
  </scstep>
  <scstep>
   <time name="dav">   32.43   32.51</time>
   <time name="total">   32.96   33.05</time>
   <energy>
    <i name="e_fr_energy">   -186.93459979 </i>
    <i name="e_wo_entrp">   -186.58819286 </i>
    <i name="e_0_energy">   -186.76139632 </i>
   </energy>
  </scstep>
  <scstep>
   <time name="dav">   33.24   33.32</time>
   <time name="total">   33.78   33.87</time>
   <energy>
    <i name="e_fr_energy">   -186.92815003 </i>
    <i name="e_wo_entrp">   -186.58212556 </i>
    <i name="e_0_energy">   -186.75513780 </i>
   </energy>
  </scstep>
  <scstep>
   <time name="dav">   32.17   32.25</time>
   <time name="total">   32.70   32.79</time>
   <energy>
    <i name="e_fr_energy">   -186.92392841 </i>
    <i name="e_wo_entrp">   -186.57929644 </i>
    <i name="e_0_energy">   -186.75161243 </i>
   </energy>
  </scstep>
  <scstep>
   <time name="dav">   30.03   30.10</time>
   <time name="total">   30.56   30.64</time>
   <energy>
    <i name="e_fr_energy">   -186.92368380 </i>
    <i name="e_wo_entrp">   -186.57944904 </i>
    <i name="e_0_energy">   -186.75156642 </i>
   </energy>
  </scstep>
  <scstep>
   <time name="dav">   30.52   30.59</time>
   <time name="total">   31.05   31.13</time>
   <energy>
    <i name="e_fr_energy">   -186.92314979 </i>
    <i name="e_wo_entrp">   -186.57825200 </i>
    <i name="e_0_energy">   -186.75070089 </i>
   </energy>
  </scstep>
  <scstep>
   <time name="dav">   27.68   27.75</time>
   <time name="total">   28.21   28.29</time>
   <energy>
    <i name="e_fr_energy">   -186.92355121 </i>
    <i name="e_wo_entrp">   -186.57892173 </i>
    <i name="e_0_energy">   -186.75123647 </i>
   </energy>
  </scstep>
  <scstep>
   <time name="dav">   25.23   25.29</time>
   <time name="total">   25.77   25.84</time>
   <energy>
    <i name="e_fr_energy">   -186.92410253 </i>
    <i name="e_wo_entrp">   -186.57981096 </i>
    <i name="e_0_energy">   -186.75195674 </i>
   </energy>
  </scstep>
  <scstep>
   <time name="dav">   24.07   24.12</time>
   <time name="total">   24.60   24.67</time>
   <energy>
    <i name="e_fr_energy">   -186.92525183 </i>
    <i name="e_wo_entrp">   -186.58079369 </i>
    <i name="e_0_energy">   -186.75302276 </i>
   </energy>
  </scstep>
  <scstep>
   <time name="dav">   19.93   19.98</time>
   <time name="total">   20.47   20.52</time>
   <energy>
    <i name="e_fr_energy">   -186.92614572 </i>
    <i name="e_wo_entrp">   -186.58165961 </i>
    <i name="e_0_energy">   -186.75390267 </i>
   </energy>
  </scstep>
  <scstep>
   <time name="dav">   20.88   20.93</time>
   <time name="total">   21.41   21.47</time>
   <energy>
    <i name="e_fr_energy">   -186.92685431 </i>
    <i name="e_wo_entrp">   -186.58238968 </i>
    <i name="e_0_energy">   -186.75462200 </i>
   </energy>
  </scstep>
  <scstep>
   <time name="dav">   19.90   19.94</time>
   <time name="total">   20.43   20.49</time>
   <energy>
    <i name="e_fr_energy">   -186.92753152 </i>
    <i name="e_wo_entrp">   -186.58310658 </i>
    <i name="e_0_energy">   -186.75531905 </i>
   </energy>
  </scstep>
  <scstep>
   <time name="dav">   18.33   18.37</time>
   <time name="total">   18.86   18.91</time>
   <energy>
    <i name="e_fr_energy">   -186.92790061 </i>
    <i name="e_wo_entrp">   -186.58344906 </i>
    <i name="e_0_energy">   -186.75567483 </i>
   </energy>
  </scstep>
  <scstep>
   <time name="dav">   19.30   19.34</time>
   <time name="total">   19.83   19.88</time>
   <energy>
    <i name="e_fr_energy">   -186.92811994 </i>
    <i name="e_wo_entrp">   -186.58366885 </i>
    <i name="e_0_energy">   -186.75589439 </i>
   </energy>
  </scstep>
  <scstep>
   <time name="dav">   20.18   20.23</time>
   <time name="total">   20.22   20.28</time>
   <energy>
    <i name="alphaZ">     81.65567618 </i>
    <i name="ewald">  41888.36874788 </i>
    <i name="hartreedc"> -47831.63000054 </i>
    <i name="XCdc">   -231.60174387 </i>
    <i name="pawpsdc">   4192.25131520 </i>
    <i name="pawaedc">  -3610.29013617 </i>
    <i name="eentropy">     -0.34444840 </i>
    <i name="bandstr">  -1436.78013766 </i>
    <i name="atom">   6761.44252427 </i>
    <i name="e_fr_energy">   -186.92820309 </i>
    <i name="e_wo_entrp">   -186.58375470 </i>
    <i name="e_0_energy">   -186.75597890 </i>
   </energy>
  </scstep>
  <structure>
   <crystal>
    <varray name="basis" >
     <v>       8.66999996       5.03999989       0.00000000 </v>
     <v>      -8.66999982       5.04000013       0.00000000 </v>
     <v>       0.00000000       0.00000000      30.00000000 </v>
    </varray>
    <i name="volume">   2621.80797419 </i>
    <varray name="rec_basis" >
     <v>       0.05767013       0.09920635       0.00000000 </v>
     <v>      -0.05767013       0.09920635       0.00000000 </v>
     <v>       0.00000000       0.00000000       0.03333333 </v>
    </varray>
   </crystal>
   <varray name="positions" >
    <v>       0.66666669       0.00000000       0.00000000 </v>
    <v>       0.00000000       0.66666669       0.00000000 </v>
    <v>       0.33333334       0.33333334       0.00000000 </v>
    <v>       1.00000000       0.33333334       0.00000000 </v>
    <v>       0.66666669       0.33333334       0.00000000 </v>
    <v>       0.33333334       0.00000000       0.00000000 </v>
    <v>       0.00000000       0.00000000       0.00000000 </v>
    <v>       0.33333334       0.66666669       0.00000000 </v>
    <v>       0.66666669       0.66666669       0.00000000 </v>
    <v>       0.11068511       0.22244981       0.95539999 </v>
    <v>       0.22244981       0.11068511       0.04460000 </v>
    <v>       0.11068511       0.55578315       0.95539999 </v>
    <v>       0.22244981       0.44401845       0.04460000 </v>
    <v>       0.11068511       0.88911647       0.95539999 </v>
    <v>       0.22244981       0.77735180       0.04460000 </v>
    <v>       0.44401845       0.22244981       0.95539999 </v>
    <v>       0.55578315       0.11068511       0.04460000 </v>
    <v>       0.44401845       0.55578315       0.95539999 </v>
    <v>       0.55578315       0.44401845       0.04460000 </v>
    <v>       0.44401845       0.88911647       0.95539999 </v>
    <v>       0.55578315       0.77735180       0.04460000 </v>
    <v>       0.77735180       0.22244981       0.95539999 </v>
    <v>       0.88911647       0.11068511       0.04460000 </v>
    <v>       0.77735180       0.55578315       0.95539999 </v>
    <v>       0.88911647       0.44401845       0.04460000 </v>
    <v>       0.77735180       0.88911647       0.95539999 </v>
    <v>       0.88911647       0.77735180       0.04460000 </v>
   </varray>
  </structure>
  <varray name="forces" >
   <v>      -0.44002030       0.23615694       0.00186554 </v>
   <v>       0.21627053      -0.13042957      -0.00505167 </v>
   <v>       0.22227606      -0.11837168       0.00307605 </v>
   <v>      -0.26653349      -0.14076950       0.04154157 </v>
   <v>       0.26293442      -0.14122870      -0.00100385 </v>
   <v>       0.00107631       0.28537931      -0.03932676 </v>
   <v>       0.00352112       0.31811550      -0.02882011 </v>
   <v>      -0.29272861      -0.16276502       0.02993318 </v>
   <v>       0.28897258      -0.15853412      -0.00228819 </v>
   <v>       0.62467892       0.56845743      -2.16513392 </v>
   <v>      -0.62581523       0.57369507       2.18884164 </v>
   <v>      -0.68705297       0.15168598      -2.14897521 </v>
   <v>       0.68823762       0.15662219       2.08806360 </v>
   <v>       0.37322925      -0.72498657      -2.13428127 </v>
   <v>      -0.37401139      -0.71918526       2.17159230 </v>
   <v>      -0.76514790      -0.00123279      -2.12227817 </v>
   <v>       0.76671436      -0.00065426       2.15476782 </v>
   <v>       0.48471697      -0.59648674      -2.17153247 </v>
   <v>      -0.63753248      -0.57019368       2.15814311 </v>
   <v>       0.63165628       0.57569789      -2.16135221 </v>
   <v>      -0.47433576       0.60281541       2.14780221 </v>
   <v>       0.53792816      -0.71456313      -2.19355329 </v>
   <v>      -0.37632554      -0.72850019       2.16024690 </v>
   <v>       0.36719335       0.72962433      -2.16736795 </v>
   <v>      -0.52859927       0.71517034       2.16629866 </v>
   <v>      -0.62918033      -0.00339330      -2.09986910 </v>
   <v>       0.62787735      -0.00212590       2.12866159 </v>
  </varray>
  <varray name="stress" >
   <v>       7.32394202       0.00822952      -1.52750117 </v>
   <v>       0.00822947       4.43891431       0.03503076 </v>
   <v>      -1.52750099       0.03503096      30.25507919 </v>
  </varray>
  <energy>
   <i name="e_fr_energy">   -186.92820309 </i>
   <i name="e_wo_entrp">   -186.75597890 </i>
   <i name="e_0_energy">     -0.34444840 </i>
  </energy>
  <time name="totalsc">  799.36  801.50</time>
 </calculation>
 <calculation>
  <scstep>
   <time name="dav">   22.01   22.07</time>
   <time name="total">   22.55   22.61</time>
   <energy>
    <i name="alphaZ">     78.91946216 </i>
    <i name="ewald">  39381.16503712 </i>
    <i name="hartreedc"> -45339.01390862 </i>
    <i name="XCdc">   -239.04115710 </i>
    <i name="pawpsdc">   4192.23478590 </i>
    <i name="pawaedc">  -3610.27397403 </i>
    <i name="eentropy">     -0.28539857 </i>
    <i name="bandstr">  -1412.63496161 </i>
    <i name="atom">   6761.44252427 </i>
    <i name="e_fr_energy">   -187.48759046 </i>
    <i name="e_wo_entrp">   -187.20219190 </i>
    <i name="e_0_energy">   -187.34489118 </i>
   </energy>
  </scstep>
  <scstep>
   <time name="dav">   32.09   32.16</time>
   <time name="total">   32.63   32.71</time>
   <energy>
    <i name="e_fr_energy">   -189.40405498 </i>
    <i name="e_wo_entrp">   -189.08154173 </i>
    <i name="e_0_energy">   -189.24279835 </i>
   </energy>
  </scstep>
  <scstep>
   <time name="dav">   30.59   30.67</time>
   <time name="total">   31.14   31.22</time>
   <energy>
    <i name="e_fr_energy">   -189.39523605 </i>
    <i name="e_wo_entrp">   -189.10547780 </i>
    <i name="e_0_energy">   -189.25035693 </i>
   </energy>
  </scstep>
  <scstep>
   <time name="dav">   30.33   30.41</time>
   <time name="total">   30.87   30.96</time>
   <energy>
    <i name="e_fr_energy">   -188.76366078 </i>
    <i name="e_wo_entrp">   -188.48070839 </i>
    <i name="e_0_energy">   -188.62218458 </i>
   </energy>
  </scstep>
  <scstep>
   <time name="dav">   26.19   26.25</time>
   <time name="total">   26.73   26.81</time>
   <energy>
    <i name="e_fr_energy">   -188.77351787 </i>
    <i name="e_wo_entrp">   -188.48421494 </i>
    <i name="e_0_energy">   -188.62886640 </i>
   </energy>
  </scstep>
  <scstep>
   <time name="dav">   30.36   30.43</time>
   <time name="total">   30.90   30.99</time>
   <energy>
    <i name="e_fr_energy">   -188.71695248 </i>
    <i name="e_wo_entrp">   -188.43107536 </i>
    <i name="e_0_energy">   -188.57401392 </i>
   </energy>
  </scstep>
  <scstep>
   <time name="dav">   30.46   30.53</time>
   <time name="total">   31.00   31.09</time>
   <energy>
    <i name="e_fr_energy">   -188.72164581 </i>
    <i name="e_wo_entrp">   -188.43627261 </i>
    <i name="e_0_energy">   -188.57895921 </i>
   </energy>
  </scstep>
  <scstep>
   <time name="dav">   31.90   31.98</time>
   <time name="total">   32.44   32.54</time>
   <energy>
    <i name="e_fr_energy">   -188.67774845 </i>
    <i name="e_wo_entrp">   -188.39338953 </i>
    <i name="e_0_energy">   -188.53556899 </i>
   </energy>
  </scstep>
  <scstep>
   <time name="dav">   26.98   27.05</time>
   <time name="total">   27.52   27.60</time>
   <energy>
    <i name="e_fr_energy">   -188.67574176 </i>
    <i name="e_wo_entrp">   -188.39133269 </i>
    <i name="e_0_energy">   -188.53353723 </i>
   </energy>
  </scstep>
  <scstep>
   <time name="dav">   33.32   33.40</time>
   <time name="total">   33.86   33.95</time>
   <energy>
    <i name="e_fr_energy">   -188.67711071 </i>
    <i name="e_wo_entrp">   -188.39291668 </i>
    <i name="e_0_energy">   -188.53501370 </i>
   </energy>
  </scstep>
  <scstep>
   <time name="dav">   31.05   31.12</time>
   <time name="total">   31.59   31.67</time>
   <energy>
    <i name="e_fr_energy">   -188.67532009 </i>
    <i name="e_wo_entrp">   -188.39135893 </i>
    <i name="e_0_energy">   -188.53333951 </i>
   </energy>
  </scstep>
  <scstep>
   <time name="dav">   28.56   28.63</time>
   <time name="total">   29.10   29.18</time>
   <energy>
    <i name="e_fr_energy">   -188.67543471 </i>
    <i name="e_wo_entrp">   -188.39175030 </i>
    <i name="e_0_energy">   -188.53359250 </i>
   </energy>
  </scstep>
  <scstep>
   <time name="dav">   21.95   22.00</time>
   <time name="total">   21.98   22.04</time>
   <energy>
    <i name="alphaZ">     78.91946216 </i>
    <i name="ewald">  39381.16503712 </i>
    <i name="hartreedc"> -45349.61962763 </i>
    <i name="XCdc">   -237.96479910 </i>
    <i name="pawpsdc">   3950.56958571 </i>
    <i name="pawaedc">  -3365.09596455 </i>
    <i name="eentropy">     -0.28391196 </i>
    <i name="bandstr">  -1407.80767243 </i>
    <i name="atom">   6761.44252427 </i>
    <i name="e_fr_energy">   -188.67536639 </i>
    <i name="e_wo_entrp">   -188.39145443 </i>
    <i name="e_0_energy">   -188.53341041 </i>
   </energy>
  </scstep>
  <structure>
   <crystal>
    <varray name="basis" >
     <v>       8.85578267       5.10562166       0.00000000 </v>
     <v>      -8.85553998       5.10520466       0.00000000 </v>
     <v>       0.00000000       0.00000000      30.00000000 </v>
    </varray>
    <i name="volume">   2712.70859011 </i>
    <varray name="rec_basis" >
     <v>       0.05645875       0.09793392       0.00000000 </v>
     <v>      -0.05646336       0.09793661       0.00000000 </v>
     <v>       0.00000000       0.00000000       0.03333333 </v>
    </varray>
   </crystal>
   <varray name="positions" >
    <v>       0.66657272       0.00235445       0.00000300 </v>
    <v>      -0.00002253       0.66544075      -0.00000812 </v>
    <v>       0.33338523       0.33214841       0.00000495 </v>
    <v>       0.99858474       0.33340116       0.00006680 </v>
    <v>       0.66672229       0.33192590      -0.00000161 </v>
    <v>       0.33470216       0.00136282      -0.00006324 </v>
    <v>       0.00153229       0.00151270      -0.00004635 </v>
    <v>       0.33173994       0.66670211       0.00004814 </v>
    <v>       0.66671191       0.66510398      -0.00000368 </v>
    <v>       0.11514369       0.22343248       0.95191826 </v>
    <v>       0.22345438       0.11517192       0.04811985 </v>
    <v>       0.10949958       0.55842061       0.95194425 </v>
    <v>       0.22511419       0.44285326       0.04795779 </v>
    <v>       0.10825372       0.88460831       0.95196788 </v>
    <v>       0.21796725       0.77495035       0.04809211 </v>
    <v>       0.44188379       0.22457267       0.95198718 </v>
    <v>       0.55791314       0.10854886       0.04806506 </v>
    <v>       0.44251224       0.55157982       0.95190797 </v>
    <v>       0.55128050       0.44306324       0.04807048 </v>
    <v>       0.44853110       0.89011437       0.95192434 </v>
    <v>       0.55734854       0.78155654       0.04805385 </v>
    <v>       0.77542852       0.21753332       0.95187256 </v>
    <v>       0.88458288       0.10824552       0.04807387 </v>
    <v>       0.78186535       0.55825353       0.95191467 </v>
    <v>       0.89106861       0.44891189       0.04808360 </v>
    <v>       0.77558508       0.89085071       0.95202321 </v>
    <v>       0.89085315       0.77559477       0.04802307 </v>
   </varray>
  </structure>
  <varray name="forces" >
   <v>      -0.39031221       0.22525491       0.00133737 </v>
   <v>       0.19496087      -0.11520962       0.00747373 </v>
   <v>       0.19836796      -0.11180659      -0.00884534 </v>
   <v>      -0.21715203      -0.12386921       0.08218580 </v>
   <v>       0.21473206      -0.11825759      -0.00195111 </v>
   <v>      -0.00518400       0.23586336      -0.08029304 </v>
   <v>       0.00700656       0.26250626      -0.09911952 </v>
   <v>      -0.22098682      -0.12564191       0.10183051 </v>
   <v>       0.21522163      -0.13071415      -0.00236797 </v>
   <v>       0.07681346      -0.04853378       0.02241185 </v>
   <v>      -0.08493905      -0.03615380       0.06934123 </v>
   <v>       0.00394760       0.10153741      -0.08771030 </v>
   <v>      -0.03076003       0.11382205      -0.09034946 </v>
   <v>      -0.11862618      -0.05059948       0.10629172 </v>
   <v>       0.10210844      -0.05253019      -0.02286771 </v>
   <v>      -0.04456901       0.00934523      -0.10683022 </v>
   <v>       0.05721062       0.00309052       0.18591588 </v>
   <v>      -0.04804972       0.04364696       0.13296887 </v>
   <v>      -0.07500383       0.04949257      -0.00718172 </v>
   <v>       0.09311957      -0.05000406       0.01585466 </v>
   <v>       0.05169410      -0.05488996      -0.22611957 </v>
   <v>       0.02592185      -0.07033831      -0.16964273 </v>
   <v>       0.11242378      -0.06536268      -0.02549770 </v>
   <v>      -0.09962250       0.05350342       0.01129844 </v>
   <v>      -0.03284700       0.05618953       0.09484010 </v>
   <v>       0.08566684      -0.00435246       0.20722131 </v>
   <v>      -0.07114297       0.00401156      -0.11019507 </v>
  </varray>
  <varray name="stress" >
   <v>     -19.82711832      -0.00202891       0.04351363 </v>
   <v>      -0.00202867     -19.42485458       0.02817733 </v>
   <v>       0.04351369       0.02817743      -1.69151174 </v>
  </varray>
  <energy>
   <i name="e_fr_energy">   -188.67536639 </i>
   <i name="e_wo_entrp">   -188.53341041 </i>
   <i name="e_0_energy">     -0.28391196 </i>
  </energy>
  <time name="totalsc">  424.23  425.36</time>
 </calculation>
 <calculation>
  <scstep>
   <time name="dav">   23.44   23.49</time>
   <time name="total">   23.97   24.03</time>
   <energy>
    <i name="alphaZ">     82.33273334 </i>
    <i name="ewald">  41297.72474497 </i>
    <i name="hartreedc"> -47296.56363891 </i>
    <i name="XCdc">   -233.85691112 </i>
    <i name="pawpsdc">   3949.80147015 </i>
    <i name="pawaedc">  -3364.32143756 </i>
    <i name="eentropy">     -0.23495269 </i>
    <i name="bandstr">  -1386.89839721 </i>
    <i name="atom">   6761.44252427 </i>
    <i name="e_fr_energy">   -190.57386476 </i>
    <i name="e_wo_entrp">   -190.33891207 </i>
    <i name="e_0_energy">   -190.45638841 </i>
   </energy>
  </scstep>
  <scstep>
   <time name="dav">   28.67   28.74</time>
   <time name="total">   29.19   29.26</time>
   <energy>
    <i name="e_fr_energy">   -190.67535081 </i>
    <i name="e_wo_entrp">   -190.42876344 </i>
    <i name="e_0_energy">   -190.55205712 </i>
   </energy>
  </scstep>
  <scstep>
   <time name="dav">   30.52   30.60</time>
   <time name="total">   31.05   31.13</time>
   <energy>
    <i name="e_fr_energy">   -190.02906105 </i>
    <i name="e_wo_entrp">   -189.78452158 </i>
    <i name="e_0_energy">   -189.90679132 </i>
   </energy>
  </scstep>
  <scstep>
   <time name="dav">   30.53   30.60</time>
   <time name="total">   31.06   31.15</time>
   <energy>
    <i name="e_fr_energy">   -189.84647645 </i>
    <i name="e_wo_entrp">   -189.60433775 </i>
    <i name="e_0_energy">   -189.72540710 </i>
   </energy>
  </scstep>
  <scstep>
   <time name="dav">   29.94   30.01</time>
   <time name="total">   30.47   30.55</time>
   <energy>
    <i name="e_fr_energy">   -189.76802639 </i>
    <i name="e_wo_entrp">   -189.52675024 </i>
    <i name="e_0_energy">   -189.64738832 </i>
   </energy>
  </scstep>
  <scstep>
   <time name="dav">   29.77   29.84</time>
   <time name="total">   30.30   30.38</time>
   <energy>
    <i name="e_fr_energy">   -189.74968775 </i>
    <i name="e_wo_entrp">   -189.50988985 </i>
    <i name="e_0_energy">   -189.62978880 </i>
   </energy>
  </scstep>
  <scstep>
   <time name="dav">   28.88   28.95</time>
   <time name="total">   29.41   29.49</time>
   <energy>
    <i name="e_fr_energy">   -189.74393164 </i>
    <i name="e_wo_entrp">   -189.50459349 </i>
    <i name="e_0_energy">   -189.62426257 </i>
   </energy>
  </scstep>
  <scstep>
   <time name="dav">   30.65   30.72</time>
   <time name="total">   31.18   31.26</time>
   <energy>
    <i name="e_fr_energy">   -189.74396689 </i>
    <i name="e_wo_entrp">   -189.50467483 </i>
    <i name="e_0_energy">   -189.62432086 </i>
   </energy>
  </scstep>
  <scstep>
   <time name="dav">   27.27   27.34</time>
   <time name="total">   27.80   27.88</time>
   <energy>
    <i name="e_fr_energy">   -189.74410795 </i>
    <i name="e_wo_entrp">   -189.50463436 </i>
    <i name="e_0_energy">   -189.62437115 </i>
   </energy>
  </scstep>
  <scstep>
   <time name="dav">   26.63   26.69</time>
   <time name="total">   27.16   27.23</time>
   <energy>
    <i name="e_fr_energy">   -189.74460572 </i>
    <i name="e_wo_entrp">   -189.50515463 </i>
    <i name="e_0_energy">   -189.62488018 </i>
   </energy>
  </scstep>
  <scstep>
   <time name="dav">   24.06   24.12</time>
   <time name="total">   24.59   24.66</time>
   <energy>
    <i name="e_fr_energy">   -189.74396879 </i>
    <i name="e_wo_entrp">   -189.50463782 </i>
    <i name="e_0_energy">   -189.62430331 </i>
   </energy>
  </scstep>
  <scstep>
   <time name="dav">   17.07   17.11</time>
   <time name="total">   17.11   17.16</time>
   <energy>
    <i name="alphaZ">     82.33273334 </i>
    <i name="ewald">  41297.72474497 </i>
    <i name="hartreedc"> -47270.29751434 </i>
    <i name="XCdc">   -235.24310375 </i>
    <i name="pawpsdc">   4038.74016721 </i>
    <i name="pawaedc">  -3454.45494154 </i>
    <i name="eentropy">     -0.23936707 </i>
    <i name="bandstr">  -1409.74923555 </i>
    <i name="atom">   6761.44252427 </i>
    <i name="e_fr_energy">   -189.74399247 </i>
    <i name="e_wo_entrp">   -189.50462540 </i>
    <i name="e_0_energy">   -189.62430894 </i>
   </energy>
  </scstep>
  <structure>
   <crystal>
    <varray name="basis" >
     <v>       8.66836039       4.99974648       0.00000000 </v>
     <v>      -8.66814495       4.99937649       0.00000000 </v>
     <v>       0.00000000       0.00000000      30.00000000 </v>
    </varray>
    <i name="volume">   2600.24772970 </i>
    <varray name="rec_basis" >
     <v>       0.05767962       0.10000753       0.00000000 </v>
     <v>      -0.05768389       0.10001001       0.00000000 </v>
     <v>       0.00000000       0.00000000       0.03333333 </v>
    </varray>
   </crystal>
   <varray name="positions" >
    <v>       0.66657312       0.00310505       0.00000376 </v>
    <v>      -0.00002723       0.66506134      -0.00000388 </v>
    <v>       0.33338948       0.33177139      -0.00000007 </v>
    <v>       0.99816958       0.33340337       0.00011343 </v>
    <v>       0.66673152       0.33152240      -0.00000272 </v>
    <v>       0.33509034       0.00176098      -0.00010880 </v>
    <v>       0.00197660       0.00194355      -0.00010258 </v>
    <v>       0.33131814       0.66670505       0.00010591 </v>
    <v>       0.66670085       0.66467924      -0.00000502 </v>
    <v>       0.11513661       0.22327775       0.95193098 </v>
    <v>       0.22331249       0.11519328       0.04815919 </v>
    <v>       0.10967263       0.55858607       0.95189448 </v>
    <v>       0.22527436       0.44307256       0.04790653 </v>
    <v>       0.10805538       0.88463797       0.95202818 </v>
    <v>       0.21797781       0.77476465       0.04807914 </v>
    <v>       0.44185654       0.22463108       0.95192657 </v>
    <v>       0.55797327       0.10849903       0.04817054 </v>
    <v>       0.44253882       0.55169876       0.95198342 </v>
    <v>       0.55129092       0.44321782       0.04806641 </v>
    <v>       0.44853723       0.88994153       0.95193334 </v>
    <v>       0.55730672       0.78141536       0.04792556 </v>
    <v>       0.77533618       0.21739116       0.95177631 </v>
    <v>       0.88458196       0.10802852       0.04805940 </v>
    <v>       0.78185880       0.55843846       0.95192108 </v>
    <v>       0.89113071       0.44903712       0.04813741 </v>
    <v>       0.77566014       0.89076112       0.95214078 </v>
    <v>       0.89079147       0.77566983       0.04796055 </v>
   </varray>
  </structure>
  <varray name="forces" >
   <v>      -0.37978085       0.21897979      -0.00038141 </v>
   <v>       0.19231653      -0.11598564       0.00679954 </v>
   <v>       0.19502283      -0.11119194      -0.00630762 </v>
   <v>      -0.20435339      -0.11135547       0.06458085 </v>
   <v>       0.19544389      -0.10994138      -0.00070596 </v>
   <v>      -0.01076698       0.21932809      -0.06412977 </v>
   <v>       0.01151790       0.23664295      -0.08559333 </v>
   <v>      -0.19566442      -0.12026872       0.08693443 </v>
   <v>       0.19553973      -0.12196970      -0.00104559 </v>
   <v>       0.05149526       0.09549862      -0.47583194 </v>
   <v>      -0.07151272       0.09611574       0.57557942 </v>
   <v>      -0.10184371       0.02346963      -0.59325913 </v>
   <v>       0.08374879       0.03695051       0.39647475 </v>
   <v>       0.00707354      -0.10785876      -0.38278024 </v>
   <v>      -0.03722715      -0.09942198       0.47702896 </v>
   <v>      -0.11458311       0.02344529      -0.60145785 </v>
   <v>       0.12311131       0.00326407       0.68669753 </v>
   <v>       0.01314301      -0.08540637      -0.36508034 </v>
   <v>      -0.05344771      -0.08976627       0.49431185 </v>
   <v>       0.09443638       0.07526700      -0.47966282 </v>
   <v>      -0.02023662       0.07310195       0.26065375 </v>
   <v>       0.06190074      -0.12643591      -0.67136143 </v>
   <v>       0.00155690      -0.12661212       0.47119520 </v>
   <v>       0.03464919       0.10258270      -0.49291797 </v>
   <v>      -0.08047247       0.10940798       0.59122886 </v>
   <v>      -0.06140277      -0.00623761      -0.27792132 </v>
   <v>       0.07033589       0.01839755       0.38695159 </v>
  </varray>
  <varray name="stress" >
   <v>     -10.11850130      -0.00537399       0.02590951 </v>
   <v>      -0.00537408      -9.81048559       0.02296235 </v>
   <v>       0.02590966       0.02296226       6.48304651 </v>
  </varray>
  <energy>
   <i name="e_fr_energy">   -189.74399247 </i>
   <i name="e_wo_entrp">   -189.62430894 </i>
   <i name="e_0_energy">     -0.23936707 </i>
  </energy>
  <time name="totalsc">  375.44  376.44</time>
 </calculation>
 <calculation>
  <scstep>
   <time name="dav">   21.98   22.03</time>
   <time name="total">   22.51   22.56</time>
   <energy>
    <i name="alphaZ">     85.80085131 </i>
    <i name="ewald">  42823.72937681 </i>
    <i name="hartreedc"> -48840.72022132 </i>
    <i name="XCdc">   -232.95991806 </i>
    <i name="pawpsdc">   4038.71537751 </i>
    <i name="pawaedc">  -3454.42729227 </i>
    <i name="eentropy">     -0.19349725 </i>
    <i name="bandstr">  -1372.62351347 </i>
    <i name="atom">   6761.44252427 </i>
    <i name="e_fr_energy">   -191.23631247 </i>
    <i name="e_wo_entrp">   -191.04281522 </i>
    <i name="e_0_energy">   -191.13956385 </i>
   </energy>
  </scstep>
  <scstep>
   <time name="dav">   33.49   33.57</time>
   <time name="total">   34.00   34.09</time>
   <energy>
    <i name="e_fr_energy">   -191.35100065 </i>
    <i name="e_wo_entrp">   -191.13852928 </i>
    <i name="e_0_energy">   -191.24476496 </i>
   </energy>
  </scstep>
  <scstep>
   <time name="dav">   30.03   30.10</time>
   <time name="total">   30.54   30.62</time>
   <energy>
    <i name="e_fr_energy">   -191.00116491 </i>
    <i name="e_wo_entrp">   -190.79390518 </i>
    <i name="e_0_energy">   -190.89753505 </i>
   </energy>
  </scstep>
  <scstep>
   <time name="dav">   30.56   30.64</time>
   <time name="total">   31.08   31.17</time>
   <energy>
    <i name="e_fr_energy">   -190.75935121 </i>
    <i name="e_wo_entrp">   -190.55770056 </i>
    <i name="e_0_energy">   -190.65852589 </i>
   </energy>
  </scstep>
  <scstep>
   <time name="dav">   30.33   30.41</time>
   <time name="total">   30.86   30.94</time>
   <energy>
    <i name="e_fr_energy">   -190.66687888 </i>
    <i name="e_wo_entrp">   -190.46491691 </i>
    <i name="e_0_energy">   -190.56589790 </i>
   </energy>
  </scstep>
  <scstep>
   <time name="dav">   29.45   29.52</time>
   <time name="total">   29.97   30.05</time>
   <energy>
    <i name="e_fr_energy">   -190.65731443 </i>
    <i name="e_wo_entrp">   -190.45587159 </i>
    <i name="e_0_energy">   -190.55659301 </i>
   </energy>
  </scstep>
  <scstep>
   <time name="dav">   28.72   28.79</time>
   <time name="total">   29.24   29.32</time>
   <energy>
    <i name="e_fr_energy">   -190.64357091 </i>
    <i name="e_wo_entrp">   -190.44332401 </i>
    <i name="e_0_energy">   -190.54344746 </i>
   </energy>
  </scstep>
  <scstep>
   <time name="dav">   30.43   30.51</time>
   <time name="total">   30.95   31.04</time>
   <energy>
    <i name="e_fr_energy">   -190.63873382 </i>
    <i name="e_wo_entrp">   -190.43808450 </i>
    <i name="e_0_energy">   -190.53840916 </i>
   </energy>
  </scstep>
  <scstep>
   <time name="dav">   27.54   27.61</time>
   <time name="total">   28.06   28.14</time>
   <energy>
    <i name="e_fr_energy">   -190.63929712 </i>
    <i name="e_wo_entrp">   -190.43881531 </i>
    <i name="e_0_energy">   -190.53905622 </i>
   </energy>
  </scstep>
  <scstep>
   <time name="dav">   27.17   27.24</time>
   <time name="total">   27.69   27.77</time>
   <energy>
    <i name="e_fr_energy">   -190.63912396 </i>
    <i name="e_wo_entrp">   -190.43869399 </i>
    <i name="e_0_energy">   -190.53890898 </i>
   </energy>
  </scstep>
  <scstep>
   <time name="dav">   21.21   21.26</time>
   <time name="total">   21.24   21.30</time>
   <energy>
    <i name="alphaZ">     85.80085131 </i>
    <i name="ewald">  42823.72937681 </i>
    <i name="hartreedc"> -48812.32180322 </i>
    <i name="XCdc">   -234.28609436 </i>
    <i name="pawpsdc">   4062.44126247 </i>
    <i name="pawaedc">  -3478.31813055 </i>
    <i name="eentropy">     -0.20042879 </i>
    <i name="bandstr">  -1398.92660279 </i>
    <i name="atom">   6761.44252427 </i>
    <i name="e_fr_energy">   -190.63904484 </i>
    <i name="e_wo_entrp">   -190.43861605 </i>
    <i name="e_0_energy">   -190.53883045 </i>
   </energy>
  </scstep>
  <structure>
   <crystal>
    <varray name="basis" >
     <v>       8.48711449       4.89982157       0.00000000 </v>
     <v>      -8.48715304       4.89989151       0.00000000 </v>
     <v>       0.00000000       0.00000000      30.00000000 </v>
    </varray>
    <i name="volume">   2495.14427497 </i>
    <varray name="rec_basis" >
     <v>       0.05891312       0.10204404       0.00000000 </v>
     <v>      -0.05891228       0.10204357       0.00000000 </v>
     <v>       0.00000000       0.00000000       0.03333333 </v>
    </varray>
   </crystal>
   <varray name="positions" >
    <v>       0.66657199       0.00582152       0.00000150 </v>
    <v>      -0.00006464       0.66364001       0.00000964 </v>
    <v>       0.33339439       0.33037483      -0.00001098 </v>
    <v>       0.99678174       0.33345720       0.00023228 </v>
    <v>       0.66674207       0.33017445      -0.00000312 </v>
    <v>       0.33637743       0.00314213      -0.00022794 </v>
    <v>       0.00344411       0.00331474      -0.00026846 </v>
    <v>       0.32990603       0.66663559       0.00027340 </v>
    <v>       0.66663681       0.66325715      -0.00000606 </v>
    <v>       0.11624588       0.22408753       0.95052016 </v>
    <v>       0.22400710       0.11636660       0.04978356 </v>
    <v>       0.10910323       0.55905898       0.95023406 </v>
    <v>       0.22578189       0.44264354       0.04914313 </v>
    <v>       0.10744262       0.88361113       0.95081805 </v>
    <v>       0.21690110       0.77435953       0.04949384 </v>
    <v>       0.44152329       0.22532905       0.95025846 </v>
    <v>       0.55853468       0.10797939       0.05002056 </v>
    <v>       0.44181597       0.55070413       0.95080232 </v>
    <v>       0.55021706       0.44246844       0.04951830 </v>
    <v>       0.44966644       0.89038365       0.95051691 </v>
    <v>       0.55790858       0.78237132       0.04888061 </v>
    <v>       0.77467866       0.21618187       0.94995727 </v>
    <v>       0.88348019       0.10723551       0.04945928 </v>
    <v>       0.78294417       0.55888552       0.95046976 </v>
    <v>       0.89159022       0.45021642       0.04978582 </v>
    <v>       0.77518190       0.89115172       0.95115133 </v>
    <v>       0.89140152       0.77536253       0.04918622 </v>
   </varray>
  </structure>
  <varray name="forces" >
   <v>      -0.35995423       0.20528821      -0.00208241 </v>
   <v>       0.18340731      -0.12983724       0.00387166 </v>
   <v>       0.20464680      -0.09841158      -0.00163913 </v>
   <v>      -0.20275275      -0.09334135       0.01155379 </v>
   <v>       0.15947653      -0.09507722       0.00230373 </v>
   <v>      -0.02898233       0.21747811      -0.01327191 </v>
   <v>       0.02138084       0.24077583      -0.03561807 </v>
   <v>      -0.19177710      -0.13270388       0.03326736 </v>
   <v>       0.22402104      -0.13914580       0.00156029 </v>
   <v>      -0.03031539       0.06598216      -0.32020173 </v>
   <v>       0.00038142       0.05552933       0.39724519 </v>
   <v>      -0.03344244      -0.02640993      -0.40178115 </v>
   <v>       0.01339632      -0.02995438       0.25445988 </v>
   <v>       0.04021829      -0.00557838      -0.25225031 </v>
   <v>      -0.07118328      -0.00407712       0.32286519 </v>
   <v>      -0.00212873       0.03397272      -0.45280253 </v>
   <v>       0.01461847       0.01238886       0.50697847 </v>
   <v>       0.00117801      -0.06322147      -0.21878668 </v>
   <v>       0.04068002      -0.06090578       0.34924825 </v>
   <v>       0.01759732       0.03314578      -0.31958462 </v>
   <v>      -0.02798005       0.04348573       0.12833114 </v>
   <v>       0.00509586      -0.02809823      -0.50283349 </v>
   <v>      -0.02024763      -0.03086978       0.32016755 </v>
   <v>       0.07505390      -0.00288548      -0.35017655 </v>
   <v>      -0.03732889      -0.00257070       0.44824530 </v>
   <v>      -0.03846518       0.00446429      -0.13090281 </v>
   <v>       0.04340589       0.03057730       0.22183361 </v>
  </varray>
  <varray name="stress" >
   <v>      -5.74292757      -0.00694146      -0.07565155 </v>
   <v>      -0.00694165      -5.77522352      -0.00064252 </v>
   <v>      -0.07565162      -0.00064250       4.40838504 </v>
  </varray>
  <energy>
   <i name="e_fr_energy">   -190.63904484 </i>
   <i name="e_wo_entrp">   -190.53883045 </i>
   <i name="e_0_energy">     -0.20042879 </i>
  </energy>
  <time name="totalsc">  358.36  359.30</time>
 </calculation>
 <calculation>
  <scstep>
   <time name="dav">   22.00   22.05</time>
   <time name="total">   22.51   22.57</time>
   <energy>
    <i name="alphaZ">     90.20490061 </i>
    <i name="ewald">  44679.31287480 </i>
    <i name="hartreedc"> -50724.09284863 </i>
    <i name="XCdc">   -231.77922033 </i>
    <i name="pawpsdc">   4062.64446278 </i>
    <i name="pawaedc">  -3478.51801951 </i>
    <i name="eentropy">     -0.17396534 </i>
    <i name="bandstr">  -1350.98035918 </i>
    <i name="atom">   6761.44252427 </i>
    <i name="e_fr_energy">   -191.93965054 </i>
    <i name="e_wo_entrp">   -191.76568519 </i>
    <i name="e_0_energy">   -191.85266786 </i>
   </energy>
  </scstep>
  <scstep>
   <time name="dav">   33.40   33.48</time>
   <time name="total">   33.90   33.99</time>
   <energy>
    <i name="e_fr_energy">   -192.05463277 </i>
    <i name="e_wo_entrp">   -191.86397394 </i>
    <i name="e_0_energy">   -191.95930336 </i>
   </energy>
  </scstep>
  <scstep>
   <time name="dav">   29.50   29.57</time>
   <time name="total">   30.00   30.08</time>
   <energy>
    <i name="e_fr_energy">   -191.73312662 </i>
    <i name="e_wo_entrp">   -191.54151234 </i>
    <i name="e_0_energy">   -191.63731948 </i>
   </energy>
  </scstep>
  <scstep>
   <time name="dav">   30.45   30.53</time>
   <time name="total">   30.97   31.05</time>
   <energy>
    <i name="e_fr_energy">   -191.36328201 </i>
    <i name="e_wo_entrp">   -191.18016743 </i>
    <i name="e_0_energy">   -191.27172472 </i>
   </energy>
  </scstep>
  <scstep>
   <time name="dav">   31.23   31.31</time>
   <time name="total">   31.74   31.83</time>
   <energy>
    <i name="e_fr_energy">   -191.20572565 </i>
    <i name="e_wo_entrp">   -191.02556911 </i>
    <i name="e_0_energy">   -191.11564738 </i>
   </energy>
  </scstep>
  <scstep>
   <time name="dav">   31.14   31.22</time>
   <time name="total">   31.65   31.73</time>
   <energy>
    <i name="e_fr_energy">   -191.20288458 </i>
    <i name="e_wo_entrp">   -191.01862648 </i>
    <i name="e_0_energy">   -191.11075553 </i>
   </energy>
  </scstep>
  <scstep>
   <time name="dav">   30.79   30.86</time>
   <time name="total">   31.29   31.38</time>
   <energy>
    <i name="e_fr_energy">   -191.16959115 </i>
    <i name="e_wo_entrp">   -190.98735097 </i>
    <i name="e_0_energy">   -191.07847106 </i>
   </energy>
  </scstep>
  <scstep>
   <time name="dav">   28.27   28.34</time>
   <time name="total">   28.77   28.85</time>
   <energy>
    <i name="e_fr_energy">   -191.16436411 </i>
    <i name="e_wo_entrp">   -190.98238760 </i>
    <i name="e_0_energy">   -191.07337586 </i>
   </energy>
  </scstep>
  <scstep>
   <time name="dav">   28.62   28.69</time>
   <time name="total">   29.12   29.20</time>
   <energy>
    <i name="e_fr_energy">   -191.16521765 </i>
    <i name="e_wo_entrp">   -190.98344011 </i>
    <i name="e_0_energy">   -191.07432888 </i>
   </energy>
  </scstep>
  <scstep>
   <time name="dav">   26.45   26.52</time>
   <time name="total">   26.96   27.03</time>
   <energy>
    <i name="e_fr_energy">   -191.16484216 </i>
    <i name="e_wo_entrp">   -190.98308494 </i>
    <i name="e_0_energy">   -191.07396355 </i>
   </energy>
  </scstep>
  <scstep>
   <time name="dav">   19.59   19.64</time>
   <time name="total">   19.62   19.68</time>
   <energy>
    <i name="alphaZ">     90.20490061 </i>
    <i name="ewald">  44679.31287480 </i>
    <i name="hartreedc"> -50689.55639785 </i>
    <i name="XCdc">   -233.35821365 </i>
    <i name="pawpsdc">   4080.74742175 </i>
    <i name="pawaedc">  -3496.64860390 </i>
    <i name="eentropy">     -0.18176652 </i>
    <i name="bandstr">  -1383.12751176 </i>
    <i name="atom">   6761.44252427 </i>
    <i name="e_fr_energy">   -191.16477224 </i>
    <i name="e_wo_entrp">   -190.98300572 </i>
    <i name="e_0_energy">   -191.07388898 </i>
   </energy>
  </scstep>
  <structure>
   <crystal>
    <varray name="basis" >
     <v>       8.27765367       4.77793154       0.00000000 </v>
     <v>      -8.27821163       4.77890119       0.00000000 </v>
     <v>       0.00000000       0.00000000      30.00000000 </v>
    </varray>
    <i name="volume">   2373.32452540 </i>
    <varray name="rec_basis" >
     <v>       0.06040768       0.10464070       0.00000000 </v>
     <v>      -0.06039543       0.10463365       0.00000000 </v>
     <v>       0.00000000       0.00000000       0.03333333 </v>
    </varray>
   </crystal>
   <varray name="positions" >
    <v>       0.66654393       0.01096383      -0.00000773 </v>
    <v>      -0.00033684       0.66072643       0.00002625 </v>
    <v>       0.33360458       0.32767762      -0.00001763 </v>
    <v>       0.99419239       0.33373798       0.00029045 </v>
    <v>       0.66670644       0.32784434       0.00000581 </v>
    <v>       0.33883604       0.00599991      -0.00029333 </v>
    <v>       0.00650565       0.00607342      -0.00042656 </v>
    <v>       0.32695600       0.66636001       0.00042262 </v>
    <v>       0.66650835       0.66003592       0.00000016 </v>
    <v>       0.11736160       0.22556352       0.94863696 </v>
    <v>       0.22511195       0.11756186       0.05199939 </v>
    <v>       0.10814212       0.55907269       0.94799334 </v>
    <v>       0.22565697       0.44179803       0.05074104 </v>
    <v>       0.10749972       0.88272832       0.94923313 </v>
    <v>       0.21583476       0.77472240       0.05138869 </v>
    <v>       0.44172419       0.22602024       0.94784544 </v>
    <v>       0.55899754       0.10779447       0.05267629 </v>
    <v>       0.44073554       0.54937494       0.94933533 </v>
    <v>       0.54923553       0.44101491       0.05151667 </v>
    <v>       0.45072436       0.89103317       0.94863651 </v>
    <v>       0.55856195       0.78365593       0.04996212 </v>
    <v>       0.77414972       0.21534545       0.94732354 </v>
    <v>       0.88243976       0.10682013       0.05133827 </v>
    <v>       0.78396049       0.55844700       0.94846617 </v>
    <v>       0.89151491       0.45092403       0.05217903 </v>
    <v>       0.77466464       0.89173237       0.95005300 </v>
    <v>       0.89238219       0.77518554       0.05067495 </v>
   </varray>
  </structure>
  <varray name="forces" >
   <v>      -0.28149591       0.16098115       0.00442249 </v>
   <v>       0.13370578      -0.17903320       0.02504488 </v>
   <v>       0.22125799      -0.02670028      -0.02967539 </v>
   <v>      -0.15734447      -0.05194210      -0.00379165 </v>
   <v>       0.00502392       0.00387739      -0.00302038 </v>
   <v>      -0.03450723       0.15122234       0.00742663 </v>
   <v>       0.01629898       0.19541391      -0.02619921 </v>
   <v>      -0.16803475      -0.10841599       0.02878311 </v>
   <v>       0.28346726      -0.16427937      -0.00346634 </v>
   <v>      -0.08454646       0.03429071      -0.01892082 </v>
   <v>       0.04956464       0.01381100       0.12217719 </v>
   <v>       0.00907907      -0.05062874      -0.10873796 </v>
   <v>      -0.06214605      -0.08056692      -0.05241937 </v>
   <v>       0.04161223       0.09322260       0.05024376 </v>
   <v>      -0.07365352       0.05818502       0.01307130 </v>
   <v>       0.09171630       0.03742975      -0.12755696 </v>
   <v>      -0.06356644       0.02693138       0.15689590 </v>
   <v>      -0.01969879      -0.03558110       0.04954477 </v>
   <v>       0.11192275      -0.03021955       0.10084263 </v>
   <v>      -0.05068736      -0.01153781      -0.01984362 </v>
   <v>      -0.01233557      -0.00284903      -0.17554753 </v>
   <v>      -0.05735214       0.04460095      -0.16315844 </v>
   <v>      -0.01750719       0.05139055       0.01662462 </v>
   <v>       0.08450391      -0.08181733      -0.08852211 </v>
   <v>       0.01366726      -0.09756344       0.12603440 </v>
   <v>      -0.00054729       0.01087199       0.18049513 </v>
   <v>       0.02160309       0.03890609      -0.06074703 </v>
  </varray>
  <varray name="stress" >
   <v>      -0.35766658       0.00695362      -0.04907858 </v>
   <v>       0.00695382      -0.28834198      -0.06817668 </v>
   <v>      -0.04907861      -0.06817651      -0.66465896 </v>
  </varray>
  <energy>
   <i name="e_fr_energy">   -191.16477224 </i>
   <i name="e_wo_entrp">   -191.07388898 </i>
   <i name="e_0_energy">     -0.18176652 </i>
  </energy>
  <time name="totalsc">  358.70  359.65</time>
 </calculation>
 <calculation>
  <scstep>
   <time name="dav">   21.94   21.99</time>
   <time name="total">   22.44   22.50</time>
   <energy>
    <i name="alphaZ">     90.46098773 </i>
    <i name="ewald">  44780.57863702 </i>
    <i name="hartreedc"> -50794.25772080 </i>
    <i name="XCdc">   -233.24338608 </i>
    <i name="pawpsdc">   4080.81840294 </i>
    <i name="pawaedc">  -3496.71579728 </i>
    <i name="eentropy">     -0.18676371 </i>
    <i name="bandstr">  -1380.10191747 </i>
    <i name="atom">   6761.44252427 </i>
    <i name="e_fr_energy">   -191.20503339 </i>
    <i name="e_wo_entrp">   -191.01826968 </i>
    <i name="e_0_energy">   -191.11165153 </i>
   </energy>
  </scstep>
  <scstep>
   <time name="dav">   32.61   32.69</time>
   <time name="total">   33.11   33.20</time>
   <energy>
    <i name="e_fr_energy">   -191.21706630 </i>
    <i name="e_wo_entrp">   -191.02968358 </i>
    <i name="e_0_energy">   -191.12337494 </i>
   </energy>
  </scstep>
  <scstep>
   <time name="dav">   30.85   30.93</time>
   <time name="total">   31.36   31.44</time>
   <energy>
    <i name="e_fr_energy">   -191.21361782 </i>
    <i name="e_wo_entrp">   -191.02729218 </i>
    <i name="e_0_energy">   -191.12045500 </i>
   </energy>
  </scstep>
  <scstep>
   <time name="dav">   28.43   28.50</time>
   <time name="total">   28.93   29.01</time>
   <energy>
    <i name="e_fr_energy">   -191.20961772 </i>
    <i name="e_wo_entrp">   -191.02249745 </i>
    <i name="e_0_energy">   -191.11605758 </i>
   </energy>
  </scstep>
  <scstep>
   <time name="dav">   26.11   26.17</time>
   <time name="total">   26.61   26.68</time>
   <energy>
    <i name="e_fr_energy">   -191.20819197 </i>
    <i name="e_wo_entrp">   -191.02135526 </i>
    <i name="e_0_energy">   -191.11477362 </i>
   </energy>
  </scstep>
  <scstep>
   <time name="dav">   30.21   30.28</time>
   <time name="total">   30.71   30.79</time>
   <energy>
    <i name="e_fr_energy">   -191.20843103 </i>
    <i name="e_wo_entrp">   -191.02131417 </i>
    <i name="e_0_energy">   -191.11487260 </i>
   </energy>
  </scstep>
  <scstep>
   <time name="dav">   26.45   26.51</time>
   <time name="total">   26.95   27.02</time>
   <energy>
    <i name="e_fr_energy">   -191.20780147 </i>
    <i name="e_wo_entrp">   -191.02078629 </i>
    <i name="e_0_energy">   -191.11429388 </i>
   </energy>
  </scstep>
  <scstep>
   <time name="dav">   17.87   17.91</time>
   <time name="total">   17.90   17.95</time>
   <energy>
    <i name="alphaZ">     90.46098773 </i>
    <i name="ewald">  44780.57863702 </i>
    <i name="hartreedc"> -50793.12323885 </i>
    <i name="XCdc">   -233.31506469 </i>
    <i name="pawpsdc">   4080.35939873 </i>
    <i name="pawaedc">  -3496.24122094 </i>
    <i name="eentropy">     -0.18700346 </i>
    <i name="bandstr">  -1381.18285597 </i>
    <i name="atom">   6761.44252427 </i>
    <i name="e_fr_energy">   -191.20783616 </i>
    <i name="e_wo_entrp">   -191.02083270 </i>
    <i name="e_0_energy">   -191.11433443 </i>
   </energy>
  </scstep>
  <structure>
   <crystal>
    <varray name="basis" >
     <v>       8.26522038       4.77176519       0.00000000 </v>
     <v>      -8.26561079       4.77244478       0.00000000 </v>
     <v>       0.00000000       0.00000000      30.00000000 </v>
    </varray>
    <i name="volume">   2366.60585200 </i>
    <varray name="rec_basis" >
     <v>       0.06049733       0.10477804       0.00000000 </v>
     <v>      -0.06048872       0.10477309       0.00000000 </v>
     <v>       0.00000000       0.00000000       0.03333333 </v>
    </varray>
   </crystal>
   <varray name="positions" >
    <v>       0.66653490       0.01286922      -0.00000055 </v>
    <v>      -0.00088941       0.65925798       0.00006944 </v>
    <v>       0.33415041       0.32675959      -0.00006833 </v>
    <v>       0.99334088       0.33395494       0.00028628 </v>
    <v>       0.66674142       0.32776855       0.00000098 </v>
    <v>       0.33962152       0.00701148      -0.00028324 </v>
    <v>       0.00770346       0.00716028      -0.00047691 </v>
    <v>       0.32575867       0.66628940       0.00047707 </v>
    <v>       0.66650034       0.65817637      -0.00000552 </v>
    <v>       0.11733453       0.22606830       0.94852611 </v>
    <v>       0.22538617       0.11753593       0.05229783 </v>
    <v>       0.10785750       0.55877726       0.94771675 </v>
    <v>       0.22503446       0.44152150       0.05072024 </v>
    <v>       0.10812390       0.88305513       0.94925077 </v>
    <v>       0.21586986       0.77527031       0.05149002 </v>
    <v>       0.44220893       0.22596723       0.94753165 </v>
    <v>       0.55896613       0.10812233       0.05304891 </v>
    <v>       0.44044046       0.54918737       0.94935547 </v>
    <v>       0.54937329       0.44044906       0.05177076 </v>
    <v>       0.45055513       0.89115860       0.94852420 </v>
    <v>       0.55853855       0.78373570       0.04971391 </v>
    <v>       0.77418778       0.21572094       0.94694114 </v>
    <v>       0.88261237       0.10712995       0.05144497 </v>
    <v>       0.78383113       0.55773775       0.94823281 </v>
    <v>       0.89103870       0.45039644       0.05248951 </v>
    <v>       0.77469627       0.89181793       0.95030889 </v>
    <v>       0.89269710       0.77531492       0.05063673 </v>
   </varray>
  </structure>
  <varray name="forces" >
   <v>      -0.30299026       0.17262223      -0.00116410 </v>
   <v>       0.14086751      -0.20495120       0.02170090 </v>
   <v>       0.25536493      -0.02254856      -0.01952776 </v>
   <v>      -0.15217565      -0.05750232      -0.01406095 </v>
   <v>      -0.02495249       0.00871803       0.00140003 </v>
   <v>      -0.03914961       0.16287021       0.01210726 </v>
   <v>       0.00735726       0.25454840      -0.03894731 </v>
   <v>      -0.20465320      -0.11993935       0.03846429 </v>
   <v>       0.33572974      -0.20788257       0.00112482 </v>
   <v>      -0.05562768       0.05107226       0.01401213 </v>
   <v>       0.02346574       0.02639098       0.08431535 </v>
   <v>      -0.00782998      -0.03485936      -0.08197186 </v>
   <v>      -0.02869414      -0.05799530      -0.09707144 </v>
   <v>       0.03755429       0.05604791       0.08939247 </v>
   <v>      -0.07346626       0.02625079      -0.01160344 </v>
   <v>       0.05437713       0.02799277      -0.09881612 </v>
   <v>      -0.04182484       0.02671063       0.11386786 </v>
   <v>      -0.00543427      -0.03070767       0.07532897 </v>
   <v>       0.06736234      -0.03875237       0.10187205 </v>
   <v>      -0.02515535      -0.00031173       0.00954610 </v>
   <v>       0.00357869       0.00422662      -0.21811657 </v>
   <v>      -0.04250221       0.02366504      -0.11620346 </v>
   <v>      -0.01460277       0.02364489      -0.00884787 </v>
   <v>       0.06987753      -0.04174254      -0.10399628 </v>
   <v>       0.00258857      -0.06341718       0.10296438 </v>
   <v>       0.00041895      -0.00606544       0.22381757 </v>
   <v>       0.02051603       0.02191482      -0.07958702 </v>
  </varray>
  <varray name="stress" >
   <v>       0.19258570      -0.00324610      -0.06952867 </v>
   <v>      -0.00324621       0.17175758      -0.08264266 </v>
   <v>      -0.06952869      -0.08264258      -1.17958502 </v>
  </varray>
  <energy>
   <i name="e_fr_energy">   -191.20783616 </i>
   <i name="e_wo_entrp">   -191.11433443 </i>
   <i name="e_0_energy">     -0.18700346 </i>
  </energy>
  <time name="totalsc">  260.12  260.81</time>
 </calculation>
 <calculation>
  <scstep>
   <time name="dav">   21.92   21.97</time>
   <time name="total">   22.43   22.48</time>
   <energy>
    <i name="alphaZ">     90.36480583 </i>
    <i name="ewald">  44744.09227169 </i>
    <i name="hartreedc"> -50755.35637742 </i>
    <i name="XCdc">   -233.35403974 </i>
    <i name="pawpsdc">   4080.44290430 </i>
    <i name="pawaedc">  -3496.32522054 </i>
    <i name="eentropy">     -0.18921674 </i>
    <i name="bandstr">  -1382.33766197 </i>
    <i name="atom">   6761.44252427 </i>
    <i name="e_fr_energy">   -191.22001031 </i>
    <i name="e_wo_entrp">   -191.03079358 </i>
    <i name="e_0_energy">   -191.12540194 </i>
   </energy>
  </scstep>
  <scstep>
   <time name="dav">   29.28   29.35</time>
   <time name="total">   29.79   29.87</time>
   <energy>
    <i name="e_fr_energy">   -191.22079861 </i>
    <i name="e_wo_entrp">   -191.03153982 </i>
    <i name="e_0_energy">   -191.12616922 </i>
   </energy>
  </scstep>
  <scstep>
   <time name="dav">   30.91   30.99</time>
   <time name="total">   31.42   31.50</time>
   <energy>
    <i name="e_fr_energy">   -191.22074651 </i>
    <i name="e_wo_entrp">   -191.03188059 </i>
    <i name="e_0_energy">   -191.12631355 </i>
   </energy>
  </scstep>
  <scstep>
   <time name="dav">   25.39   25.45</time>
   <time name="total">   25.90   25.97</time>
   <energy>
    <i name="e_fr_energy">   -191.22017242 </i>
    <i name="e_wo_entrp">   -191.03097999 </i>
    <i name="e_0_energy">   -191.12557621 </i>
   </energy>
  </scstep>
  <scstep>
   <time name="dav">   23.65   23.71</time>
   <time name="total">   23.69   23.76</time>
   <energy>
    <i name="alphaZ">     90.36480583 </i>
    <i name="ewald">  44744.09227169 </i>
    <i name="hartreedc"> -50756.57642649 </i>
    <i name="XCdc">   -233.31806026 </i>
    <i name="pawpsdc">   4081.71370030 </i>
    <i name="pawaedc">  -3497.60914417 </i>
    <i name="eentropy">     -0.18914731 </i>
    <i name="bandstr">  -1381.14062338 </i>
    <i name="atom">   6761.44252427 </i>
    <i name="e_fr_energy">   -191.22009952 </i>
    <i name="e_wo_entrp">   -191.03095221 </i>
    <i name="e_0_energy">   -191.12552587 </i>
   </energy>
  </scstep>
  <structure>
   <crystal>
    <varray name="basis" >
     <v>       8.26971050       4.77422203       0.00000000 </v>
     <v>      -8.27012579       4.77494468       0.00000000 </v>
     <v>       0.00000000       0.00000000      30.00000000 </v>
    </varray>
    <i name="volume">   2369.12480445 </i>
    <varray name="rec_basis" >
     <v>       0.06046467       0.10472381       0.00000000 </v>
     <v>      -0.06045552       0.10471855       0.00000000 </v>
     <v>       0.00000000       0.00000000       0.03333333 </v>
    </varray>
   </crystal>
   <varray name="positions" >
    <v>       0.66653139       0.01335051      -0.00000129 </v>
    <v>      -0.00109740       0.65883048       0.00008057 </v>
    <v>       0.33436244       0.32652750      -0.00007812 </v>
    <v>       0.99315008       0.33399892       0.00027667 </v>
    <v>       0.66673025       0.32786271       0.00000180 </v>
    <v>       0.33980784       0.00726694      -0.00027484 </v>
    <v>       0.00808649       0.00753732      -0.00049501 </v>
[...]
      <set comment="kpoint 31">
       <r>  -17.4892    1.0000 </r>
       <r>  -17.2873    1.0000 </r>
       <r>  -16.9348    1.0000 </r>
       <r>  -16.6205    1.0000 </r>
       <r>  -16.5000    1.0000 </r>
       <r>  -16.4327    1.0000 </r>
       <r>  -16.2661    1.0000 </r>
       <r>  -16.1013    1.0000 </r>
       <r>  -16.0838    1.0000 </r>
       <r>  -16.0117    1.0000 </r>
       <r>  -15.9362    1.0000 </r>
       <r>  -15.9078    1.0000 </r>
       <r>  -15.8178    1.0000 </r>
       <r>  -15.7864    1.0000 </r>
       <r>  -15.6847    1.0000 </r>
       <r>  -15.4982    1.0000 </r>
       <r>  -15.4689    1.0000 </r>
       <r>  -15.3097    1.0000 </r>
       <r>   -9.7144    1.0000 </r>
       <r>   -9.4467    1.0000 </r>
       <r>   -9.2513    1.0000 </r>
       <r>   -8.9649    1.0000 </r>
       <r>   -8.7662    1.0000 </r>
       <r>   -8.7457    1.0000 </r>
       <r>   -8.5381    1.0000 </r>
       <r>   -8.4707    1.0000 </r>
       <r>   -8.4352    1.0000 </r>
       <r>   -8.3600    1.0000 </r>
       <r>   -8.3101    1.0000 </r>
       <r>   -8.2654    1.0000 </r>
       <r>   -8.1882    1.0000 </r>
       <r>   -8.1297    1.0000 </r>
       <r>   -7.9667    1.0000 </r>
       <r>   -7.8703    1.0000 </r>
       <r>   -7.8197    1.0000 </r>
       <r>   -7.6805    1.0000 </r>
       <r>   -7.5729    1.0000 </r>
       <r>   -7.4115    1.0000 </r>
       <r>   -7.3374    1.0000 </r>
       <r>   -7.3001    1.0000 </r>
       <r>   -7.1607    1.0000 </r>
       <r>   -7.1016    1.0000 </r>
       <r>   -7.0089    1.0000 </r>
       <r>   -6.9667    1.0000 </r>
       <r>   -6.8888    1.0000 </r>
       <r>   -6.8237    1.0000 </r>
       <r>   -6.7270    1.0000 </r>
       <r>   -6.6222    1.0000 </r>
       <r>   -6.5064    1.0000 </r>
       <r>   -6.4401    1.0000 </r>
       <r>   -6.3908    1.0000 </r>
       <r>   -6.3270    1.0000 </r>
       <r>   -6.2720    1.0000 </r>
       <r>   -6.2185    1.0000 </r>
       <r>   -6.1588    1.0000 </r>
       <r>   -6.0377    1.0000 </r>
       <r>   -5.9960    1.0000 </r>
       <r>   -5.9301    1.0000 </r>
       <r>   -5.8494    1.0000 </r>
       <r>   -5.7567    1.0000 </r>
       <r>   -5.6784    1.0000 </r>
       <r>   -5.6175    1.0000 </r>
       <r>   -5.5832    1.0000 </r>
       <r>   -5.3839    1.0000 </r>
       <r>   -5.2805    1.0000 </r>
       <r>   -5.1677    1.0000 </r>
       <r>   -5.0291    1.0000 </r>
       <r>   -4.9221    1.0000 </r>
       <r>   -4.8389    1.0000 </r>
       <r>   -4.6676    1.0000 </r>
       <r>   -4.4956    1.0000 </r>
       <r>   -4.4155    1.0000 </r>
       <r>   -4.2952    1.0000 </r>
       <r>   -4.2105    1.0000 </r>
       <r>   -4.1071    1.0000 </r>
       <r>   -3.8706    0.9998 </r>
       <r>   -3.7848    0.9985 </r>
       <r>   -3.6850    0.9882 </r>
       <r>   -3.5637    0.9200 </r>
       <r>   -3.4665    0.7633 </r>
       <r>   -2.9252    0.0009 </r>
       <r>   -2.7503    0.0000 </r>
       <r>   -2.6376    0.0000 </r>
       <r>   -2.5209    0.0000 </r>
       <r>   -2.3673    0.0000 </r>
       <r>   -2.2649    0.0000 </r>
       <r>   -2.0755    0.0000 </r>
       <r>   -1.9439    0.0000 </r>
       <r>   -1.8675    0.0000 </r>
       <r>   -1.7755    0.0000 </r>
       <r>   -1.6106    0.0000 </r>
       <r>   -1.5594    0.0000 </r>
       <r>   -1.4934    0.0000 </r>
       <r>   -1.4121    0.0000 </r>
       <r>   -1.3232    0.0000 </r>
       <r>   -1.2191    0.0000 </r>
       <r>   -1.1241    0.0000 </r>
       <r>   -1.0536    0.0000 </r>
       <r>   -1.0376    0.0000 </r>
       <r>   -0.9797    0.0000 </r>
       <r>   -0.9511    0.0000 </r>
       <r>   -0.8554    0.0000 </r>
       <r>   -0.8207    0.0000 </r>
       <r>   -0.6857    0.0000 </r>
       <r>   -0.4881    0.0000 </r>
       <r>   -0.3400    0.0000 </r>
       <r>   -0.1835    0.0000 </r>
       <r>   -0.0360    0.0000 </r>
       <r>    0.0773    0.0000 </r>
       <r>    0.2712    0.0000 </r>
       <r>    0.5077    0.0000 </r>
       <r>    0.6641    0.0000 </r>
       <r>    0.7952    0.0000 </r>
       <r>    0.9875    0.0000 </r>
       <r>    1.1402    0.0000 </r>
       <r>    1.2582    0.0000 </r>
       <r>    1.4105    0.0000 </r>
       <r>    2.1393    0.0000 </r>
       <r>    2.2976    0.0000 </r>
       <r>    2.4025    0.0000 </r>
      </set>
      <set comment="kpoint 32">
       <r>  -17.5112    1.0000 </r>
       <r>  -17.1677    1.0000 </r>
       <r>  -17.0889    1.0000 </r>
       <r>  -16.6174    1.0000 </r>
       <r>  -16.4496    1.0000 </r>
       <r>  -16.3451    1.0000 </r>
       <r>  -16.2761    1.0000 </r>
       <r>  -16.1697    1.0000 </r>
       <r>  -16.0651    1.0000 </r>
       <r>  -16.0361    1.0000 </r>
       <r>  -15.9397    1.0000 </r>
       <r>  -15.9122    1.0000 </r>
       <r>  -15.8289    1.0000 </r>
       <r>  -15.7720    1.0000 </r>
       <r>  -15.6994    1.0000 </r>
       <r>  -15.4833    1.0000 </r>
       <r>  -15.4787    1.0000 </r>
       <r>  -15.2957    1.0000 </r>
       <r>   -9.6276    1.0000 </r>
       <r>   -9.5760    1.0000 </r>
       <r>   -9.3403    1.0000 </r>
       <r>   -8.8665    1.0000 </r>
       <r>   -8.7319    1.0000 </r>
       <r>   -8.5777    1.0000 </r>
       <r>   -8.5107    1.0000 </r>
       <r>   -8.5004    1.0000 </r>
       <r>   -8.3928    1.0000 </r>
       <r>   -8.3813    1.0000 </r>
       <r>   -8.3225    1.0000 </r>
       <r>   -8.2548    1.0000 </r>
       <r>   -8.2510    1.0000 </r>
       <r>   -8.1708    1.0000 </r>
       <r>   -8.1125    1.0000 </r>
       <r>   -7.8698    1.0000 </r>
       <r>   -7.8299    1.0000 </r>
       <r>   -7.6338    1.0000 </r>
       <r>   -7.4985    1.0000 </r>
       <r>   -7.4101    1.0000 </r>
       <r>   -7.3961    1.0000 </r>
       <r>   -7.2893    1.0000 </r>
       <r>   -7.2037    1.0000 </r>
       <r>   -7.1345    1.0000 </r>
       <r>   -7.0314    1.0000 </r>
       <r>   -6.9568    1.0000 </r>
       <r>   -6.8637    1.0000 </r>
       <r>   -6.8400    1.0000 </r>
       <r>   -6.7456    1.0000 </r>
       <r>   -6.6185    1.0000 </r>
       <r>   -6.4777    1.0000 </r>
       <r>   -6.4583    1.0000 </r>
       <r>   -6.3520    1.0000 </r>
       <r>   -6.3502    1.0000 </r>
       <r>   -6.2515    1.0000 </r>
       <r>   -6.2181    1.0000 </r>
       <r>   -6.1584    1.0000 </r>
       <r>   -6.0489    1.0000 </r>
       <r>   -5.9341    1.0000 </r>
       <r>   -5.8444    1.0000 </r>
       <r>   -5.8358    1.0000 </r>
       <r>   -5.7494    1.0000 </r>
       <r>   -5.6155    1.0000 </r>
       <r>   -5.5912    1.0000 </r>
       <r>   -5.5778    1.0000 </r>
       <r>   -5.4332    1.0000 </r>
       <r>   -5.3904    1.0000 </r>
       <r>   -5.1267    1.0000 </r>
       <r>   -5.1197    1.0000 </r>
       <r>   -4.9548    1.0000 </r>
       <r>   -4.9088    1.0000 </r>
       <r>   -4.5397    1.0000 </r>
       <r>   -4.4643    1.0000 </r>
       <r>   -4.4328    1.0000 </r>
       <r>   -4.3112    1.0000 </r>
       <r>   -4.2955    1.0000 </r>
       <r>   -4.0903    1.0000 </r>
       <r>   -3.8620    0.9998 </r>
       <r>   -3.7857    0.9985 </r>
       <r>   -3.6386    0.9734 </r>
       <r>   -3.5481    0.9022 </r>
       <r>   -3.4922    0.8157 </r>
       <r>   -2.9326    0.0011 </r>
       <r>   -2.7181    0.0000 </r>
       <r>   -2.6726    0.0000 </r>
       <r>   -2.4800    0.0000 </r>
       <r>   -2.3865    0.0000 </r>
       <r>   -2.2668    0.0000 </r>
       <r>   -2.0345    0.0000 </r>
       <r>   -1.9770    0.0000 </r>
       <r>   -1.8823    0.0000 </r>
       <r>   -1.8098    0.0000 </r>
       <r>   -1.5852    0.0000 </r>
       <r>   -1.5726    0.0000 </r>
       <r>   -1.4580    0.0000 </r>
       <r>   -1.4515    0.0000 </r>
       <r>   -1.3150    0.0000 </r>
       <r>   -1.2208    0.0000 </r>
       <r>   -1.0958    0.0000 </r>
       <r>   -1.0559    0.0000 </r>
       <r>   -1.0302    0.0000 </r>
       <r>   -0.9717    0.0000 </r>
       <r>   -0.9408    0.0000 </r>
       <r>   -0.8942    0.0000 </r>
       <r>   -0.8313    0.0000 </r>
       <r>   -0.6641    0.0000 </r>
       <r>   -0.5339    0.0000 </r>
       <r>   -0.2881    0.0000 </r>
       <r>   -0.1898    0.0000 </r>
       <r>    0.0339    0.0000 </r>
       <r>    0.0680    0.0000 </r>
       <r>    0.2393    0.0000 </r>
       <r>    0.4848    0.0000 </r>
       <r>    0.6932    0.0000 </r>
       <r>    0.7449    0.0000 </r>
       <r>    1.0249    0.0000 </r>
       <r>    1.2077    0.0000 </r>
       <r>    1.2583    0.0000 </r>
       <r>    1.2773    0.0000 </r>
       <r>    2.1083    0.0000 </r>
       <r>    2.2653    0.0000 </r>
       <r>    2.5753    0.0000 </r>
      </set>
      <set comment="kpoint 33">
       <r>  -17.4892    1.0000 </r>
       <r>  -17.2874    1.0000 </r>
       <r>  -16.9345    1.0000 </r>
       <r>  -16.6210    1.0000 </r>
       <r>  -16.5013    1.0000 </r>
       <r>  -16.4299    1.0000 </r>
       <r>  -16.2671    1.0000 </r>
       <r>  -16.1028    1.0000 </r>
       <r>  -16.0830    1.0000 </r>
       <r>  -16.0118    1.0000 </r>
       <r>  -15.9325    1.0000 </r>
       <r>  -15.9084    1.0000 </r>
       <r>  -15.8203    1.0000 </r>
       <r>  -15.7874    1.0000 </r>
       <r>  -15.6833    1.0000 </r>
       <r>  -15.4995    1.0000 </r>
       <r>  -15.4702    1.0000 </r>
       <r>  -15.3073    1.0000 </r>
       <r>   -9.7153    1.0000 </r>
       <r>   -9.4470    1.0000 </r>
       <r>   -9.2498    1.0000 </r>
       <r>   -8.9675    1.0000 </r>
       <r>   -8.7699    1.0000 </r>
       <r>   -8.7429    1.0000 </r>
       <r>   -8.5365    1.0000 </r>
       <r>   -8.4659    1.0000 </r>
       <r>   -8.4329    1.0000 </r>
       <r>   -8.3612    1.0000 </r>
       <r>   -8.3110    1.0000 </r>
       <r>   -8.2681    1.0000 </r>
       <r>   -8.1912    1.0000 </r>
       <r>   -8.1333    1.0000 </r>
       <r>   -7.9614    1.0000 </r>
       <r>   -7.8724    1.0000 </r>
       <r>   -7.8172    1.0000 </r>
       <r>   -7.6835    1.0000 </r>
       <r>   -7.5688    1.0000 </r>
       <r>   -7.4062    1.0000 </r>
       <r>   -7.3403    1.0000 </r>
       <r>   -7.2964    1.0000 </r>
       <r>   -7.1628    1.0000 </r>
       <r>   -7.1001    1.0000 </r>
       <r>   -7.0063    1.0000 </r>
       <r>   -6.9681    1.0000 </r>
       <r>   -6.8881    1.0000 </r>
       <r>   -6.8255    1.0000 </r>
       <r>   -6.7300    1.0000 </r>
       <r>   -6.6233    1.0000 </r>
       <r>   -6.5055    1.0000 </r>
       <r>   -6.4386    1.0000 </r>
       <r>   -6.3916    1.0000 </r>
       <r>   -6.3248    1.0000 </r>
       <r>   -6.2719    1.0000 </r>
       <r>   -6.2209    1.0000 </r>
       <r>   -6.1623    1.0000 </r>
       <r>   -6.0372    1.0000 </r>
       <r>   -5.9965    1.0000 </r>
       <r>   -5.9314    1.0000 </r>
       <r>   -5.8510    1.0000 </r>
       <r>   -5.7570    1.0000 </r>
       <r>   -5.6809    1.0000 </r>
       <r>   -5.6159    1.0000 </r>
       <r>   -5.5840    1.0000 </r>
       <r>   -5.3894    1.0000 </r>
       <r>   -5.2765    1.0000 </r>
       <r>   -5.1671    1.0000 </r>
       <r>   -5.0232    1.0000 </r>
       <r>   -4.9266    1.0000 </r>
       <r>   -4.8388    1.0000 </r>
       <r>   -4.6669    1.0000 </r>
       <r>   -4.4923    1.0000 </r>
       <r>   -4.4137    1.0000 </r>
       <r>   -4.2910    1.0000 </r>
       <r>   -4.2171    1.0000 </r>
       <r>   -4.1062    1.0000 </r>
       <r>   -3.8748    0.9998 </r>
       <r>   -3.7820    0.9984 </r>
       <r>   -3.6866    0.9885 </r>
       <r>   -3.5697    0.9260 </r>
       <r>   -3.4614    0.7521 </r>
       <r>   -2.9360    0.0012 </r>
       <r>   -2.7422    0.0000 </r>
       <r>   -2.6343    0.0000 </r>
       <r>   -2.5129    0.0000 </r>
       <r>   -2.3725    0.0000 </r>
       <r>   -2.2604    0.0000 </r>
       <r>   -2.0701    0.0000 </r>
       <r>   -1.9524    0.0000 </r>
       <r>   -1.8647    0.0000 </r>
       <r>   -1.7688    0.0000 </r>
       <r>   -1.6153    0.0000 </r>
       <r>   -1.5604    0.0000 </r>
       <r>   -1.4875    0.0000 </r>
       <r>   -1.4172    0.0000 </r>
       <r>   -1.3276    0.0000 </r>
       <r>   -1.2243    0.0000 </r>
       <r>   -1.1259    0.0000 </r>
       <r>   -1.0535    0.0000 </r>
       <r>   -1.0306    0.0000 </r>
       <r>   -0.9825    0.0000 </r>
       <r>   -0.9546    0.0000 </r>
       <r>   -0.8587    0.0000 </r>
       <r>   -0.8186    0.0000 </r>
       <r>   -0.6872    0.0000 </r>
       <r>   -0.4867    0.0000 </r>
       <r>   -0.3358    0.0000 </r>
       <r>   -0.1844    0.0000 </r>
       <r>   -0.0301    0.0000 </r>
       <r>    0.0769    0.0000 </r>
       <r>    0.2756    0.0000 </r>
       <r>    0.5086    0.0000 </r>
       <r>    0.6651    0.0000 </r>
       <r>    0.7922    0.0000 </r>
       <r>    0.9872    0.0000 </r>
       <r>    1.1367    0.0000 </r>
       <r>    1.2535    0.0000 </r>
       <r>    1.4099    0.0000 </r>
       <r>    2.1389    0.0000 </r>
       <r>    2.2978    0.0000 </r>
       <r>    2.4026    0.0000 </r>
      </set>
      <set comment="kpoint 34">
       <r>  -17.4472    1.0000 </r>
       <r>  -17.3729    1.0000 </r>
       <r>  -16.7490    1.0000 </r>
       <r>  -16.7071    1.0000 </r>
       <r>  -16.5954    1.0000 </r>
       <r>  -16.4430    1.0000 </r>
       <r>  -16.2521    1.0000 </r>
       <r>  -16.1269    1.0000 </r>
       <r>  -16.0374    1.0000 </r>
       <r>  -15.9998    1.0000 </r>
       <r>  -15.9356    1.0000 </r>
       <r>  -15.8936    1.0000 </r>
       <r>  -15.8180    1.0000 </r>
       <r>  -15.7903    1.0000 </r>
       <r>  -15.6709    1.0000 </r>
       <r>  -15.5074    1.0000 </r>
       <r>  -15.4707    1.0000 </r>
       <r>  -15.3200    1.0000 </r>
       <r>   -9.7550    1.0000 </r>
       <r>   -9.2975    1.0000 </r>
       <r>   -9.1769    1.0000 </r>
       <r>   -9.0585    1.0000 </r>
       <r>   -8.9448    1.0000 </r>
       <r>   -8.7625    1.0000 </r>
       <r>   -8.5554    1.0000 </r>
       <r>   -8.4807    1.0000 </r>
       <r>   -8.4477    1.0000 </r>
       <r>   -8.3605    1.0000 </r>
       <r>   -8.2830    1.0000 </r>
       <r>   -8.2560    1.0000 </r>
       <r>   -8.2161    1.0000 </r>
       <r>   -8.0239    1.0000 </r>
       <r>   -7.9256    1.0000 </r>
       <r>   -7.8828    1.0000 </r>
       <r>   -7.7365    1.0000 </r>
       <r>   -7.6402    1.0000 </r>
       <r>   -7.5979    1.0000 </r>
       <r>   -7.5474    1.0000 </r>
       <r>   -7.3616    1.0000 </r>
       <r>   -7.2272    1.0000 </r>
       <r>   -7.1287    1.0000 </r>
       <r>   -7.0654    1.0000 </r>
       <r>   -7.0332    1.0000 </r>
       <r>   -6.9189    1.0000 </r>
       <r>   -6.9152    1.0000 </r>
       <r>   -6.7787    1.0000 </r>
       <r>   -6.6761    1.0000 </r>
       <r>   -6.6222    1.0000 </r>
       <r>   -6.5498    1.0000 </r>
       <r>   -6.4673    1.0000 </r>
       <r>   -6.4271    1.0000 </r>
       <r>   -6.3149    1.0000 </r>
       <r>   -6.2897    1.0000 </r>
       <r>   -6.2443    1.0000 </r>
       <r>   -6.1692    1.0000 </r>
       <r>   -6.0837    1.0000 </r>
       <r>   -6.0495    1.0000 </r>
       <r>   -5.9265    1.0000 </r>
       <r>   -5.8772    1.0000 </r>
       <r>   -5.7843    1.0000 </r>
       <r>   -5.6847    1.0000 </r>
       <r>   -5.5885    1.0000 </r>
       <r>   -5.5657    1.0000 </r>
       <r>   -5.4166    1.0000 </r>
       <r>   -5.2756    1.0000 </r>
       <r>   -5.1430    1.0000 </r>
       <r>   -4.8968    1.0000 </r>
       <r>   -4.8720    1.0000 </r>
       <r>   -4.8238    1.0000 </r>
       <r>   -4.7049    1.0000 </r>
       <r>   -4.5792    1.0000 </r>
       <r>   -4.4443    1.0000 </r>
       <r>   -4.2132    1.0000 </r>
       <r>   -4.1776    1.0000 </r>
       <r>   -4.1131    1.0000 </r>
       <r>   -3.8982    0.9999 </r>
       <r>   -3.8083    0.9991 </r>
       <r>   -3.6843    0.9880 </r>
       <r>   -3.6022    0.9532 </r>
       <r>   -3.4437    0.7108 </r>
       <r>   -2.9363    0.0012 </r>
       <r>   -2.7546    0.0000 </r>
       <r>   -2.6001    0.0000 </r>
       <r>   -2.5516    0.0000 </r>
       <r>   -2.3669    0.0000 </r>
       <r>   -2.2510    0.0000 </r>
       <r>   -2.0943    0.0000 </r>
       <r>   -1.9354    0.0000 </r>
       <r>   -1.8459    0.0000 </r>
       <r>   -1.7341    0.0000 </r>
       <r>   -1.6291    0.0000 </r>
       <r>   -1.5653    0.0000 </r>
       <r>   -1.4745    0.0000 </r>
       <r>   -1.4517    0.0000 </r>
       <r>   -1.2986    0.0000 </r>
       <r>   -1.2320    0.0000 </r>
       <r>   -1.1606    0.0000 </r>
       <r>   -1.0495    0.0000 </r>
       <r>   -1.0343    0.0000 </r>
       <r>   -0.9968    0.0000 </r>
       <r>   -0.9470    0.0000 </r>
       <r>   -0.8527    0.0000 </r>
       <r>   -0.7803    0.0000 </r>
       <r>   -0.7179    0.0000 </r>
       <r>   -0.4401    0.0000 </r>
       <r>   -0.3775    0.0000 </r>
       <r>   -0.1969    0.0000 </r>
       <r>   -0.0669    0.0000 </r>
       <r>    0.0735    0.0000 </r>
       <r>    0.2997    0.0000 </r>
       <r>    0.5278    0.0000 </r>
       <r>    0.6549    0.0000 </r>
       <r>    0.8412    0.0000 </r>
       <r>    0.9329    0.0000 </r>
       <r>    1.0991    0.0000 </r>
       <r>    1.2886    0.0000 </r>
       <r>    1.4741    0.0000 </r>
       <r>    2.2097    0.0000 </r>
       <r>    2.2680    0.0000 </r>
       <r>    2.3837    0.0000 </r>
      </set>
     </set>
    </set>
   </array>
  </eigenvalues>
  <separator name="orbital magnetization" >
   <v name="MAGDIPOLOUT">      0.00000000      0.00000000      0.00000000</v>
  </separator>
 </calculation>
 <structure name="finalpos" >
  <crystal>
   <varray name="basis" >
    <v>       8.33648616       4.81149981       0.00000000 </v>
    <v>      -8.33838124       4.81478347       0.00000000 </v>
    <v>       0.00000000       0.00000000      30.00000000 </v>
   </varray>
   <i name="volume">   2407.75486618 </i>
   <varray name="rec_basis" >
    <v>       0.05999095       0.10389406       0.00000000 </v>
    <v>      -0.05995004       0.10387045       0.00000000 </v>
    <v>       0.00000000       0.00000000       0.03333333 </v>
   </varray>
  </crystal>
  <varray name="positions" >
   <v>       0.66568839       0.03043431      -0.00005305 </v>
   <v>      -0.01733274       0.63122870      -0.00013359 </v>
   <v>       0.35066504       0.31517426       0.00022707 </v>
   <v>       0.98476510       0.33966581      -0.00049783 </v>
   <v>       0.66669601       0.32722458       0.00002629 </v>
   <v>       0.34807849       0.02103700       0.00052928 </v>
   <v>       0.03117402       0.03536494       0.00003941 </v>
   <v>       0.30289455       0.67241129      -0.00015747 </v>
   <v>       0.66674347       0.62995816       0.00000283 </v>
   <v>       0.12848449       0.23908661       0.94880505 </v>
   <v>       0.22997908       0.12090625       0.05555656 </v>
   <v>       0.10332481       0.55742809       0.94451627 </v>
   <v>       0.22770314       0.44338931       0.04504606 </v>
   <v>       0.10566033       0.88207245       0.95473324 </v>
   <v>       0.20471243       0.77734186       0.05130895 </v>
   <v>       0.44843827       0.22467593       0.94512760 </v>
   <v>       0.55720627       0.10835780       0.05524089 </v>
   <v>       0.44045609       0.55022905       0.95306821 </v>
   <v>       0.54918386       0.43228167       0.05500009 </v>
   <v>       0.44948226       0.89344799       0.94910652 </v>
   <v>       0.55557312       0.77948967       0.04214494 </v>
   <v>       0.77589924       0.21755157       0.94480581 </v>
   <v>       0.88357659       0.11021433       0.05057893 </v>
   <v>       0.78416460       0.54957485       0.94503864 </v>
   <v>       0.88474626       0.44288600       0.05494792 </v>
   <v>       0.77765037       0.89064808       0.95794396 </v>
   <v>       0.89260090       0.77613393       0.04704733 </v>
  </varray>
 </structure>
</modeling>
