unknown system                          
           1
     8.855783    5.105622    0.000000
    -8.855540    5.105205    0.000000
     0.000000    0.000000   30.000000
   V    Mo   W    S 
   3   3   3  18
Direct configuration=     1
   0.66666669  0.00000000  0.00000000
   0.00000000  0.66666669  0.00000000
   0.33333334  0.33333334  0.00000000
   1.00000000  0.33333334  0.00000000
   0.66666669  0.33333334  0.00000000
   0.33333334  0.00000000  0.00000000
   0.00000000  0.00000000  0.00000000
   0.33333334  0.66666669  0.00000000
   0.66666669  0.66666669  0.00000000
   0.11068511  0.22244981  0.95539999
   0.22244981  0.11068511  0.04460000
   0.11068511  0.55578315  0.95539999
   0.22244981  0.44401845  0.04460000
   0.11068511  0.88911647  0.95539999
   0.22244981  0.77735180  0.04460000
   0.44401845  0.22244981  0.95539999
   0.55578315  0.11068511  0.04460000
   0.44401845  0.55578315  0.95539999
   0.55578315  0.44401845  0.04460000
   0.44401845  0.88911647  0.95539999
   0.55578315  0.77735180  0.04460000
   0.77735180  0.22244981  0.95539999
   0.88911647  0.11068511  0.04460000
   0.77735180  0.55578315  0.95539999
   0.88911647  0.44401845  0.04460000
   0.77735180  0.88911647  0.95539999
   0.88911647  0.77735180  0.04460000
unknown system                          
           1
     8.668360    4.999746    0.000000
    -8.668145    4.999376    0.000000
     0.000000    0.000000   30.000000
   V    Mo   W    S 
   3   3   3  18
Direct configuration=     2
   0.66657272  0.00235445  0.00000300
  -0.00002253  0.66544075 -0.00000812
   0.33338523  0.33214841  0.00000495
   0.99858474  0.33340116  0.00006680
   0.66672229  0.33192590 -0.00000161
   0.33470216  0.00136282 -0.00006324
   0.00153229  0.00151270 -0.00004635
   0.33173994  0.66670211  0.00004814
   0.66671191  0.66510398 -0.00000368
   0.11514369  0.22343248  0.95191826
   0.22345438  0.11517192  0.04811985
   0.10949958  0.55842061  0.95194425
   0.22511419  0.44285326  0.04795779
   0.10825372  0.88460831  0.95196788
   0.21796725  0.77495035  0.04809211
   0.44188379  0.22457267  0.95198718
   0.55791314  0.10854886  0.04806506
   0.44251224  0.55157982  0.95190797
   0.55128050  0.44306324  0.04807048
   0.44853110  0.89011437  0.95192434
   0.55734854  0.78155654  0.04805385
   0.77542852  0.21753332  0.95187256
   0.88458288  0.10824552  0.04807387
   0.78186535  0.55825353  0.95191467
   0.89106861  0.44891189  0.04808360
   0.77558508  0.89085071  0.95202321
   0.89085315  0.77559477  0.04802307
unknown system                          
           1
     8.487114    4.899822    0.000000
    -8.487153    4.899892    0.000000
     0.000000    0.000000   30.000000
   V    Mo   W    S 
   3   3   3  18
Direct configuration=     3
   0.66657312  0.00310505  0.00000376
  -0.00002723  0.66506134 -0.00000388
   0.33338948  0.33177139 -0.00000007
   0.99816958  0.33340337  0.00011343
   0.66673152  0.33152240 -0.00000272
   0.33509034  0.00176098 -0.00010880
   0.00197660  0.00194355 -0.00010258
   0.33131814  0.66670505  0.00010591
   0.66670085  0.66467924 -0.00000502
   0.11513661  0.22327775  0.95193098
   0.22331249  0.11519328  0.04815919
   0.10967263  0.55858607  0.95189448
   0.22527436  0.44307256  0.04790653
   0.10805538  0.88463797  0.95202818
   0.21797781  0.77476465  0.04807914
   0.44185654  0.22463108  0.95192657
   0.55797327  0.10849903  0.04817054
   0.44253882  0.55169876  0.95198342
   0.55129092  0.44321782  0.04806641
   0.44853723  0.88994153  0.95193334
   0.55730672  0.78141536  0.04792556
   0.77533618  0.21739116  0.95177631
   0.88458196  0.10802852  0.04805940
   0.78185880  0.55843846  0.95192108
   0.89113071  0.44903712  0.04813741
   0.77566014  0.89076112  0.95214078
   0.89079147  0.77566983  0.04796055
unknown system                          
           1
     8.277654    4.777932    0.000000
    -8.278212    4.778901    0.000000
     0.000000    0.000000   30.000000
   V    Mo   W    S 
   3   3   3  18
Direct configuration=     4
   0.66657199  0.00582152  0.00000150
  -0.00006464  0.66364001  0.00000964
   0.33339439  0.33037483 -0.00001098
   0.99678174  0.33345720  0.00023228
   0.66674207  0.33017445 -0.00000312
   0.33637743  0.00314213 -0.00022794
   0.00344411  0.00331474 -0.00026846
   0.32990603  0.66663559  0.00027340
   0.66663681  0.66325715 -0.00000606
   0.11624588  0.22408753  0.95052016
   0.22400710  0.11636660  0.04978356
   0.10910323  0.55905898  0.95023406
   0.22578189  0.44264354  0.04914313
   0.10744262  0.88361113  0.95081805
   0.21690110  0.77435953  0.04949384
   0.44152329  0.22532905  0.95025846
   0.55853468  0.10797939  0.05002056
   0.44181597  0.55070413  0.95080232
   0.55021706  0.44246844  0.04951830
   0.44966644  0.89038365  0.95051691
   0.55790858  0.78237132  0.04888061
   0.77467866  0.21618187  0.94995727
   0.88348019  0.10723551  0.04945928
   0.78294417  0.55888552  0.95046976
   0.89159022  0.45021642  0.04978582
   0.77518190  0.89115172  0.95115133
   0.89140152  0.77536253  0.04918622
unknown system                          
           1
     8.265220    4.771765    0.000000
    -8.265611    4.772445    0.000000
     0.000000    0.000000   30.000000
   V    Mo   W    S 
   3   3   3  18
Direct configuration=     5
   0.66654393  0.01096383 -0.00000773
  -0.00033684  0.66072643  0.00002625
   0.33360458  0.32767762 -0.00001763
   0.99419239  0.33373798  0.00029045
   0.66670644  0.32784434  0.00000581
   0.33883604  0.00599991 -0.00029333
   0.00650565  0.00607342 -0.00042656
   0.32695600  0.66636001  0.00042262
   0.66650835  0.66003592  0.00000016
   0.11736160  0.22556352  0.94863696
   0.22511195  0.11756186  0.05199939
   0.10814212  0.55907269  0.94799334
   0.22565697  0.44179803  0.05074104
   0.10749972  0.88272832  0.94923313
   0.21583476  0.77472240  0.05138869
   0.44172419  0.22602024  0.94784544
   0.55899754  0.10779447  0.05267629
   0.44073554  0.54937494  0.94933533
   0.54923553  0.44101491  0.05151667
   0.45072436  0.89103317  0.94863651
   0.55856195  0.78365593  0.04996212
   0.77414972  0.21534545  0.94732354
   0.88243976  0.10682013  0.05133827
   0.78396049  0.55844700  0.94846617
   0.89151491  0.45092403  0.05217903
   0.77466464  0.89173237  0.95005300
   0.89238219  0.77518554  0.05067495
unknown system                          
           1
     8.269710    4.774222    0.000000
    -8.270126    4.774945    0.000000
     0.000000    0.000000   30.000000
   V    Mo   W    S 
   3   3   3  18
Direct configuration=     6
   0.66653490  0.01286922 -0.00000055
  -0.00088941  0.65925798  0.00006944
   0.33415041  0.32675959 -0.00006833
   0.99334088  0.33395494  0.00028628
   0.66674142  0.32776855  0.00000098
   0.33962152  0.00701148 -0.00028324
   0.00770346  0.00716028 -0.00047691
   0.32575867  0.66628940  0.00047707
   0.66650034  0.65817637 -0.00000552
   0.11733453  0.22606830  0.94852611
   0.22538617  0.11753593  0.05229783
   0.10785750  0.55877726  0.94771675
   0.22503446  0.44152150  0.05072024
   0.10812390  0.88305513  0.94925077
   0.21586986  0.77527031  0.05149002
   0.44220893  0.22596723  0.94753165
   0.55896613  0.10812233  0.05304891
   0.44044046  0.54918737  0.94935547
   0.54937329  0.44044906  0.05177076
   0.45055513  0.89115860  0.94852420
   0.55853855  0.78373570  0.04971391
   0.77418778  0.21572094  0.94694114
   0.88261237  0.10712995  0.05144497
   0.78383113  0.55773775  0.94823281
   0.89103870  0.45039644  0.05248951
   0.77469627  0.89181793  0.95030889
   0.89269710  0.77531492  0.05063673
unknown system                          
           1
     8.248473    4.761956    0.000000
    -8.248235    4.761547    0.000000
     0.000000    0.000000   30.000000
   V    Mo   W    S 
   3   3   3  18
Direct configuration=     7
   0.66653139  0.01335051 -0.00000129
  -0.00109740  0.65883048  0.00008057
   0.33436244  0.32652750 -0.00007812
   0.99315008  0.33399892  0.00027667
   0.66673025  0.32786271  0.00000180
   0.33980784  0.00726694 -0.00027484
   0.00808649  0.00753732 -0.00049501
   0.32541231  0.66629418  0.00049492
   0.66647699  0.65755049 -0.00000478
   0.11734107  0.22617087  0.94858503
   0.22542343  0.11752940  0.05228412
   0.10781843  0.55872872  0.94773171
   0.22491624  0.44147571  0.05062234
   0.10824956  0.88313382  0.94934387
   0.21586714  0.77537436  0.05143262
   0.44230254  0.22594496  0.94754091
   0.55895970  0.10821362  0.05304132
   0.44041339  0.54917667  0.94943789
   0.54939609  0.44035807  0.05177384
   0.45050419  0.89116267  0.94858043
   0.55853344  0.78370317  0.04956218
   0.77419868  0.21582198  0.94694715
   0.88266344  0.10719056  0.05138943
   0.78380500  0.55761506  0.94822788
   0.89093720  0.45027159  0.05248327
   0.77469895  0.89178780  0.95046420
   0.89272559  0.77533639  0.05055181
unknown system                          
           1
     8.278637    4.779074    0.000000
    -8.279391    4.780382    0.000000
     0.000000    0.000000   30.000000
   V    Mo   W    S 
   3   3   3  18
Direct configuration=     8
   0.66655462  0.01320045 -0.00000560
  -0.00082923  0.65919765  0.00007789
   0.33407079  0.32654747 -0.00006829
   0.99325611  0.33386772  0.00026551
   0.66656343  0.32741004  0.00000309
   0.33981821  0.00736486 -0.00026993
   0.00792564  0.00736006 -0.00047422
   0.32575067  0.66615306  0.00047210
   0.66632021  0.65806645  0.00000216
   0.11729122  0.22614448  0.94845218
   0.22546398  0.11755663  0.05239324
   0.10782101  0.55865696  0.94758997
   0.22486759  0.44143711  0.05079815
   0.10833743  0.88320569  0.94914994
   0.21600003  0.77544268  0.05158468
   0.44232591  0.22598334  0.94741694
   0.55894605  0.10817975  0.05319109
   0.44032374  0.54908240  0.94928440
   0.54941930  0.44031623  0.05181730
   0.45051341  0.89120502  0.94843769
   0.55849752  0.78380621  0.04977993
   0.77422270  0.21579237  0.94680216
   0.88264651  0.10724062  0.05154442
   0.78371554  0.55750234  0.94815183
   0.89087512  0.45020679  0.05263405
   0.77473614  0.89191340  0.95024919
   0.89278081  0.77537467  0.05072005
unknown system                          
           1
     8.270308    4.774040    0.000000
    -8.271327    4.775808    0.000000
     0.000000    0.000000   30.000000
   V    Mo   W    S 
   3   3   3  18
Direct configuration=     9
   0.66650533  0.01522685  0.00000068
  -0.00183227  0.65720428  0.00011394
   0.33511370  0.32563793 -0.00011288
   0.99232226  0.33421320  0.00026282
   0.66679263  0.32813655  0.00000357
   0.34054507  0.00816788 -0.00026203
   0.00946593  0.00888225 -0.00057027
   0.32403273  0.66636528  0.00057017
   0.66649818  0.65529537 -0.00000499
   0.11748674  0.22662068  0.94861231
   0.22562713  0.11761093  0.05242646
   0.10759585  0.55861976  0.94760440
   0.22458630  0.44127758  0.05044220
   0.10856892  0.88322691  0.94952078
   0.21568352  0.77567401  0.05140557
   0.44257977  0.22592881  0.94737802
   0.55899813  0.10846712  0.05322113
   0.44026641  0.54905536  0.94958043
   0.54936019  0.43996874  0.05197062
   0.45046657  0.89122964  0.94860111
   0.55860045  0.78370111  0.04916214
   0.77416361  0.21603598  0.94676030
   0.88270846  0.10730585  0.05136064
   0.78387879  0.55726771  0.94804075
   0.89067410  0.45002414  0.05264413
   0.77463357  0.89171370  0.95086728
   0.89289237  0.77535685  0.05040061
unknown system                          
           1
     8.271176    4.773859    0.000000
    -8.272715    4.776529    0.000000
     0.000000    0.000000   30.000000
   V    Mo   W    S 
   3   3   3  18
Direct configuration=    10
   0.66651998  0.01599622 -0.00000668
  -0.00205771  0.65658241  0.00013419
   0.33533270  0.32518812 -0.00012565
   0.99206759  0.33426006  0.00026247
   0.66668797  0.32808605  0.00000295
   0.34084461  0.00869198 -0.00025911
   0.01013799  0.00954143 -0.00059371
   0.32352449  0.66628559  0.00059349
   0.66635853  0.65443333 -0.00000934
   0.11759600  0.22686173  0.94854136
   0.22575219  0.11769617  0.05256392
   0.10750989  0.55854612  0.94746576
   0.22444457  0.44115128  0.05044133
   0.10874608  0.88330330  0.94950845
   0.21565878  0.77584036  0.05147006
   0.44268842  0.22596210  0.94723348
   0.55898741  0.10854939  0.05339789
   0.44015494  0.54893509  0.94956690
   0.54929070  0.43974508  0.05210329
   0.45045432  0.89127114  0.94854059
   0.55863032  0.78374534  0.04908641
   0.77416867  0.21612365  0.94659076
   0.88271384  0.10735270  0.05143184
   0.78387897  0.55708413  0.94790528
   0.89053737  0.44987648  0.05278609
   0.77462146  0.89171936  0.95096007
   0.89296438  0.77538585  0.05040780
unknown system                          
           1
     8.260659    4.769159    0.000000
    -8.261178    4.770061    0.000000
     0.000000    0.000000   30.000000
   V    Mo   W    S 
   3   3   3  18
Direct configuration=    11
   0.66649572  0.01754185 -0.00000345
  -0.00279014  0.65511883  0.00015987
   0.33608732  0.32444406 -0.00015305
   0.99141581  0.33440302  0.00025905
   0.66672542  0.32849068  0.00000429
   0.34142807  0.00939069 -0.00025751
   0.01138350  0.01085456 -0.00066644
   0.32230917  0.66644899  0.00066705
   0.66636155  0.65235473 -0.00000917
   0.11778273  0.22722113  0.94862018
   0.22586690  0.11776447  0.05261509
   0.10738383  0.55850819  0.94741845
   0.22430762  0.44106781  0.05021111
   0.10887511  0.88333015  0.94972919
   0.21544207  0.77600561  0.05140135
   0.44285540  0.22594781  0.94717109
   0.55902668  0.10873976  0.05346077
   0.44012061  0.54891181  0.94975872
   0.54921375  0.43950548  0.05224370
   0.45044570  0.89126344  0.94861816
   0.55869991  0.78365992  0.04867121
   0.77413212  0.21627381  0.94652236
   0.88272661  0.10736145  0.05134277
   0.78398330  0.55692662  0.94776605
   0.89037939  0.44972837  0.05285572
   0.77455081  0.89156295  0.95137627
   0.89300551  0.77538827  0.05021708
unknown system                          
           1
     8.279502    4.778092    0.000000
    -8.281787    4.782053    0.000000
     0.000000    0.000000   30.000000
   V    Mo   W    S 
   3   3   3  18
Direct configuration=    12
   0.66652079  0.01629592 -0.00000642
  -0.00199856  0.65652181  0.00014256
   0.33528029  0.32509154 -0.00013400
   0.99189890  0.33424007  0.00025752
   0.66667252  0.32790082  0.00000324
   0.34102342  0.00888873 -0.00025633
   0.01026539  0.00960709 -0.00060642
   0.32344820  0.66618883  0.00060888
   0.66630195  0.65424140 -0.00000699
   0.11751997  0.22680787  0.94855799
   0.22575410  0.11769037  0.05257758
   0.10750921  0.55852895  0.94746734
   0.22433890  0.44113649  0.05043649
   0.10885741  0.88340523  0.94952229
   0.21575488  0.77587269  0.05143433
   0.44273039  0.22595328  0.94721293
   0.55900859  0.10857517  0.05341379
   0.44011893  0.54891048  0.94956837
   0.54936078  0.43976625  0.05208423
   0.45040877  0.89129425  0.94856237
   0.55859518  0.78375199  0.04905400
   0.77415148  0.21613328  0.94657521
   0.88275500  0.10740907  0.05141978
   0.78379790  0.55702688  0.94793431
   0.89048928  0.44981200  0.05279190
   0.77466763  0.89175730  0.95100035
   0.89298316  0.77540669  0.05038460
unknown system                          
           1
     8.276002    4.775705    0.000000
    -8.278659    4.780309    0.000000
     0.000000    0.000000   30.000000
   V    Mo   W    S 
   3   3   3  18
Direct configuration=    13
   0.66649497  0.01851458 -0.00000567
  -0.00310228  0.65434657  0.00017852
   0.33640251  0.32401742 -0.00017098
   0.99101450  0.33445244  0.00025034
   0.66671615  0.32849241  0.00000304
   0.34181783  0.00990616 -0.00024903
   0.01213921  0.01158443 -0.00068626
   0.32166028  0.66639048  0.00069086
   0.66626087  0.65126680 -0.00001259
   0.11791984  0.22751788  0.94854553
   0.22598599  0.11784718  0.05277020
   0.10727721  0.55846321  0.94728711
   0.22414919  0.44091551  0.05019159
   0.10903911  0.88335116  0.94975579
   0.21533825  0.77617921  0.05144939
   0.44298939  0.22598450  0.94700927
   0.55905785  0.10882632  0.05362824
   0.44001085  0.54880278  0.94975464
   0.54911735  0.43925962  0.05241279
   0.45048840  0.89132215  0.94858266
   0.55878505  0.78373792  0.04852338
   0.77409512  0.21632983  0.94635786
   0.88268028  0.10735743  0.05138809
   0.78405715  0.55677491  0.94761673
   0.89024239  0.44961606  0.05299649
   0.77449002  0.89155111  0.95154269
   0.89308698  0.77540639  0.05018922
unknown system                          
           1
     8.271645    4.772137    0.000000
    -8.275274    4.778425    0.000000
     0.000000    0.000000   30.000000
   V    Mo   W    S 
   3   3   3  18
Direct configuration=    14
   0.66648601  0.01919109 -0.00000569
  -0.00343282  0.65366771  0.00019057
   0.33673678  0.32367706 -0.00018261
   0.99075437  0.33452507  0.00025129
   0.66672703  0.32862970  0.00000351
   0.34205715  0.01022639 -0.00025041
   0.01273886  0.01221791 -0.00071661
   0.32109893  0.66644319  0.00072312
   0.66623452  0.65039592 -0.00001383
   0.11801561  0.22768482  0.94856197
   0.22603804  0.11787943  0.05280695
   0.10722809  0.55844403  0.94725602
   0.22410374  0.44089312  0.05009805
   0.10908256  0.88337132  0.94984828
   0.21524241  0.77625063  0.05142944
   0.44306432  0.22598004  0.94697256
   0.55906150  0.10889556  0.05366744
   0.44000460  0.54879380  0.94982938
   0.54906917  0.43914221  0.05248171
   0.45049688  0.89132026  0.94861179
   0.55881855  0.78370586  0.04834779
   0.77408932  0.21639368  0.94631784
   0.88267322  0.10734461  0.05135778
   0.78410615  0.55670864  0.94755156
   0.89017039  0.44954250  0.05303147
   0.77446236  0.89148404  0.95172376
   0.89308670  0.77540585  0.05010677
unknown system                          
           1
     8.274022    4.773011    0.000000
    -8.278033    4.779960    0.000000
     0.000000    0.000000   30.000000
   V    Mo   W    S 
   3   3   3  18
Direct configuration=    15
   0.66646377  0.02091412 -0.00000610
  -0.00435803  0.65185597  0.00022064
   0.33767476  0.32277134 -0.00021023
   0.99011272  0.33470444  0.00025334
   0.66673890  0.32909202  0.00000534
   0.34264450  0.01101685 -0.00025287
   0.01429904  0.01392044 -0.00079472
   0.31962563  0.66665982  0.00080383
   0.66618836  0.64806996 -0.00001742
   0.11831291  0.22817261  0.94860168
   0.22618241  0.11797027  0.05290300
   0.10709348  0.55839305  0.94716621
   0.22402321  0.44083527  0.04984457
   0.10916283  0.88338988  0.95009039
   0.21494486  0.77643902  0.05139265
   0.44325580  0.22597115  0.94687517
   0.55906502  0.10908405  0.05376652
   0.43998955  0.54877635  0.95003469
   0.54891928  0.43881726  0.05268112
   0.45052125  0.89129951  0.94867737
   0.55891433  0.78360462  0.04788446
   0.77408130  0.21657287  0.94621665
   0.88265204  0.10730019  0.05128425
   0.78425827  0.55653796  0.94735452
   0.88998382  0.44935378  0.05313244
   0.77437608  0.89128425  0.95219724
   0.89308837  0.77540740  0.04989515
unknown system                          
           1
     8.288841    4.780707    0.000000
    -8.293535    4.788840    0.000000
     0.000000    0.000000   30.000000
   V    Mo   W    S 
   3   3   3  18
Direct configuration=    16
   0.66646428  0.02146437 -0.00000704
  -0.00469377  0.65122192  0.00023074
   0.33801377  0.32244232 -0.00021782
   0.98994944  0.33477389  0.00025016
   0.66670120  0.32924928  0.00000568
   0.34281136  0.01132154 -0.00025067
   0.01487660  0.01454853 -0.00081190
   0.31912889  0.66670697  0.00082187
   0.66612711  0.64728425 -0.00001896
   0.11845916  0.22840477  0.94858324
   0.22625683  0.11802058  0.05296584
   0.10703358  0.55836121  0.94710259
   0.22400033  0.44079140  0.04977773
   0.10919443  0.88338477  0.95015077
   0.21481852  0.77653094  0.05141169
   0.44333829  0.22598377  0.94681502
   0.55905125  0.10915778  0.05383184
   0.43996435  0.54875322  0.95008546
   0.54883774  0.43865616  0.05277655
   0.45052966  0.89128853  0.94867694
   0.55895497  0.78357551  0.04774245
   0.77409470  0.21665722  0.94615220
   0.88264128  0.10728209  0.05128499
   0.78432550  0.55645197  0.94725714
   0.88989642  0.44927003  0.05319686
   0.77434157  0.89121054  0.95234701
   0.89309702  0.77542089  0.04983954
unknown system                          
           1
     8.283917    4.776043    0.000000
    -8.290518    4.787480    0.000000
     0.000000    0.000000   30.000000
   V    Mo   W    S 
   3   3   3  18
Direct configuration=    17
   0.66643420  0.02201546 -0.00000397
  -0.00504640  0.65068184  0.00023328
   0.33837069  0.32224754 -0.00022408
   0.98964424  0.33476113  0.00024530
   0.66675186  0.32943066  0.00000619
   0.34306817  0.01147981 -0.00024818
   0.01523913  0.01498022 -0.00082442
   0.31871626  0.66687850  0.00083148
   0.66620503  0.64657118 -0.00001469
   0.11855395  0.22860244  0.94855724
   0.22627625  0.11802289  0.05303259
   0.10699437  0.55836046  0.94703514
   0.22399366  0.44073398  0.04973460
   0.10918215  0.88328370  0.95019051
   0.21466695  0.77661905  0.05145211
   0.44338322  0.22597439  0.94673773
   0.55908382  0.10917045  0.05389921
   0.43994151  0.54874583  0.95011695
   0.54875478  0.43855606  0.05288925
   0.45062363  0.89130591  0.94865646
   0.55904941  0.78363465  0.04762384
   0.77406463  0.21664081  0.94607906
   0.88255068  0.10721305  0.05129196
   0.78445872  0.55645148  0.94714141
   0.88986745  0.44926453  0.05328293
   0.77423828  0.89117959  0.95245746
   0.89314781  0.77540883  0.04982053
unknown system                          
           1
     8.289435    4.777801    0.000000
    -8.297172    4.791204    0.000000
     0.000000    0.000000   30.000000
   V    Mo   W    S 
   3   3   3  18
Direct configuration=    18
   0.66640909  0.02391787 -0.00000955
  -0.00629580  0.64827997  0.00026349
   0.33961554  0.32110197 -0.00024842
   0.98898095  0.33512539  0.00025101
   0.66677503  0.32989027  0.00000800
   0.34369383  0.01247036 -0.00024881
   0.01721897  0.01716303 -0.00090164
   0.31681361  0.66714112  0.00091480
   0.66614876  0.64408959 -0.00003029
   0.11910287  0.22937494  0.94856950
   0.22652054  0.11817020  0.05318268
   0.10678141  0.55827103  0.94690318
   0.22400441  0.44073605  0.04938421
   0.10918463  0.88330046  0.95052698
   0.21415224  0.77684622  0.05143120
   0.44369504  0.22597082  0.94659992
   0.55901478  0.10942598  0.05402122
   0.43992377  0.54871400  0.95040507
   0.54848562  0.43797479  0.05315573
   0.45065683  0.89128716  0.94875251
   0.55912893  0.78344958  0.04700841
   0.77411439  0.21695074  0.94596150
   0.88252547  0.10715057  0.05118853
   0.78469318  0.55614200  0.94688970
   0.88955922  0.44894281  0.05340971
   0.77418588  0.89091022  0.95309526
   0.89312526  0.77541731  0.04951602
unknown system                          
           1
     8.297034    4.777690    0.000000
    -8.309329    4.798988    0.000000
     0.000000    0.000000   30.000000
   V    Mo   W    S 
   3   3   3  18
Direct configuration=    19
   0.66638337  0.02518540 -0.00000940
  -0.00730264  0.64653995  0.00027119
   0.34062145  0.32030939 -0.00025181
   0.98849578  0.33539541  0.00023816
   0.66673973  0.33014286  0.00001027
   0.34417083  0.01324806 -0.00023904
   0.01862777  0.01873527 -0.00093324
   0.31548695  0.66737720  0.00094699
   0.66610539  0.64237740 -0.00003120
   0.11959001  0.23006325  0.94854648
   0.22672191  0.11828027  0.05333055
   0.10660281  0.55818345  0.94675703
   0.22407869  0.44073030  0.04913599
   0.10912554  0.88323083  0.95075949
   0.21367366  0.77705198  0.05146411
   0.44397338  0.22596312  0.94645668
   0.55894463  0.10960029  0.05414139
   0.43987367  0.54867057  0.95060624
   0.54826963  0.43750222  0.05337208
   0.45070305  0.89128433  0.94880031
   0.55918769  0.78333961  0.04656762
   0.77418506  0.21719369  0.94584090
   0.88247929  0.10710807  0.05113039
   0.78490961  0.55587839  0.94666703
   0.88928008  0.44865659  0.05356280
   0.77413681  0.89073474  0.95354526
   0.89315030  0.77543179  0.04931361
unknown system                          
           1
     8.316305    4.788546    0.000000
    -8.327849    4.808538    0.000000
     0.000000    0.000000   30.000000
   V    Mo   W    S 
   3   3   3  18
Direct configuration=    20
   0.66626129  0.03013495 -0.00002382
  -0.01186493  0.63880210  0.00026870
   0.34506140  0.31714623 -0.00023291
   0.98647018  0.33704939  0.00015788
   0.66688685  0.33095600  0.00001396
   0.34611459  0.01662026 -0.00014933
   0.02461371  0.02547901 -0.00103808
   0.30952260  0.66845466  0.00106185
   0.66614560  0.63557709 -0.00006779
   0.12203551  0.23332592  0.94848558
   0.22771635  0.11875877  0.05403512
   0.10566648  0.55776800  0.94611809
   0.22460440  0.44087993  0.04793189
   0.10863365  0.88283026  0.95192175
   0.21120899  0.77786193  0.05152663
   0.44550143  0.22583266  0.94577086
   0.55845545  0.11034345  0.05464455
   0.43966048  0.54849235  0.95156656
   0.54744660  0.43526582  0.05428638
   0.45077326  0.89137405  0.94907277
   0.55921524  0.78265915  0.04457002
   0.77461890  0.21839677  0.94535128
   0.88244061  0.10711973  0.05080707
   0.78576163  0.55448317  0.94579675
   0.88781574  0.44713033  0.05421019
   0.77416577  0.89001258  0.95558799
   0.89328265  0.77545988  0.04832595
unknown system                          
           1
     8.308885    4.785304    0.000000
    -8.319860    4.804313    0.000000
     0.000000    0.000000   30.000000
   V    Mo   W    S 
   3   3   3  18
Direct configuration=    21
   0.66621861  0.02995492 -0.00001229
  -0.01225652  0.63848821  0.00019831
   0.34547630  0.31710923 -0.00016111
   0.98640455  0.33740827  0.00008821
   0.66674902  0.33046026  0.00001842
   0.34628897  0.01721799 -0.00010330
   0.02506081  0.02599111 -0.00094076
   0.30920072  0.66855516  0.00095363
   0.66608358  0.63540860 -0.00002746
   0.12272770  0.23409640  0.94844384
   0.22789997  0.11885792  0.05418763
   0.10547567  0.55766371  0.94593074
   0.22489401  0.44093134  0.04775438
   0.10835268  0.88257786  0.95209193
   0.21045487  0.77796994  0.05160629
   0.44594631  0.22573760  0.94560804
   0.55831697  0.11039921  0.05474583
   0.43960126  0.54845368  0.95167439
   0.54744922  0.43487874  0.05437920
   0.45066505  0.89146395  0.94908920
   0.55896408  0.78246293  0.04436953
   0.77480538  0.21861575  0.94523917
   0.88253233  0.10734757  0.05078059
   0.78583541  0.55404817  0.94564638
   0.88733552  0.44658337  0.05443737
   0.77439905  0.89006968  0.95577645
   0.89333293  0.77546290  0.04822526
unknown system                          
           1
     8.313729    4.788656    0.000000
    -8.324258    4.806893    0.000000
     0.000000    0.000000   30.000000
   V    Mo   W    S 
   3   3   3  18
Direct configuration=    22
   0.66618966  0.03029892 -0.00001842
  -0.01284538  0.63755791  0.00018986
   0.34602573  0.31678430 -0.00015184
   0.98618046  0.33776935  0.00006908
   0.66677054  0.33034767  0.00001666
   0.34652016  0.01775261 -0.00006995
   0.02583305  0.02693124 -0.00094207
   0.30837871  0.66877579  0.00095826
   0.66614561  0.63468137 -0.00004662
   0.12318118  0.23451534  0.94851359
   0.22804506  0.11895456  0.05427204
   0.10534657  0.55763793  0.94585011
   0.22507358  0.44105924  0.04751640
   0.10818685  0.88252450  0.95232389
   0.21001368  0.77794044  0.05153237
   0.44623935  0.22567384  0.94555436
   0.55819402  0.11040625  0.05477307
   0.43962541  0.54847312  0.95184028
   0.54749615  0.43460837  0.05443027
   0.45056669  0.89153174  0.94915704
   0.55875945  0.78224751  0.04410537
   0.77491651  0.21873456  0.94521757
   0.88264246  0.10751204  0.05070030
   0.78576390  0.55373236  0.94561364
   0.88705394  0.44623757  0.05448101
   0.77460457  0.89006863  0.95604673
   0.89330656  0.77545728  0.04806691
unknown system                          
           1
     8.322753    4.795269    0.000000
    -8.331991    4.811270    0.000000
     0.000000    0.000000   30.000000
   V    Mo   W    S 
   3   3   3  18
Direct configuration=    23
   0.66616200  0.03052924 -0.00002288
  -0.01341718  0.63672918  0.00016964
   0.34658128  0.31653424 -0.00012813
   0.98597247  0.33812840  0.00003185
   0.66676832  0.33009362  0.00001806
   0.34675645  0.01830560 -0.00002775
   0.02652434  0.02779213 -0.00089331
   0.30765532  0.66899094  0.00090608
   0.66618771  0.63408272 -0.00005022
   0.12375449  0.23508305  0.94854233
   0.22820602  0.11908609  0.05440247
   0.10519804  0.55761842  0.94571909
   0.22530053  0.44116180  0.04729104
   0.10797463  0.88239947  0.95254266
   0.20943868  0.77794425  0.05150858
   0.44656917  0.22560445  0.94546346
   0.55806067  0.11034684  0.05483174
   0.43962944  0.54851075  0.95197523
   0.54755908  0.43430802  0.05450662
   0.45045813  0.89163148  0.94919577
   0.55851060  0.78202967  0.04387472
   0.77505323  0.21880371  0.94516598
   0.88275226  0.10771911  0.05064912
   0.78569332  0.55335238  0.94553612
   0.88672136  0.44583629  0.05457097
   0.77484852  0.89011145  0.95627890
   0.89329557  0.77548117  0.04794176
unknown system                          
           1
     8.333933    4.803065    0.000000
    -8.341684    4.816489    0.000000
     0.000000    0.000000   30.000000
   V    Mo   W    S 
   3   3   3  18
Direct configuration=    24
   0.66604363  0.03115432 -0.00003222
  -0.01526471  0.63371576  0.00006604
   0.34829740  0.31557555 -0.00002758
   0.98549361  0.33957473 -0.00011895
   0.66702688  0.32930941  0.00001976
   0.34730085  0.01989202  0.00011938
   0.02891622  0.03082757 -0.00071620
   0.30503028  0.66976154  0.00071119
   0.66649871  0.63218130 -0.00003105
   0.12558060  0.23682194  0.94869391
   0.22872875  0.11954620  0.05480701
   0.10456972  0.55757672  0.94533101
   0.22602972  0.44168476  0.04646498
   0.10720127  0.88202250  0.95338732
   0.20743421  0.77790060  0.05137846
   0.44763629  0.22528663  0.94521286
   0.55757164  0.10998959  0.05499387
   0.43978459  0.54886983  0.95246011
   0.54792779  0.43342128  0.05471500
   0.45002469  0.89200918  0.94934053